                         Program Version 4.2.1 -  RELEASE  -
|  1> %pal
|  2>  nprocs 32
|  3> end
|  4> !RI-MP2 aug-cc-pVTZ aug-cc-pVTZ/C TightSCF
|  5> %maxcore 4500
|  6> *xyzfile 0 1  02_22P.xyz
|  7>
|  8>
|  9>                          ****END OF INPUT****

CARTESIAN COORDINATES (ANGSTROEM)
---------------------------------
  C     -0.665375    0.359333    2.691658
  C     -1.142290   -0.409798    1.457814
  C     -2.261116    0.199650    0.663999
  C     -2.261116    0.199650   -0.663999
  C     -1.142290   -0.409798   -1.457814
  C      0.137421   -0.495656   -0.660150
  C      1.296213   -0.328873   -1.605023
  N      0.663012   -0.193200   -2.916472
  H      1.994259   -1.171509   -1.600087
  H      1.871278    0.575762   -1.332402
  C      0.137421   -0.495656    0.660150
  C     -0.665375    0.359333   -2.691658
  H     -0.632155    1.441429   -2.466371
  H     -1.296178    0.212223   -3.571156
  C      1.296213   -0.328873    1.605023
  N      0.663012   -0.193200    2.916472
  H      1.871278    0.575762    1.332402
  H      1.994259   -1.171509    1.600087
  C      1.458095    0.509726    3.892486
  H      2.410491   -0.004446    4.037927
  H      0.938364    0.529816    4.852427
  H      1.672767    1.551540    3.593281
  C      1.458095    0.509726   -3.892486
  H      2.410491   -0.004446   -4.037927
  H      1.672767    1.551540   -3.593281
  H      0.938364    0.529816   -4.852427
  H     -1.296178    0.212223    3.571156
  H     -0.632155    1.441429    2.466371
  H     -3.097536    0.623981    1.211180
  H     -3.097536    0.623981   -1.211180
  H     -1.440070   -1.412684    1.791573
  H     -1.440070   -1.412684   -1.791573

 Total Charge           Charge          ....    0
 Multiplicity           Mult            ....    1
 Number of Electrons    NEL             ....  104
 Basis Dimension        Dim             .... 1058

ORBITAL ENERGIES
----------------

  NO   OCC          E(Eh)            E(eV)
   0   2.0000     -15.544150      -422.9778
   1   2.0000     -15.544149      -422.9778
   2   2.0000     -11.249214      -306.1067
   3   2.0000     -11.249208      -306.1065
   4   2.0000     -11.246384      -306.0297
   5   2.0000     -11.246384      -306.0297
   6   2.0000     -11.241915      -305.9081
   7   2.0000     -11.241915      -305.9081
   8   2.0000     -11.229068      -305.5585
   9   2.0000     -11.229065      -305.5584
  10   2.0000     -11.224757      -305.4412
  11   2.0000     -11.222986      -305.3930
  12   2.0000     -11.220175      -305.3165
  13   2.0000     -11.218321      -305.2660
  14   2.0000      -1.248507       -33.9736
  15   2.0000      -1.241994       -33.7964
  16   2.0000      -1.128885       -30.7185
  17   2.0000      -1.044411       -28.4199
  18   2.0000      -1.042173       -28.3590
  19   2.0000      -0.976027       -26.5590
  20   2.0000      -0.967572       -26.3290
  21   2.0000      -0.923322       -25.1249
  22   2.0000      -0.902813       -24.5668
  23   2.0000      -0.813139       -22.1266
  24   2.0000      -0.801853       -21.8195
  25   2.0000      -0.793285       -21.5864
  26   2.0000      -0.762968       -20.7614
  27   2.0000      -0.679149       -18.4806
  28   2.0000      -0.674684       -18.3591
  29   2.0000      -0.672369       -18.2961
  30   2.0000      -0.637034       -17.3346
  31   2.0000      -0.626204       -17.0399
  32   2.0000      -0.616165       -16.7667
  33   2.0000      -0.610581       -16.6148
  34   2.0000      -0.593099       -16.1390
  35   2.0000      -0.581864       -15.8333
  36   2.0000      -0.565257       -15.3814
  37   2.0000      -0.548607       -14.9284
  38   2.0000      -0.544268       -14.8103
  39   2.0000      -0.539829       -14.6895
  40   2.0000      -0.530821       -14.4444
  41   2.0000      -0.509184       -13.8556
  42   2.0000      -0.504464       -13.7272
  43   2.0000      -0.502388       -13.6707
  44   2.0000      -0.494505       -13.4562
  45   2.0000      -0.480492       -13.0749
  46   2.0000      -0.472402       -12.8547
  47   2.0000      -0.430407       -11.7120
  48   2.0000      -0.358963        -9.7679
  49   2.0000      -0.350994        -9.5510
  50   2.0000      -0.350815        -9.5462
  51   2.0000      -0.323449        -8.8015
  52   0.0000       0.028359         0.7717
  53   0.0000       0.031097         0.8462
  54   0.0000       0.032652         0.8885
  55   0.0000       0.037124         1.0102
  56   0.0000       0.041925         1.1408

MULLIKEN ATOMIC CHARGES
-----------------------
   0 C :   -0.422216
   1 C :    0.034496
   2 C :   -0.932609
   3 C :   -0.932582
   4 C :    0.034422
   5 C :    0.913387
   6 C :   -0.605186
   7 N :   -0.357133
   8 H :    0.245948
   9 H :    0.131515
  10 C :    0.913310
  11 C :   -0.422222
  12 H :    0.278378
  13 H :    0.319956
  14 C :   -0.605129
  15 N :   -0.357140
  16 H :    0.131521
  17 H :    0.245957
  18 C :   -1.193936
  19 H :    0.306998
  20 H :    0.316510
  21 H :    0.323093
  22 C :   -1.193935
  23 H :    0.306998
  24 H :    0.323093
  25 H :    0.316509
  26 H :    0.319966
  27 H :    0.278376
  28 H :    0.407706
  29 H :    0.407718
  30 H :    0.233124
  31 H :    0.233109
Sum of atomic charges:   -0.0000000

LOEWDIN ATOMIC CHARGES
----------------------
   0 C :    0.174051
   1 C :   -0.019196
   2 C :    0.261947
   3 C :    0.261947
   4 C :   -0.019196
   5 C :   -0.028658
   6 C :    0.184030
   7 N :    0.261358
   8 H :   -0.130351
   9 H :   -0.130652
  10 C :   -0.028658
  11 C :    0.174051
  12 H :   -0.119933
  13 H :   -0.129539
  14 C :    0.184030
  15 N :    0.261358
  16 H :   -0.130652
  17 H :   -0.130351
  18 C :    0.448633
  19 H :   -0.163838
  20 H :   -0.165497
  21 H :   -0.154731
  22 C :    0.448633
  23 H :   -0.163838
  24 H :   -0.154731
  25 H :   -0.165497
  26 H :   -0.129539
  27 H :   -0.119933
  28 H :   -0.170427
  29 H :   -0.170427
  30 H :   -0.117198
  31 H :   -0.117198

  Mayer bond orders larger than 0.100000
B(  0-C ,  1-C ) :   0.9977 B(  0-C ,  5-C ) :  -0.1411 B(  0-C , 14-C ) :   0.1245
B(  0-C , 15-N ) :   0.8101 B(  0-C , 26-H ) :   0.9304 B(  0-C , 27-H ) :   1.0094
B(  1-C ,  2-C ) :   0.4782 B(  1-C ,  5-C ) :   0.1745 B(  1-C , 10-C ) :   0.7498
B(  1-C , 30-H ) :   0.9996 B(  2-C ,  3-C ) :   1.4409 B(  2-C ,  5-C ) :  -0.2985
B(  2-C , 10-C ) :   0.5429 B(  2-C , 28-H ) :   0.8765 B(  2-C , 29-H ) :  -0.1160
B(  3-C ,  4-C ) :   0.4782 B(  3-C ,  5-C ) :   0.5428 B(  3-C , 10-C ) :  -0.2985
B(  3-C , 28-H ) :  -0.1161 B(  3-C , 29-H ) :   0.8765 B(  4-C ,  5-C ) :   0.7499
B(  4-C , 10-C ) :   0.1744 B(  4-C , 11-C ) :   0.9977 B(  4-C , 31-H ) :   0.9996
B(  5-C ,  6-C ) :   0.5906 B(  5-C , 10-C ) :   2.4562 B(  5-C , 14-C ) :  -0.2644
B(  6-C ,  7-N ) :   0.4934 B(  6-C ,  8-H ) :   1.0867 B(  6-C ,  9-H ) :   1.2750
B(  6-C , 10-C ) :  -0.2643 B(  6-C , 11-C ) :   0.1244 B(  6-C , 14-C ) :   0.1233
B(  7-N ,  9-H ) :  -0.1018 B(  7-N , 11-C ) :   0.8102 B(  7-N , 22-C ) :   1.1192
B( 10-C , 11-C ) :  -0.1411 B( 10-C , 14-C ) :   0.5907 B( 11-C , 12-H ) :   1.0094
B( 11-C , 13-H ) :   0.9304 B( 14-C , 15-N ) :   0.4934 B( 14-C , 16-H ) :   1.2750
B( 14-C , 17-H ) :   1.0867 B( 15-N , 16-H ) :  -0.1018 B( 15-N , 18-C ) :   1.1192
B( 18-C , 19-H ) :   0.9770 B( 18-C , 20-H ) :   0.9672 B( 18-C , 21-H ) :   0.9139
B( 22-C , 23-H ) :   0.9770 B( 22-C , 24-H ) :   0.9139 B( 22-C , 25-H ) :   0.9672

MP2 TOTAL ENERGY:     -576.366333769 Eh
FINAL SINGLE POINT ENERGY      -576.366333768620

DIPOLE MOMENT
-------------
                                X             Y             Z
Electronic contribution:     -4.88849      -4.34028      -0.00000
Nuclear contribution   :      4.97842       4.81392      -0.00000
                        -----------------------------------------
Total Dipole Moment    :      0.08993       0.47363      -0.00000
                        -----------------------------------------
Magnitude (a.u.)       :      0.48210
Magnitude (Debye)      :      1.22539

Rotational constants in cm-1:     0.045255     0.015126     0.012010
Rotational constants in MHz :  1356.701526   453.460241   360.058622

                             ****ORCA TERMINATED NORMALLY****
TOTAL RUN TIME: 0 days 0 hours 20 minutes 34 seconds 376 msec
