                         Program Version 4.2.1 -  RELEASE  -
|  1> %pal
|  2>  nprocs 32
|  3> end
|  4> !RI-MP2 aug-cc-pVTZ aug-cc-pVTZ/C TightSCF
|  5> %maxcore 4500
|  6> *xyzfile 0 1  10_45TS.xyz
|  7>
|  8>
|  9>                          ****END OF INPUT****

CARTESIAN COORDINATES (ANGSTROEM)
---------------------------------
  C      0.135774   -2.358284   -0.449993
  H     -0.227450   -2.944753   -1.314959
  C      1.254932   -1.441691   -0.885563
  C     -0.231289    0.523174   -0.612949
  H     -0.410239    1.093656    0.297400
  H     -0.344500    1.212395   -1.450293
  C     -1.331639   -0.537186   -0.710317
  H     -1.382067   -0.903398   -1.754548
  N     -0.959288   -1.640007    0.165089
  C      2.282751    0.652418   -0.140017
  C      2.423061   -2.007484   -1.361153
  H      2.923582   -1.492721   -2.163489
  H      2.516113   -3.090597   -1.392965
  C      3.415123   -0.036838    0.337766
  C      4.041720   -1.186072   -0.121360
  C      1.166123   -0.064962   -0.632971
  H      4.441540   -1.184232   -1.119833
  H      3.752124    0.306434    1.315712
  C      4.829312   -2.044313    0.836086
  H      4.781844   -3.094699    0.541354
  H      5.887780   -1.762854    0.843968
  H      4.444420   -1.967648    1.854225
  C     -2.062791   -2.515142    0.504922
  H     -2.543493   -2.930875   -0.400097
  H     -1.667611   -3.357673    1.077046
  C     -2.684232    0.058405   -0.376117
  C     -3.507851   -0.497898    0.601538
  C     -3.079244   -1.746070    1.326236
  H     -2.628738   -1.483096    2.288213
  H     -3.951209   -2.371257    1.534366
  H      0.541714   -3.075360    0.272334
  C     -4.736984    0.097779    0.879532
  H     -5.373892   -0.342981    1.639344
  C     -3.124486    1.184568   -1.071862
  H     -2.501573    1.609028   -1.850709
  C     -5.157463    1.226822    0.199084
  H     -6.116714    1.675200    0.428052
  C     -4.346436    1.769874   -0.789860
  H     -4.668065    2.644709   -1.341995
  C      2.214629    2.141957    0.300256
  C      1.674614    2.259975    1.734985
  H      0.669809    1.847836    1.831036
  H      2.318052    1.728389    2.439322
  H      1.639182    3.309424    2.040627
  C      1.378541    3.022489   -0.647727
  H      1.576454    2.774455   -1.693273
  H      0.309015    2.951266   -0.472736
  H      1.655823    4.068352   -0.498689
  C      3.631312    2.750420    0.267679
  H      4.054704    2.691328   -0.737644
  H      4.321923    2.254568    0.948166
  H      3.583618    3.803500    0.555283

 Total Charge           Charge          ....    0
 Multiplicity           Mult            ....    1
 Number of Electrons    NEL             ....  168
 Basis Dimension        Dim             .... 1725

ORBITAL ENERGIES
----------------

  NO   OCC          E(Eh)            E(eV)
   0   2.0000     -15.543014      -422.9469
   1   2.0000     -11.256165      -306.2958
   2   2.0000     -11.247904      -306.0710
   3   2.0000     -11.246669      -306.0374
   4   2.0000     -11.238944      -305.8272
   5   2.0000     -11.237861      -305.7977
   6   2.0000     -11.235609      -305.7365
   7   2.0000     -11.233253      -305.6724
   8   2.0000     -11.232022      -305.6389
   9   2.0000     -11.227640      -305.5196
  10   2.0000     -11.226850      -305.4981
  11   2.0000     -11.226195      -305.4803
  12   2.0000     -11.225927      -305.4730
  13   2.0000     -11.225202      -305.4533
  14   2.0000     -11.224606      -305.4371
  15   2.0000     -11.222363      -305.3760
  16   2.0000     -11.218464      -305.2699
  17   2.0000     -11.217072      -305.2320
  18   2.0000     -11.216337      -305.2120
  19   2.0000     -11.214316      -305.1571
  20   2.0000     -11.207118      -304.9612
  21   2.0000     -11.204945      -304.9020
  22   2.0000     -11.204095      -304.8789
  23   2.0000      -1.252363       -34.0785
  24   2.0000      -1.155220       -31.4351
  25   2.0000      -1.138620       -30.9834
  26   2.0000      -1.089067       -29.6350
  27   2.0000      -1.068604       -29.0782
  28   2.0000      -1.053888       -28.6778
  29   2.0000      -1.045654       -28.4537
  30   2.0000      -1.002927       -27.2910
  31   2.0000      -0.992069       -26.9956
  32   2.0000      -0.965678       -26.2774
  33   2.0000      -0.928422       -25.2637
  34   2.0000      -0.926746       -25.2180
  35   2.0000      -0.918036       -24.9810
  36   2.0000      -0.886811       -24.1314
  37   2.0000      -0.856642       -23.3104
  38   2.0000      -0.837351       -22.7855
  39   2.0000      -0.824763       -22.4429
  40   2.0000      -0.806778       -21.9536
  41   2.0000      -0.767754       -20.8916
  42   2.0000      -0.749689       -20.4001
  43   2.0000      -0.731408       -19.9026
  44   2.0000      -0.692279       -18.8379
  45   2.0000      -0.667814       -18.1721
  46   2.0000      -0.664107       -18.0713
  47   2.0000      -0.651981       -17.7413
  48   2.0000      -0.638919       -17.3859
  49   2.0000      -0.631378       -17.1807
  50   2.0000      -0.627676       -17.0799
  51   2.0000      -0.608736       -16.5646
  52   2.0000      -0.602286       -16.3890
  53   2.0000      -0.595705       -16.2099
  54   2.0000      -0.589901       -16.0520
  55   2.0000      -0.586233       -15.9522
  56   2.0000      -0.579351       -15.7649
  57   2.0000      -0.569850       -15.5064
  58   2.0000      -0.563465       -15.3327
  59   2.0000      -0.561267       -15.2728
  60   2.0000      -0.545514       -14.8442
  61   2.0000      -0.542732       -14.7685
  62   2.0000      -0.541647       -14.7390
  63   2.0000      -0.532761       -14.4972
  64   2.0000      -0.522208       -14.2100
  65   2.0000      -0.520873       -14.1737
  66   2.0000      -0.517368       -14.0783
  67   2.0000      -0.515192       -14.0191
  68   2.0000      -0.510603       -13.8942
  69   2.0000      -0.498586       -13.5672
  70   2.0000      -0.497634       -13.5413
  71   2.0000      -0.487207       -13.2576
  72   2.0000      -0.475144       -12.9293
  73   2.0000      -0.469404       -12.7731
  74   2.0000      -0.461094       -12.5470
  75   2.0000      -0.454489       -12.3673
  76   2.0000      -0.443522       -12.0688
  77   2.0000      -0.436063       -11.8659
  78   2.0000      -0.416305       -11.3282
  79   2.0000      -0.358827        -9.7642
  80   2.0000      -0.326737        -8.8910
  81   2.0000      -0.319517        -8.6945
  82   2.0000      -0.294254        -8.0070
  83   2.0000      -0.273253        -7.4356
  84   0.0000       0.024184         0.6581
  85   0.0000       0.028103         0.7647
  86   0.0000       0.029223         0.7952
  87   0.0000       0.031270         0.8509
  88   0.0000       0.036261         0.9867

MULLIKEN ATOMIC CHARGES
-----------------------
   0 C :   -0.594938
   1 H :    0.285543
   2 C :    1.161916
   3 C :   -0.629125
   4 H :    0.601942
   5 H :    0.057350
   6 C :   -0.212843
   7 H :    0.204743
   8 N :   -0.474581
   9 C :    1.088022
  10 C :   -1.341688
  11 H :    0.208899
  12 H :    0.513737
  13 C :   -0.232120
  14 C :   -0.299988
  15 C :   -0.122897
  16 H :    0.267497
  17 H :   -0.471574
  18 C :   -0.905186
  19 H :    0.242892
  20 H :    0.291484
  21 H :    0.296101
  22 C :   -0.718029
  23 H :    0.248332
  24 H :    0.329919
  25 C :    1.197715
  26 C :    0.953178
  27 C :   -0.513357
  28 H :    0.213781
  29 H :    0.231182
  30 H :    0.225634
  31 C :   -1.087433
  32 H :   -0.019604
  33 C :   -0.987555
  34 H :    0.156371
  35 C :   -0.261564
  36 H :    0.699028
  37 C :   -0.678861
  38 H :    0.409611
  39 C :    1.722756
  40 C :   -1.535022
  41 H :    0.478448
  42 H :    0.237382
  43 H :    0.113476
  44 C :   -1.489908
  45 H :    0.207738
  46 H :    0.414779
  47 H :    0.126556
  48 C :   -1.422170
  49 H :    0.287600
  50 H :    0.360809
  51 H :    0.164025
Sum of atomic charges:   -0.0000000

LOEWDIN ATOMIC CHARGES
----------------------
   0 C :    0.159969
   1 H :   -0.125054
   2 C :   -0.097511
   3 C :    0.300355
   4 H :   -0.175071
   5 H :   -0.168128
   6 C :   -0.104843
   7 H :   -0.104834
   8 N :    0.314872
   9 C :    0.002873
  10 C :    0.492510
  11 H :   -0.209082
  12 H :   -0.163008
  13 C :    0.199961
  14 C :    0.184462
  15 C :   -0.006704
  16 H :   -0.216229
  17 H :   -0.195393
  18 C :    0.583881
  19 H :   -0.174783
  20 H :   -0.166533
  21 H :   -0.174895
  22 C :    0.167191
  23 H :   -0.115070
  24 H :   -0.134781
  25 C :   -0.040149
  26 C :   -0.066585
  27 C :    0.300769
  28 H :   -0.131792
  29 H :   -0.143387
  30 H :   -0.129996
  31 C :    0.222524
  32 H :   -0.173058
  33 C :    0.228869
  34 H :   -0.174855
  35 C :    0.198405
  36 H :   -0.183435
  37 C :    0.203734
  38 H :   -0.182924
  39 C :   -0.312271
  40 C :    0.604385
  41 H :   -0.171606
  42 H :   -0.157103
  43 H :   -0.148620
  44 C :    0.588247
  45 H :   -0.141481
  46 H :   -0.194033
  47 H :   -0.160174
  48 C :    0.576107
  49 H :   -0.143602
  50 H :   -0.181025
  51 H :   -0.161096

  Mayer bond orders larger than 0.100000
B(  0-C ,  1-H ) :   1.1690 B(  0-C ,  2-C ) :   0.4325 B(  0-C ,  7-H ) :  -0.1156
B(  0-C ,  8-N ) :   0.9148 B(  0-C ,  9-C ) :  -0.1867 B(  0-C , 10-C ) :  -0.2547
B(  0-C , 15-C ) :   0.3465 B(  0-C , 30-H ) :   1.1815 B(  1-H ,  2-C ) :  -0.1798
B(  1-H ,  8-N ) :  -0.1146 B(  2-C ,  3-C ) :   0.1985 B(  2-C ,  6-C ) :   0.1989
B(  2-C ,  9-C ) :   0.8165 B(  2-C , 10-C ) :   0.5504 B(  2-C , 13-C ) :   0.3487
B(  2-C , 14-C ) :  -0.1911 B(  2-C , 15-C ) :   0.8788 B(  2-C , 16-H ) :  -0.3182
B(  2-C , 30-H ) :  -0.2210 B(  2-C , 39-C ) :  -0.2512 B(  3-C ,  4-H ) :   0.7406
B(  3-C ,  5-H ) :   1.1308 B(  3-C ,  6-C ) :   0.9779 B(  3-C ,  8-N ) :   0.5516
B(  3-C ,  9-C ) :  -0.3742 B(  3-C , 15-C ) :   0.7629 B(  3-C , 25-C ) :   0.6415
B(  3-C , 26-C ) :  -0.1621 B(  3-C , 33-C ) :  -0.1485 B(  3-C , 34-H ) :  -0.1098
B(  3-C , 39-C ) :   0.2795 B(  3-C , 46-H ) :  -0.1070 B(  4-H , 15-C ) :  -0.1692
B(  4-H , 25-C ) :  -0.1205 B(  4-H , 33-C ) :  -0.1720 B(  5-H ,  6-C ) :   0.1289
B(  5-H , 33-C ) :   0.2357 B(  6-C ,  7-H ) :   1.0832 B(  6-C ,  8-N ) :   0.4813
B(  6-C , 15-C ) :  -0.1177 B(  6-C , 25-C ) :   0.6863 B(  6-C , 26-C ) :   0.6102
B(  6-C , 27-C ) :  -0.1419 B(  6-C , 31-C ) :  -0.1661 B(  6-C , 33-C ) :   0.8957
B(  8-N , 15-C ) :  -0.3045 B(  8-N , 22-C ) :   0.8115 B(  8-N , 26-C ) :  -0.1614
B(  9-C , 10-C ) :   0.1760 B(  9-C , 13-C ) :   0.3600 B(  9-C , 14-C ) :   0.4330
B(  9-C , 15-C ) :   1.3597 B(  9-C , 16-H ) :  -0.1151 B(  9-C , 17-H ) :  -1.0168
B(  9-C , 25-C ) :   0.1143 B(  9-C , 39-C ) :   0.8781 B(  9-C , 49-H ) :  -0.1111
B( 10-C , 11-H ) :   1.3060 B( 10-C , 12-H ) :   0.6046 B( 10-C , 14-C ) :   0.5881
B( 10-C , 15-C ) :   0.2705 B( 10-C , 16-H ) :   0.3941 B( 12-H , 15-C ) :  -0.1471
B( 13-C , 14-C ) :   0.7523 B( 13-C , 17-H ) :   2.0529 B( 13-C , 18-C ) :   0.2672
B( 13-C , 39-C ) :   0.2660 B( 13-C , 48-C ) :  -0.1436 B( 14-C , 15-C ) :   0.1124
B( 14-C , 16-H ) :   0.9807 B( 14-C , 18-C ) :   0.3890 B( 15-C , 17-H ) :   0.2122
B( 15-C , 39-C ) :   0.3279 B( 18-C , 19-H ) :   1.0311 B( 18-C , 20-H ) :   1.0132
B( 18-C , 21-H ) :   0.9800 B( 22-C , 23-H ) :   1.0420 B( 22-C , 24-H ) :   0.9359
B( 22-C , 26-C ) :   0.1142 B( 22-C , 27-C ) :   1.0776 B( 25-C , 26-C ) :   0.5538
B( 25-C , 27-C ) :   0.2576 B( 25-C , 31-C ) :   0.4615 B( 25-C , 32-H ) :   0.1144
B( 25-C , 33-C ) :  -0.3776 B( 25-C , 35-C ) :  -0.1934 B( 25-C , 38-H ) :  -0.1014
B( 26-C , 28-H ) :  -0.1260 B( 26-C , 31-C ) :   0.5413 B( 26-C , 33-C ) :  -0.1998
B( 26-C , 35-C ) :   0.3579 B( 26-C , 36-H ) :  -0.1088 B( 26-C , 38-H ) :   0.1280
B( 27-C , 28-H ) :   1.1249 B( 27-C , 29-H ) :   1.0749 B( 27-C , 31-C ) :   0.1689
B( 27-C , 33-C ) :  -0.1182 B( 31-C , 32-H ) :   1.6533 B( 31-C , 35-C ) :   0.9387
B( 31-C , 37-C ) :  -0.1563 B( 32-H , 35-C ) :  -0.1717 B( 33-C , 34-H ) :   1.1949
B( 33-C , 35-C ) :   0.2179 B( 33-C , 37-C ) :   1.3504 B( 33-C , 38-H ) :  -0.1047
B( 35-C , 36-H ) :   0.3826 B( 35-C , 37-C ) :   1.0694 B( 35-C , 38-H ) :  -0.1117
B( 37-C , 38-H ) :   0.8452 B( 39-C , 40-C ) :   0.3023 B( 39-C , 42-H ) :  -0.1073
B( 39-C , 43-H ) :  -0.1457 B( 39-C , 44-C ) :   0.1320 B( 39-C , 47-H ) :  -0.1267
B( 39-C , 51-H ) :  -0.1763 B( 40-C , 41-H ) :   0.7892 B( 40-C , 42-H ) :   1.1440
B( 40-C , 43-H ) :   1.2698 B( 40-C , 48-C ) :   0.1381 B( 44-C , 45-H ) :   1.1709
B( 44-C , 46-H ) :   0.9746 B( 44-C , 47-H ) :   1.2562 B( 44-C , 48-C ) :   0.1801
B( 48-C , 49-H ) :   1.0793 B( 48-C , 50-H ) :   1.0039 B( 48-C , 51-H ) :   1.2048

MP2 TOTAL ENERGY:     -908.547131049 Eh
FINAL SINGLE POINT ENERGY      -908.547131048653

DIPOLE MOMENT
-------------
                                X             Y             Z
Electronic contribution:    -17.89916      -4.39504      -3.81160
Nuclear contribution   :     18.05636       4.06222       3.81330
                        -----------------------------------------
Total Dipole Moment    :      0.15719      -0.33281       0.00169
                        -----------------------------------------
Magnitude (a.u.)       :      0.36807
Magnitude (Debye)      :      0.93557

Rotational constants in cm-1:     0.014611     0.005684     0.004585
Rotational constants in MHz :   438.024172   170.409287   137.468642

                             ****ORCA TERMINATED NORMALLY****
TOTAL RUN TIME: 0 days 2 hours 18 minutes 48 seconds 981 msec
