                         Program Version 4.2.1 -  RELEASE  -
|  1> %pal
|  2>  nprocs 32
|  3> end
|  4> !RI-MP2 aug-cc-pVTZ aug-cc-pVTZ/C TightSCF
|  5> %maxcore 4500
|  6> *xyzfile 0 1  02_23P.xyz
|  7>
|  8>
|  9>                          ****END OF INPUT****

CARTESIAN COORDINATES (ANGSTROEM)
---------------------------------
  O      3.234989   -1.304053    0.641684
  C      3.014079   -1.264809   -0.763056
  C      2.134566   -0.048104   -1.016279
  C      0.618429   -0.298650   -0.914657
  C      0.214472   -1.066791    0.336823
  O     -1.033750   -1.754859    0.192569
  H      0.194504   -0.427544    1.217676
  H      0.916558   -1.870388    0.538899
  H      2.554775   -2.210436   -1.057157
  H      3.970054   -1.167188   -1.292344
  C      3.165652    0.014194    1.177673
  C     -2.259696   -1.197224    0.146632
  C     -2.435503    0.329913    0.103712
  O     -3.198275   -1.944756    0.127027
  C      2.666154    0.935358    0.042930
  H      4.151646    0.315704    1.542857
  H      2.476338   -0.001011    2.026084
  C      1.671567    1.975182    0.460980
  C      0.438182    2.033432   -0.025100
  H      2.004920    2.720415    1.177194
  C     -0.103065    1.049879   -1.034693
  H     -0.221101    2.835473    0.291178
  C     -1.633482    0.963518   -1.055553
  H     -1.925766    0.437910   -1.970434
  H     -2.010214    1.984917   -1.170349
  C     -2.136306    0.938649    1.484982
  H     -2.755058    0.454943    2.243463
  H     -2.395422    1.999731    1.474168
  H     -1.097460    0.862581    1.793872
  C     -3.917366    0.596948   -0.195878
  H     -4.095468    1.674583   -0.209017
  H     -4.556800    0.143675    0.559535
  H     -4.207925    0.183229   -1.161927
  H      2.322868    0.351976   -2.015309
  H      3.535106    1.448481   -0.381437
  H      0.333614   -0.928772   -1.764392
  H      0.155017    1.452085   -2.023894

 Total Charge           Charge          ....    0
 Multiplicity           Mult            ....    1
 Number of Electrons    NEL             ....  128
 Basis Dimension        Dim             .... 1242

ORBITAL ENERGIES
----------------

  NO   OCC          E(Eh)            E(eV)
   0   2.0000     -20.587896      -560.2251
   1   2.0000     -20.560268      -559.4733
   2   2.0000     -20.525832      -558.5363
   3   2.0000     -11.366166      -309.2891
   4   2.0000     -11.287291      -307.1428
   5   2.0000     -11.282748      -307.0192
   6   2.0000     -11.282113      -307.0019
   7   2.0000     -11.260448      -306.4124
   8   2.0000     -11.248004      -306.0737
   9   2.0000     -11.247240      -306.0529
  10   2.0000     -11.244656      -305.9826
  11   2.0000     -11.243943      -305.9633
  12   2.0000     -11.241076      -305.8852
  13   2.0000     -11.240682      -305.8745
  14   2.0000     -11.238840      -305.8244
  15   2.0000     -11.229710      -305.5760
  16   2.0000     -11.214014      -305.1488
  17   2.0000      -1.446815       -39.3698
  18   2.0000      -1.385941       -37.7134
  19   2.0000      -1.349348       -36.7176
  20   2.0000      -1.163107       -31.6497
  21   2.0000      -1.117570       -30.4106
  22   2.0000      -1.065129       -28.9836
  23   2.0000      -1.052652       -28.6441
  24   2.0000      -0.995145       -27.0793
  25   2.0000      -0.982995       -26.7487
  26   2.0000      -0.943968       -25.6867
  27   2.0000      -0.913386       -24.8545
  28   2.0000      -0.875053       -23.8114
  29   2.0000      -0.838240       -22.8097
  30   2.0000      -0.814660       -22.1680
  31   2.0000      -0.807374       -21.9698
  32   2.0000      -0.753022       -20.4908
  33   2.0000      -0.723065       -19.6756
  34   2.0000      -0.702587       -19.1184
  35   2.0000      -0.690695       -18.7948
  36   2.0000      -0.681887       -18.5551
  37   2.0000      -0.659082       -17.9345
  38   2.0000      -0.656819       -17.8729
  39   2.0000      -0.633604       -17.2412
  40   2.0000      -0.619483       -16.8570
  41   2.0000      -0.615379       -16.7453
  42   2.0000      -0.602346       -16.3907
  43   2.0000      -0.598071       -16.2743
  44   2.0000      -0.589226       -16.0337
  45   2.0000      -0.585651       -15.9364
  46   2.0000      -0.575653       -15.6643
  47   2.0000      -0.554977       -15.1017
  48   2.0000      -0.545603       -14.8466
  49   2.0000      -0.541957       -14.7474
  50   2.0000      -0.534403       -14.5418
  51   2.0000      -0.521103       -14.1799
  52   2.0000      -0.516379       -14.0514
  53   2.0000      -0.502132       -13.6637
  54   2.0000      -0.495818       -13.4919
  55   2.0000      -0.487282       -13.2596
  56   2.0000      -0.478185       -13.0121
  57   2.0000      -0.464486       -12.6393
  58   2.0000      -0.452191       -12.3047
  59   2.0000      -0.449800       -12.2397
  60   2.0000      -0.434480       -11.8228
  61   2.0000      -0.422932       -11.5086
  62   2.0000      -0.418102       -11.3771
  63   2.0000      -0.361766        -9.8442
  64   0.0000       0.019254         0.5239
  65   0.0000       0.026136         0.7112
  66   0.0000       0.027245         0.7414
  67   0.0000       0.034378         0.9355
  68   0.0000       0.039362         1.0711

MULLIKEN ATOMIC CHARGES
-----------------------
   0 O :   -0.786065
   1 C :   -0.594080
   2 C :   -0.390965
   3 C :    0.550854
   4 C :    0.218835
   5 O :   -0.871165
   6 H :    0.399183
   7 H :    0.203652
   8 H :    0.300328
   9 H :    0.310825
  10 C :   -0.262705
  11 C :    0.423431
  12 C :    2.078954
  13 O :   -1.239981
  14 C :    0.288174
  15 H :    0.302411
  16 H :    0.286979
  17 C :   -1.006742
  18 C :   -0.503274
  19 H :    0.183931
  20 C :    0.160860
  21 H :    0.331828
  22 C :   -0.748882
  23 H :    0.191043
  24 H :    0.155557
  25 C :   -1.322666
  26 H :    0.173723
  27 H :    0.178858
  28 H :    0.539035
  29 C :   -1.590619
  30 H :    0.211681
  31 H :    0.276626
  32 H :    0.256879
  33 H :    0.222583
  34 H :    0.325826
  35 H :    0.262688
  36 H :    0.482402
Sum of atomic charges:   -0.0000000

LOEWDIN ATOMIC CHARGES
----------------------
   0 O :    0.586249
   1 C :    0.073030
   2 C :    0.034224
   3 C :    0.044778
   4 C :    0.112142
   5 O :    0.623395
   6 H :   -0.184877
   7 H :   -0.176477
   8 H :   -0.144384
   9 H :   -0.134019
  10 C :    0.084895
  11 C :   -0.765132
  12 C :   -0.305677
  13 O :    0.473886
  14 C :    0.005134
  15 H :   -0.143919
  16 H :   -0.157032
  17 C :    0.267658
  18 C :    0.250094
  19 H :   -0.163951
  20 C :    0.012937
  21 H :   -0.167595
  22 C :    0.321656
  23 H :   -0.127064
  24 H :   -0.137114
  25 C :    0.606968
  26 H :   -0.141388
  27 H :   -0.146216
  28 H :   -0.206597
  29 C :    0.557367
  30 H :   -0.158226
  31 H :   -0.164752
  32 H :   -0.153753
  33 H :   -0.114134
  34 H :   -0.126666
  35 H :   -0.113465
  36 H :   -0.121976

  Mayer bond orders larger than 0.100000
B(  0-O ,  1-C ) :   0.8251 B(  0-O ,  2-C ) :  -0.1401 B(  0-O , 10-C ) :   0.7429
B(  0-O , 14-C ) :   0.1654 B(  1-C ,  2-C ) :   1.0910 B(  1-C ,  3-C ) :  -0.1501
B(  1-C ,  8-H ) :   1.0566 B(  1-C ,  9-H ) :   0.9961 B(  1-C , 10-C ) :   0.1241
B(  2-C ,  3-C ) :   0.8373 B(  2-C , 14-C ) :   0.9866 B(  2-C , 17-C ) :   0.2046
B(  2-C , 18-C ) :   0.1241 B(  2-C , 33-H ) :   0.9018 B(  2-C , 35-H ) :  -0.1210
B(  3-C ,  4-C ) :   0.8244 B(  3-C ,  5-O ) :   0.3517 B(  3-C , 20-C ) :   1.0606
B(  3-C , 22-C ) :  -0.1058 B(  3-C , 33-H ) :  -0.1116 B(  3-C , 35-H ) :   0.7648
B(  3-C , 36-H ) :  -0.1136 B(  4-C ,  5-O ) :  -0.3960 B(  4-C ,  6-H ) :   0.9233
B(  4-C ,  7-H ) :   1.1957 B(  4-C , 11-C ) :  -0.1568 B(  4-C , 20-C ) :   0.1164
B(  5-O ,  7-H ) :  -0.1964 B(  5-O , 11-C ) :   1.3251 B(  5-O , 13-O ) :  -0.2093
B(  5-O , 35-H ) :   0.1110 B( 10-C , 14-C ) :   0.8409 B( 10-C , 15-H ) :   0.9360
B( 10-C , 16-H ) :   1.0017 B( 11-C , 12-C ) :   0.2079 B( 11-C , 13-O ) :   0.7568
B( 11-C , 23-H ) :  -0.1296 B( 11-C , 29-C ) :   0.1280 B( 12-C , 13-O ) :  -0.1997
B( 12-C , 20-C ) :   0.1647 B( 12-C , 22-C ) :   0.8013 B( 12-C , 25-C ) :   0.3793
B( 12-C , 26-H ) :  -0.1076 B( 12-C , 27-H ) :  -0.1071 B( 12-C , 29-C ) :  -0.1217
B( 12-C , 30-H ) :  -0.1400 B( 12-C , 31-H ) :  -0.1197 B( 12-C , 32-H ) :  -0.1255
B( 13-O , 29-C ) :   0.2849 B( 14-C , 17-C ) :   0.5995 B( 14-C , 20-C ) :   0.2070
B( 14-C , 34-H ) :   0.9284 B( 14-C , 36-H ) :  -0.1640 B( 17-C , 18-C ) :   1.6094
B( 17-C , 19-H ) :   1.1863 B( 17-C , 34-H ) :  -0.1860 B( 17-C , 36-H ) :  -0.1953
B( 18-C , 19-H ) :  -0.1642 B( 18-C , 20-C ) :   1.1427 B( 18-C , 21-H ) :   0.8153
B( 18-C , 33-H ) :   0.1663 B( 18-C , 36-H ) :  -0.5166 B( 20-C , 22-C ) :   0.6738
B( 20-C , 24-H ) :  -0.1528 B( 20-C , 36-H ) :   1.2753 B( 21-H , 22-C ) :  -0.1909
B( 22-C , 23-H ) :   1.1784 B( 22-C , 24-H ) :   1.2471 B( 23-H , 24-H ) :   0.1320
B( 25-C , 26-H ) :   1.1929 B( 25-C , 27-H ) :   1.1657 B( 25-C , 28-H ) :   0.7875
B( 25-C , 29-C ) :   0.1907 B( 29-C , 30-H ) :   1.1309 B( 29-C , 31-H ) :   1.0747
B( 29-C , 32-H ) :   1.1238

MP2 TOTAL ENERGY:     -769.718110704 Eh
FINAL SINGLE POINT ENERGY      -769.718110704384

DIPOLE MOMENT
-------------
                                X             Y             Z
Electronic contribution:      1.88082      -8.32674      -0.28021
Nuclear contribution   :     -0.67703      10.35738      -0.16905
                        -----------------------------------------
Total Dipole Moment    :      1.20379       2.03064      -0.44926
                        -----------------------------------------
Magnitude (a.u.)       :      2.40300
Magnitude (Debye)      :      6.10795

Rotational constants in cm-1:     0.031773     0.011523     0.009984
Rotational constants in MHz :   952.532785   345.447294   299.315239

                             ****ORCA TERMINATED NORMALLY****
TOTAL RUN TIME: 0 days 0 hours 48 minutes 19 seconds 892 msec
