                         Program Version 4.2.1 -  RELEASE  -
|  1> %pal
|  2>  nprocs 32
|  3> end
|  4> !RI-MP2 aug-cc-pVTZ aug-cc-pVTZ/C TightSCF
|  5> %maxcore 4500
|  6> *xyzfile 0 2  04_27TS.xyz
|  7>
|  8>
|  9>                          ****END OF INPUT****

CARTESIAN COORDINATES (ANGSTROEM)
---------------------------------
  N     -1.487980    0.917013   -0.475854
  H     -0.547958    0.543186   -0.503194
  C     -2.601610   -0.003810   -0.650095
  H     -3.312256    0.475263   -1.333382
  C     -2.124951   -1.293847   -1.298988
  C     -3.392143   -0.309109    0.639887
  H     -2.976704   -1.959360   -1.431564
  H     -1.685265   -1.090434   -2.274627
  S     -0.932018   -2.238160   -0.297502
  O     -3.662136   -1.454277    0.945698
  H      0.228621   -1.831598   -1.087789
  N     -3.778220    0.772675    1.342060
  H     -3.656110    1.705919    0.963640
  H     -4.355220    0.621031    2.154051
  C     -1.633565    2.251271   -0.402048
  H     -0.674197    2.788405   -0.384513
  O     -2.707069    2.827485   -0.348310
  O      0.968939   -0.725899   -1.378379
  O      2.218166   -0.937505   -0.841319
  C      2.537649    0.029152    0.106230
  Cl     2.429185    1.667390   -0.590424
  Cl     1.462139   -0.078478    1.522314
  Cl     4.196870   -0.353032    0.550613

 Total Charge           Charge          ....    0
 Multiplicity           Mult            ....    2
 Number of Electrons    NEL             ....  151
 Basis Dimension        Dim             ....  890

ORBITAL ENERGIES
----------------
                 SPIN UP ORBITALS
  NO   OCC          E(Eh)            E(eV)
   0   1.0000    -104.895562     -2854.3534
   1   1.0000    -104.895219     -2854.3440
   2   1.0000    -104.888784     -2854.1689
   3   1.0000     -91.971062     -2502.6598
   4   1.0000     -20.751637      -564.6808
   5   1.0000     -20.729683      -564.0834
   6   1.0000     -20.545636      -559.0752
   7   1.0000     -20.525230      -558.5199
   8   1.0000     -15.610894      -424.7940
   9   1.0000     -15.577104      -423.8745
  10   1.0000     -11.522894      -313.5539
  11   1.0000     -11.369179      -309.3711
  12   1.0000     -11.355417      -308.9966
  13   1.0000     -11.304012      -307.5978
  14   1.0000     -11.280542      -306.9591
  15   1.0000     -10.619822      -288.9801
  16   1.0000     -10.619578      -288.9734
  17   1.0000     -10.613091      -288.7969
  18   1.0000      -8.971419      -244.1247
  19   1.0000      -8.086538      -220.0459
  20   1.0000      -8.086370      -220.0413
  21   1.0000      -8.084320      -219.9855
  22   1.0000      -8.084277      -219.9844
  23   1.0000      -8.084180      -219.9817
  24   1.0000      -8.084123      -219.9802
  25   1.0000      -8.079871      -219.8645
  26   1.0000      -8.077578      -219.8021
  27   1.0000      -8.077567      -219.8018
  28   1.0000      -6.658855      -181.1967
  29   1.0000      -6.650397      -180.9665
  30   1.0000      -6.649192      -180.9337
  31   1.0000      -1.623773       -44.1851
  32   1.0000      -1.408495       -38.3271
  33   1.0000      -1.390417       -37.8352
  34   1.0000      -1.349498       -36.7217
  35   1.0000      -1.265639       -34.4398
  36   1.0000      -1.218546       -33.1583
  37   1.0000      -1.211273       -32.9604
  38   1.0000      -1.146459       -31.1967
  39   1.0000      -1.141947       -31.0740
  40   1.0000      -1.091760       -29.7083
  41   1.0000      -0.991357       -26.9762
  42   1.0000      -0.892854       -24.2958
  43   1.0000      -0.879627       -23.9359
  44   1.0000      -0.853970       -23.2377
  45   1.0000      -0.820525       -22.3276
  46   1.0000      -0.790864       -21.5205
  47   1.0000      -0.762368       -20.7451
  48   1.0000      -0.757915       -20.6239
  49   1.0000      -0.747464       -20.3395
  50   1.0000      -0.737940       -20.0804
  51   1.0000      -0.690332       -18.7849
  52   1.0000      -0.684235       -18.6190
  53   1.0000      -0.674418       -18.3519
  54   1.0000      -0.639273       -17.3955
  55   1.0000      -0.626626       -17.0514
  56   1.0000      -0.622992       -16.9525
  57   1.0000      -0.599190       -16.3048
  58   1.0000      -0.586967       -15.9722
  59   1.0000      -0.583409       -15.8754
  60   1.0000      -0.569828       -15.5058
  61   1.0000      -0.563084       -15.3223
  62   1.0000      -0.553571       -15.0634
  63   1.0000      -0.530571       -14.4376
  64   1.0000      -0.527212       -14.3462
  65   1.0000      -0.520294       -14.1579
  66   1.0000      -0.498815       -13.5735
  67   1.0000      -0.493104       -13.4180
  68   1.0000      -0.488147       -13.2832
  69   1.0000      -0.477329       -12.9888
  70   1.0000      -0.465532       -12.6678
  71   1.0000      -0.453557       -12.3419
  72   1.0000      -0.446157       -12.1405
  73   1.0000      -0.414707       -11.2848
  74   1.0000      -0.405448       -11.0328
  75   1.0000      -0.372667       -10.1408
  76   0.0000       0.027144         0.7386
  77   0.0000       0.034823         0.9476
  78   0.0000       0.037451         1.0191
  79   0.0000       0.043963         1.1963
  80   0.0000       0.052187         1.4201

                 SPIN DOWN ORBITALS
  NO   OCC          E(Eh)            E(eV)
   0   1.0000    -104.895652     -2854.3558
   1   1.0000    -104.895188     -2854.3432
   2   1.0000    -104.888752     -2854.1680
   3   1.0000     -91.967347     -2502.5587
   4   1.0000     -20.728184      -564.0426
   5   1.0000     -20.713783      -563.6507
   6   1.0000     -20.545635      -559.0752
   7   1.0000     -20.525067      -558.5155
   8   1.0000     -15.610966      -424.7960
   9   1.0000     -15.577103      -423.8745
  10   1.0000     -11.523047      -313.5581
  11   1.0000     -11.369181      -309.3711
  12   1.0000     -11.355440      -308.9972
  13   1.0000     -11.303996      -307.5974
  14   1.0000     -11.280746      -306.9647
  15   1.0000     -10.619917      -288.9826
  16   1.0000     -10.619553      -288.9727
  17   1.0000     -10.613059      -288.7960
  18   1.0000      -8.967523      -244.0187
  19   1.0000      -8.086822      -220.0536
  20   1.0000      -8.086249      -220.0380
  21   1.0000      -8.084437      -219.9887
  22   1.0000      -8.084341      -219.9861
  23   1.0000      -8.084137      -219.9805
  24   1.0000      -8.084103      -219.9796
  25   1.0000      -8.079724      -219.8605
  26   1.0000      -8.077578      -219.8021
  27   1.0000      -8.077537      -219.8010
  28   1.0000      -6.648912      -180.9261
  29   1.0000      -6.647439      -180.8860
  30   1.0000      -6.640960      -180.7097
  31   1.0000      -1.579969       -42.9931
  32   1.0000      -1.408496       -38.3271
  33   1.0000      -1.390134       -37.8275
  34   1.0000      -1.294112       -35.2146
  35   1.0000      -1.265664       -34.4405
  36   1.0000      -1.211339       -32.9622
  37   1.0000      -1.190326       -32.3904
  38   1.0000      -1.144703       -31.1489
  39   1.0000      -1.141383       -31.0586
  40   1.0000      -1.085291       -29.5323
  41   1.0000      -0.975172       -26.5358
  42   1.0000      -0.883470       -24.0404
  43   1.0000      -0.858697       -23.3663
  44   1.0000      -0.853636       -23.2286
  45   1.0000      -0.790966       -21.5233
  46   1.0000      -0.756059       -20.5734
  47   1.0000      -0.753681       -20.5087
  48   1.0000      -0.744749       -20.2656
  49   1.0000      -0.737018       -20.0553
  50   1.0000      -0.726002       -19.7555
  51   1.0000      -0.684179       -18.6174
  52   1.0000      -0.676059       -18.3965
  53   1.0000      -0.637393       -17.3443
  54   1.0000      -0.623786       -16.9741
  55   1.0000      -0.621856       -16.9216
  56   1.0000      -0.606189       -16.4953
  57   1.0000      -0.587415       -15.9844
  58   1.0000      -0.579647       -15.7730
  59   1.0000      -0.575294       -15.6545
  60   1.0000      -0.565047       -15.3757
  61   1.0000      -0.553089       -15.0503
  62   1.0000      -0.530102       -14.4248
  63   1.0000      -0.525532       -14.3005
  64   1.0000      -0.522602       -14.2207
  65   1.0000      -0.499549       -13.5934
  66   1.0000      -0.492286       -13.3958
  67   1.0000      -0.489169       -13.3110
  68   1.0000      -0.477454       -12.9922
  69   1.0000      -0.464909       -12.6508
  70   1.0000      -0.451876       -12.2962
  71   1.0000      -0.448375       -12.2009
  72   1.0000      -0.414891       -11.2898
  73   1.0000      -0.405218       -11.0265
  74   1.0000      -0.363937        -9.9032
  75   0.0000      -0.001437        -0.0391
  76   0.0000       0.027409         0.7458
  77   0.0000       0.034897         0.9496
  78   0.0000       0.037552         1.0218
  79   0.0000       0.044092         1.1998

MULLIKEN ATOMIC CHARGES AND SPIN POPULATIONS
--------------------------------------------
   0 N :   -0.267906    0.002702
   1 H :    0.753961   -0.004146
   2 C :    0.467914    0.005310
   3 H :    0.352554   -0.000908
   4 C :   -0.239033   -0.041575
   5 C :    0.552945   -0.003028
   6 H :    0.237483    0.008419
   7 H :    0.215220    0.008042
   8 S :   -0.414372    0.429478
   9 O :   -0.898023    0.002697
  10 H :    0.274930   -0.247491
  11 N :   -0.475598    0.000152
  12 H :    0.235680    0.000065
  13 H :    0.122902   -0.000108
  14 C :   -0.435189   -0.000409
  15 H :    0.650593    0.000079
  16 O :   -0.871565    0.000024
  17 O :   -0.205526    0.879101
  18 O :   -0.298919   -0.039092
  19 C :    0.857086   -0.000005
  20 Cl:   -0.200866    0.003117
  21 Cl:   -0.176367    0.003314
  22 Cl:   -0.237906   -0.005738
Sum of atomic charges         :   -0.0000000

LOEWDIN ATOMIC CHARGES AND SPIN POPULATIONS
-------------------------------------------
   0 N :    0.524689   -0.001414
   1 H :   -0.456017   -0.004822
   2 C :   -0.175919    0.000293
   3 H :   -0.139209   -0.000088
   4 C :   -0.083161    0.034395
   5 C :   -0.674521    0.000340
   6 H :   -0.232054    0.006842
   7 H :   -0.207681    0.001392
   8 S :    1.314679    0.213917
   9 O :    0.441466    0.003764
  10 H :   -0.875270    0.021825
  11 N :    0.864080   -0.000099
  12 H :   -0.436044   -0.000007
  13 H :   -0.277529   -0.000010
  14 C :   -0.338234   -0.000148
  15 H :   -0.179104    0.000004
  16 O :    0.464513    0.000011
  17 O :    0.364387    0.674599
  18 O :    0.082226    0.057022
  19 C :   -2.515341   -0.005108
  20 Cl:    0.823761    0.002785
  21 Cl:    0.849685    0.000066
  22 Cl:    0.860599   -0.005561

  Mayer bond orders larger than 0.100000
B(  0-N ,  1-H ) :   0.3048 B(  0-N ,  2-C ) :   1.0315 B(  0-N , 14-C ) :   1.5344
B(  1-H , 14-C ) :  -0.2586 B(  1-H , 17-O ) :  -0.1331 B(  2-C ,  3-H ) :   0.8411
B(  2-C ,  4-C ) :   1.0153 B(  2-C ,  5-C ) :   0.5963 B(  2-C ,  8-S ) :   0.1171
B(  2-C , 14-C ) :  -0.1837 B(  4-C ,  6-H ) :   0.9898 B(  4-C ,  7-H ) :   0.9079
B(  4-C ,  8-S ) :   0.8333 B(  5-C ,  9-O ) :   1.2707 B(  5-C , 11-N ) :   0.9371
B(  8-S , 10-H ) :   0.6613 B(  8-S , 17-O ) :   0.1207 B( 10-H , 17-O ) :   0.1948
B( 11-N , 12-H ) :   0.9691 B( 11-N , 13-H ) :   1.0546 B( 14-C , 15-H ) :   0.5142
B( 14-C , 16-O ) :   1.5539 B( 15-H , 16-O ) :  -0.1106 B( 17-O , 18-O ) :   0.8609
B( 18-O , 19-C ) :   0.8412 B( 19-C , 20-Cl) :   0.9117 B( 19-C , 21-Cl) :   0.9276
B( 19-C , 22-Cl) :   0.8582

MP2 TOTAL ENERGY:    -2381.474380517 Eh
FINAL SINGLE POINT ENERGY     -2381.474380517006

DIPOLE MOMENT
-------------
                                X             Y             Z
Electronic contribution:     28.35613       1.06165       5.18322
Nuclear contribution   :    -27.16965      -0.41919      -5.72752
                        -----------------------------------------
Total Dipole Moment    :      1.18648       0.64246      -0.54430
                        -----------------------------------------
Magnitude (a.u.)       :      1.45490
Magnitude (Debye)      :      3.69807

Rotational constants in cm-1:     0.020726     0.007416     0.006481
Rotational constants in MHz :   621.343542   222.317693   194.281046

                             ****ORCA TERMINATED NORMALLY****
TOTAL RUN TIME: 0 days 1 hours 37 minutes 35 seconds 595 msec
