                         Program Version 4.2.1 -  RELEASE  -
|  1> %pal
|  2>  nprocs 32
|  3> end
|  4> !RI-MP2 aug-cc-pVTZ aug-cc-pVTZ/C TightSCF
|  5> %maxcore 4500
|  6> *xyzfile 0 1  05_14R1.xyz
|  7>
|  8>
|  9>                          ****END OF INPUT****

CARTESIAN COORDINATES (ANGSTROEM)
---------------------------------
  C     -2.721867    0.785741    0.000030
  C     -1.612120    0.125600   -0.000024
  C     -2.856780   -0.711865    0.000009
  H     -3.255387    1.718791    0.000028
  C     -0.169873    0.062585   -0.000019
  C      0.598125    1.230163   -0.000044
  C      0.473581   -1.174443    0.000017
  C      1.980005    1.157336   -0.000027
  H      0.099493    2.192018   -0.000075
  C      1.858887   -1.245010    0.000036
  H     -0.124648   -2.077546    0.000032
  C      2.614196   -0.080809    0.000013
  H      2.568306    2.067029   -0.000046
  H      2.349875   -2.210624    0.000066
  H      3.696104   -0.135432    0.000027
  H     -3.159347   -1.225009   -0.913226
  H     -3.159316   -1.225017    0.913250

 Total Charge           Charge          ....    0
 Multiplicity           Mult            ....    1
 Number of Electrons    NEL             ....   62
 Basis Dimension        Dim             ....  598

ORBITAL ENERGIES
----------------

  NO   OCC          E(Eh)            E(eV)
   0   2.0000     -11.252024      -306.1831
   1   2.0000     -11.246247      -306.0259
   2   2.0000     -11.241175      -305.8879
   3   2.0000     -11.240855      -305.8792
   4   2.0000     -11.240252      -305.8628
   5   2.0000     -11.238531      -305.8160
   6   2.0000     -11.237967      -305.8006
   7   2.0000     -11.237154      -305.7785
   8   2.0000     -11.234468      -305.7054
   9   2.0000      -1.179036       -32.0832
  10   2.0000      -1.148610       -31.2553
  11   2.0000      -1.032160       -28.0865
  12   2.0000      -1.023364       -27.8471
  13   2.0000      -0.862284       -23.4639
  14   2.0000      -0.838902       -22.8277
  15   2.0000      -0.808887       -22.0109
  16   2.0000      -0.750614       -20.4253
  17   2.0000      -0.706517       -19.2253
  18   2.0000      -0.663979       -18.0678
  19   2.0000      -0.635616       -17.2960
  20   2.0000      -0.612379       -16.6637
  21   2.0000      -0.599444       -16.3117
  22   2.0000      -0.593558       -16.1515
  23   2.0000      -0.521424       -14.1887
  24   2.0000      -0.515951       -14.0398
  25   2.0000      -0.508355       -13.8330
  26   2.0000      -0.478020       -13.0076
  27   2.0000      -0.416936       -11.3454
  28   2.0000      -0.396437       -10.7876
  29   2.0000      -0.344252        -9.3676
  30   2.0000      -0.305702        -8.3186
  31   0.0000       0.028110         0.7649
  32   0.0000       0.031344         0.8529
  33   0.0000       0.033482         0.9111
  34   0.0000       0.043925         1.1952
  35   0.0000       0.045831         1.2471

MULLIKEN ATOMIC CHARGES
-----------------------
   0 C :   -1.080022
   1 C :    1.736978
   2 C :   -1.123418
   3 H :    0.320295
   4 C :    2.307733
   5 C :   -1.233494
   6 C :   -1.208479
   7 C :   -0.656197
   8 H :   -0.254366
   9 C :   -0.682447
  10 H :   -0.210375
  11 C :    0.009925
  12 H :    0.565894
  13 H :    0.614464
  14 H :    0.300168
  15 H :    0.296678
  16 H :    0.296662
Sum of atomic charges:   -0.0000000

LOEWDIN ATOMIC CHARGES
----------------------
   0 C :    0.328908
   1 C :   -0.089484
   2 C :    0.312811
   3 H :   -0.188467
   4 C :   -0.122829
   5 C :    0.214065
   6 C :    0.213505
   7 C :    0.200035
   8 H :   -0.168416
   9 C :    0.201449
  10 H :   -0.171132
  11 C :    0.196563
  12 H :   -0.182439
  13 H :   -0.182346
  14 H :   -0.182462
  15 H :   -0.189880
  16 H :   -0.189879

  Mayer bond orders larger than 0.100000
B(  0-C ,  1-C ) :   0.6354 B(  0-C ,  2-C ) :   1.2688 B(  0-C ,  3-H ) :   1.2907
B(  0-C ,  4-C ) :   0.1142 B(  0-C ,  8-H ) :  -0.2004 B(  0-C , 10-H ) :  -0.1810
B(  0-C , 12-H ) :   0.1120 B(  0-C , 13-H ) :   0.1505 B(  0-C , 14-H ) :  -0.1005
B(  1-C ,  3-H ) :  -0.1499 B(  1-C ,  4-C ) :   0.2270 B(  1-C ,  5-C ) :   0.2235
B(  1-C ,  6-C ) :   0.2181 B(  1-C ,  8-H ) :  -0.5109 B(  1-C , 10-H ) :  -0.4684
B(  1-C , 11-C ) :   0.2143 B(  1-C , 12-H ) :   0.3362 B(  1-C , 13-H ) :   0.4056
B(  1-C , 14-H ) :  -0.2949 B(  2-C ,  6-C ) :   0.1195 B(  2-C , 15-H ) :   0.9536
B(  2-C , 16-H ) :   0.9536 B(  4-C ,  5-C ) :   0.1380 B(  4-C ,  7-C ) :   0.1907
B(  4-C ,  8-H ) :  -0.3545 B(  4-C ,  9-C ) :   0.2639 B(  4-C , 10-H ) :  -0.4584
B(  4-C , 11-C ) :   0.1081 B(  4-C , 12-H ) :  -0.2327 B(  4-C , 13-H ) :  -0.1935
B(  4-C , 14-H ) :   0.1597 B(  5-C ,  6-C ) :  -0.4971 B(  5-C ,  7-C ) :   1.2685
B(  5-C ,  8-H ) :   2.3067 B(  5-C ,  9-C ) :   0.1795 B(  5-C , 10-H ) :   0.3972
B(  5-C , 11-C ) :  -0.4049 B(  5-C , 12-H ) :  -0.1798 B(  5-C , 13-H ) :  -0.1686
B(  5-C , 14-H ) :   0.2651 B(  6-C ,  7-C ) :   0.1274 B(  6-C ,  8-H ) :   0.4418
B(  6-C ,  9-C ) :   1.2644 B(  6-C , 10-H ) :   2.2718 B(  6-C , 11-C ) :  -0.4352
B(  6-C , 12-H ) :  -0.1254 B(  6-C , 13-H ) :  -0.1954 B(  6-C , 14-H ) :   0.2130
B(  7-C ,  8-H ) :  -0.1596 B(  7-C ,  9-C ) :   0.2365 B(  7-C , 11-C ) :   1.0761
B(  7-C , 12-H ) :   0.6093 B(  7-C , 14-H ) :  -0.2039 B(  8-H , 10-H ) :   0.3865
B(  8-H , 11-C ) :  -0.1123 B(  8-H , 13-H ) :  -0.1359 B(  8-H , 14-H ) :   0.1028
B(  9-C , 10-H ) :  -0.1103 B(  9-C , 11-C ) :   1.0901 B(  9-C , 13-H ) :   0.5099
B(  9-C , 14-H ) :  -0.1978 B( 10-H , 11-C ) :  -0.1191 B( 10-H , 12-H ) :  -0.1044
B( 10-H , 14-H ) :   0.1046 B( 11-C , 13-H ) :   0.1057 B( 11-C , 14-H ) :   1.0523

MP2 TOTAL ENERGY:     -346.938948025 Eh
FINAL SINGLE POINT ENERGY      -346.938948024834

DIPOLE MOMENT
-------------
                                X             Y             Z
Electronic contribution:      1.28763       1.05290      -0.00005
Nuclear contribution   :     -0.98727      -0.89793       0.00006
                        -----------------------------------------
Total Dipole Moment    :      0.30036       0.15497       0.00000
                        -----------------------------------------
Magnitude (a.u.)       :      0.33798
Magnitude (Debye)      :      0.85908

Rotational constants in cm-1:     0.154128     0.037071     0.030063
Rotational constants in MHz :  4620.636930  1111.359179   901.253549

                             ****ORCA TERMINATED NORMALLY****
TOTAL RUN TIME: 0 days 0 hours 3 minutes 14 seconds 574 msec
