                         Program Version 4.2.1 -  RELEASE  -
|  1> %pal
|  2>  nprocs 32
|  3> end
|  4> !RI-MP2 aug-cc-pVTZ aug-cc-pVTZ/C TightSCF
|  5> %maxcore 4500
|  6> *xyzfile 1 1  10_24TS.xyz
|  7>
|  8>
|  9>                          ****END OF INPUT****

CARTESIAN COORDINATES (ANGSTROEM)
---------------------------------
  C     -1.763040   -2.553878   -0.540402
  C     -1.092416   -1.578543    0.441463
  C     -3.055048   -0.616613    0.078103
  C     -3.136789   -1.872929   -0.805275
  H     -1.166347   -2.687943   -1.441136
  H     -1.878855   -3.528875   -0.066779
  H     -3.292882   -1.621009   -1.855007
  H     -3.971615   -2.501034   -0.494292
  C     -2.273025   -1.110863    1.296829
  H     -2.024428   -0.324909    2.009038
  H     -2.767358   -1.934255    1.808488
  H     -0.197118   -1.937664    0.931528
  H     -3.984930   -0.081512    0.251130
  N     -2.041860    0.306868   -0.495016
  N     -0.827562   -0.346385   -0.338338
  C      0.273625    0.405825   -0.463438
  C      1.624710   -0.131470   -0.208298
  C      2.007785   -0.657811    1.026562
  C      2.558537   -0.066400   -1.241237
  C      3.292931   -1.137275    1.210954
  H      1.315205   -0.666684    1.859367
  C      3.843421   -0.554119   -1.056517
  H      2.276605    0.358560   -2.197682
  C      4.210298   -1.092530    0.167647
  H      3.585413   -1.537022    2.173575
  H      4.558786   -0.507245   -1.867551
  H      5.215417   -1.466791    0.315646
  H      0.217881    1.097343   -1.300143
  H     -2.210305    0.571661   -1.463000
  C     -1.362534    2.291059    0.623269
  H     -2.256601    2.129485    1.207657
  C     -0.031905    1.974028    0.844701
  H      0.416814    1.530097    1.724196
  C      0.450592    3.164056    0.010295
  H      0.828604    3.984134    0.618452
  H      1.167121    2.962586   -0.789053
  C     -1.045087    3.365274   -0.385775
  H     -1.467875    4.345068   -0.159382
  H     -1.289892    3.125771   -1.424862

 Total Charge           Charge          ....    1
 Multiplicity           Mult            ....    1
 Number of Electrons    NEL             ....  130
 Basis Dimension        Dim             .... 1311

ORBITAL ENERGIES
----------------

  NO   OCC          E(Eh)            E(eV)
   0   2.0000     -15.774513      -429.2463
   1   2.0000     -15.757916      -428.7947
   2   2.0000     -11.468989      -312.0871
   3   2.0000     -11.412732      -310.5562
   4   2.0000     -11.412569      -310.5518
   5   2.0000     -11.406805      -310.3949
   6   2.0000     -11.376886      -309.5808
   7   2.0000     -11.364675      -309.2485
   8   2.0000     -11.364421      -309.2416
   9   2.0000     -11.364054      -309.2316
  10   2.0000     -11.363835      -309.2257
  11   2.0000     -11.360802      -309.1431
  12   2.0000     -11.356545      -309.0273
  13   2.0000     -11.353827      -308.9534
  14   2.0000     -11.352820      -308.9259
  15   2.0000     -11.352148      -308.9077
  16   2.0000     -11.351732      -308.8963
  17   2.0000     -11.349988      -308.8489
  18   2.0000      -1.520038       -41.3623
  19   2.0000      -1.315430       -35.7947
  20   2.0000      -1.289316       -35.0841
  21   2.0000      -1.273342       -34.6494
  22   2.0000      -1.250637       -34.0316
  23   2.0000      -1.167570       -31.7712
  24   2.0000      -1.142223       -31.0815
  25   2.0000      -1.114247       -30.3202
  26   2.0000      -1.090702       -29.6795
  27   2.0000      -1.040536       -28.3144
  28   2.0000      -1.022286       -27.8178
  29   2.0000      -1.006255       -27.3816
  30   2.0000      -0.968269       -26.3479
  31   2.0000      -0.954970       -25.9861
  32   2.0000      -0.925358       -25.1803
  33   2.0000      -0.906773       -24.6746
  34   2.0000      -0.874888       -23.8069
  35   2.0000      -0.852857       -23.2074
  36   2.0000      -0.837982       -22.8027
  37   2.0000      -0.822003       -22.3678
  38   2.0000      -0.809610       -22.0306
  39   2.0000      -0.799009       -21.7421
  40   2.0000      -0.783960       -21.3326
  41   2.0000      -0.759566       -20.6688
  42   2.0000      -0.755750       -20.5650
  43   2.0000      -0.740043       -20.1376
  44   2.0000      -0.723804       -19.6957
  45   2.0000      -0.712289       -19.3824
  46   2.0000      -0.701070       -19.0771
  47   2.0000      -0.688935       -18.7469
  48   2.0000      -0.672778       -18.3072
  49   2.0000      -0.664859       -18.0917
  50   2.0000      -0.659186       -17.9374
  51   2.0000      -0.648780       -17.6542
  52   2.0000      -0.636595       -17.3226
  53   2.0000      -0.631513       -17.1843
  54   2.0000      -0.626131       -17.0379
  55   2.0000      -0.624677       -16.9983
  56   2.0000      -0.617645       -16.8070
  57   2.0000      -0.608006       -16.5447
  58   2.0000      -0.602857       -16.4046
  59   2.0000      -0.596573       -16.2336
  60   2.0000      -0.593173       -16.1411
  61   2.0000      -0.523875       -14.2554
  62   2.0000      -0.467461       -12.7203
  63   2.0000      -0.459466       -12.5027
  64   2.0000      -0.454406       -12.3650
  65   0.0000      -0.073686        -2.0051
  66   0.0000      -0.064611        -1.7582
  67   0.0000      -0.057127        -1.5545
  68   0.0000      -0.051550        -1.4028
  69   0.0000      -0.048095        -1.3087

MULLIKEN ATOMIC CHARGES
-----------------------
   0 C :   -0.855587
   1 C :   -0.378714
   2 C :   -0.332777
   3 C :   -0.605369
   4 H :    0.309336
   5 H :    0.247198
   6 H :    0.261212
   7 H :    0.281914
   8 C :   -0.687595
   9 H :    0.155273
  10 H :    0.333075
  11 H :    0.610869
  12 H :    0.556508
  13 N :   -0.339787
  14 N :    0.252601
  15 C :    1.308800
  16 C :    2.359701
  17 C :   -0.643649
  18 C :   -1.207636
  19 C :   -1.231769
  20 H :   -0.101152
  21 C :   -0.660962
  22 H :   -0.435039
  23 C :    0.003708
  24 H :    0.411515
  25 H :    0.702713
  26 H :    0.621889
  27 H :    0.184237
  28 H :   -0.254848
  29 C :   -0.697194
  30 H :    0.646236
  31 C :   -0.176798
  32 H :    0.562841
  33 C :   -0.702086
  34 H :    0.302018
  35 H :    0.274622
  36 C :   -0.684996
  37 H :    0.372762
  38 H :    0.236930
Sum of atomic charges:    1.0000000

LOEWDIN ATOMIC CHARGES
----------------------
   0 C :    0.371064
   1 C :   -0.009377
   2 C :   -0.030051
   3 C :    0.366613
   4 H :   -0.131288
   5 H :   -0.127808
   6 H :   -0.134873
   7 H :   -0.129962
   8 C :    0.363256
   9 H :   -0.126330
  10 H :   -0.112606
  11 H :   -0.139613
  12 H :   -0.099633
  13 N :    0.524307
  14 N :    0.225403
  15 C :    0.074806
  16 C :   -0.092530
  17 C :    0.215341
  18 C :    0.238704
  19 C :    0.237063
  20 H :   -0.174329
  21 C :    0.234188
  22 H :   -0.161470
  23 C :    0.232644
  24 H :   -0.168253
  25 H :   -0.168464
  26 H :   -0.164627
  27 H :   -0.173173
  28 H :   -0.231116
  29 C :    0.274185
  30 H :   -0.135715
  31 C :    0.186357
  32 H :   -0.158840
  33 C :    0.332332
  34 H :   -0.137072
  35 H :   -0.147293
  36 C :    0.348896
  37 H :   -0.132092
  38 H :   -0.138644

  Mayer bond orders larger than 0.100000
B(  0-C ,  1-C ) :   0.9250 B(  0-C ,  3-C ) :   1.2023 B(  0-C ,  4-H ) :   0.9531
B(  0-C ,  5-H ) :   1.0133 B(  0-C ,  8-C ) :   0.1275 B(  0-C , 14-N ) :  -0.2104
B(  1-C ,  2-C ) :  -0.1272 B(  1-C ,  8-C ) :   0.9206 B(  1-C , 11-H ) :   0.5589
B(  1-C , 14-N ) :   0.9886 B(  1-C , 16-C ) :  -0.1742 B(  2-C ,  3-C ) :   0.9602
B(  2-C ,  8-C ) :   1.0822 B(  2-C , 12-H ) :   0.6423 B(  2-C , 13-N ) :   1.2606
B(  2-C , 14-N ) :  -0.2670 B(  3-C ,  6-H ) :   0.9628 B(  3-C ,  7-H ) :   0.9463
B(  8-C ,  9-H ) :   1.0852 B(  8-C , 10-H ) :   0.9325 B(  8-C , 14-N ) :  -0.1846
B( 13-N , 14-N ) :   0.3244 B( 13-N , 15-C ) :   0.1032 B( 13-N , 28-H ) :   1.0981
B( 13-N , 29-C ) :   0.1564 B( 14-N , 15-C ) :   1.4192 B( 14-N , 17-C ) :   0.1725
B( 14-N , 20-H ) :   0.1629 B( 14-N , 22-H ) :   0.1613 B( 14-N , 27-H ) :   0.2293
B( 15-C , 17-C ) :  -0.4684 B( 15-C , 19-C ) :   0.1134 B( 15-C , 20-H ) :  -0.7713
B( 15-C , 21-C ) :   0.3124 B( 15-C , 22-H ) :  -0.9654 B( 15-C , 23-C ) :   0.2742
B( 15-C , 25-H ) :   0.1263 B( 15-C , 26-H ) :   0.1826 B( 15-C , 27-H ) :   0.9564
B( 15-C , 28-H ) :   0.1057 B( 15-C , 31-C ) :   0.3283 B( 16-C , 17-C ) :   0.9615
B( 16-C , 18-C ) :  -0.3350 B( 16-C , 19-C ) :  -0.2385 B( 16-C , 22-H ) :  -0.7622
B( 16-C , 23-C ) :   0.1527 B( 16-C , 24-H ) :  -0.1003 B( 16-C , 27-H ) :  -0.2658
B( 16-C , 31-C ) :   0.1171 B( 17-C , 18-C ) :  -0.6717 B( 17-C , 19-C ) :   1.5449
B( 17-C , 20-H ) :   1.8063 B( 17-C , 22-H ) :   0.4566 B( 17-C , 23-C ) :  -0.1886
B( 18-C , 19-C ) :   0.2975 B( 18-C , 20-H ) :   0.2839 B( 18-C , 21-C ) :   1.4398
B( 18-C , 22-H ) :   2.8859 B( 18-C , 23-C ) :  -0.2705 B( 18-C , 25-H ) :  -0.1982
B( 18-C , 26-H ) :   0.2149 B( 18-C , 27-H ) :  -0.2080 B( 19-C , 21-C ) :   0.2983
B( 19-C , 23-C ) :   1.0734 B( 19-C , 24-H ) :   0.7975 B( 19-C , 26-H ) :  -0.3003
B( 20-H , 21-C ) :  -0.1095 B( 20-H , 22-H ) :   0.3868 B( 20-H , 23-C ) :  -0.1708
B( 21-C , 23-C ) :   1.0627 B( 21-C , 25-H ) :   0.3630 B( 21-C , 26-H ) :  -0.2906
B( 22-H , 23-C ) :  -0.1380 B( 22-H , 25-H ) :  -0.1611 B( 23-C , 24-H ) :   0.1264
B( 23-C , 26-H ) :   0.5497 B( 29-C , 30-H ) :   0.4406 B( 29-C , 31-C ) :   1.2594
B( 29-C , 32-H ) :  -0.1509 B( 29-C , 36-C ) :   1.1184 B( 31-C , 32-H ) :   0.6254
B( 31-C , 33-C ) :   0.8260 B( 31-C , 36-C ) :  -0.2295 B( 33-C , 34-H ) :   0.9293
B( 33-C , 35-H ) :   0.9453 B( 33-C , 36-C ) :   1.1983 B( 36-C , 37-H ) :   0.8144
B( 36-C , 38-H ) :   0.9990

MP2 TOTAL ENERGY:     -729.990421542 Eh
FINAL SINGLE POINT ENERGY      -729.990421541696

DIPOLE MOMENT
-------------
                                X             Y             Z
Electronic contribution:      5.94493      -1.06577       0.05840
Nuclear contribution   :     -7.07753       1.33486      -0.16789
                        -----------------------------------------
Total Dipole Moment    :     -1.13260       0.26909      -0.10948
                        -----------------------------------------
Magnitude (a.u.)       :      1.16927
Magnitude (Debye)      :      2.97204

Rotational constants in cm-1:     0.019933     0.011740     0.008610
Rotational constants in MHz :   597.582790   351.949271   258.106798

                             ****ORCA TERMINATED NORMALLY****
TOTAL RUN TIME: 0 days 0 hours 59 minutes 47 seconds 238 msec
