                         Program Version 4.2.1 -  RELEASE  -
|  1> %pal
|  2>  nprocs 32
|  3> end
|  4> !RI-MP2 aug-cc-pVTZ aug-cc-pVTZ/C TightSCF
|  5> %maxcore 4500
|  6> *xyzfile 0 1  02_49R1.xyz
|  7>
|  8>
|  9>                          ****END OF INPUT****

CARTESIAN COORDINATES (ANGSTROEM)
---------------------------------
  C      1.406019   -1.615945    0.000122
  C      0.302905    1.043134   -0.000086
  C     -0.502168   -0.030667    0.000006
  C      0.091155   -1.381791    0.000111
  C      2.366733   -0.504169    0.000025
  C      1.765500    0.924494   -0.000086
  O      2.498409    1.882331   -0.000164
  O      3.560708   -0.663583    0.000030
  C     -2.022061    0.058186    0.000008
  C     -2.513933    1.506305   -0.000112
  H     -3.605384    1.519275   -0.000106
  H     -2.176231    2.048164    0.885475
  H     -2.176242    2.048015   -0.885794
  C     -2.564002   -0.641148    1.258909
  H     -3.654743   -0.586667    1.269915
  H     -2.287637   -1.695856    1.302038
  H     -2.190703   -0.157064    2.163748
  C     -2.564015   -0.641360   -1.258770
  H     -3.654757   -0.586882   -1.269773
  H     -2.190727   -0.157429   -2.163694
  H     -2.287650   -1.696075   -1.301725
  H     -0.074990    2.055987   -0.000165
  H      1.816581   -2.618198    0.000200
  H     -0.587248   -2.225488    0.000183

 Total Charge           Charge          ....    0
 Multiplicity           Mult            ....    1
 Number of Electrons    NEL             ....   88
 Basis Dimension        Dim             ....  828

ORBITAL ENERGIES
----------------

  NO   OCC          E(Eh)            E(eV)
   0   2.0000     -20.572173      -559.7973
   1   2.0000     -20.567500      -559.6701
   2   2.0000     -11.344998      -308.7131
   3   2.0000     -11.342730      -308.6514
   4   2.0000     -11.288013      -307.1624
   5   2.0000     -11.283478      -307.0390
   6   2.0000     -11.271522      -306.7137
   7   2.0000     -11.263304      -306.4901
   8   2.0000     -11.252160      -306.1868
   9   2.0000     -11.239070      -305.8306
  10   2.0000     -11.239056      -305.8303
  11   2.0000     -11.233653      -305.6832
  12   2.0000      -1.422822       -38.7170
  13   2.0000      -1.392175       -37.8830
  14   2.0000      -1.181541       -32.1514
  15   2.0000      -1.114037       -30.3145
  16   2.0000      -1.043308       -28.3898
  17   2.0000      -0.970487       -26.4083
  18   2.0000      -0.959673       -26.1140
  19   2.0000      -0.952564       -25.9206
  20   2.0000      -0.851412       -23.1681
  21   2.0000      -0.839275       -22.8378
  22   2.0000      -0.768412       -20.9096
  23   2.0000      -0.710630       -19.3372
  24   2.0000      -0.706609       -19.2278
  25   2.0000      -0.671333       -18.2679
  26   2.0000      -0.649644       -17.6777
  27   2.0000      -0.635937       -17.3047
  28   2.0000      -0.628696       -17.1077
  29   2.0000      -0.615886       -16.7591
  30   2.0000      -0.598157       -16.2767
  31   2.0000      -0.593665       -16.1544
  32   2.0000      -0.569104       -15.4861
  33   2.0000      -0.568319       -15.4648
  34   2.0000      -0.552626       -15.0377
  35   2.0000      -0.539640       -14.6843
  36   2.0000      -0.520792       -14.1715
  37   2.0000      -0.512082       -13.9345
  38   2.0000      -0.501402       -13.6438
  39   2.0000      -0.489981       -13.3331
  40   2.0000      -0.477331       -12.9888
  41   2.0000      -0.452263       -12.3067
  42   2.0000      -0.408364       -11.1122
  43   2.0000      -0.355860        -9.6835
  44   0.0000       0.007933         0.2159
  45   0.0000       0.019405         0.5280
  46   0.0000       0.026710         0.7268
  47   0.0000       0.030630         0.8335
  48   0.0000       0.034078         0.9273

MULLIKEN ATOMIC CHARGES
-----------------------
   0 C :   -0.906995
   1 C :   -1.050134
   2 C :    1.838102
   3 C :   -0.472776
   4 C :    1.245770
   5 C :    0.932861
   6 O :   -1.060084
   7 O :   -1.051776
   8 C :    1.234711
   9 C :   -1.257843
  10 H :    0.222250
  11 H :    0.274427
  12 H :    0.274422
  13 C :   -1.198811
  14 H :    0.183080
  15 H :    0.328903
  16 H :    0.312284
  17 C :   -1.198810
  18 H :    0.183081
  19 H :    0.312286
  20 H :    0.328901
  21 H :    0.047298
  22 H :    0.443773
  23 H :    0.035079
Sum of atomic charges:   -0.0000000

LOEWDIN ATOMIC CHARGES
----------------------
   0 C :    0.234465
   1 C :    0.240111
   2 C :   -0.069319
   3 C :    0.232555
   4 C :   -0.532450
   5 C :   -0.524883
   6 O :    0.478985
   7 O :    0.478852
   8 C :   -0.350381
   9 C :    0.572492
  10 H :   -0.152056
  11 H :   -0.152685
  12 H :   -0.152685
  13 C :    0.597678
  14 H :   -0.150746
  15 H :   -0.167506
  16 H :   -0.144900
  17 C :    0.597678
  18 H :   -0.150745
  19 H :   -0.144901
  20 H :   -0.167507
  21 H :   -0.200421
  22 H :   -0.181434
  23 H :   -0.190195

  Mayer bond orders larger than 0.100000
B(  0-C ,  1-C ) :  -0.1477 B(  0-C ,  2-C ) :   0.1860 B(  0-C ,  3-C ) :   1.8767
B(  0-C ,  4-C ) :   0.7245 B(  0-C , 22-H ) :   0.6526 B(  1-C ,  2-C ) :   0.2881
B(  1-C ,  3-C ) :  -0.5704 B(  1-C ,  4-C ) :   0.2027 B(  1-C ,  5-C ) :   0.9977
B(  1-C ,  6-O ) :   0.2491 B(  1-C , 21-H ) :   1.3373 B(  1-C , 23-H ) :   0.2723
B(  2-C ,  3-C ) :   0.2071 B(  2-C ,  4-C ) :  -0.2908 B(  2-C ,  6-O ) :   0.1313
B(  2-C ,  8-C ) :   0.9254 B(  2-C , 21-H ) :  -0.1163 B(  2-C , 23-H ) :  -0.3097
B(  3-C ,  4-C ) :   0.1714 B(  3-C ,  7-O ) :   0.1770 B(  3-C ,  8-C ) :   0.2576
B(  3-C , 23-H ) :   1.2442 B(  4-C ,  5-C ) :   0.8462 B(  4-C ,  7-O ) :   0.4382
B(  5-C ,  6-O ) :   0.3493 B(  5-C ,  8-C ) :   0.1617 B(  5-C , 21-H ) :  -0.1671
B(  6-O , 21-H ) :   0.1789 B(  8-C ,  9-C ) :   0.3278 B(  8-C , 10-H ) :  -0.1135
B(  8-C , 13-C ) :   0.4946 B(  8-C , 17-C ) :   0.4946 B(  9-C , 10-H ) :   1.0956
B(  9-C , 11-H ) :   1.0561 B(  9-C , 12-H ) :   1.0561 B( 13-C , 14-H ) :   1.1077
B( 13-C , 15-H ) :   0.9710 B( 13-C , 16-H ) :   0.9878 B( 13-C , 17-C ) :   0.1211
B( 17-C , 18-H ) :   1.1077 B( 17-C , 19-H ) :   0.9877 B( 17-C , 20-H ) :   0.9710

MP2 TOTAL ENERGY:     -537.668133511 Eh
FINAL SINGLE POINT ENERGY      -537.668133510854

DIPOLE MOMENT
-------------
                                X             Y             Z
Electronic contribution:     20.41344       1.08831      -0.00021
Nuclear contribution   :    -23.12342      -2.04621       0.00030
                        -----------------------------------------
Total Dipole Moment    :     -2.70998      -0.95790       0.00009
                        -----------------------------------------
Magnitude (a.u.)       :      2.87430
Magnitude (Debye)      :      7.30588

Rotational constants in cm-1:     0.062257     0.019963     0.016795
Rotational constants in MHz :  1866.409122   598.471008   503.507079

                             ****ORCA TERMINATED NORMALLY****
TOTAL RUN TIME: 0 days 0 hours 11 minutes 5 seconds 73 msec
