                         Program Version 4.2.1 -  RELEASE  -
|  1> %pal
|  2>  nprocs 32
|  3> end
|  4> !RI-MP2 aug-cc-pVTZ aug-cc-pVTZ/C TightSCF
|  5> %maxcore 4500
|  6> *xyzfile 0 1  03_21R1.xyz
|  7>
|  8>
|  9>                          ****END OF INPUT****

CARTESIAN COORDINATES (ANGSTROEM)
---------------------------------
  Cl    -2.016113   -0.928519   -0.875565
  C     -1.193310    0.295319    0.236868
  C      0.309892    0.134905    0.077056
  C     -1.626458   -0.037142    1.660290
  C     -1.722903    1.659502   -0.175187
  C      0.902493   -1.111219    0.285852
  C      1.132898    1.214417   -0.223414
  H     -1.324266   -1.043987    1.944029
  H     -2.709463    0.043480    1.759284
  H     -1.154824    0.667966    2.349236
  H     -1.452444    1.900565   -1.202696
  H     -1.326538    2.431879    0.487715
  H     -2.809319    1.669110   -0.094862
  C      2.273973   -1.271492    0.198308
  C      3.087575   -0.184455   -0.099415
  C      2.511900    1.056567   -0.310297
  H      0.710749    2.194750   -0.395117
  H      2.710895   -2.249942    0.357530
  H      4.161321   -0.308682   -0.169687
  H      3.133080    1.911982   -0.547147
  H      0.278373   -1.970705    0.495960

 Total Charge           Charge          ....    0
 Multiplicity           Mult            ....    1
 Number of Electrons    NEL             ....   82
 Basis Dimension        Dim             ....  717

ORBITAL ENERGIES
----------------

  NO   OCC          E(Eh)            E(eV)
   0   2.0000    -104.811864     -2852.0758
   1   2.0000     -11.314715      -307.8890
   2   2.0000     -11.249667      -306.1190
   3   2.0000     -11.239082      -305.8310
   4   2.0000     -11.238063      -305.8032
   5   2.0000     -11.237499      -305.7879
   6   2.0000     -11.236371      -305.7572
   7   2.0000     -11.235583      -305.7358
   8   2.0000     -11.231269      -305.6184
   9   2.0000     -11.230807      -305.6058
  10   2.0000     -10.536375      -286.7093
  11   2.0000      -8.003009      -217.7729
  12   2.0000      -8.001395      -217.7290
  13   2.0000      -8.001380      -217.7286
  14   2.0000      -1.180792       -32.1310
  15   2.0000      -1.135378       -30.8952
  16   2.0000      -1.035381       -28.1741
  17   2.0000      -1.022055       -27.8115
  18   2.0000      -1.001707       -27.2578
  19   2.0000      -0.955521       -26.0010
  20   2.0000      -0.853556       -23.2264
  21   2.0000      -0.830724       -22.6052
  22   2.0000      -0.765770       -20.8377
  23   2.0000      -0.705890       -19.2083
  24   2.0000      -0.643920       -17.5220
  25   2.0000      -0.640677       -17.4337
  26   2.0000      -0.622105       -16.9283
  27   2.0000      -0.618162       -16.8211
  28   2.0000      -0.593820       -16.1587
  29   2.0000      -0.581188       -15.8149
  30   2.0000      -0.557527       -15.1711
  31   2.0000      -0.538686       -14.6584
  32   2.0000      -0.519018       -14.1232
  33   2.0000      -0.517582       -14.0841
  34   2.0000      -0.495654       -13.4874
  35   2.0000      -0.492104       -13.3908
  36   2.0000      -0.477179       -12.9847
  37   2.0000      -0.430648       -11.7185
  38   2.0000      -0.425610       -11.5814
  39   2.0000      -0.343073        -9.3355
  40   2.0000      -0.335317        -9.1244
  41   0.0000       0.026368         0.7175
  42   0.0000       0.031138         0.8473
  43   0.0000       0.033743         0.9182
  44   0.0000       0.041941         1.1413
  45   0.0000       0.044739         1.2174

MULLIKEN ATOMIC CHARGES
-----------------------
   0 Cl:   -0.585375
   1 C :    1.044951
   2 C :    1.746787
   3 C :   -1.150093
   4 C :   -1.121325
   5 C :   -0.927714
   6 C :   -0.628924
   7 H :    0.308665
   8 H :    0.233392
   9 H :    0.314901
  10 H :    0.313003
  11 H :    0.269541
  12 H :    0.292435
  13 C :   -0.768523
  14 C :   -0.266965
  15 C :   -0.690676
  16 H :   -0.162411
  17 H :    0.498807
  18 H :    0.454519
  19 H :    0.550055
  20 H :    0.274947
Sum of atomic charges:   -0.0000000

LOEWDIN ATOMIC CHARGES
----------------------
   0 Cl:    0.971749
   1 C :   -0.818600
   2 C :   -0.179264
   3 C :    0.504131
   4 C :    0.480649
   5 C :    0.177689
   6 C :    0.213564
   7 H :   -0.183362
   8 H :   -0.172172
   9 H :   -0.152550
  10 H :   -0.170808
  11 H :   -0.162962
  12 H :   -0.176729
  13 C :    0.205549
  14 C :    0.197152
  15 C :    0.206279
  16 H :   -0.200177
  17 H :   -0.180027
  18 H :   -0.182254
  19 H :   -0.180717
  20 H :   -0.197140

  Mayer bond orders larger than 0.100000
B(  0-Cl,  1-C ) :   0.4488 B(  1-C ,  2-C ) :   0.8001 B(  1-C ,  3-C ) :   0.6899
B(  1-C ,  4-C ) :   0.5624 B(  1-C ,  5-C ) :   0.1099 B(  2-C ,  5-C ) :   0.2235
B(  2-C , 15-C ) :   0.3120 B(  2-C , 16-H ) :  -0.3831 B(  2-C , 20-H ) :  -0.1701
B(  3-C ,  7-H ) :   0.9768 B(  3-C ,  8-H ) :   1.0388 B(  3-C ,  9-H ) :   0.9201
B(  4-C , 10-H ) :   0.9902 B(  4-C , 11-H ) :   0.9858 B(  4-C , 12-H ) :   1.0054
B(  5-C ,  6-C ) :  -0.1825 B(  5-C , 13-C ) :   1.4273 B(  5-C , 16-H ) :   0.1330
B(  5-C , 18-H ) :   0.1036 B(  5-C , 20-H ) :   1.1612 B(  6-C , 14-C ) :  -0.1135
B(  6-C , 15-C ) :   0.9212 B(  6-C , 16-H ) :   2.0643 B(  6-C , 18-H ) :   0.2042
B(  6-C , 19-H ) :  -0.1616 B(  6-C , 20-H ) :   0.1970 B( 13-C , 14-C ) :   1.1071
B( 13-C , 15-C ) :   0.2606 B( 13-C , 17-H ) :   0.7242 B( 13-C , 18-H ) :  -0.2066
B( 14-C , 15-C ) :   1.1222 B( 14-C , 18-H ) :   0.8120 B( 15-C , 16-H ) :  -0.1637
B( 15-C , 18-H ) :  -0.1991 B( 15-C , 19-H ) :   0.6325

MP2 TOTAL ENERGY:     -808.556339613 Eh
FINAL SINGLE POINT ENERGY      -808.556339613003

DIPOLE MOMENT
-------------
                                X             Y             Z
Electronic contribution:     -2.67997      -5.95344      -5.63170
Nuclear contribution   :      3.08913       6.54768       6.21114
                        -----------------------------------------
Total Dipole Moment    :      0.40916       0.59424       0.57944
                        -----------------------------------------
Magnitude (a.u.)       :      0.92536
Magnitude (Debye)      :      2.35208

Rotational constants in cm-1:     0.069997     0.026152     0.023162
Rotational constants in MHz :  2098.462651   784.013983   694.379905

                             ****ORCA TERMINATED NORMALLY****
TOTAL RUN TIME: 0 days 0 hours 7 minutes 31 seconds 341 msec
