                         Program Version 4.2.1 -  RELEASE  -
|  1> %pal
|  2>  nprocs 32
|  3> end
|  4> !RI-MP2 aug-cc-pVTZ aug-cc-pVTZ/C TightSCF
|  5> %maxcore 4500
|  6> *xyzfile 0 1  10_62P.xyz
|  7>
|  8>
|  9>                          ****END OF INPUT****

CARTESIAN COORDINATES (ANGSTROEM)
---------------------------------
  C     -0.655287    0.985955    0.668963
  C     -1.616988    0.015328    0.011942
  C     -2.922774    0.241116   -0.041959
  C      2.631143   -0.681655    0.139950
  C      1.319806   -0.459351    0.116854
  C      0.721321    0.897830    0.058159
  C      1.303288    1.935408   -0.536276
  C      0.308818   -1.584764    0.185247
  C     -0.972283   -1.221912   -0.567907
  H     -0.579436    0.724994    1.732354
  H      0.825163    2.907505   -0.558583
  H      2.264118    1.844970   -1.027468
  H     -1.041230    2.004161    0.617762
  H      0.061447   -1.784241    1.234430
  H      0.748810   -2.500873   -0.211725
  H     -1.679536   -2.053034   -0.564319
  H     -0.715406   -1.026142   -1.615289
  H      3.027623   -1.690282    0.157743
  H      3.346891    0.130603    0.158596
  H     -3.602501   -0.478055   -0.484997
  H     -3.358209    1.152661    0.351661

 Total Charge           Charge          ....    0
 Multiplicity           Mult            ....    1
 Number of Electrons    NEL             ....   66
 Basis Dimension        Dim             ....  690

ORBITAL ENERGIES
----------------

  NO   OCC          E(Eh)            E(eV)
   0   2.0000     -11.241228      -305.8894
   1   2.0000     -11.240392      -305.8666
   2   2.0000     -11.239790      -305.8502
   3   2.0000     -11.231917      -305.6360
   4   2.0000     -11.229964      -305.5829
   5   2.0000     -11.227675      -305.5206
   6   2.0000     -11.219145      -305.2885
   7   2.0000     -11.217553      -305.2451
   8   2.0000     -11.209381      -305.0228
   9   2.0000      -1.150257       -31.3001
  10   2.0000      -1.071633       -29.1606
  11   2.0000      -1.042603       -28.3707
  12   2.0000      -0.973441       -26.4887
  13   2.0000      -0.931939       -25.3594
  14   2.0000      -0.861774       -23.4501
  15   2.0000      -0.810647       -22.0588
  16   2.0000      -0.732481       -19.9318
  17   2.0000      -0.677060       -18.4237
  18   2.0000      -0.654513       -17.8102
  19   2.0000      -0.645217       -17.5572
  20   2.0000      -0.635961       -17.3054
  21   2.0000      -0.586536       -15.9604
  22   2.0000      -0.574849       -15.6424
  23   2.0000      -0.566356       -15.4113
  24   2.0000      -0.550771       -14.9873
  25   2.0000      -0.540556       -14.7093
  26   2.0000      -0.528305       -14.3759
  27   2.0000      -0.479877       -13.0581
  28   2.0000      -0.476979       -12.9793
  29   2.0000      -0.460447       -12.5294
  30   2.0000      -0.406388       -11.0584
  31   2.0000      -0.348218        -9.4755
  32   2.0000      -0.320799        -8.7294
  33   0.0000       0.029794         0.8107
  34   0.0000       0.031744         0.8638
  35   0.0000       0.033484         0.9111
  36   0.0000       0.037749         1.0272
  37   0.0000       0.046102         1.2545

MULLIKEN ATOMIC CHARGES
-----------------------
   0 C :   -0.427877
   1 C :    0.852409
   2 C :   -1.421523
   3 C :   -1.503464
   4 C :    1.293598
   5 C :    0.730258
   6 C :   -1.617077
   7 C :   -0.438061
   8 C :   -0.419226
   9 H :    0.151750
  10 H :    0.403500
  11 H :    0.229241
  12 H :    0.095074
  13 H :    0.174806
  14 H :    0.243539
  15 H :    0.173586
  16 H :    0.217550
  17 H :    0.259060
  18 H :    0.370901
  19 H :    0.319044
  20 H :    0.312912
Sum of atomic charges:    0.0000000

LOEWDIN ATOMIC CHARGES
----------------------
   0 C :    0.266499
   1 C :   -0.104789
   2 C :    0.549873
   3 C :    0.553807
   4 C :   -0.121024
   5 C :   -0.128932
   6 C :    0.559865
   7 C :    0.277392
   8 C :    0.282627
   9 H :   -0.132018
  10 H :   -0.209954
  11 H :   -0.216201
  12 H :   -0.156546
  13 H :   -0.133577
  14 H :   -0.146094
  15 H :   -0.145282
  16 H :   -0.132396
  17 H :   -0.210812
  18 H :   -0.218793
  19 H :   -0.216953
  20 H :   -0.216690

  Mayer bond orders larger than 0.100000
B(  0-C ,  1-C ) :   0.8343 B(  0-C ,  2-C ) :  -0.1353 B(  0-C ,  5-C ) :   1.0679
B(  0-C ,  9-H ) :   1.0692 B(  0-C , 12-H ) :   1.1112 B(  1-C ,  2-C ) :   0.9642
B(  1-C ,  4-C ) :  -0.1194 B(  1-C ,  5-C ) :   0.1499 B(  1-C ,  8-C ) :   0.7652
B(  2-C ,  8-C ) :  -0.1833 B(  2-C , 19-H ) :   0.9858 B(  2-C , 20-H ) :   1.0068
B(  3-C ,  4-C ) :   0.8486 B(  3-C ,  6-C ) :   0.1823 B(  3-C ,  7-C ) :  -0.1556
B(  3-C , 17-H ) :   1.0871 B(  3-C , 18-H ) :   0.9144 B(  4-C ,  5-C ) :   0.5524
B(  4-C ,  6-C ) :  -0.2845 B(  4-C ,  7-C ) :   0.7841 B(  5-C ,  6-C ) :   0.9017
B(  6-C , 10-H ) :   0.7882 B(  6-C , 11-H ) :   1.2326 B(  7-C ,  8-C ) :   1.0267
B(  7-C , 13-H ) :   1.0589 B(  7-C , 14-H ) :   0.9918 B(  8-C , 15-H ) :   1.0655
B(  8-C , 16-H ) :   1.0153

MP2 TOTAL ENERGY:     -349.356502224 Eh
FINAL SINGLE POINT ENERGY      -349.356502223510

DIPOLE MOMENT
-------------
                                X             Y             Z
Electronic contribution:      0.73155       0.63461       0.26018
Nuclear contribution   :     -0.72422      -0.79174      -0.21640
                        -----------------------------------------
Total Dipole Moment    :      0.00733      -0.15713       0.04378
                        -----------------------------------------
Magnitude (a.u.)       :      0.16328
Magnitude (Debye)      :      0.41502

Rotational constants in cm-1:     0.092428     0.046582     0.033873
Rotational constants in MHz :  2770.921625  1396.496198  1015.501121

                             ****ORCA TERMINATED NORMALLY****
TOTAL RUN TIME: 0 days 0 hours 5 minutes 31 seconds 313 msec
