                         Program Version 4.2.1 -  RELEASE  -
|  1> %pal
|  2>  nprocs 32
|  3> end
|  4> !RI-MP2 aug-cc-pVTZ aug-cc-pVTZ/C TightSCF
|  5> %maxcore 4500
|  6> *xyzfile 0 1  02_15R.xyz
|  7>
|  8>
|  9>                          ****END OF INPUT****

CARTESIAN COORDINATES (ANGSTROEM)
---------------------------------
  C      0.772882    0.741441    0.652118
  C      2.268810    0.827145    0.667987
  C     -3.115737    0.500179   -1.540309
  C      0.141128    1.929987   -0.061318
  H      0.467911   -0.191994    0.163591
  C     -1.361261    1.751470   -0.264497
  H      0.327677    2.819486    0.545620
  H      0.629039    2.086618   -1.027252
  C     -1.670726    0.884626   -1.483582
  H     -1.780473    1.280141    0.630264
  C      3.079104   -0.091629    0.146658
  C      4.531326   -0.000035    0.154259
  C     -3.715567   -0.568947   -1.004808
  C      5.346250   -0.919526   -0.362179
  H     -1.419764    1.472616   -2.370516
  H     -1.036164    0.001876   -1.460150
  C      6.836384   -0.815760   -0.352470
  H      7.280117   -1.671321    0.161053
  H      7.148216    0.090950    0.179708
  C     -2.939320   -1.577792   -0.240245
  C     -3.036647   -3.681182    0.804371
  H     -3.784623   -4.455462    0.952867
  H     -2.690483   -3.293513    1.762529
  H     -2.183473   -4.073094    0.250809
  O     -3.688776   -2.653686    0.056745
  O      0.254999    0.751400    1.978833
  O     -2.010651    2.999082   -0.481284
  O     -1.783228   -1.492947    0.106320
  O      7.385463   -0.849671   -1.665655
  H      6.975811   -0.149531   -2.181609
  C      0.389514   -0.484292    2.649022
  H     -0.143535   -1.274849    2.109810
  H      1.441412   -0.769378    2.763262
  H     -0.051939   -0.358031    3.637024
  C     -2.319906    3.696545    0.702264
  H     -2.802079    4.628420    0.409085
  H     -3.006443    3.117829    1.332383
  H     -1.425808    3.931465    1.290857
  C     -5.195587   -0.800664   -1.150212
  H     -5.401195   -1.733673   -1.678088
  H     -5.683825   -0.875284   -0.176341
  H     -5.651367    0.020158   -1.703895
  H      4.932136   -1.802978   -0.842894
  H      4.959471    0.883375    0.624457
  H      2.685424    1.708128    1.152960
  H      2.647902   -0.973783   -0.322200
  H     -3.760285    1.199016   -2.065364

 Total Charge           Charge          ....    0
 Multiplicity           Mult            ....    1
 Number of Electrons    NEL             ....  162
 Basis Dimension        Dim             .... 1564

ORBITAL ENERGIES
----------------

  NO   OCC          E(Eh)            E(eV)
   0   2.0000     -20.605820      -560.7129
   1   2.0000     -20.557103      -559.3872
   2   2.0000     -20.548441      -559.1515
   3   2.0000     -20.547722      -559.1320
   4   2.0000     -20.542145      -558.9802
   5   2.0000     -11.381685      -309.7114
   6   2.0000     -11.288306      -307.1704
   7   2.0000     -11.279813      -306.9393
   8   2.0000     -11.276308      -306.8439
   9   2.0000     -11.271835      -306.7222
  10   2.0000     -11.263163      -306.4863
  11   2.0000     -11.256412      -306.3025
  12   2.0000     -11.251471      -306.1681
  13   2.0000     -11.243620      -305.9545
  14   2.0000     -11.240345      -305.8653
  15   2.0000     -11.235340      -305.7291
  16   2.0000     -11.232487      -305.6515
  17   2.0000     -11.229890      -305.5808
  18   2.0000     -11.224083      -305.4228
  19   2.0000     -11.220701      -305.3308
  20   2.0000     -11.214627      -305.1655
  21   2.0000      -1.466712       -39.9113
  22   2.0000      -1.371007       -37.3070
  23   2.0000      -1.366629       -37.1879
  24   2.0000      -1.360849       -37.0306
  25   2.0000      -1.359231       -36.9866
  26   2.0000      -1.116291       -30.3758
  27   2.0000      -1.109438       -30.1893
  28   2.0000      -1.073788       -29.2193
  29   2.0000      -1.042258       -28.3613
  30   2.0000      -1.004026       -27.3209
  31   2.0000      -0.976301       -26.5665
  32   2.0000      -0.948473       -25.8093
  33   2.0000      -0.921699       -25.0807
  34   2.0000      -0.909661       -24.7531
  35   2.0000      -0.894813       -24.3491
  36   2.0000      -0.855595       -23.2819
  37   2.0000      -0.830691       -22.6043
  38   2.0000      -0.790035       -21.4979
  39   2.0000      -0.776005       -21.1162
  40   2.0000      -0.763869       -20.7859
  41   2.0000      -0.757420       -20.6104
  42   2.0000      -0.697762       -18.9871
  43   2.0000      -0.685086       -18.6421
  44   2.0000      -0.678780       -18.4705
  45   2.0000      -0.675933       -18.3931
  46   2.0000      -0.674478       -18.3535
  47   2.0000      -0.656446       -17.8628
  48   2.0000      -0.655305       -17.8318
  49   2.0000      -0.642097       -17.4724
  50   2.0000      -0.624420       -16.9913
  51   2.0000      -0.619337       -16.8530
  52   2.0000      -0.611938       -16.6517
  53   2.0000      -0.607001       -16.5173
  54   2.0000      -0.605813       -16.4850
  55   2.0000      -0.602397       -16.3921
  56   2.0000      -0.588922       -16.0254
  57   2.0000      -0.578338       -15.7374
  58   2.0000      -0.571542       -15.5524
  59   2.0000      -0.555512       -15.1163
  60   2.0000      -0.549940       -14.9646
  61   2.0000      -0.547062       -14.8863
  62   2.0000      -0.537866       -14.6361
  63   2.0000      -0.534072       -14.5328
  64   2.0000      -0.529200       -14.4003
  65   2.0000      -0.519011       -14.1230
  66   2.0000      -0.513864       -13.9829
  67   2.0000      -0.502086       -13.6624
  68   2.0000      -0.495406       -13.4807
  69   2.0000      -0.493232       -13.4215
  70   2.0000      -0.485913       -13.2224
  71   2.0000      -0.468193       -12.7402
  72   2.0000      -0.462814       -12.5938
  73   2.0000      -0.460050       -12.5186
  74   2.0000      -0.454495       -12.3674
  75   2.0000      -0.443287       -12.0625
  76   2.0000      -0.439252       -11.9527
  77   2.0000      -0.423910       -11.5352
  78   2.0000      -0.404515       -11.0074
  79   2.0000      -0.360829        -9.8186
  80   2.0000      -0.320395        -8.7184
  81   0.0000       0.023485         0.6391
  82   0.0000       0.028218         0.7678
  83   0.0000       0.029262         0.7963
  84   0.0000       0.031155         0.8478
  85   0.0000       0.036086         0.9820

MULLIKEN ATOMIC CHARGES
-----------------------
   0 C :    1.365213
   1 C :   -0.707998
   2 C :   -0.885314
   3 C :   -0.903043
   4 H :    0.617665
   5 C :    1.133337
   6 H :    0.196149
   7 H :    0.184285
   8 C :   -0.237522
   9 H :    0.372985
  10 C :    0.057963
  11 C :   -0.022576
  12 C :    1.362010
  13 C :   -0.575811
  14 H :    0.420549
  15 H :    0.145515
  16 C :   -0.110264
  17 H :    0.352111
  18 H :    0.281815
  19 C :    0.549950
  20 C :   -0.950308
  21 H :    0.363204
  22 H :    0.408026
  23 H :    0.338323
  24 O :   -0.600048
  25 O :   -0.796583
  26 O :   -1.018729
  27 O :   -0.538282
  28 O :   -0.618449
  29 H :    0.185515
  30 C :   -1.164025
  31 H :    0.595745
  32 H :    0.390409
  33 H :    0.248833
  34 C :   -1.145799
  35 H :    0.376915
  36 H :    0.346162
  37 H :    0.371240
  38 C :   -1.059136
  39 H :    0.231033
  40 H :    0.221125
  41 H :    0.249679
  42 H :    0.218532
  43 H :    0.113493
  44 H :   -0.063856
  45 H :   -0.214830
  46 H :   -0.085206
Sum of atomic charges:   -0.0000000

LOEWDIN ATOMIC CHARGES
----------------------
   0 C :   -0.301381
   1 C :    0.229776
   2 C :    0.269347
   3 C :    0.306705
   4 H :   -0.179479
   5 C :   -0.269817
   6 H :   -0.155858
   7 H :   -0.131406
   8 C :    0.279554
   9 H :   -0.158891
  10 C :    0.197445
  11 C :    0.184581
  12 C :   -0.093165
  13 C :    0.214556
  14 H :   -0.140881
  15 H :   -0.206073
  16 C :    0.004231
  17 H :   -0.169444
  18 H :   -0.169511
  19 C :   -0.807540
  20 C :    0.358469
  21 H :   -0.183748
  22 H :   -0.179651
  23 H :   -0.178960
  24 O :    0.574714
  25 O :    0.582305
  26 O :    0.583568
  27 O :    0.516480
  28 O :    0.798216
  29 H :   -0.501987
  30 C :    0.328472
  31 H :   -0.198167
  32 H :   -0.178220
  33 H :   -0.182933
  34 C :    0.327058
  35 H :   -0.182860
  36 H :   -0.170912
  37 H :   -0.180853
  38 C :    0.548673
  39 H :   -0.172999
  40 H :   -0.169920
  41 H :   -0.180937
  42 H :   -0.178549
  43 H :   -0.183349
  44 H :   -0.159287
  45 H :   -0.176317
  46 H :   -0.161056

  Mayer bond orders larger than 0.100000
B(  0-C ,  1-C ) :   0.4217 B(  0-C ,  3-C ) :   0.6267 B(  0-C ,  4-H ) :   0.9176
B(  0-C , 10-C ) :   0.1437 B(  0-C , 42-H ) :   0.1052 B(  1-C ,  4-H ) :  -0.1745
B(  1-C , 10-C ) :   1.0105 B(  1-C , 13-C ) :   0.2893 B(  1-C , 44-H ) :   1.8087
B(  1-C , 45-H ) :  -0.3130 B(  2-C ,  5-C ) :   0.2063 B(  2-C ,  8-C ) :   0.6049
B(  2-C , 12-C ) :   1.3474 B(  2-C , 14-H ) :  -0.2890 B(  2-C , 15-H ) :   0.1442
B(  2-C , 19-C ) :   0.4804 B(  2-C , 46-H ) :   1.5450 B(  3-C ,  5-C ) :   0.8664
B(  3-C ,  6-H ) :   1.1043 B(  3-C ,  7-H ) :   1.1003 B(  3-C ,  8-C ) :   0.1013
B(  3-C , 10-C ) :  -0.1206 B(  3-C , 25-O ) :   0.1773 B(  3-C , 26-O ) :   0.2592
B(  4-H , 10-C ) :  -0.1198 B(  4-H , 27-O ) :  -0.1097 B(  4-H , 45-H ) :  -0.1435
B(  5-C ,  8-C ) :   0.7374 B(  5-C ,  9-H ) :   0.9542 B(  5-C , 26-O ) :  -0.2380
B(  5-C , 34-C ) :  -0.2601 B(  8-C , 14-H ) :   0.8759 B(  8-C , 15-H ) :   1.1609
B(  8-C , 26-O ) :   0.1684 B(  9-H , 26-O ) :  -0.2486 B( 10-C , 11-C ) :   0.1169
B( 10-C , 43-H ) :  -0.1891 B( 10-C , 44-H ) :  -0.2460 B( 10-C , 45-H ) :   2.1375
B( 11-C , 13-C ) :   0.7341 B( 11-C , 42-H ) :  -0.1398 B( 11-C , 43-H ) :   1.3383
B( 12-C , 19-C ) :   0.1105 B( 12-C , 27-O ) :  -0.1484 B( 12-C , 38-C ) :   0.5100
B( 12-C , 40-H ) :  -0.1007 B( 12-C , 46-H ) :  -0.2493 B( 13-C , 16-C ) :   0.7699
B( 13-C , 42-H ) :   1.1757 B( 16-C , 17-H ) :   0.9257 B( 16-C , 18-H ) :   0.9985
B( 16-C , 28-O ) :   0.7878 B( 19-C , 20-C ) :  -0.1203 B( 19-C , 24-O ) :   0.8206
B( 19-C , 27-O ) :   1.5314 B( 20-C , 21-H ) :   0.9219 B( 20-C , 22-H ) :   0.8342
B( 20-C , 23-H ) :   0.9007 B( 20-C , 24-O ) :   1.0253 B( 20-C , 27-O ) :  -0.1115
B( 24-O , 27-O ) :  -0.2698 B( 25-O , 30-C ) :   1.1440 B( 26-O , 34-C ) :   1.3439
B( 28-O , 29-H ) :   0.9954 B( 30-C , 31-H ) :   0.5845 B( 30-C , 32-H ) :   0.8663
B( 30-C , 33-H ) :   1.0985 B( 34-C , 35-H ) :   0.9402 B( 34-C , 36-H ) :   0.8743
B( 34-C , 37-H ) :   0.8656 B( 38-C , 39-H ) :   1.1091 B( 38-C , 40-H ) :   1.0770
B( 38-C , 41-H ) :   0.9990 B( 42-H , 45-H ) :  -0.1019 B( 44-H , 45-H ) :   0.1416

MP2 TOTAL ENERGY:     -999.550568682 Eh
FINAL SINGLE POINT ENERGY      -999.550568681513

DIPOLE MOMENT
-------------
                                X             Y             Z
Electronic contribution:      0.39329      -1.92050      -3.86400
Nuclear contribution   :     -1.34989       1.62897       4.21928
                        -----------------------------------------
Total Dipole Moment    :     -0.95661      -0.29153       0.35527
                        -----------------------------------------
Magnitude (a.u.)       :      1.06127
Magnitude (Debye)      :      2.69754

Rotational constants in cm-1:     0.012886     0.003982     0.003508
Rotational constants in MHz :   386.298982   119.378269   105.155570

                             ****ORCA TERMINATED NORMALLY****
TOTAL RUN TIME: 0 days 1 hours 4 minutes 10 seconds 8 msec
