                         Program Version 4.2.1 -  RELEASE  -
|  1> %pal
|  2>  nprocs 32
|  3> end
|  4> !RI-MP2 aug-cc-pVTZ aug-cc-pVTZ/C TightSCF
|  5> %maxcore 4500
|  6> *xyzfile 0 1  10_54TS.xyz
|  7>
|  8>
|  9>                          ****END OF INPUT****

CARTESIAN COORDINATES (ANGSTROEM)
---------------------------------
  C      0.181132    1.384768    1.357090
  N     -0.291005    0.054311    1.020510
  C      0.494250   -1.097449    1.423607
  C      1.501133   -1.623810    0.386466
  C      2.887805   -1.023168    0.469667
  C      2.429823    0.855324   -0.585826
  C      1.164848    1.546453   -0.996245
  C      0.472968    2.284980    0.145372
  C      3.762328   -0.918410   -0.645896
  C      3.232064    0.062771   -1.444975
  H      2.936838    1.281126    0.270461
  H      3.330515   -1.204006    1.457482
  C     -1.511431   -0.126488    0.392088
  C     -1.867094   -1.362589   -0.175324
  C     -3.095769   -1.537941   -0.790373
  C     -4.011331   -0.498948   -0.875523
  C     -3.669276    0.727389   -0.324043
  C     -2.446448    0.917756    0.297928
  H     -0.522973    1.893670    2.027739
  H      1.099069    1.249760    1.927115
  H      1.028111   -0.837985    2.342287
  H     -0.196481   -1.897600    1.696948
  H      1.095771   -1.516143   -0.620124
  H      1.613362   -2.703486    0.564521
  H      1.405562    2.261667   -1.794486
  H      0.471887    0.826754   -1.440346
  H      1.097555    3.115563    0.490467
  H     -0.449362    2.727961   -0.232838
  H      4.718050   -1.425000   -0.747114
  H      3.331123    0.203994   -2.517771
  H     -1.175297   -2.192346   -0.152754
  H     -3.333166   -2.505448   -1.217679
  H     -4.967573   -0.640838   -1.362332
  H     -4.367395    1.555421   -0.370080
  H     -2.228574    1.882931    0.730856

 Total Charge           Charge          ....    0
 Multiplicity           Mult            ....    1
 Number of Electrons    NEL             ....  116
 Basis Dimension        Dim             .... 1173

ORBITAL ENERGIES
----------------

  NO   OCC          E(Eh)            E(eV)
   0   2.0000     -15.560313      -423.4176
   1   2.0000     -11.274452      -306.7934
   2   2.0000     -11.258081      -306.3480
   3   2.0000     -11.256926      -306.3165
   4   2.0000     -11.249053      -306.1023
   5   2.0000     -11.246204      -306.0248
   6   2.0000     -11.228896      -305.5538
   7   2.0000     -11.228730      -305.5493
   8   2.0000     -11.226096      -305.4776
   9   2.0000     -11.222516      -305.3802
  10   2.0000     -11.222186      -305.3712
  11   2.0000     -11.221009      -305.3392
  12   2.0000     -11.220644      -305.3293
  13   2.0000     -11.216215      -305.2087
  14   2.0000     -11.216005      -305.2030
  15   2.0000     -11.211714      -305.0863
  16   2.0000      -1.258657       -34.2498
  17   2.0000      -1.138089       -30.9690
  18   2.0000      -1.127733       -30.6872
  19   2.0000      -1.075815       -29.2744
  20   2.0000      -1.028926       -27.9985
  21   2.0000      -1.010103       -27.4863
  22   2.0000      -0.989880       -26.9360
  23   2.0000      -0.971021       -26.4228
  24   2.0000      -0.888784       -24.1850
  25   2.0000      -0.870150       -23.6780
  26   2.0000      -0.829816       -22.5804
  27   2.0000      -0.817925       -22.2569
  28   2.0000      -0.787281       -21.4230
  29   2.0000      -0.766766       -20.8648
  30   2.0000      -0.715306       -19.4645
  31   2.0000      -0.704916       -19.1817
  32   2.0000      -0.666027       -18.1235
  33   2.0000      -0.655716       -17.8429
  34   2.0000      -0.651796       -17.7363
  35   2.0000      -0.631754       -17.1909
  36   2.0000      -0.625501       -17.0207
  37   2.0000      -0.599690       -16.3184
  38   2.0000      -0.597601       -16.2615
  39   2.0000      -0.583123       -15.8676
  40   2.0000      -0.580484       -15.7958
  41   2.0000      -0.565374       -15.3846
  42   2.0000      -0.560220       -15.2444
  43   2.0000      -0.545674       -14.8485
  44   2.0000      -0.531226       -14.4554
  45   2.0000      -0.514859       -14.0100
  46   2.0000      -0.503622       -13.7043
  47   2.0000      -0.501408       -13.6440
  48   2.0000      -0.493168       -13.4198
  49   2.0000      -0.485144       -13.2014
  50   2.0000      -0.480225       -13.0676
  51   2.0000      -0.471994       -12.8436
  52   2.0000      -0.470357       -12.7991
  53   2.0000      -0.402521       -10.9532
  54   2.0000      -0.338797        -9.2191
  55   2.0000      -0.333049        -9.0627
  56   2.0000      -0.299023        -8.1368
  57   2.0000      -0.276772        -7.5313
  58   0.0000       0.026072         0.7095
  59   0.0000       0.029457         0.8016
  60   0.0000       0.030660         0.8343
  61   0.0000       0.032304         0.8790
  62   0.0000       0.039748         1.0816

MULLIKEN ATOMIC CHARGES
-----------------------
   0 C :   -0.612431
   1 N :   -0.034339
   2 C :   -0.768730
   3 C :   -0.230500
   4 C :   -0.224617
   5 C :    0.487694
   6 C :   -0.470778
   7 C :   -0.464803
   8 C :   -0.932007
   9 C :   -1.298114
  10 H :    0.495239
  11 H :    0.356078
  12 C :    1.404750
  13 C :   -0.375006
  14 C :   -0.932041
  15 C :   -0.373715
  16 C :   -0.924342
  17 C :   -0.211777
  18 H :    0.231559
  19 H :    0.159627
  20 H :    0.238903
  21 H :    0.209325
  22 H :    0.204870
  23 H :    0.444174
  24 H :    0.415669
  25 H :    0.133053
  26 H :    0.303447
  27 H :    0.218033
  28 H :    0.503854
  29 H :    0.493819
  30 H :    0.090788
  31 H :    0.328394
  32 H :    0.671790
  33 H :    0.281784
  34 H :    0.180348
Sum of atomic charges:    0.0000000

LOEWDIN ATOMIC CHARGES
----------------------
   0 C :    0.200298
   1 N :    0.294541
   2 C :    0.199844
   3 C :    0.274484
   4 C :    0.195233
   5 C :    0.186712
   6 C :    0.287148
   7 C :    0.306205
   8 C :    0.186157
   9 C :    0.193046
  10 H :   -0.182423
  11 H :   -0.152443
  12 C :   -0.205108
  13 C :    0.226798
  14 C :    0.190259
  15 C :    0.184084
  16 C :    0.191243
  17 C :    0.225370
  18 H :   -0.136037
  19 H :   -0.158330
  20 H :   -0.143871
  21 H :   -0.159885
  22 H :   -0.168058
  23 H :   -0.140006
  24 H :   -0.131536
  25 H :   -0.151322
  26 H :   -0.134924
  27 H :   -0.161697
  28 H :   -0.177497
  29 H :   -0.167349
  30 H :   -0.205431
  31 H :   -0.178833
  32 H :   -0.193965
  33 H :   -0.178517
  34 H :   -0.214189

  Mayer bond orders larger than 0.100000
B(  0-C ,  1-N ) :   1.1218 B(  0-C ,  2-C ) :  -0.1736 B(  0-C ,  6-C ) :   0.1252
B(  0-C ,  7-C ) :   0.8228 B(  0-C , 12-C ) :  -0.1934 B(  0-C , 18-H ) :   1.0626
B(  0-C , 19-H ) :   1.1367 B(  1-N ,  2-C ) :   1.1433 B(  1-N ,  3-C ) :  -0.1121
B(  1-N , 12-C ) :   0.5007 B(  1-N , 13-C ) :  -0.5657 B(  1-N , 17-C ) :  -0.2937
B(  1-N , 19-H ) :  -0.1239 B(  1-N , 20-H ) :  -0.1324 B(  1-N , 30-H ) :  -0.1059
B(  2-C ,  3-C ) :   0.8611 B(  2-C , 12-C ) :  -0.3474 B(  2-C , 17-C ) :   0.1560
B(  2-C , 20-H ) :   0.9873 B(  2-C , 21-H ) :   1.1600 B(  3-C ,  4-C ) :   0.7551
B(  3-C ,  8-C ) :   0.2434 B(  3-C ,  9-C ) :   0.1960 B(  3-C , 22-H ) :   1.0461
B(  3-C , 23-H ) :   0.8267 B(  4-C ,  5-C ) :   0.4983 B(  4-C ,  8-C ) :   1.1624
B(  4-C ,  9-C ) :   0.2157 B(  4-C , 11-H ) :   0.8598 B(  4-C , 22-H ) :   0.1354
B(  4-C , 23-H ) :  -0.1750 B(  5-C ,  6-C ) :   0.6559 B(  5-C ,  7-C ) :   0.1473
B(  5-C ,  9-C ) :   0.3226 B(  5-C , 10-H ) :   0.8015 B(  6-C ,  7-C ) :   0.9010
B(  6-C , 24-H ) :   0.8268 B(  6-C , 25-H ) :   1.1583 B(  7-C , 26-H ) :   0.8703
B(  7-C , 27-H ) :   1.0834 B(  8-C ,  9-C ) :   1.2399 B(  8-C , 28-H ) :   0.7324
B(  9-C , 10-H ) :  -0.1159 B(  9-C , 29-H ) :   0.7578 B( 12-C , 13-C ) :   0.8014
B( 12-C , 15-C ) :  -0.1625 B( 12-C , 17-C ) :   0.9165 B( 12-C , 30-H ) :  -0.3506
B( 12-C , 31-H ) :   0.1439 B( 12-C , 34-H ) :  -0.3391 B( 13-C , 14-C ) :   1.2660
B( 13-C , 15-C ) :   0.1869 B( 13-C , 17-C ) :  -0.3877 B( 13-C , 30-H ) :   1.4342
B( 14-C , 15-C ) :   1.1894 B( 14-C , 31-H ) :   0.9762 B( 14-C , 32-H ) :  -0.1152
B( 15-C , 16-C ) :   1.1264 B( 15-C , 17-C ) :   0.1246 B( 15-C , 32-H ) :   0.4511
B( 16-C , 17-C ) :   0.9819 B( 16-C , 33-H ) :   1.0336 B( 17-C , 34-H ) :   1.3177

MP2 TOTAL ENERGY:     -636.329540746 Eh
FINAL SINGLE POINT ENERGY      -636.329540745505

DIPOLE MOMENT
-------------
                                X             Y             Z
Electronic contribution:     -4.59304      -1.92297      -0.79167
Nuclear contribution   :      4.98911       2.12043       1.08083
                        -----------------------------------------
Total Dipole Moment    :      0.39607       0.19745       0.28916
                        -----------------------------------------
Magnitude (a.u.)       :      0.52866
Magnitude (Debye)      :      1.34374

Rotational constants in cm-1:     0.033942     0.011850     0.010661
Rotational constants in MHz :  1017.564520   355.250041   319.604227

                             ****ORCA TERMINATED NORMALLY****
TOTAL RUN TIME: 0 days 0 hours 32 minutes 47 seconds 579 msec
