 Gaussian 16, Revision C.01,

 ----------------------------------------------------------------------
 #t hf aug-cc-pvdz symm=none int=(grid=ultrafine) guess=(read,tcheck) s
 table=(opt,rrhf)
 ----------------------------------------------------------------------
 -----
 title
 -----
 Symbolic Z-matrix:
 Charge =  0 Multiplicity = 1

 SCF Done:  E(RHF) =  -414.905860289     A.U. after   11 cycles
 Normal termination of Gaussian 16 at Sat Apr  5 22:05:10 2025.
 Gaussian 16:  ES64L-G16RevC.01  3-Jul-2019

 ----------------------------------------------------------------------
 #t hf aug-cc-pvdz iop(5/13=1,5/36=2,99/5=2) pseudo=read geom=check gue
 ss=(read,tcheck) scf=(maxcycle=1)
 ----------------------------------------------------------------------
 -----
 title
 -----
 Structure from the checkpoint file:  "1-1-1-trifluoropropane.chk"
 Charge =  0 Multiplicity = 1

                         Standard orientation:
 ---------------------------------------------------------------------
 Center     Atomic      Atomic             Coordinates (Angstroms)
 Number     Number       Type             X           Y           Z
 ---------------------------------------------------------------------
      1          6           0       -1.755788   -1.135628    0.000000
      2          6           0       -1.135780    0.259439    0.000000
      3          6           0        0.373557    0.244819    0.000000
      4          9           0        0.879802   -0.382880    1.085643
      5          9           0        0.879802    1.498257    0.000000
      6          9           0        0.879802   -0.382880   -1.085643
      7          1           0       -1.459013   -1.700292    0.882744
      8          1           0       -2.842020   -1.057015    0.000000
      9          1           0       -1.459013   -1.700292   -0.882744
     10          1           0       -1.443277    0.826675    0.878962
     11          1           0       -1.443277    0.826675   -0.878962
 ---------------------------------------------------------------------

 SCF Done:  E(RHF) =  -415.053615709     A.U. after    2 cycles

 The electronic state is 1-A'.
 Alpha  occ. eigenvalues --  -26.15713 -26.15704 -26.15674 -11.51687 -11.27184
 Alpha  occ. eigenvalues --  -11.24892  -1.75107  -1.68069  -1.68058  -1.10234
 Alpha  occ. eigenvalues --   -0.99721  -0.90750  -0.87072  -0.86744  -0.79883
 Alpha  occ. eigenvalues --   -0.76634  -0.76428  -0.72061  -0.71955  -0.70865
 Alpha  occ. eigenvalues --   -0.63386  -0.62254  -0.55321  -0.53499  -0.52649
 Alpha virt. eigenvalues --    0.03235   0.04803   0.04993   0.05960   0.07498
 Alpha virt. eigenvalues --    0.09285   0.11156   0.11537   0.11976   0.14615
 Alpha virt. eigenvalues --    0.14983   0.16146   0.16692   0.17688   0.18039

 Mulliken charges:
               1
     1  C    0.319256
     2  C   -0.101740
     3  C    0.942890
     4  F   -0.337767
     5  F   -0.318840
     6  F   -0.337767
     7  H   -0.042670
     8  H   -0.049299
     9  H   -0.042670
    10  H   -0.015696
    11  H   -0.015696
 Sum of Mulliken charges =   0.00000

 Dipole moment (field-independent basis, Debye):
    X=             -2.9846    Y=             -0.2009    Z=              0.0000  Tot=              2.9913

 Test job not archived.
 1\1\GINC-SE115\SP\RHF\Aug-CC-pVDZ\C3H5F3\OHZDE\05-Apr-2025\0\\#t hf au
 g-cc-pvdz iop(5/13=1,5/36=2,99/5=2) pseudo=read geom=check guess=(read
 ,tcheck) scf=(maxcycle=1)\\title\\0,1\C,0,-1.755788,-1.135628,0.\C,0,-
 1.13578,0.259439,0.\C,0,0.373557,0.244819,0.\F,0,0.879802,-0.38288,1.0
 85643\F,0,0.879802,1.498257,0.\F,0,0.879802,-0.38288,-1.085643\H,0,-1.
 459013,-1.700292,0.882744\H,0,-2.84202,-1.057015,0.\H,0,-1.459013,-1.7
 00292,-0.882744\H,0,-1.443277,0.826675,0.878962\H,0,-1.443277,0.826675
 ,-0.878962\\Version=ES64L-G16RevC.01\State=1-A'\HF=-415.0536157\RMSD=6

 Normal termination of Gaussian 16 at Sat Apr  5 22:06:07 2025.
