 Gaussian 16, Revision C.01,

 ----------------------------------------------------------------------
 #t hf aug-cc-pvdz symm=none int=(grid=ultrafine) guess=(read,tcheck) s
 table=(opt,rrhf)
 ----------------------------------------------------------------------
 -----
 title
 -----
 Symbolic Z-matrix:
 Charge =  0 Multiplicity = 1

 SCF Done:  E(RHF) =  -474.719798148     A.U. after   12 cycles
 Normal termination of Gaussian 16 at Sat Apr  5 22:05:03 2025.
 Gaussian 16:  ES64L-G16RevC.01  3-Jul-2019

 ----------------------------------------------------------------------
 #t hf aug-cc-pvdz iop(5/13=1,5/36=2,99/5=2) pseudo=read geom=check gue
 ss=(read,tcheck) scf=(maxcycle=1)
 ----------------------------------------------------------------------
 -----
 title
 -----
 Structure from the checkpoint file:  "1-1-1-2-tetrafluoroethane.chk"
 Charge =  0 Multiplicity = 1

                         Standard orientation:
 ---------------------------------------------------------------------
 Center     Atomic      Atomic             Coordinates (Angstroms)
 Number     Number       Type             X           Y           Z
 ---------------------------------------------------------------------
      1          6           0        0.361772    0.190165    0.000000
      2          6           0       -1.157274    0.243325    0.000000
      3          9           0        0.843210    1.450981    0.000000
      4          9           0        0.843210   -0.436999    1.084078
      5          9           0        0.843210   -0.436999   -1.084078
      6          9           0       -1.667677   -1.036067    0.000000
      7          1           0       -1.492284    0.765414    0.895748
      8          1           0       -1.492284    0.765414   -0.895748
 ---------------------------------------------------------------------

 SCF Done:  E(RHF) =  -474.891066759     A.U. after    2 cycles

 The electronic state is 1-A'.
 Alpha  occ. eigenvalues --  -26.18035 -26.17634 -26.17623 -26.14505 -11.53977
 Alpha  occ. eigenvalues --  -11.37181  -1.77397  -1.70424  -1.70202  -1.67885
 Alpha  occ. eigenvalues --   -1.10261  -0.98616  -0.89444  -0.89440  -0.86275
 Alpha  occ. eigenvalues --   -0.79664  -0.79112  -0.77024  -0.76701  -0.73875
 Alpha  occ. eigenvalues --   -0.73804  -0.73154  -0.72835  -0.59727  -0.59206
 Alpha virt. eigenvalues --    0.03346   0.04983   0.07683   0.08611   0.11321
 Alpha virt. eigenvalues --    0.11344   0.11845   0.15429   0.15967   0.19453
 Alpha virt. eigenvalues --    0.21634   0.22885   0.23985   0.27872   0.28084

 Mulliken charges:
               1
     1  C    0.862152
     2  C    0.530222
     3  F   -0.315475
     4  F   -0.294587
     5  F   -0.294587
     6  F   -0.384639
     7  H   -0.051543
     8  H   -0.051543
 Sum of Mulliken charges =  -0.00000

 Dipole moment (field-independent basis, Debye):
    X=             -1.6592    Y=              1.9808    Z=              0.0000  Tot=              2.5839

 Test job not archived.
 1\1\GINC-SE036\SP\RHF\Aug-CC-pVDZ\C2H2F4\OHZDE\05-Apr-2025\0\\#t hf au
 g-cc-pvdz iop(5/13=1,5/36=2,99/5=2) pseudo=read geom=check guess=(read
 ,tcheck) scf=(maxcycle=1)\\title\\0,1\C,0,0.361772,0.190165,0.\C,0,-1.
 157274,0.243325,0.\F,0,0.84321,1.450981,0.\F,0,0.84321,-0.436999,1.084
 078\F,0,0.84321,-0.436999,-1.084078\F,0,-1.667677,-1.036067,0.\H,0,-1.
 492284,0.765414,0.895748\H,0,-1.492284,0.765414,-0.895748\\Version=ES6
 4L-G16RevC.01\State=1-A'\HF=-474.8910668\RMSD=6.793e-03\Dipole=-0.6527
 818,0.7792897,0.\Quadrupole=0.2491458,-0.9569625,0.7078167,-2.9466531,

 Normal termination of Gaussian 16 at Sat Apr  5 22:06:06 2025.
