 Gaussian 16, Revision C.01,

 ----------------------------------------------------------------------
 #t hf aug-cc-pvdz symm=none int=(grid=ultrafine) guess=(read,tcheck) s
 table=(opt,rrhf)
 ----------------------------------------------------------------------
 -----
 title
 -----
 Symbolic Z-matrix:
 Charge =  0 Multiplicity = 1

 SCF Done:  E(RHF) =  -1219.81157813     A.U. after   15 cycles
 Normal termination of Gaussian 16 at Sat Apr  5 22:07:21 2025.
 Gaussian 16:  ES64L-G16RevC.01  3-Jul-2019

 ----------------------------------------------------------------------
 #t hf aug-cc-pvdz iop(5/13=1,5/36=2,99/5=2) pseudo=read geom=check gue
 ss=(read,tcheck) scf=(maxcycle=1)
 ----------------------------------------------------------------------
 -----
 title
 -----
 Structure from the checkpoint file:  "1-1-dichloro-3-3-dimethylurea.chk"
 Charge =  0 Multiplicity = 1

                         Standard orientation:
 ---------------------------------------------------------------------
 Center     Atomic      Atomic             Coordinates (Angstroms)
 Number     Number       Type             X           Y           Z
 ---------------------------------------------------------------------
      1         17           0       -2.158879   -0.834991    0.460362
      2         17           0       -0.993288    1.532997   -0.682534
      3          8           0        0.277220   -1.678178   -0.719199
      4          7           0       -0.722342    0.149580    0.402406
      5          7           0        1.607764   -0.059256    0.184479
      6          6           0        0.425703   -0.637266   -0.128512
      7          6           0        2.825179   -0.632336   -0.375066
      8          6           0        1.787743    1.109351    1.035518
      9          1           0        3.457133   -1.029550    0.422266
     10          1           0        2.565217   -1.434482   -1.056315
     11          1           0        3.383450    0.138196   -0.910345
     12          1           0        2.037010    1.992083    0.442264
     13          1           0        2.608475    0.914416    1.727449
     14          1           0        0.888095    1.307890    1.605352
 ---------------------------------------------------------------------

 SCF Done:  E(RHF) =  -1219.94511282     A.U. after    2 cycles

 The electronic state is 1-A.
 Alpha  occ. eigenvalues -- -103.71426-103.70300 -20.56236 -15.76903 -15.67677
 Alpha  occ. eigenvalues --  -11.42245 -11.28896 -11.28231 -10.74370 -10.73279
 Alpha  occ. eigenvalues --   -8.40115  -8.39733  -8.39698  -8.39035  -8.38629
 Alpha  occ. eigenvalues --   -8.38596  -1.39458  -1.28973  -1.24061  -1.15846
 Alpha  occ. eigenvalues --   -1.03841  -0.98615  -0.93540  -0.76213  -0.72967
 Alpha  occ. eigenvalues --   -0.69566  -0.68641  -0.63301  -0.62430  -0.59897
 Alpha  occ. eigenvalues --   -0.58555  -0.57831  -0.55594  -0.55249  -0.51609
 Alpha  occ. eigenvalues --   -0.49578  -0.47641  -0.47197  -0.41869  -0.39610
 Alpha virt. eigenvalues --    0.02845   0.04058   0.04288   0.05457   0.06269
 Alpha virt. eigenvalues --    0.07411   0.07873   0.08363   0.09071   0.10326
 Alpha virt. eigenvalues --    0.12379   0.12799   0.13943   0.14378   0.14815

 Mulliken charges:
               1
     1  Cl   0.269596
     2  Cl   0.232450
     3  O   -0.400579
     4  N   -1.044310
     5  N   -0.369737
     6  C    0.513760
     7  C    0.753270
     8  C    0.867763
     9  H   -0.096698
    10  H   -0.233851
    11  H   -0.045193
    12  H   -0.098083
    13  H   -0.121763
    14  H   -0.226624
 Sum of Mulliken charges =  -0.00000

 Dipole moment (field-independent basis, Debye):
    X=              3.1414    Y=              2.5221    Z=              1.3804  Tot=              4.2585

 Test job not archived.
 1\1\GINC-SE084\SP\RHF\Aug-CC-pVDZ\C3H6Cl2N2O1\OHZDE\05-Apr-2025\0\\#t
 hf aug-cc-pvdz iop(5/13=1,5/36=2,99/5=2) pseudo=read geom=check guess=
 (read,tcheck) scf=(maxcycle=1)\\title\\0,1\Cl,0,-2.158879,-0.834991,0.
 460362\Cl,0,-0.993288,1.532997,-0.682534\O,0,0.27722,-1.678178,-0.7191
 99\N,0,-0.722342,0.14958,0.402406\N,0,1.607764,-0.059256,0.184479\C,0,
 0.425703,-0.637266,-0.128512\C,0,2.825179,-0.632336,-0.375066\C,0,1.78
 7743,1.109351,1.035518\H,0,3.457133,-1.02955,0.422266\H,0,2.565217,-1.
 434482,-1.056315\H,0,3.38345,0.138196,-0.910345\H,0,2.03701,1.992083,0

 Normal termination of Gaussian 16 at Sat Apr  5 22:07:27 2025.
