 Gaussian 16, Revision C.01,

 ----------------------------------------------------------------------
 #t hf aug-cc-pvdz symm=none int=(grid=ultrafine) guess=(read,tcheck) s
 table=(opt,rrhf)
 ----------------------------------------------------------------------
 -----
 title
 -----
 Symbolic Z-matrix:
 Charge =  0 Multiplicity = 1

 SCF Done:  E(RHF) =  -997.084423537     A.U. after   12 cycles

 1\1\GINC-SE085\Stability\RHF\Aug-CC-pVDZ\C2H4Cl2\OHZDE\05-Apr-2025\0\\
 #t hf aug-cc-pvdz symm=none int=(grid=ultrafine) guess=(read,tcheck) s
 table=(opt,rrhf)\\title\\0,1\C,0,0.965471,1.453203,0.\C,0,-0.209585,0.
 507329,0.\Cl,0,-0.209585,-0.525034,1.4797\Cl,0,-0.209585,-0.525034,-1.
 4797\H,0,1.90327,0.90156,0.\H,0,0.925876,2.084439,-0.887319\H,0,0.9258
 76,2.084439,0.887319\H,0,-1.16445,1.017543,0.\\Version=ES64L-G16RevC.0
 1\HF=-997.0844235\RMSD=3.928e-09\Dipole=0.1229733,0.9283301,0.\Quadrup
 ole=0.6647456,1.3847096,-2.0494553,-0.0435575,0.,0.\PG=Unknown\\@

 Normal termination of Gaussian 16 at Sat Apr  5 22:05:28 2025.
 Gaussian 16:  ES64L-G16RevC.01  3-Jul-2019

 ----------------------------------------------------------------------
 #t hf aug-cc-pvdz iop(5/13=1,5/36=2,99/5=2) pseudo=read geom=check gue
 ss=(read,tcheck) scf=(maxcycle=1)
 ----------------------------------------------------------------------
 -----
 title
 -----
 Structure from the checkpoint file:  "1-1-dichloroethane.chk"
 Charge =  0 Multiplicity = 1

                         Standard orientation:
 ---------------------------------------------------------------------
 Center     Atomic      Atomic             Coordinates (Angstroms)
 Number     Number       Type             X           Y           Z
 ---------------------------------------------------------------------
      1          6           0        0.965471    1.453203   -0.000000
      2          6           0       -0.209585    0.507329    0.000000
      3         17           0       -0.209585   -0.525034    1.479700
      4         17           0       -0.209585   -0.525034   -1.479700
      5          1           0        1.903270    0.901560   -0.000000
      6          1           0        0.925876    2.084439   -0.887319
      7          1           0        0.925876    2.084439    0.887319
      8          1           0       -1.164450    1.017543    0.000000
 ---------------------------------------------------------------------

 SCF Done:  E(RHF) =  -997.146921596     A.U. after    2 cycles

 The electronic state is 1-A'.
 Alpha  occ. eigenvalues -- -103.66839-103.66838 -11.38234 -11.26253 -10.70144
 Alpha  occ. eigenvalues --  -10.70138  -8.35858  -8.35854  -8.35551  -8.35549
 Alpha  occ. eigenvalues --   -8.35544  -8.35543  -1.21649  -1.13516  -1.02012
 Alpha  occ. eigenvalues --   -0.84713  -0.67221  -0.63720  -0.60638  -0.55610
 Alpha  occ. eigenvalues --   -0.54250  -0.47857  -0.47791  -0.45657  -0.45396
 Alpha virt. eigenvalues --    0.03402   0.04792   0.05724   0.06511   0.08362
 Alpha virt. eigenvalues --    0.09512   0.11691   0.13628   0.13971   0.14220
 Alpha virt. eigenvalues --    0.16741   0.16830   0.16986   0.17755   0.18699

 Mulliken charges:
               1
     1  C    0.599097
     2  C   -0.482675
     3  Cl  -0.084735
     4  Cl  -0.084735
     5  H   -0.005514
     6  H   -0.013716
     7  H   -0.013716
     8  H    0.085993
 Sum of Mulliken charges =  -0.00000

 Dipole moment (field-independent basis, Debye):
    X=              0.3265    Y=              2.4294    Z=             -0.0000  Tot=              2.4512

 Test job not archived.
 1\1\GINC-SE085\SP\RHF\Aug-CC-pVDZ\C2H4Cl2\OHZDE\05-Apr-2025\0\\#t hf a
 ug-cc-pvdz iop(5/13=1,5/36=2,99/5=2) pseudo=read geom=check guess=(rea
 d,tcheck) scf=(maxcycle=1)\\title\\0,1\C,0,0.965471,1.453203,0.\C,0,-0
 .209585,0.507329,0.\Cl,0,-0.209585,-0.525034,1.4797\Cl,0,-0.209585,-0.
 525034,-1.4797\H,0,1.90327,0.90156,0.\H,0,0.925876,2.084439,-0.887319\
 H,0,0.925876,2.084439,0.887319\H,0,-1.16445,1.017543,0.\\Version=ES64L
 -G16RevC.01\State=1-A'\HF=-997.1469216\RMSD=3.870e-03\Dipole=0.1284482
 ,0.9557961,0.\Quadrupole=0.6588765,1.4111684,-2.0700449,-0.0361199,0.,

 Normal termination of Gaussian 16 at Sat Apr  5 22:06:06 2025.
