 Gaussian 16, Revision C.01,

 ----------------------------------------------------------------------
 #t hf aug-cc-pvdz symm=none int=(grid=ultrafine) guess=(read,tcheck) s
 table=(opt,rrhf)
 ----------------------------------------------------------------------
 -----
 title
 -----
 Symbolic Z-matrix:
 Charge =  0 Multiplicity = 1

 SCF Done:  E(RHF) =  -1293.68979987     A.U. after   12 cycles
 Normal termination of Gaussian 16 at Sat Apr  5 22:05:28 2025.
 Gaussian 16:  ES64L-G16RevC.01  3-Jul-2019

 ----------------------------------------------------------------------
 #t hf aug-cc-pvdz iop(5/13=1,5/36=2,99/5=2) pseudo=read geom=check gue
 ss=(read,tcheck) scf=(maxcycle=1)
 ----------------------------------------------------------------------
 -----
 title
 -----
 Structure from the checkpoint file:  "1-1-dichloro-2-2-2-trifluoroethane.chk"
 Charge =  0 Multiplicity = 1

                         Standard orientation:
 ---------------------------------------------------------------------
 Center     Atomic      Atomic             Coordinates (Angstroms)
 Number     Number       Type             X           Y           Z
 ---------------------------------------------------------------------
      1          6           0        0.566910   -0.338873   -0.000000
      2          6           0       -0.170872    1.010509    0.000000
      3          1           0        1.633086   -0.144099   -0.000000
      4         17           0        0.182082   -1.256529    1.476575
      5         17           0        0.182082   -1.256529   -1.476575
      6          9           0       -1.497512    0.873510    0.000000
      7          9           0        0.182082    1.720816    1.083344
      8          9           0        0.182082    1.720816   -1.083344
 ---------------------------------------------------------------------

 SCF Done:  E(RHF) =  -1293.86106164     A.U. after    2 cycles

 The electronic state is 1-A'.
 Alpha  occ. eigenvalues -- -103.69973-103.69973 -26.18814 -26.18805 -26.18754
 Alpha  occ. eigenvalues --  -11.55928 -11.41772 -10.73266 -10.73259  -8.38990
 Alpha  occ. eigenvalues --   -8.38986  -8.38654  -8.38653  -8.38643  -8.38642
 Alpha  occ. eigenvalues --   -1.78638  -1.71542  -1.71391  -1.25540  -1.16862
 Alpha  occ. eigenvalues --   -1.07656  -0.96179  -0.90603  -0.90350  -0.83826
 Alpha  occ. eigenvalues --   -0.79568  -0.79443  -0.75234  -0.75067  -0.73851
 Alpha  occ. eigenvalues --   -0.67968  -0.64264  -0.62228  -0.51230  -0.50899
 Alpha  occ. eigenvalues --   -0.48764  -0.48290
 Alpha virt. eigenvalues --    0.03764   0.06748   0.07532   0.08085   0.10528
 Alpha virt. eigenvalues --    0.11570   0.11723   0.13080   0.13565   0.15354
 Alpha virt. eigenvalues --    0.15972   0.16456   0.16979   0.18049   0.18727

 Mulliken charges:
               1
     1  C   -0.536025
     2  C    1.207794
     3  H    0.164610
     4  Cl  -0.001454
     5  Cl  -0.001454
     6  F   -0.264972
     7  F   -0.284250
     8  F   -0.284250
 Sum of Mulliken charges =  -0.00000

 Dipole moment (field-independent basis, Debye):
    X=              1.5794    Y=             -0.5943    Z=              0.0000  Tot=              1.6875

 Test job not archived.
 1\1\GINC-SE185\SP\RHF\Aug-CC-pVDZ\C2H1Cl2F3\OHZDE\05-Apr-2025\0\\#t hf
  aug-cc-pvdz iop(5/13=1,5/36=2,99/5=2) pseudo=read geom=check guess=(r
 ead,tcheck) scf=(maxcycle=1)\\title\\0,1\C,0,0.56691,-0.338873,0.\C,0,
 -0.170872,1.010509,0.\H,0,1.633086,-0.144099,0.\Cl,0,0.182082,-1.25652
 9,1.476575\Cl,0,0.182082,-1.256529,-1.476575\F,0,-1.497512,0.87351,0.\
 F,0,0.182082,1.720816,1.083344\F,0,0.182082,1.720816,-1.083344\\Versio
 n=ES64L-G16RevC.01\State=1-A'\HF=-1293.8610616\RMSD=5.838e-03\Dipole=0
 .6213917,-0.2337978,0.\Quadrupole=1.5947119,-1.3399561,-0.2547558,0.22

 Normal termination of Gaussian 16 at Sat Apr  5 22:06:07 2025.
