 Gaussian 16, Revision C.01,

 ----------------------------------------------------------------------
 #t hf aug-cc-pvdz symm=none int=(grid=ultrafine) guess=(read,tcheck) s
 table=(opt,rrhf)
 ----------------------------------------------------------------------
 -----
 title
 -----
 Symbolic Z-matrix:
 Charge =  0 Multiplicity = 1

 SCF Done:  E(RHF) =  -513.757362581     A.U. after   11 cycles
 Normal termination of Gaussian 16 at Sat Apr  5 22:05:07 2025.
 Gaussian 16:  ES64L-G16RevC.01  3-Jul-2019

 ----------------------------------------------------------------------
 #t hf aug-cc-pvdz iop(5/13=1,5/36=2,99/5=2) pseudo=read geom=check gue
 ss=(read,tcheck) scf=(maxcycle=1)
 ----------------------------------------------------------------------
 -----
 title
 -----
 Structure from the checkpoint file:  "1-1-3-3-tetrafluoropropane.chk"
 Charge =  0 Multiplicity = 1

                         Standard orientation:
 ---------------------------------------------------------------------
 Center     Atomic      Atomic             Coordinates (Angstroms)
 Number     Number       Type             X           Y           Z
 ---------------------------------------------------------------------
      1          6           0        0.448354   -0.545579    0.000000
      2          6           0       -0.285414   -0.171763    1.270135
      3          6           0       -0.285414   -0.171763   -1.270135
      4          9           0        0.361469   -0.731547    2.340045
      5          9           0       -0.285414    1.179129    1.461730
      6          9           0       -0.285414    1.179129   -1.461730
      7          9           0        0.361469   -0.731547   -2.340045
      8          1           0        0.581940   -1.627632    0.000000
      9          1           0        1.431669   -0.074796    0.000000
     10          1           0       -1.323885   -0.509706    1.300971
     11          1           0       -1.323885   -0.509706   -1.300971
 ---------------------------------------------------------------------

 SCF Done:  E(RHF) =  -513.938500273     A.U. after    2 cycles

 The electronic state is 1-A'.
 Alpha  occ. eigenvalues --  -26.14765 -26.14764 -26.14550 -26.14550 -11.44258
 Alpha  occ. eigenvalues --  -11.44252 -11.28428  -1.71089  -1.70886  -1.66545
 Alpha  occ. eigenvalues --   -1.66409  -1.11965  -1.00730  -0.92913  -0.84120
 Alpha  occ. eigenvalues --   -0.83171  -0.82971  -0.82151  -0.80423  -0.76374
 Alpha  occ. eigenvalues --   -0.74147  -0.73726  -0.70850  -0.70119  -0.68430
 Alpha  occ. eigenvalues --   -0.65212  -0.60004  -0.56114  -0.55319
 Alpha virt. eigenvalues --    0.02976   0.04444   0.05212   0.05628   0.09870
 Alpha virt. eigenvalues --    0.10357   0.10500   0.11405   0.12198   0.14262
 Alpha virt. eigenvalues --    0.15153   0.15629   0.16249   0.18271   0.18888

 Mulliken charges:
               1
     1  C   -0.171434
     2  C    0.976336
     3  C    0.976336
     4  F   -0.358569
     5  F   -0.353316
     6  F   -0.353316
     7  F   -0.358569
     8  H    0.072395
     9  H    0.014915
    10  H   -0.222389
    11  H   -0.222389
 Sum of Mulliken charges =  -0.00000

 Dipole moment (field-independent basis, Debye):
    X=             -1.5748    Y=             -2.4892    Z=              0.0000  Tot=              2.9455

 Test job not archived.
 1\1\GINC-SE194\SP\RHF\Aug-CC-pVDZ\C3H4F4\OHZDE\05-Apr-2025\0\\#t hf au
 g-cc-pvdz iop(5/13=1,5/36=2,99/5=2) pseudo=read geom=check guess=(read
 ,tcheck) scf=(maxcycle=1)\\title\\0,1\C,0,0.448354,-0.545579,0.\C,0,-0
 .285414,-0.171763,1.270135\C,0,-0.285414,-0.171763,-1.270135\F,0,0.361
 469,-0.731547,2.340045\F,0,-0.285414,1.179129,1.46173\F,0,-0.285414,1.
 179129,-1.46173\F,0,0.361469,-0.731547,-2.340045\H,0,0.58194,-1.627632
 ,0.\H,0,1.431669,-0.074796,0.\H,0,-1.323885,-0.509706,1.300971\H,0,-1.
 323885,-0.509706,-1.300971\\Version=ES64L-G16RevC.01\State=1-A'\HF=-51

 Normal termination of Gaussian 16 at Sat Apr  5 22:06:07 2025.
