 Gaussian 16, Revision C.01,

 ----------------------------------------------------------------------
 #t hf aug-cc-pvdz symm=none int=(grid=ultrafine) guess=(read,tcheck) s
 table=(opt,rrhf)
 ----------------------------------------------------------------------
 -----
 title
 -----
 Symbolic Z-matrix:
 Charge =  0 Multiplicity = 1

 SCF Done:  E(RHF) =  -1953.96422480     A.U. after   12 cycles

 1\1\GINC-SE194\Stability\RHF\Aug-CC-pVDZ\C3H4Cl4\OHZDE\05-Apr-2025\0\\
 #t hf aug-cc-pvdz symm=none int=(grid=ultrafine) guess=(read,tcheck) s
 table=(opt,rrhf)\\title\\0,1\C,0,0.,0.,0.7318\C,0,0.,1.274009,-0.09780
 4\C,0,0.,-1.274009,-0.097804\Cl,0,0.132799,2.700697,0.986148\Cl,0,-1.4
 83724,1.397852,-1.115518\Cl,0,1.483724,-1.397852,-1.115518\Cl,0,-0.132
 799,-2.700697,0.986148\H,0,-0.881449,-0.008441,1.372394\H,0,0.881449,0
 .008441,1.372394\H,0,0.836615,1.32875,-0.78169\H,0,-0.836615,-1.32875,
 -0.78169\\Version=ES64L-G16RevC.01\HF=-1953.9642248\RMSD=7.589e-09\Dip

 Normal termination of Gaussian 16 at Sat Apr  5 22:05:14 2025.
 Gaussian 16:  ES64L-G16RevC.01  3-Jul-2019

 ----------------------------------------------------------------------
 #t hf aug-cc-pvdz iop(5/13=1,5/36=2,99/5=2) pseudo=read geom=check gue
 ss=(read,tcheck) scf=(maxcycle=1)
 ----------------------------------------------------------------------
 -----
 title
 -----
 Structure from the checkpoint file:  "1-1-3-3-tetrachloropropane.chk"
 Charge =  0 Multiplicity = 1

                         Standard orientation:
 ---------------------------------------------------------------------
 Center     Atomic      Atomic             Coordinates (Angstroms)
 Number     Number       Type             X           Y           Z
 ---------------------------------------------------------------------
      1          6           0       -0.000000    0.000000    0.731800
      2          6           0        0.000000    1.274009   -0.097804
      3          6           0       -0.000000   -1.274009   -0.097804
      4         17           0        0.132799    2.700697    0.986148
      5         17           0       -1.483724    1.397852   -1.115518
      6         17           0        1.483724   -1.397852   -1.115518
      7         17           0       -0.132799   -2.700697    0.986148
      8          1           0       -0.881449   -0.008441    1.372394
      9          1           0        0.881449    0.008441    1.372394
     10          1           0        0.836615    1.328750   -0.781690
     11          1           0       -0.836615   -1.328750   -0.781690
 ---------------------------------------------------------------------

 SCF Done:  E(RHF) =  -1954.07134226     A.U. after    2 cycles

 The electronic state is 1-A.
 Alpha  occ. eigenvalues -- -103.68427-103.68426-103.68382-103.68382 -11.39677
 Alpha  occ. eigenvalues --  -11.39672 -11.29811 -10.71724 -10.71722 -10.71663
 Alpha  occ. eigenvalues --  -10.71663  -8.37439  -8.37437  -8.37384  -8.37381
 Alpha  occ. eigenvalues --   -8.37142  -8.37139  -8.37123  -8.37123  -8.37072
 Alpha  occ. eigenvalues --   -8.37071  -8.37063  -8.37063  -1.24552  -1.22261
 Alpha  occ. eigenvalues --   -1.15174  -1.15040  -1.06053  -0.91200  -0.84328
 Alpha  occ. eigenvalues --   -0.71795  -0.65976  -0.65658  -0.63857  -0.58705
 Alpha  occ. eigenvalues --   -0.57538  -0.55469  -0.50506  -0.49938  -0.49131
 Alpha  occ. eigenvalues --   -0.49030  -0.47601  -0.46895  -0.46797  -0.46158
 Alpha virt. eigenvalues --    0.04261   0.04961   0.05213   0.06336   0.07467
 Alpha virt. eigenvalues --    0.08128   0.09208   0.09285   0.11723   0.12667
 Alpha virt. eigenvalues --    0.13330   0.14587   0.15094   0.15634   0.15663

 Mulliken charges:
               1
     1  C    0.568893
     2  C   -0.198121
     3  C   -0.198121
     4  Cl  -0.065273
     5  Cl  -0.102827
     6  Cl  -0.102827
     7  Cl  -0.065273
     8  H    0.013706
     9  H    0.013706
    10  H    0.068068
    11  H    0.068068
 Sum of Mulliken charges =  -0.00000

 Dipole moment (field-independent basis, Debye):
    X=              0.0000    Y=             -0.0000    Z=              0.1917  Tot=              0.1917

 Test job not archived.
 1\1\GINC-SE194\SP\RHF\Aug-CC-pVDZ\C3H4Cl4\OHZDE\05-Apr-2025\0\\#t hf a
 ug-cc-pvdz iop(5/13=1,5/36=2,99/5=2) pseudo=read geom=check guess=(rea
 d,tcheck) scf=(maxcycle=1)\\title\\0,1\C,0,0.,0.,0.7318\C,0,0.,1.27400
 9,-0.097804\C,0,0.,-1.274009,-0.097804\Cl,0,0.132799,2.700697,0.986148
 \Cl,0,-1.483724,1.397852,-1.115518\Cl,0,1.483724,-1.397852,-1.115518\C
 l,0,-0.132799,-2.700697,0.986148\H,0,-0.881449,-0.008441,1.372394\H,0,
 0.881449,0.008441,1.372394\H,0,0.836615,1.32875,-0.78169\H,0,-0.836615
 ,-1.32875,-0.78169\\Version=ES64L-G16RevC.01\State=1-A\HF=-1954.071342

 Normal termination of Gaussian 16 at Sat Apr  5 22:06:08 2025.
