 Gaussian 16, Revision C.01,

 ----------------------------------------------------------------------
 #t hf aug-cc-pvdz symm=none int=(grid=ultrafine) guess=(read,tcheck) s
 table=(opt,rrhf)
 ----------------------------------------------------------------------
 -----
 title
 -----
 Symbolic Z-matrix:
 Charge =  0 Multiplicity = 1

 SCF Done:  E(RHF) =  -717.554207036     A.U. after   12 cycles
 Normal termination of Gaussian 16 at Sat Apr  5 22:07:06 2025.
 Gaussian 16:  ES64L-G16RevC.01  3-Jul-2019

 ----------------------------------------------------------------------
 #t hf aug-cc-pvdz iop(5/13=1,5/36=2,99/5=2) pseudo=read geom=check gue
 ss=(read,tcheck) scf=(maxcycle=1)
 ----------------------------------------------------------------------
 -----
 title
 -----
 Structure from the checkpoint file:  "1-1-1-trifluoro-2-2-2-trimethoxyethane.chk"
 Charge =  0 Multiplicity = 1

                         Standard orientation:
 ---------------------------------------------------------------------
 Center     Atomic      Atomic             Coordinates (Angstroms)
 Number     Number       Type             X           Y           Z
 ---------------------------------------------------------------------
      1          6           0        0.258551    2.382485    0.824917
      2          6           0        2.419735   -0.329564   -1.144869
      3          6           0        0.651201   -1.608396    1.651249
      4          6           0        0.344674    0.105814   -0.045876
      5          6           0       -1.170238   -0.211734   -0.324776
      6          8           0        0.585596    1.459026   -0.221890
      7          8           0        1.018793   -0.603637   -1.020083
      8          8           0        0.713817   -0.233280    1.257402
      9          9           0       -1.581732    0.353568   -1.464232
     10          9           0       -1.943092    0.265656    0.672940
     11          9           0       -1.406608   -1.532927   -0.413131
     12          1           0       -0.817667    2.438539    0.985805
     13          1           0        0.620818    3.344736    0.473213
     14          1           0        0.757168    2.116247    1.753875
     15          1           0        2.924788   -0.411859   -0.181994
     16          1           0        2.583857    0.662860   -1.559989
     17          1           0        2.802661   -1.084795   -1.825432
     18          1           0        1.042908   -2.260936    0.872164
     19          1           0       -0.370180   -1.902674    1.893061
     20          1           0        1.269350   -1.687276    2.541803
 ---------------------------------------------------------------------

 SCF Done:  E(RHF) =  -717.799822707     A.U. after    2 cycles

 The electronic state is 1-A.
 Alpha  occ. eigenvalues --  -26.16302 -26.16225 -26.15963 -20.60267 -20.59927
 Alpha  occ. eigenvalues --  -20.59798 -11.52040 -11.44159 -11.29811 -11.29381
 Alpha  occ. eigenvalues --  -11.29232  -1.75831  -1.68720  -1.68638  -1.43947
 Alpha  occ. eigenvalues --   -1.33642  -1.33268  -1.06380  -0.99270  -0.95989
 Alpha  occ. eigenvalues --   -0.94823  -0.89166  -0.87590  -0.87256  -0.79901
 Alpha  occ. eigenvalues --   -0.77143  -0.76993  -0.73945  -0.73544  -0.72215
 Alpha  occ. eigenvalues --   -0.72067  -0.71272  -0.70876  -0.65868  -0.64662
 Alpha  occ. eigenvalues --   -0.62469  -0.61415  -0.60268  -0.58608  -0.55038
 Alpha  occ. eigenvalues --   -0.52378  -0.51488  -0.48671  -0.48268  -0.47093
 Alpha virt. eigenvalues --    0.03256   0.04372   0.04539   0.05261   0.06086
 Alpha virt. eigenvalues --    0.06287   0.07030   0.07361   0.08861   0.08889
 Alpha virt. eigenvalues --    0.11279   0.12178   0.12778   0.13715   0.14140

 Mulliken charges:
               1
     1  C    0.813760
     2  C    0.764234
     3  C    0.868295
     4  C    1.102293
     5  C    0.878058
     6  O   -0.747120
     7  O   -0.725328
     8  O   -0.745500
     9  F   -0.310345
    10  F   -0.332757
    11  F   -0.314091
    12  H   -0.128557
    13  H   -0.232641
    14  H   -0.121699
    15  H   -0.070839
    16  H   -0.055012
    17  H   -0.245220
    18  H   -0.056550
    19  H   -0.111048
    20  H   -0.229930
 Sum of Mulliken charges =  -0.00000

 Dipole moment (field-independent basis, Debye):
    X=              2.6883    Y=              0.0174    Z=              1.9211  Tot=              3.3042

 Test job not archived.
 1\1\GINC-SE158\SP\RHF\Aug-CC-pVDZ\C5H9F3O3\OHZDE\05-Apr-2025\0\\#t hf
 aug-cc-pvdz iop(5/13=1,5/36=2,99/5=2) pseudo=read geom=check guess=(re
 ad,tcheck) scf=(maxcycle=1)\\title\\0,1\C,0,0.25855,2.382485,0.824917\
 C,0,2.419735,-0.329563,-1.144869\C,0,0.651202,-1.608396,1.651249\C,0,0
 .344674,0.105814,-0.045876\C,0,-1.170238,-0.211734,-0.324776\O,0,0.585
 595,1.459026,-0.22189\O,0,1.018793,-0.603637,-1.020083\O,0,0.713817,-0
 .23328,1.257402\F,0,-1.581732,0.353567,-1.464232\F,0,-1.943092,0.26565
 5,0.67294\F,0,-1.406607,-1.532928,-0.413131\H,0,-0.817668,2.438539,0.9

 Normal termination of Gaussian 16 at Sat Apr  5 22:07:21 2025.
