 Gaussian 16, Revision C.01,

 ----------------------------------------------------------------------
 #t hf aug-cc-pvdz symm=none int=(grid=ultrafine) guess=(read,tcheck) s
 table=(opt,rrhf)
 ----------------------------------------------------------------------
 -----
 title
 -----
 Symbolic Z-matrix:
 Charge =  0 Multiplicity = 1

 SCF Done:  E(RHF) =  -1057.75178775     A.U. after   15 cycles
 Normal termination of Gaussian 16 at Sat Apr  5 22:06:31 2025.
 Gaussian 16:  ES64L-G16RevC.01  3-Jul-2019

 ----------------------------------------------------------------------
 #t hf aug-cc-pvdz iop(5/13=1,5/36=2,99/5=2) pseudo=read geom=check gue
 ss=(read,tcheck) scf=(maxcycle=1)
 ----------------------------------------------------------------------
 -----
 title
 -----
 Structure from the checkpoint file:  "1-1-dithiocyanatoethane.chk"
 Charge =  0 Multiplicity = 1

                         Standard orientation:
 ---------------------------------------------------------------------
 Center     Atomic      Atomic             Coordinates (Angstroms)
 Number     Number       Type             X           Y           Z
 ---------------------------------------------------------------------
      1         16           0       -0.941719   -0.587939    0.768936
      2         16           0        1.669768    0.756964    0.287950
      3          7           0       -3.415090   -0.760915   -0.639976
      4          7           0        2.817085   -1.701635   -0.585142
      5          6           0       -0.056728    0.618916   -0.342704
      6          6           0       -2.408367   -0.687899   -0.075952
      7          6           0        2.320508   -0.717745   -0.238832
      8          6           0       -0.677159    2.004219   -0.337138
      9          1           0       -0.021035    0.185721   -1.337080
     10          1           0       -1.717428    1.940023   -0.652532
     11          1           0       -0.647908    2.449729    0.656902
     12          1           0       -0.145903    2.653030   -1.033882
 ---------------------------------------------------------------------

 SCF Done:  E(RHF) =  -1057.87091738     A.U. after    2 cycles

 The electronic state is 1-A.
 Alpha  occ. eigenvalues --  -93.62964 -93.62000 -15.67220 -15.66853 -11.37663
 Alpha  occ. eigenvalues --  -11.32927 -11.32624 -11.28664  -8.92591  -8.91617
 Alpha  occ. eigenvalues --   -6.26817  -6.26498  -6.26145  -6.25826  -6.25513
 Alpha  occ. eigenvalues --   -6.25155  -1.22494  -1.22011  -1.15548  -1.04715
 Alpha  occ. eigenvalues --   -1.01862  -0.87354  -0.73648  -0.70583  -0.64673
 Alpha  occ. eigenvalues --   -0.61269  -0.60407  -0.57429  -0.56485  -0.55708
 Alpha  occ. eigenvalues --   -0.54647  -0.53935  -0.53274  -0.48303  -0.46632
 Alpha  occ. eigenvalues --   -0.40796  -0.40244
 Alpha virt. eigenvalues --    0.02634   0.04289   0.05341   0.05562   0.05803
 Alpha virt. eigenvalues --    0.07031   0.07953   0.09016   0.09709   0.10025
 Alpha virt. eigenvalues --    0.10571   0.12407   0.12890   0.13211   0.13501

 Mulliken charges:
               1
     1  S    0.742968
     2  S    0.828515
     3  N   -0.198817
     4  N   -0.175880
     5  C   -0.681983
     6  C   -0.376086
     7  C   -0.415800
     8  C    0.514310
     9  H   -0.106528
    10  H   -0.072565
    11  H   -0.036317
    12  H   -0.021818
 Sum of Mulliken charges =  -0.00000

 Dipole moment (field-independent basis, Debye):
    X=              0.6311    Y=              4.2632    Z=              0.7976  Tot=              4.3828

 Test job not archived.
 1\1\GINC-SE187\SP\RHF\Aug-CC-pVDZ\C4H4N2S2\OHZDE\05-Apr-2025\0\\#t hf
 aug-cc-pvdz iop(5/13=1,5/36=2,99/5=2) pseudo=read geom=check guess=(re
 ad,tcheck) scf=(maxcycle=1)\\title\\0,1\S,0,-0.941719,-0.587939,0.7689
 36\S,0,1.669768,0.756964,0.28795\N,0,-3.41509,-0.760915,-0.639976\N,0,
 2.817085,-1.701635,-0.585142\C,0,-0.056728,0.618916,-0.342704\C,0,-2.4
 08367,-0.687899,-0.075952\C,0,2.320508,-0.717745,-0.238832\C,0,-0.6771
 59,2.004219,-0.337138\H,0,-0.021035,0.185721,-1.33708\H,0,-1.717428,1.
 940023,-0.652532\H,0,-0.647908,2.449729,0.656902\H,0,-0.145903,2.65303

 Normal termination of Gaussian 16 at Sat Apr  5 22:06:41 2025.
