 Gaussian 16, Revision C.01,

 ----------------------------------------------------------------------
 #t hf aug-cc-pvdz symm=none int=(grid=ultrafine) guess=(read,tcheck) s
 table=(opt,rrhf)
 ----------------------------------------------------------------------
 -----
 title
 -----
 Symbolic Z-matrix:
 Charge =  0 Multiplicity = 1

 SCF Done:  E(RHF) =  -305.848176895     A.U. after   13 cycles
 Normal termination of Gaussian 16 at Sat Apr  5 22:06:35 2025.
 Gaussian 16:  ES64L-G16RevC.01  3-Jul-2019

 ----------------------------------------------------------------------
 #t hf aug-cc-pvdz iop(5/13=1,5/36=2,99/5=2) pseudo=read geom=check gue
 ss=(read,tcheck) scf=(maxcycle=1)
 ----------------------------------------------------------------------
 -----
 title
 -----
 Structure from the checkpoint file:  "1-1-dimethoxyethene.chk"
 Charge =  0 Multiplicity = 1

                         Standard orientation:
 ---------------------------------------------------------------------
 Center     Atomic      Atomic             Coordinates (Angstroms)
 Number     Number       Type             X           Y           Z
 ---------------------------------------------------------------------
      1          6           0       -0.000000   -0.000000    1.419313
      2          6           0       -0.000000   -0.000000    0.079174
      3          1           0        0.000000    0.919976    1.976204
      4          1           0       -0.000000   -0.919976    1.976204
      5          8           0        0.000000    1.079169   -0.727837
      6          8           0       -0.000000   -1.079169   -0.727837
      7          6           0        0.000000    2.361498   -0.117979
      8          6           0       -0.000000   -2.361498   -0.117979
      9          1           0        0.000000    3.078298   -0.933962
     10          1           0       -0.000000   -3.078298   -0.933962
     11          1           0       -0.891567    2.503674    0.496436
     12          1           0        0.891567    2.503674    0.496436
     13          1           0        0.891567   -2.503674    0.496436
     14          1           0       -0.891567   -2.503674    0.496436
 ---------------------------------------------------------------------

 SCF Done:  E(RHF) =  -305.951515523     A.U. after    2 cycles

 The electronic state is 1-A1.
 Alpha  occ. eigenvalues --  -20.60336 -20.60334 -11.36951 -11.29565 -11.29565
 Alpha  occ. eigenvalues --  -11.20907  -1.41407  -1.34188  -1.02661  -0.97955
 Alpha  occ. eigenvalues --   -0.93161  -0.77486  -0.73587  -0.69212  -0.69119
 Alpha  occ. eigenvalues --   -0.64513  -0.61837  -0.60422  -0.55523  -0.53505
 Alpha  occ. eigenvalues --   -0.53238  -0.51421  -0.47643  -0.33728
 Alpha virt. eigenvalues --    0.03499   0.04242   0.04893   0.05632   0.06174
 Alpha virt. eigenvalues --    0.06996   0.07620   0.08802   0.09562   0.11459
 Alpha virt. eigenvalues --    0.12234   0.14124   0.15668   0.16114   0.16465

 Mulliken charges:
               1
     1  C    0.678273
     2  C    0.807183
     3  H   -0.415791
     4  H   -0.415791
     5  O   -0.630617
     6  O   -0.630617
     7  C    0.754019
     8  C    0.754019
     9  H   -0.322807
    10  H   -0.322807
    11  H   -0.063766
    12  H   -0.063766
    13  H   -0.063766
    14  H   -0.063766
 Sum of Mulliken charges =  -0.00000

 Dipole moment (field-independent basis, Debye):
    X=             -0.0000    Y=             -0.0000    Z=              1.5784  Tot=              1.5784

 Test job not archived.
 1\1\GINC-SE177\SP\RHF\Aug-CC-pVDZ\C4H8O2\OHZDE\05-Apr-2025\0\\#t hf au
 g-cc-pvdz iop(5/13=1,5/36=2,99/5=2) pseudo=read geom=check guess=(read
 ,tcheck) scf=(maxcycle=1)\\title\\0,1\C,0,0.,0.,1.419313\C,0,0.,0.,0.0
 79174\H,0,0.,0.919976,1.976204\H,0,0.,-0.919976,1.976204\O,0,0.,1.0791
 69,-0.727837\O,0,0.,-1.079169,-0.727837\C,0,0.,2.361498,-0.117979\C,0,
 0.,-2.361498,-0.117979\H,0,0.,3.078298,-0.933962\H,0,0.,-3.078298,-0.9
 33962\H,0,-0.891567,2.503674,0.496436\H,0,0.891567,2.503674,0.496436\H
 ,0,0.891567,-2.503674,0.496436\H,0,-0.891567,-2.503674,0.496436\\Versi

 Normal termination of Gaussian 16 at Sat Apr  5 22:06:40 2025.
