 Gaussian 16, Revision C.01,

 ----------------------------------------------------------------------
 #t hf aug-cc-pvdz symm=none int=(grid=ultrafine) guess=(read,tcheck) s
 table=(opt,rrhf)
 ----------------------------------------------------------------------
 -----
 title
 -----
 Symbolic Z-matrix:
 Charge =  0 Multiplicity = 1

 SCF Done:  E(RHF) =  -710.272757041     A.U. after   13 cycles
 Normal termination of Gaussian 16 at Sat Apr  5 22:05:11 2025.
 Gaussian 16:  ES64L-G16RevC.01  3-Jul-2019

 ----------------------------------------------------------------------
 #t hf aug-cc-pvdz iop(5/13=1,5/36=2,99/5=2) pseudo=read geom=check gue
 ss=(read,tcheck) scf=(maxcycle=1)
 ----------------------------------------------------------------------
 -----
 title
 -----
 Structure from the checkpoint file:  "1-1-2-3-3-3-hexafluoroprop-1-ene.chk"
 Charge =  0 Multiplicity = 1

                         Standard orientation:
 ---------------------------------------------------------------------
 Center     Atomic      Atomic             Coordinates (Angstroms)
 Number     Number       Type             X           Y           Z
 ---------------------------------------------------------------------
      1          6           0        0.245890   -0.471484   -0.000001
      2          6           0        1.412981    0.161547    0.000001
      3          6           0       -1.126370    0.134384   -0.000001
      4          9           0        0.234429   -1.812633    0.000002
      5          9           0        2.559922   -0.475620    0.000002
      6          9           0        1.575610    1.460961   -0.000000
      7          9           0       -1.821022   -0.263524    1.082021
      8          9           0       -1.082861    1.471534   -0.000098
      9          9           0       -1.821079   -0.263683   -1.081926
 ---------------------------------------------------------------------

 SCF Done:  E(RHF) =  -710.529428508     A.U. after    2 cycles

 The electronic state is 1-A.
 Alpha  occ. eigenvalues --  -26.21705 -26.21478 -26.19459 -26.18687 -26.18678
 Alpha  occ. eigenvalues --  -26.18607 -11.56731 -11.49659 -11.39685  -1.79084
 Alpha  occ. eigenvalues --   -1.78649  -1.74246  -1.72550  -1.71731  -1.71138
 Alpha  occ. eigenvalues --   -1.16223  -1.06467  -0.98368  -0.92826  -0.91617
 Alpha  occ. eigenvalues --   -0.90518  -0.89325  -0.86258  -0.86075  -0.80766
 Alpha  occ. eigenvalues --   -0.79583  -0.79475  -0.79132  -0.78382  -0.77363
 Alpha  occ. eigenvalues --   -0.76586  -0.74894  -0.74883  -0.73859  -0.65404
 Alpha  occ. eigenvalues --   -0.45050
 Alpha virt. eigenvalues --    0.05944   0.07554   0.07786   0.08618   0.10327
 Alpha virt. eigenvalues --    0.10459   0.11263   0.13059   0.13541   0.13663
 Alpha virt. eigenvalues --    0.14967   0.19043   0.20050   0.22030   0.24239

 Mulliken charges:
               1
     1  C    0.031114
     2  C    0.645184
     3  C    0.935871
     4  F   -0.313825
     5  F   -0.242609
     6  F   -0.213484
     7  F   -0.288440
     8  F   -0.265370
     9  F   -0.288441
 Sum of Mulliken charges =  -0.00000

 Dipole moment (field-independent basis, Debye):
    X=              1.0590    Y=              0.4217    Z=             -0.0000  Tot=              1.1399

 Test job not archived.
 1\1\GINC-SE180\SP\RHF\Aug-CC-pVDZ\C3F6\OHZDE\05-Apr-2025\0\\#t hf aug-
 cc-pvdz iop(5/13=1,5/36=2,99/5=2) pseudo=read geom=check guess=(read,t
 check) scf=(maxcycle=1)\\title\\0,1\C,0,0.24589,-0.471484,-0.000001\C,
 0,1.412981,0.161547,0.000001\C,0,-1.12637,0.134384,-0.000001\F,0,0.234
 429,-1.812633,0.000002\F,0,2.559922,-0.47562,0.000002\F,0,1.57561,1.46
 0961,0.\F,0,-1.821022,-0.263524,1.082021\F,0,-1.082861,1.471534,-0.000
 098\F,0,-1.821079,-0.263683,-1.081926\\Version=ES64L-G16RevC.01\State=
 1-A\HF=-710.5294285\RMSD=9.359e-03\Dipole=0.4166567,0.1659234,-0.00000

 Normal termination of Gaussian 16 at Sat Apr  5 22:06:08 2025.
