 Gaussian 16, Revision C.01,

 ----------------------------------------------------------------------
 #t hf aug-cc-pvdz symm=none int=(grid=ultrafine) guess=(read,tcheck) s
 table=(opt,rrhf)
 ----------------------------------------------------------------------
 -----
 title
 -----
 Symbolic Z-matrix:
 Charge =  0 Multiplicity = 1

 SCF Done:  E(RHF) =  -1239.60287809     A.U. after   15 cycles
 Normal termination of Gaussian 16 at Sat Apr  5 22:05:39 2025.
 Gaussian 16:  ES64L-G16RevC.01  3-Jul-2019

 ----------------------------------------------------------------------
 #t hf aug-cc-pvdz iop(5/13=1,5/36=2,99/5=2) pseudo=read geom=check gue
 ss=(read,tcheck) scf=(maxcycle=1)
 ----------------------------------------------------------------------
 -----
 title
 -----
 Structure from the checkpoint file:  "1-1-dichloro-1-nitropropane.chk"
 Charge =  0 Multiplicity = 1

                         Standard orientation:
 ---------------------------------------------------------------------
 Center     Atomic      Atomic             Coordinates (Angstroms)
 Number     Number       Type             X           Y           Z
 ---------------------------------------------------------------------
      1         17           0        0.249784   -0.974350    1.469255
      2         17           0        0.249795   -0.974958   -1.468853
      3          8           0       -2.276486   -0.317705    0.000014
      4          8           0       -1.578642    1.732450   -0.000305
      5          7           0       -1.417338    0.529360   -0.000112
      6          6           0        1.046188    1.203382   -0.000248
      7          6           0        0.088165    0.027254   -0.000009
      8          6           0        2.523780    0.818478   -0.000164
      9          1           0        0.809962    1.806954    0.875296
     10          1           0        0.809968    1.806595   -0.876042
     11          1           0        3.125160    1.726672   -0.000357
     12          1           0        2.787839    0.239740   -0.883469
     13          1           0        2.787837    0.240117    0.883389
 ---------------------------------------------------------------------

 SCF Done:  E(RHF) =  -1239.73819969     A.U. after    2 cycles

 The electronic state is 1-A.
 Alpha  occ. eigenvalues -- -103.70380-103.70380 -20.64273 -20.64131 -15.93936
 Alpha  occ. eigenvalues --  -11.46061 -11.28543 -11.25564 -10.73672 -10.73670
 Alpha  occ. eigenvalues --   -8.39398  -8.39393  -8.39065  -8.39065  -8.39055
 Alpha  occ. eigenvalues --   -8.39055  -1.57896  -1.39847  -1.26486  -1.17362
 Alpha  occ. eigenvalues --   -1.08283  -1.01436  -0.90556  -0.82721  -0.77307
 Alpha  occ. eigenvalues --   -0.76098  -0.75655  -0.67709  -0.65129  -0.60395
 Alpha  occ. eigenvalues --   -0.59027  -0.56335  -0.54617  -0.52944  -0.52598
 Alpha  occ. eigenvalues --   -0.51271  -0.50225  -0.48597  -0.48536  -0.48500
 Alpha virt. eigenvalues --    0.03096   0.04746   0.04864   0.05036   0.05820
 Alpha virt. eigenvalues --    0.07589   0.08221   0.09185   0.10072   0.11963
 Alpha virt. eigenvalues --    0.12294   0.14134   0.14796   0.15527   0.15853

 Mulliken charges:
               1
     1  Cl  -0.040392
     2  Cl  -0.040393
     3  O   -0.548945
     4  O   -0.537482
     5  N    0.404613
     6  C    0.410704
     7  C    0.082918
     8  C    0.360535
     9  H    0.020683
    10  H    0.020680
    11  H   -0.024679
    12  H   -0.054123
    13  H   -0.054121
 Sum of Mulliken charges =  -0.00000

 Dipole moment (field-independent basis, Debye):
    X=              3.9559    Y=              0.6485    Z=             -0.0002  Tot=              4.0087

 Test job not archived.
 1\1\GINC-SE052\SP\RHF\Aug-CC-pVDZ\C3H5Cl2N1O2\OHZDE\05-Apr-2025\0\\#t
 hf aug-cc-pvdz iop(5/13=1,5/36=2,99/5=2) pseudo=read geom=check guess=
 (read,tcheck) scf=(maxcycle=1)\\title\\0,1\Cl,0,0.249784,-0.97435,1.46
 9255\Cl,0,0.249795,-0.974958,-1.468853\O,0,-2.276486,-0.317705,0.00001
 4\O,0,-1.578642,1.73245,-0.000305\N,0,-1.417338,0.52936,-0.000112\C,0,
 1.046188,1.203382,-0.000248\C,0,0.088165,0.027254,-0.000009\C,0,2.5237
 8,0.818478,-0.000164\H,0,0.809962,1.806954,0.875296\H,0,0.809968,1.806
 595,-0.876042\H,0,3.12516,1.726672,-0.000357\H,0,2.787839,0.23974,-0.8

 Normal termination of Gaussian 16 at Sat Apr  5 22:06:09 2025.
