 Gaussian 16, Revision C.01,

 ----------------------------------------------------------------------
 #t hf aug-cc-pvdz symm=none int=(grid=ultrafine) guess=(read,tcheck) s
 table=(opt,rrhf)
 ----------------------------------------------------------------------
 -----
 title
 -----
 Symbolic Z-matrix:
 Charge =  0 Multiplicity = 1

 SCF Done:  E(RHF) =  -374.622839270     A.U. after   12 cycles
 Normal termination of Gaussian 16 at Sat Apr  5 22:04:59 2025.
 Gaussian 16:  ES64L-G16RevC.01  3-Jul-2019

 ----------------------------------------------------------------------
 #t hf aug-cc-pvdz iop(5/13=1,5/36=2,99/5=2) pseudo=read geom=check gue
 ss=(read,tcheck) scf=(maxcycle=1)
 ----------------------------------------------------------------------
 -----
 title
 -----
 Structure from the checkpoint file:  "1-1-2-trifluoroethene.chk"
 Charge =  0 Multiplicity = 1

                         Standard orientation:
 ---------------------------------------------------------------------
 Center     Atomic      Atomic             Coordinates (Angstroms)
 Number     Number       Type             X           Y           Z
 ---------------------------------------------------------------------
      1          6           0        0.000000    0.430631    0.000000
      2          6           0       -0.704353   -0.686847    0.000000
      3          9           0        1.314791    0.500587    0.000000
      4          9           0       -0.554822    1.630861    0.000000
      5          9           0       -0.092517   -1.882156    0.000000
      6          1           0       -1.780948   -0.706341    0.000000
 ---------------------------------------------------------------------

 SCF Done:  E(RHF) =  -374.759661050     A.U. after    2 cycles

 The electronic state is 1-A'.
 Alpha  occ. eigenvalues --  -26.18852 -26.18760 -26.15858 -11.45500 -11.35982
 Alpha  occ. eigenvalues --   -1.75780  -1.71237  -1.69590  -1.10616  -0.95355
 Alpha  occ. eigenvalues --   -0.87821  -0.86019  -0.83434  -0.78542  -0.77207
 Alpha  occ. eigenvalues --   -0.76780  -0.75285  -0.74469  -0.64262  -0.41634
 Alpha virt. eigenvalues --    0.03582   0.06988   0.08712   0.09669   0.11309
 Alpha virt. eigenvalues --    0.12010   0.12389   0.15163   0.18126   0.20028
 Alpha virt. eigenvalues --    0.23934   0.25198   0.25495   0.28038   0.29557

 Mulliken charges:
               1
     1  C    0.500927
     2  C    0.513769
     3  F   -0.263271
     4  F   -0.280628
     5  F   -0.296477
     6  H   -0.174319
 Sum of Mulliken charges =  -0.00000

 Dipole moment (field-independent basis, Debye):
    X=             -1.7566    Y=              0.0882    Z=              0.0000  Tot=              1.7588

 Test job not archived.
 1\1\GINC-SE185\SP\RHF\Aug-CC-pVDZ\C2H1F3\OHZDE\05-Apr-2025\0\\#t hf au
 g-cc-pvdz iop(5/13=1,5/36=2,99/5=2) pseudo=read geom=check guess=(read
 ,tcheck) scf=(maxcycle=1)\\title\\0,1\C,0,0.,0.430631,0.\C,0,-0.704353
 ,-0.686847,0.\F,0,1.314791,0.500587,0.\F,0,-0.554822,1.630861,0.\F,0,-
 0.092517,-1.882156,0.\H,0,-1.780948,-0.706341,0.\\Version=ES64L-G16Rev
 C.01\State=1-A'\HF=-374.759661\RMSD=8.994e-03\Dipole=-0.6910811,0.0347
 037,0.\Quadrupole=1.7548843,-2.5978236,0.8429393,1.2026261,0.,0.\PG=CS
  [SG(C2H1F3)]\\@

 Normal termination of Gaussian 16 at Sat Apr  5 22:05:01 2025.
