 Gaussian 16, Revision C.01,

 ----------------------------------------------------------------------
 #t hf aug-cc-pvdz symm=none int=(grid=ultrafine) guess=(read,tcheck) s
 table=(opt,rrhf)
 ----------------------------------------------------------------------
 -----
 title
 -----
 Symbolic Z-matrix:
 Charge =  0 Multiplicity = 1

 SCF Done:  E(RHF) =  -275.776214531     A.U. after   12 cycles
 Normal termination of Gaussian 16 at Sat Apr  5 22:06:07 2025.
 Gaussian 16:  ES64L-G16RevC.01  3-Jul-2019

 ----------------------------------------------------------------------
 #t hf aug-cc-pvdz iop(5/13=1,5/36=2,99/5=2) pseudo=read geom=check gue
 ss=(read,tcheck) scf=(maxcycle=1)
 ----------------------------------------------------------------------
 -----
 title
 -----
 Structure from the checkpoint file:  "1-1-difluoroethene.chk"
 Charge =  0 Multiplicity = 1

                         Standard orientation:
 ---------------------------------------------------------------------
 Center     Atomic      Atomic             Coordinates (Angstroms)
 Number     Number       Type             X           Y           Z
 ---------------------------------------------------------------------
      1          9           0        0.000000    1.080780   -0.696531
      2          9           0       -0.000000   -1.080780   -0.696531
      3          6           0        0.000000   -0.000000    0.067620
      4          6           0        0.000000   -0.000000    1.382761
      5          1           0        0.000000    0.934350    1.917633
      6          1           0       -0.000000   -0.934350    1.917633
 ---------------------------------------------------------------------

 SCF Done:  E(RHF) =  -275.877190459     A.U. after    2 cycles

 The electronic state is 1-A1.
 Alpha  occ. eigenvalues --  -26.17321 -26.17308 -11.44524 -11.25772  -1.74427
 Alpha  occ. eigenvalues --   -1.69602  -1.08586  -0.93422  -0.85945  -0.81758
 Alpha  occ. eigenvalues --   -0.79589  -0.75463  -0.73255  -0.66393  -0.60860
 Alpha  occ. eigenvalues --   -0.40673
 Alpha virt. eigenvalues --    0.03718   0.05146   0.07342   0.09975   0.11559
 Alpha virt. eigenvalues --    0.11754   0.12269   0.15656   0.17664   0.19534
 Alpha virt. eigenvalues --    0.21161   0.24632   0.26426   0.28010   0.28839

 Mulliken charges:
               1
     1  F   -0.285780
     2  F   -0.285780
     3  C    0.637247
     4  C    0.393913
     5  H   -0.229800
     6  H   -0.229800
 Sum of Mulliken charges =  -0.00000

 Dipole moment (field-independent basis, Debye):
    X=              0.0000    Y=              0.0000    Z=              1.9195  Tot=              1.9195

 Test job not archived.
 1\1\GINC-SE146\SP\RHF\Aug-CC-pVDZ\C2H2F2\OHZDE\05-Apr-2025\0\\#t hf au
 g-cc-pvdz iop(5/13=1,5/36=2,99/5=2) pseudo=read geom=check guess=(read
 ,tcheck) scf=(maxcycle=1)\\title\\0,1\F,0,0.,1.08078,-0.696531\F,0,0.,
 -1.08078,-0.696531\C,0,0.,0.,0.06762\C,0,0.,0.,1.382761\H,0,0.,0.93435
 ,1.917633\H,0,0.,-0.93435,1.917633\\Version=ES64L-G16RevC.01\State=1-A
 1\HF=-275.8771905\RMSD=8.052e-03\Dipole=0.,0.,0.7551918\Quadrupole=-0.
 5901086,-0.6834886,1.2735972,0.,0.,0.\PG=C02V [C2(C1C1),SGV(H2F2)]\\@

 Normal termination of Gaussian 16 at Sat Apr  5 22:06:36 2025.
