 Gaussian 16, Revision C.01,

 ----------------------------------------------------------------------
 #t hf aug-cc-pvdz symm=none int=(grid=ultrafine) guess=(read,tcheck) s
 table=(opt,rrhf)
 ----------------------------------------------------------------------
 -----
 title
 -----
 Symbolic Z-matrix:
 Charge =  0 Multiplicity = 1

 SCF Done:  E(RHF) =  -1495.03171242     A.U. after   13 cycles

 1\1\GINC-SE129\Stability\RHF\Aug-CC-pVDZ\C3H5Cl3\OHZDE\05-Apr-2025\0\\
 #t hf aug-cc-pvdz symm=none int=(grid=ultrafine) guess=(read,tcheck) s
 table=(opt,rrhf)\\title\\0,1\C,0,2.201897,-1.170837,0.\C,0,1.510358,0.
 188385,0.\C,0,-0.01435,0.15262,0.\Cl,0,-0.646271,1.840726,0.\Cl,0,-0.6
 46271,-0.685884,1.463336\Cl,0,-0.646271,-0.685884,-1.463336\H,0,1.9421
 56,-1.75156,-0.883333\H,0,3.281345,-1.02085,0.\H,0,1.942156,-1.75156,0
 .883333\H,0,1.803357,0.765336,-0.877934\H,0,1.803357,0.765336,0.877934
 \\Version=ES64L-G16RevC.01\HF=-1495.0317124\RMSD=3.208e-09\Dipole=0.88

 Normal termination of Gaussian 16 at Sat Apr  5 22:05:10 2025.
 Gaussian 16:  ES64L-G16RevC.01  3-Jul-2019

 ----------------------------------------------------------------------
 #t hf aug-cc-pvdz iop(5/13=1,5/36=2,99/5=2) pseudo=read geom=check gue
 ss=(read,tcheck) scf=(maxcycle=1)
 ----------------------------------------------------------------------
 -----
 title
 -----
 Structure from the checkpoint file:  "1-1-1-trichloropropane.chk"
 Charge =  0 Multiplicity = 1

                         Standard orientation:
 ---------------------------------------------------------------------
 Center     Atomic      Atomic             Coordinates (Angstroms)
 Number     Number       Type             X           Y           Z
 ---------------------------------------------------------------------
      1          6           0        2.201897   -1.170837   -0.000000
      2          6           0        1.510358    0.188385   -0.000000
      3          6           0       -0.014350    0.152620    0.000000
      4         17           0       -0.646271    1.840726    0.000000
      5         17           0       -0.646271   -0.685884    1.463336
      6         17           0       -0.646271   -0.685884   -1.463336
      7          1           0        1.942156   -1.751560   -0.883333
      8          1           0        3.281345   -1.020850   -0.000000
      9          1           0        1.942156   -1.751560    0.883333
     10          1           0        1.803357    0.765336   -0.877934
     11          1           0        1.803357    0.765336    0.877934
 ---------------------------------------------------------------------

 SCF Done:  E(RHF) =  -1495.12272819     A.U. after    2 cycles

 The electronic state is 1-A'.
 Alpha  occ. eigenvalues -- -103.68324-103.68324-103.68286 -11.44721 -11.27638
 Alpha  occ. eigenvalues --  -11.24500 -10.71638 -10.71624 -10.71579  -8.37348
 Alpha  occ. eigenvalues --   -8.37342  -8.37296  -8.37022  -8.37021  -8.37019
 Alpha  occ. eigenvalues --   -8.37016  -8.36971  -8.36969  -1.25927  -1.15117
 Alpha  occ. eigenvalues --   -1.15043  -1.06337  -0.92016  -0.80002  -0.67497
 Alpha  occ. eigenvalues --   -0.66201  -0.63308  -0.60258  -0.55762  -0.54033
 Alpha  occ. eigenvalues --   -0.51697  -0.50686  -0.50054  -0.47367  -0.46941
 Alpha  occ. eigenvalues --   -0.46857  -0.45801
 Alpha virt. eigenvalues --    0.03460   0.05114   0.05370   0.05834   0.07281
 Alpha virt. eigenvalues --    0.08466   0.09407   0.09842   0.10129   0.12789
 Alpha virt. eigenvalues --    0.13520   0.14945   0.15187   0.15998   0.16096

 Mulliken charges:
               1
     1  C    0.422639
     2  C    0.525093
     3  C   -0.691427
     4  Cl   0.010433
     5  Cl  -0.013179
     6  Cl  -0.013179
     7  H   -0.055689
     8  H   -0.024849
     9  H   -0.055689
    10  H   -0.052076
    11  H   -0.052076
 Sum of Mulliken charges =  -0.00000

 Dipole moment (field-independent basis, Debye):
    X=              2.3162    Y=             -0.1924    Z=              0.0000  Tot=              2.3242

 Test job not archived.
 1\1\GINC-SE129\SP\RHF\Aug-CC-pVDZ\C3H5Cl3\OHZDE\05-Apr-2025\0\\#t hf a
 ug-cc-pvdz iop(5/13=1,5/36=2,99/5=2) pseudo=read geom=check guess=(rea
 d,tcheck) scf=(maxcycle=1)\\title\\0,1\C,0,2.201897,-1.170837,0.\C,0,1
 .510358,0.188385,0.\C,0,-0.01435,0.15262,0.\Cl,0,-0.646271,1.840726,0.
 \Cl,0,-0.646271,-0.685884,1.463336\Cl,0,-0.646271,-0.685884,-1.463336\
 H,0,1.942156,-1.75156,-0.883333\H,0,3.281345,-1.02085,0.\H,0,1.942156,
 -1.75156,0.883333\H,0,1.803357,0.765336,-0.877934\H,0,1.803357,0.76533
 6,0.877934\\Version=ES64L-G16RevC.01\State=1-A'\HF=-1495.1227282\RMSD=

 Normal termination of Gaussian 16 at Sat Apr  5 22:06:08 2025.
