 Gaussian 16, Revision C.01,

 ----------------------------------------------------------------------
 #t hf aug-cc-pvdz symm=none int=(grid=ultrafine) guess=(read,tcheck) s
 table=(opt,rrhf)
 ----------------------------------------------------------------------
 -----
 title
 -----
 Symbolic Z-matrix:
 Charge =  0 Multiplicity = 1

 SCF Done:  E(RHF) =  -1056.55323492     A.U. after   16 cycles
 Normal termination of Gaussian 16 at Sat Apr  5 22:06:26 2025.
 Gaussian 16:  ES64L-G16RevC.01  3-Jul-2019

 ----------------------------------------------------------------------
 #t hf aug-cc-pvdz iop(5/13=1,5/36=2,99/5=2) pseudo=read geom=check gue
 ss=(read,tcheck) scf=(maxcycle=1)
 ----------------------------------------------------------------------
 -----
 title
 -----
 Structure from the checkpoint file:  "1-1-dithiocyanatoethene.chk"
 Charge =  0 Multiplicity = 1

                         Standard orientation:
 ---------------------------------------------------------------------
 Center     Atomic      Atomic             Coordinates (Angstroms)
 Number     Number       Type             X           Y           Z
 ---------------------------------------------------------------------
      1         16           0        0.913405   -0.731150   -0.602876
      2         16           0       -1.659560    0.749648   -0.498267
      3          7           0        3.513666   -0.356225    0.501355
      4          7           0       -2.753361   -1.506382    0.868888
      5          6           0        0.061580    0.725895    0.003060
      6          6           0        2.453147   -0.497661    0.065289
      7          6           0       -2.270244   -0.603474    0.334802
      8          6           0        0.589938    1.764744    0.634480
      9          1           0        1.649607    1.825737    0.840445
     10          1           0       -0.039790    2.579515    0.960377
 ---------------------------------------------------------------------

 SCF Done:  E(RHF) =  -1056.67311576     A.U. after    2 cycles

 The electronic state is 1-A.
 Alpha  occ. eigenvalues --  -93.63823 -93.63478 -15.67762 -15.67329 -11.36869
 Alpha  occ. eigenvalues --  -11.33395 -11.33005 -11.30749  -8.93393  -8.93114
 Alpha  occ. eigenvalues --   -6.27611  -6.27349  -6.27319  -6.27021  -6.26945
 Alpha  occ. eigenvalues --   -6.26630  -1.23091  -1.22457  -1.16756  -1.05856
 Alpha  occ. eigenvalues --   -1.03004  -0.83427  -0.73297  -0.70924  -0.65542
 Alpha  occ. eigenvalues --   -0.60616  -0.57788  -0.57197  -0.55876  -0.55427
 Alpha  occ. eigenvalues --   -0.54688  -0.49823  -0.48358  -0.47481  -0.41309
 Alpha  occ. eigenvalues --   -0.38612
 Alpha virt. eigenvalues --    0.02773   0.04949   0.05322   0.05857   0.06247
 Alpha virt. eigenvalues --    0.06915   0.08174   0.08984   0.09504   0.10531
 Alpha virt. eigenvalues --    0.10833   0.11936   0.12977   0.13582   0.13901

 Mulliken charges:
               1
     1  S    0.772478
     2  S    0.568601
     3  N   -0.182617
     4  N   -0.198479
     5  C   -0.340440
     6  C   -0.438377
     7  C   -0.293981
     8  C    0.642555
     9  H   -0.266209
    10  H   -0.263532
 Sum of Mulliken charges =   0.00000

 Dipole moment (field-independent basis, Debye):
    X=             -0.5440    Y=              3.5096    Z=             -1.3937  Tot=              3.8152

 Test job not archived.
 1\1\GINC-SE187\SP\RHF\Aug-CC-pVDZ\C4H2N2S2\OHZDE\05-Apr-2025\0\\#t hf
 aug-cc-pvdz iop(5/13=1,5/36=2,99/5=2) pseudo=read geom=check guess=(re
 ad,tcheck) scf=(maxcycle=1)\\title\\0,1\S,0,0.913405,-0.73115,-0.60287
 6\S,0,-1.65956,0.749648,-0.498267\N,0,3.513666,-0.356225,0.501355\N,0,
 -2.753361,-1.506382,0.868888\C,0,0.06158,0.725895,0.00306\C,0,2.453147
 ,-0.497661,0.065289\C,0,-2.270244,-0.603474,0.334802\C,0,0.589938,1.76
 4744,0.63448\H,0,1.649607,1.825737,0.840445\H,0,-0.03979,2.579515,0.96
 0377\\Version=ES64L-G16RevC.01\State=1-A\HF=-1056.6731158\RMSD=6.447e-

 Normal termination of Gaussian 16 at Sat Apr  5 22:06:39 2025.
