 Gaussian 16, Revision C.01,

 ----------------------------------------------------------------------
 #t hf aug-cc-pvdz symm=none int=(grid=ultrafine) guess=(read,tcheck) s
 table=(opt,rrhf)
 ----------------------------------------------------------------------
 -----
 title
 -----
 Symbolic Z-matrix:
 Charge =  0 Multiplicity = 1

 SCF Done:  E(RHF) =  -420.941009173     A.U. after   12 cycles

 1\1\GINC-SE164\Stability\RHF\Aug-CC-pVDZ\C5H12O3\OHZDE\05-Apr-2025\0\\
 #t hf aug-cc-pvdz symm=none int=(grid=ultrafine) guess=(read,tcheck) s
 table=(opt,rrhf)\\title\\0,1\C,0,0.396763,-0.84941,1.557707\C,0,-1.307
 595,1.844297,-0.284042\C,0,-1.397054,-1.675296,-0.631754\C,0,2.299456,
 0.07518,-0.646213\C,0,0.083784,-0.016254,0.319117\O,0,-0.932476,0.8648
 57,0.686795\O,0,-0.287293,-0.80478,-0.801289\O,0,1.175176,0.756275,-0.
 102867\H,0,1.120921,-1.627964,1.326124\H,0,0.801114,-0.194836,2.326325
 \H,0,-0.507613,-1.314379,1.943099\H,0,-0.521991,2.587274,-0.415187\H,0

 Normal termination of Gaussian 16 at Sat Apr  5 22:06:07 2025.
 Gaussian 16:  ES64L-G16RevC.01  3-Jul-2019

 ----------------------------------------------------------------------
 #t hf aug-cc-pvdz iop(5/13=1,5/36=2,99/5=2) pseudo=read geom=check gue
 ss=(read,tcheck) scf=(maxcycle=1)
 ----------------------------------------------------------------------
 -----
 title
 -----
 Structure from the checkpoint file:  "1-1-1-trimethoxyethane.chk"
 Charge =  0 Multiplicity = 1

                         Standard orientation:
 ---------------------------------------------------------------------
 Center     Atomic      Atomic             Coordinates (Angstroms)
 Number     Number       Type             X           Y           Z
 ---------------------------------------------------------------------
      1          6           0        0.396762   -0.849410    1.557707
      2          6           0       -1.307594    1.844298   -0.284042
      3          6           0       -1.397055   -1.675295   -0.631754
      4          6           0        2.299456    0.075179   -0.646213
      5          6           0        0.083784   -0.016254    0.319117
      6          8           0       -0.932476    0.864857    0.686795
      7          8           0       -0.287294   -0.804780   -0.801289
      8          8           0        1.175176    0.756274   -0.102867
      9          1           0        1.120920   -1.627965    1.326124
     10          1           0        0.801114   -0.194837    2.326325
     11          1           0       -0.507614   -1.314379    1.943099
     12          1           0       -0.521990    2.587274   -0.415187
     13          1           0       -2.202109    2.321103    0.109521
     14          1           0       -1.531942    1.383741   -1.247020
     15          1           0       -1.666307   -2.024171   -1.626421
     16          1           0       -2.250043   -1.156135   -0.190361
     17          1           0       -1.144458   -2.540689   -0.013310
     18          1           0        2.776750   -0.573023    0.093646
     19          1           0        3.004868    0.850808   -0.935557
     20          1           0        2.025435   -0.513637   -1.520874
 ---------------------------------------------------------------------

 SCF Done:  E(RHF) =  -421.080310731     A.U. after    2 cycles

 The electronic state is 1-A.
 Alpha  occ. eigenvalues --  -20.57403 -20.57184 -20.57177 -11.39928 -11.28366
 Alpha  occ. eigenvalues --  -11.27907 -11.27225 -11.22711  -1.40569  -1.30578
 Alpha  occ. eigenvalues --   -1.30562  -1.02292  -0.95237  -0.92937  -0.91745
 Alpha  occ. eigenvalues --   -0.78538  -0.71968  -0.71493  -0.68743  -0.64756
 Alpha  occ. eigenvalues --   -0.63201  -0.60630  -0.59398  -0.58555  -0.56598
 Alpha  occ. eigenvalues --   -0.55380  -0.54077  -0.52510  -0.50082  -0.48886
 Alpha  occ. eigenvalues --   -0.46013  -0.45609  -0.44177
 Alpha virt. eigenvalues --    0.03501   0.04544   0.04670   0.04902   0.06057
 Alpha virt. eigenvalues --    0.06293   0.06300   0.06972   0.07252   0.09052
 Alpha virt. eigenvalues --    0.09458   0.09670   0.11473   0.13205   0.13977

 Mulliken charges:
               1
     1  C    0.743921
     2  C    0.795094
     3  C    0.936316
     4  C    0.841457
     5  C    0.250141
     6  O   -0.670294
     7  O   -0.697556
     8  O   -0.714095
     9  H   -0.026001
    10  H   -0.036175
    11  H   -0.073977
    12  H   -0.071345
    13  H   -0.242257
    14  H   -0.078400
    15  H   -0.258355
    16  H   -0.065415
    17  H   -0.154560
    18  H   -0.151068
    19  H   -0.238052
    20  H   -0.089379
 Sum of Mulliken charges =  -0.00000

 Dipole moment (field-independent basis, Debye):
    X=             -0.0653    Y=             -1.4722    Z=             -0.3187  Tot=              1.5077

 Test job not archived.
 1\1\GINC-SE164\SP\RHF\Aug-CC-pVDZ\C5H12O3\OHZDE\05-Apr-2025\0\\#t hf a
 ug-cc-pvdz iop(5/13=1,5/36=2,99/5=2) pseudo=read geom=check guess=(rea
 d,tcheck) scf=(maxcycle=1)\\title\\0,1\C,0,0.396763,-0.84941,1.557707\
 C,0,-1.307595,1.844297,-0.284042\C,0,-1.397054,-1.675296,-0.631754\C,0
 ,2.299456,0.07518,-0.646213\C,0,0.083784,-0.016254,0.319117\O,0,-0.932
 476,0.864857,0.686795\O,0,-0.287293,-0.80478,-0.801289\O,0,1.175176,0.
 756275,-0.102867\H,0,1.120921,-1.627964,1.326124\H,0,0.801114,-0.19483
 6,2.326325\H,0,-0.507613,-1.314379,1.943099\H,0,-0.521991,2.587274,-0.

 Normal termination of Gaussian 16 at Sat Apr  5 22:06:44 2025.
