 Gaussian 16, Revision C.01,

 ----------------------------------------------------------------------
 #t hf aug-cc-pvdz symm=none int=(grid=ultrafine) guess=(read,tcheck) s
 table=(opt,rrhf)
 ----------------------------------------------------------------------
 -----
 title
 -----
 Symbolic Z-matrix:
 Charge =  0 Multiplicity = 1

 SCF Done:  E(RHF) =  -189.260201139     A.U. after   12 cycles
 Normal termination of Gaussian 16 at Sat Apr  5 22:06:13 2025.
 Gaussian 16:  ES64L-G16RevC.01  3-Jul-2019

 ----------------------------------------------------------------------
 #t hf aug-cc-pvdz iop(5/13=1,5/36=2,99/5=2) pseudo=read geom=check gue
 ss=(read,tcheck) scf=(maxcycle=1)
 ----------------------------------------------------------------------
 -----
 title
 -----
 Structure from the checkpoint file:  "1-1-dimethylhydrazine.chk"
 Charge =  0 Multiplicity = 1

                         Standard orientation:
 ---------------------------------------------------------------------
 Center     Atomic      Atomic             Coordinates (Angstroms)
 Number     Number       Type             X           Y           Z
 ---------------------------------------------------------------------
      1          6           0        0.327267   -0.588904    1.198224
      2          7           0        0.327267    0.236816   -0.000000
      3          7           0       -0.931112    0.994972    0.000000
      4          1           0       -0.869402    1.616300    0.803103
      5          1           0       -0.869402    1.616300   -0.803103
      6          1           0        0.334815    0.048085    2.083911
      7          1           0       -0.549984   -1.250736    1.251362
      8          1           0        1.234428   -1.191485    1.209716
      9          6           0        0.327267   -0.588904   -1.198224
     10          1           0        0.334815    0.048085   -2.083911
     11          1           0       -0.549984   -1.250736   -1.251362
     12          1           0        1.234428   -1.191485   -1.209716
 ---------------------------------------------------------------------

 SCF Done:  E(RHF) =  -189.320380847     A.U. after    2 cycles

 The electronic state is 1-A'.
 Alpha  occ. eigenvalues --  -15.64086 -15.63527 -11.25214 -11.25213  -1.23797
 Alpha  occ. eigenvalues --   -1.04859  -0.95175  -0.81452  -0.66843  -0.65164
 Alpha  occ. eigenvalues --   -0.62573  -0.56201  -0.53810  -0.51382  -0.51082
 Alpha  occ. eigenvalues --   -0.47455  -0.33160
 Alpha virt. eigenvalues --    0.03654   0.04298   0.04427   0.05853   0.07397
 Alpha virt. eigenvalues --    0.07612   0.08263   0.09761   0.11402   0.14569
 Alpha virt. eigenvalues --    0.15008   0.16501   0.17197   0.17280   0.17309

 Mulliken charges:
               1
     1  C    0.765903
     2  N   -0.748442
     3  N   -0.143820
     4  H    0.043905
     5  H    0.043905
     6  H   -0.211546
     7  H    0.001437
     8  H   -0.153569
     9  C    0.765903
    10  H   -0.211546
    11  H    0.001437
    12  H   -0.153569
 Sum of Mulliken charges =   0.00000

 Dipole moment (field-independent basis, Debye):
    X=              0.4401    Y=              0.2382    Z=             -0.0000  Tot=              0.5004

 Test job not archived.
 1\1\GINC-SE176\SP\RHF\Aug-CC-pVDZ\C2H8N2\OHZDE\05-Apr-2025\0\\#t hf au
 g-cc-pvdz iop(5/13=1,5/36=2,99/5=2) pseudo=read geom=check guess=(read
 ,tcheck) scf=(maxcycle=1)\\title\\0,1\C,0,0.327267,-0.588904,1.198224\
 N,0,0.327267,0.236816,0.\N,0,-0.931112,0.994972,0.\H,0,-0.869402,1.616
 3,0.803103\H,0,-0.869402,1.6163,-0.803103\H,0,0.334815,0.048085,2.0839
 11\H,0,-0.549984,-1.250736,1.251362\H,0,1.234428,-1.191485,1.209716\C,
 0,0.327267,-0.588904,-1.198224\H,0,0.334815,0.048085,-2.083911\H,0,-0.
 549984,-1.250736,-1.251362\H,0,1.234428,-1.191485,-1.209716\\Version=E

 Normal termination of Gaussian 16 at Sat Apr  5 22:06:38 2025.
