 Gaussian 16, Revision C.01,

 ----------------------------------------------------------------------
 #t hf aug-cc-pvdz symm=none int=(grid=ultrafine) guess=(read,tcheck) s
 table=(opt,rrhf)
 ----------------------------------------------------------------------
 -----
 title
 -----
 Symbolic Z-matrix:
 Charge =  0 Multiplicity = 1

 SCF Done:  E(RHF) =  -532.600886362     A.U. after   13 cycles

 1\1\GINC-SE053\Stability\RHF\Aug-CC-pVDZ\C6H10O4\OHZDE\05-Apr-2025\0\\
 #t hf aug-cc-pvdz symm=none int=(grid=ultrafine) guess=(read,tcheck) s
 table=(opt,rrhf)\\title\\0,1\C,0,1.958541,-0.478093,0.193954\C,0,-1.98
 5911,-0.370129,0.044281\C,0,3.315328,-0.651679,-0.427177\C,0,-2.70637,
 -1.4062,-0.772082\C,0,-0.282027,2.350782,-0.151313\C,0,0.025654,0.9063
 81,0.152375\O,0,1.466249,-1.1927,1.024364\O,0,-2.348571,0.063105,1.107
 404\O,0,1.336474,0.624435,-0.316945\O,0,-0.84702,0.027067,-0.577278\H,
 0,3.20635,-0.834642,-1.496483\H,0,3.901786,0.259171,-0.311364\H,0,3.82

 Normal termination of Gaussian 16 at Sat Apr  5 22:06:36 2025.
 Gaussian 16:  ES64L-G16RevC.01  3-Jul-2019

 ----------------------------------------------------------------------
 #t hf aug-cc-pvdz iop(5/13=1,5/36=2,99/5=2) pseudo=read geom=check gue
 ss=(read,tcheck) scf=(maxcycle=1)
 ----------------------------------------------------------------------
 -----
 title
 -----
 Structure from the checkpoint file:  "1-1-diacetoxyethane.chk"
 Charge =  0 Multiplicity = 1

                         Standard orientation:
 ---------------------------------------------------------------------
 Center     Atomic      Atomic             Coordinates (Angstroms)
 Number     Number       Type             X           Y           Z
 ---------------------------------------------------------------------
      1          6           0        1.958541   -0.478093    0.193954
      2          6           0       -1.985911   -0.370129    0.044281
      3          6           0        3.315328   -0.651679   -0.427177
      4          6           0       -2.706370   -1.406200   -0.772082
      5          6           0       -0.282027    2.350782   -0.151313
      6          6           0        0.025654    0.906381    0.152375
      7          8           0        1.466249   -1.192700    1.024364
      8          8           0       -2.348571    0.063105    1.107404
      9          8           0        1.336474    0.624435   -0.316945
     10          8           0       -0.847020    0.027067   -0.577278
     11          1           0        3.206350   -0.834642   -1.496483
     12          1           0        3.901786    0.259171   -0.311364
     13          1           0        3.823877   -1.488732    0.040209
     14          1           0       -2.793777   -1.084287   -1.808678
     15          1           0       -2.130275   -2.332268   -0.762710
     16          1           0       -3.688403   -1.585106   -0.345883
     17          1           0        0.418059    2.997677    0.375816
     18          1           0       -1.291702    2.583448    0.181303
     19          1           0       -0.200399    2.536528   -1.221464
     20          1           0       -0.053858    0.666591    1.208658
 ---------------------------------------------------------------------

 SCF Done:  E(RHF) =  -532.773191060     A.U. after    2 cycles

 The electronic state is 1-A.
 Alpha  occ. eigenvalues --  -20.62557 -20.62002 -20.57031 -20.56387 -11.40481
 Alpha  occ. eigenvalues --  -11.40049 -11.36953 -11.25760 -11.25232 -11.24006
 Alpha  occ. eigenvalues --   -1.44580  -1.41315  -1.34623  -1.31965  -1.07052
 Alpha  occ. eigenvalues --   -1.01923  -0.99938  -0.89481  -0.82287  -0.79920
 Alpha  occ. eigenvalues --   -0.72059  -0.71292  -0.70771  -0.67456  -0.66438
 Alpha  occ. eigenvalues --   -0.64879  -0.60659  -0.59339  -0.58698  -0.58078
 Alpha  occ. eigenvalues --   -0.57556  -0.55910  -0.55654  -0.53912  -0.51788
 Alpha  occ. eigenvalues --   -0.50498  -0.48727  -0.47151  -0.46770
 Alpha virt. eigenvalues --    0.03107   0.04043   0.04376   0.05028   0.05910
 Alpha virt. eigenvalues --    0.06101   0.06551   0.06848   0.07701   0.08021
 Alpha virt. eigenvalues --    0.10074   0.11343   0.12498   0.12918   0.13648

 Mulliken charges:
               1
     1  C    0.208839
     2  C    0.261714
     3  C    0.331351
     4  C    0.327285
     5  C    0.572878
     6  C    0.573416
     7  O   -0.423280
     8  O   -0.443223
     9  O   -0.575080
    10  O   -0.677707
    11  H    0.039173
    12  H    0.030825
    13  H   -0.017433
    14  H   -0.003363
    15  H    0.059028
    16  H   -0.014939
    17  H   -0.058918
    18  H   -0.046382
    19  H   -0.009288
    20  H   -0.134897
 Sum of Mulliken charges =   0.00000

 Dipole moment (field-independent basis, Debye):
    X=              1.6026    Y=              0.7422    Z=             -3.1540  Tot=              3.6148

 Test job not archived.
 1\1\GINC-SE053\SP\RHF\Aug-CC-pVDZ\C6H10O4\OHZDE\05-Apr-2025\0\\#t hf a
 ug-cc-pvdz iop(5/13=1,5/36=2,99/5=2) pseudo=read geom=check guess=(rea
 d,tcheck) scf=(maxcycle=1)\\title\\0,1\C,0,1.958541,-0.478093,0.193954
 \C,0,-1.985911,-0.370129,0.044281\C,0,3.315328,-0.651679,-0.427177\C,0
 ,-2.70637,-1.4062,-0.772082\C,0,-0.282027,2.350782,-0.151313\C,0,0.025
 654,0.906381,0.152375\O,0,1.466249,-1.1927,1.024364\O,0,-2.348571,0.06
 3105,1.107404\O,0,1.336474,0.624435,-0.316945\O,0,-0.84702,0.027067,-0
 .577278\H,0,3.20635,-0.834642,-1.496483\H,0,3.901786,0.259171,-0.31136

 Normal termination of Gaussian 16 at Sat Apr  5 22:07:06 2025.
