 Gaussian 16, Revision C.01,

 ----------------------------------------------------------------------
 #t hf aug-cc-pvdz symm=none int=(grid=ultrafine) guess=(read,tcheck) s
 table=(opt,rrhf)
 ----------------------------------------------------------------------
 -----
 title
 -----
 Symbolic Z-matrix:
 Charge =  0 Multiplicity = 1

 SCF Done:  E(RHF) =  -276.982402730     A.U. after   11 cycles
 Normal termination of Gaussian 16 at Sat Apr  5 22:06:09 2025.
 Gaussian 16:  ES64L-G16RevC.01  3-Jul-2019

 ----------------------------------------------------------------------
 #t hf aug-cc-pvdz iop(5/13=1,5/36=2,99/5=2) pseudo=read geom=check gue
 ss=(read,tcheck) scf=(maxcycle=1)
 ----------------------------------------------------------------------
 -----
 title
 -----
 Structure from the checkpoint file:  "1-1-difluoroethane.chk"
 Charge =  0 Multiplicity = 1

                         Standard orientation:
 ---------------------------------------------------------------------
 Center     Atomic      Atomic             Coordinates (Angstroms)
 Number     Number       Type             X           Y           Z
 ---------------------------------------------------------------------
      1          6           0        0.898943    1.042679   -0.000000
      2          6           0       -0.321603    0.166943    0.000000
      3          9           0       -0.321603   -0.652153    1.102135
      4          9           0       -0.321603   -0.652153   -1.102135
      5          1           0        1.793325    0.421274   -0.000000
      6          1           0        0.899762    1.674835   -0.886681
      7          1           0        0.899762    1.674835    0.886681
      8          1           0       -1.268028    0.710080    0.000000
 ---------------------------------------------------------------------

 SCF Done:  E(RHF) =  -277.081562828     A.U. after    2 cycles

 The electronic state is 1-A'.
 Alpha  occ. eigenvalues --  -26.12871 -26.12862 -11.42075 -11.25374  -1.69005
 Alpha  occ. eigenvalues --   -1.64577  -1.06237  -0.92074  -0.81275  -0.80488
 Alpha  occ. eigenvalues --   -0.76873  -0.72324  -0.68809  -0.65243  -0.57976
 Alpha  occ. eigenvalues --   -0.57567  -0.53758
 Alpha virt. eigenvalues --    0.03360   0.04616   0.05501   0.06394   0.10686
 Alpha virt. eigenvalues --    0.11467   0.11565   0.14137   0.15552   0.15662
 Alpha virt. eigenvalues --    0.16965   0.20478   0.23990   0.25884   0.27635

 Mulliken charges:
               1
     1  C    0.112805
     2  C    0.842283
     3  F   -0.374550
     4  F   -0.374550
     5  H   -0.006261
     6  H   -0.003704
     7  H   -0.003704
     8  H   -0.192319
 Sum of Mulliken charges =  -0.00000

 Dipole moment (field-independent basis, Debye):
    X=              0.3789    Y=              2.8096    Z=              0.0000  Tot=              2.8351

 Test job not archived.
 1\1\GINC-SE145\SP\RHF\Aug-CC-pVDZ\C2H4F2\OHZDE\05-Apr-2025\0\\#t hf au
 g-cc-pvdz iop(5/13=1,5/36=2,99/5=2) pseudo=read geom=check guess=(read
 ,tcheck) scf=(maxcycle=1)\\title\\0,1\C,0,0.898943,1.042679,0.\C,0,-0.
 321603,0.166943,0.\F,0,-0.321603,-0.652153,1.102135\F,0,-0.321603,-0.6
 52153,-1.102135\H,0,1.793325,0.421274,0.\H,0,0.899762,1.674835,-0.8866
 81\H,0,0.899762,1.674835,0.886681\H,0,-1.268028,0.71008,0.\\Version=ES
 64L-G16RevC.01\State=1-A'\HF=-277.0815628\RMSD=6.002e-03\Dipole=0.1490
 791,1.1053969,0.\Quadrupole=1.6576499,0.3372415,-1.9948914,-0.482948,0

 Normal termination of Gaussian 16 at Sat Apr  5 22:06:37 2025.
