 Gaussian 16, Revision C.01,

 ----------------------------------------------------------------------
 #t hf aug-cc-pvdz symm=none int=(grid=ultrafine) guess=(read,tcheck) s
 table=(opt,rrhf)
 ----------------------------------------------------------------------
 -----
 title
 -----
 Symbolic Z-matrix:
 Charge =  0 Multiplicity = 1

 SCF Done:  E(RHF) =  -426.728492335     A.U. after   12 cycles
 Normal termination of Gaussian 16 at Sat Apr  5 22:06:14 2025.
 Gaussian 16:  ES64L-G16RevC.01  3-Jul-2019

 ----------------------------------------------------------------------
 #t hf aug-cc-pvdz iop(5/13=1,5/36=2,99/5=2) pseudo=read geom=check gue
 ss=(read,tcheck) scf=(maxcycle=1)
 ----------------------------------------------------------------------
 -----
 title
 -----
 Structure from the checkpoint file:  "1-1-difluoro-2-2-ethanediol.chk"
 Charge =  0 Multiplicity = 1

                         Standard orientation:
 ---------------------------------------------------------------------
 Center     Atomic      Atomic             Coordinates (Angstroms)
 Number     Number       Type             X           Y           Z
 ---------------------------------------------------------------------
      1          9           0        0.936726   -0.752395    1.002357
      2          9           0        1.646645    0.548458   -0.624816
      3          8           0       -1.587352   -0.834466   -0.382371
      4          8           0       -0.934596    1.174393    0.623606
      5          6           0       -0.691510    0.252835   -0.394390
      6          6           0        0.702183   -0.374100   -0.292984
      7          1           0       -0.754108    0.816515   -1.328274
      8          1           0        0.817745   -1.249022   -0.931294
      9          1           0       -2.484848   -0.486276   -0.414125
     10          1           0       -0.717580    0.762386    1.470180
 ---------------------------------------------------------------------

 SCF Done:  E(RHF) =  -426.873548289     A.U. after    2 cycles

 The electronic state is 1-A.
 Alpha  occ. eigenvalues --  -26.14719 -26.14435 -20.60589 -20.60356 -11.43047
 Alpha  occ. eigenvalues --  -11.37848  -1.70904  -1.66404  -1.39945  -1.32421
 Alpha  occ. eigenvalues --   -1.04842  -0.91868  -0.83202  -0.82885  -0.81269
 Alpha  occ. eigenvalues --   -0.76632  -0.73815  -0.70723  -0.69256  -0.66515
 Alpha  occ. eigenvalues --   -0.65106  -0.62162  -0.54068  -0.53276  -0.50259
 Alpha virt. eigenvalues --    0.03242   0.04739   0.05230   0.05788   0.10258
 Alpha virt. eigenvalues --    0.10731   0.11221   0.12580   0.14383   0.14918
 Alpha virt. eigenvalues --    0.16696   0.19525   0.20821   0.20984   0.21806

 Mulliken charges:
               1
     1  F   -0.376152
     2  F   -0.345581
     3  O   -0.529709
     4  O   -0.527256
     5  C    0.924878
     6  C    0.880211
     7  H   -0.155150
     8  H   -0.160080
     9  H    0.134900
    10  H    0.153938
 Sum of Mulliken charges =   0.00000

 Dipole moment (field-independent basis, Debye):
    X=             -1.9184    Y=             -0.6436    Z=             -1.1845  Tot=              2.3447

 Test job not archived.
 1\1\GINC-SE040\SP\RHF\Aug-CC-pVDZ\C2H4F2O2\OHZDE\05-Apr-2025\0\\#t hf
 aug-cc-pvdz iop(5/13=1,5/36=2,99/5=2) pseudo=read geom=check guess=(re
 ad,tcheck) scf=(maxcycle=1)\\title\\0,1\F,0,0.936726,-0.752395,1.00235
 7\F,0,1.646645,0.548458,-0.624816\O,0,-1.587352,-0.834466,-0.382371\O,
 0,-0.934596,1.174393,0.623606\C,0,-0.69151,0.252835,-0.39439\C,0,0.702
 183,-0.3741,-0.292984\H,0,-0.754108,0.816515,-1.328274\H,0,0.817745,-1
 .249022,-0.931294\H,0,-2.484848,-0.486276,-0.414125\H,0,-0.71758,0.762
 386,1.47018\\Version=ES64L-G16RevC.01\State=1-A\HF=-426.8735483\RMSD=5

 Normal termination of Gaussian 16 at Sat Apr  5 22:06:38 2025.
