 Gaussian 16, Revision C.01,

 ----------------------------------------------------------------------
 #t hf aug-cc-pvdz symm=none int=(grid=ultrafine) guess=(read,tcheck) s
 table=(opt,rrhf)
 ----------------------------------------------------------------------
 -----
 title
 -----
 Symbolic Z-matrix:
 Charge =  0 Multiplicity = 1

 SCF Done:  E(RHF) =  -443.599496310     A.U. after   14 cycles
 Normal termination of Gaussian 16 at Sat Apr  5 22:06:17 2025.
 Gaussian 16:  ES64L-G16RevC.01  3-Jul-2019

 ----------------------------------------------------------------------
 #t hf aug-cc-pvdz iop(5/13=1,5/36=2,99/5=2) pseudo=read geom=check gue
 ss=(read,tcheck) scf=(maxcycle=1)
 ----------------------------------------------------------------------
 -----
 title
 -----
 Structure from the checkpoint file:  "1-1-difluoro-2-isocyanatoethane.chk"
 Charge =  0 Multiplicity = 1

                         Standard orientation:
 ---------------------------------------------------------------------
 Center     Atomic      Atomic             Coordinates (Angstroms)
 Number     Number       Type             X           Y           Z
 ---------------------------------------------------------------------
      1          9           0        0.892126   -1.165198   -0.729105
      2          9           0        1.581051   -0.215516    1.129974
      3          8           0       -2.608785   -0.637675    0.169502
      4          7           0       -0.853328    0.946099    0.096004
      5          6           0        1.403870   -0.009908   -0.206195
      6          6           0        0.452351    1.146753   -0.457655
      7          6           0       -1.702891    0.095842    0.092826
      8          1           0        2.382805    0.162893   -0.658127
      9          1           0        0.888228    2.041357   -0.014086
     10          1           0        0.393969    1.304768   -1.537510
 ---------------------------------------------------------------------

 SCF Done:  E(RHF) =  -443.749831520     A.U. after    2 cycles

 The electronic state is 1-A.
 Alpha  occ. eigenvalues --  -26.15318 -26.15030 -20.62789 -15.66355 -11.44360
 Alpha  occ. eigenvalues --  -11.42548 -11.33404  -1.71545  -1.66992  -1.43127
 Alpha  occ. eigenvalues --   -1.25793  -1.08392  -0.96103  -0.84002  -0.83050
 Alpha  occ. eigenvalues --   -0.81614  -0.75494  -0.74758  -0.72301  -0.71117
 Alpha  occ. eigenvalues --   -0.67917  -0.67181  -0.63905  -0.61640  -0.58866
 Alpha  occ. eigenvalues --   -0.45635  -0.43837
 Alpha virt. eigenvalues --    0.02494   0.04453   0.04515   0.07021   0.09378
 Alpha virt. eigenvalues --    0.10430   0.10511   0.10864   0.11670   0.13529
 Alpha virt. eigenvalues --    0.13944   0.14717   0.16457   0.16940   0.18826

 Mulliken charges:
               1
     1  F   -0.381402
     2  F   -0.364791
     3  O   -0.217203
     4  N   -0.144073
     5  C    1.000587
     6  C    0.597684
     7  C   -0.139292
     8  H   -0.188612
     9  H   -0.120957
    10  H   -0.041941
 Sum of Mulliken charges =  -0.00000

 Dipole moment (field-independent basis, Debye):
    X=              3.1420    Y=              3.1277    Z=             -2.1555  Tot=              4.9296

 Test job not archived.
 1\1\GINC-SE040\SP\RHF\Aug-CC-pVDZ\C3H3F2N1O1\OHZDE\05-Apr-2025\0\\#t h
 f aug-cc-pvdz iop(5/13=1,5/36=2,99/5=2) pseudo=read geom=check guess=(
 read,tcheck) scf=(maxcycle=1)\\title\\0,1\F,0,0.892126,-1.165198,-0.72
 9105\F,0,1.581051,-0.215516,1.129974\O,0,-2.608785,-0.637675,0.169502\
 N,0,-0.853328,0.946099,0.096004\C,0,1.40387,-0.009908,-0.206195\C,0,0.
 452351,1.146753,-0.457655\C,0,-1.702891,0.095842,0.092826\H,0,2.382805
 ,0.162893,-0.658127\H,0,0.888228,2.041357,-0.014086\H,0,0.393969,1.304
 768,-1.53751\\Version=ES64L-G16RevC.01\State=1-A\HF=-443.7498315\RMSD=

 Normal termination of Gaussian 16 at Sat Apr  5 22:06:39 2025.
