 Gaussian 16, Revision C.01,

 ----------------------------------------------------------------------
 #t hf aug-cc-pvdz symm=none int=(grid=ultrafine) guess=(read,tcheck) s
 table=(opt,rrhf)
 ----------------------------------------------------------------------
 -----
 title
 -----
 Symbolic Z-matrix:
 Charge =  0 Multiplicity = 1

 SCF Done:  E(RHF) =  -1456.00004835     A.U. after   12 cycles

 1\1\GINC-SE185\Stability\RHF\Aug-CC-pVDZ\C2H3Cl3\OHZDE\05-Apr-2025\0\\
 #t hf aug-cc-pvdz symm=none int=(grid=ultrafine) guess=(read,tcheck) s
 table=(opt,rrhf)\\title\\0,1\C,0,1.056688,-0.825383,0.\C,0,0.623146,0.
 625677,0.\Cl,0,-0.291928,-2.006932,0.\Cl,0,-0.291928,1.061629,1.479874
 \Cl,0,-0.291928,1.061629,-1.479874\H,0,1.650902,-1.016853,-0.889604\H,
 0,1.650902,-1.016853,0.889604\H,0,1.507532,1.254404,0.\\Version=ES64L-
 G16RevC.01\HF=-1456.0000484\RMSD=6.256e-09\Dipole=1.1887889,0.0993363,
 0.\Quadrupole=3.3579642,-2.3251431,-1.0328211,-0.1746405,0.,0.\PG=Unkn

 Normal termination of Gaussian 16 at Sat Apr  5 22:05:02 2025.
 Gaussian 16:  ES64L-G16RevC.01  3-Jul-2019

 ----------------------------------------------------------------------
 #t hf aug-cc-pvdz iop(5/13=1,5/36=2,99/5=2) pseudo=read geom=check gue
 ss=(read,tcheck) scf=(maxcycle=1)
 ----------------------------------------------------------------------
 -----
 title
 -----
 Structure from the checkpoint file:  "1-1-2-trichloroethane.chk"
 Charge =  0 Multiplicity = 1

                         Standard orientation:
 ---------------------------------------------------------------------
 Center     Atomic      Atomic             Coordinates (Angstroms)
 Number     Number       Type             X           Y           Z
 ---------------------------------------------------------------------
      1          6           0        1.056688   -0.825383    0.000000
      2          6           0        0.623146    0.625677    0.000000
      3         17           0       -0.291928   -2.006932    0.000000
      4         17           0       -0.291928    1.061629    1.479874
      5         17           0       -0.291928    1.061629   -1.479874
      6          1           0        1.650902   -1.016853   -0.889604
      7          1           0        1.650902   -1.016853    0.889604
      8          1           0        1.507532    1.254404    0.000000
 ---------------------------------------------------------------------

 SCF Done:  E(RHF) =  -1456.07965253     A.U. after    2 cycles

 The electronic state is 1-A'.
 Alpha  occ. eigenvalues -- -103.67939-103.67939-103.66703 -11.39723 -11.33897
 Alpha  occ. eigenvalues --  -10.71241 -10.71232 -10.69984  -8.36958  -8.36954
 Alpha  occ. eigenvalues --   -8.36641  -8.36639  -8.36629  -8.36628  -8.35709
 Alpha  occ. eigenvalues --   -8.35401  -8.35390  -1.23812  -1.17102  -1.14740
 Alpha  occ. eigenvalues --   -1.00862  -0.84639  -0.69492  -0.68143  -0.62718
 Alpha  occ. eigenvalues --   -0.57651  -0.56404  -0.49666  -0.49049  -0.46698
 Alpha  occ. eigenvalues --   -0.46547  -0.46450  -0.46028
 Alpha virt. eigenvalues --    0.03018   0.05203   0.05260   0.06726   0.09155
 Alpha virt. eigenvalues --    0.09387   0.11722   0.13249   0.13283   0.14006
 Alpha virt. eigenvalues --    0.15368   0.15910   0.16551   0.17283   0.17354

 Mulliken charges:
               1
     1  C    0.175424
     2  C   -0.348912
     3  Cl  -0.069922
     4  Cl  -0.046813
     5  Cl  -0.046813
     6  H    0.092187
     7  H    0.092187
     8  H    0.152662
 Sum of Mulliken charges =  -0.00000

 Dipole moment (field-independent basis, Debye):
    X=              3.1193    Y=              0.2574    Z=              0.0000  Tot=              3.1300

 Test job not archived.
 1\1\GINC-SE185\SP\RHF\Aug-CC-pVDZ\C2H3Cl3\OHZDE\05-Apr-2025\0\\#t hf a
 ug-cc-pvdz iop(5/13=1,5/36=2,99/5=2) pseudo=read geom=check guess=(rea
 d,tcheck) scf=(maxcycle=1)\\title\\0,1\C,0,1.056688,-0.825383,0.\C,0,0
 .623146,0.625677,0.\Cl,0,-0.291928,-2.006932,0.\Cl,0,-0.291928,1.06162
 9,1.479874\Cl,0,-0.291928,1.061629,-1.479874\H,0,1.650902,-1.016853,-0
 .889604\H,0,1.650902,-1.016853,0.889604\H,0,1.507532,1.254404,0.\\Vers
 ion=ES64L-G16RevC.01\State=1-A'\HF=-1456.0796525\RMSD=3.832e-03\Dipole
 =1.2272456,0.1012805,0.\Quadrupole=3.4222524,-2.3820857,-1.0401667,-0.

 Normal termination of Gaussian 16 at Sat Apr  5 22:06:06 2025.
