 Gaussian 16, Revision C.01,

 ----------------------------------------------------------------------
 #t hf aug-cc-pvdz symm=none int=(grid=ultrafine) guess=(read,tcheck) s
 table=(opt,rrhf)
 ----------------------------------------------------------------------
 -----
 title
 -----
 Symbolic Z-matrix:
 Charge =  0 Multiplicity = 1

 SCF Done:  E(RHF) =  -413.671281676     A.U. after   12 cycles
 Normal termination of Gaussian 16 at Sat Apr  5 22:05:26 2025.
 Gaussian 16:  ES64L-G16RevC.01  3-Jul-2019

 ----------------------------------------------------------------------
 #t hf aug-cc-pvdz iop(5/13=1,5/36=2,99/5=2) pseudo=read geom=check gue
 ss=(read,tcheck) scf=(maxcycle=1)
 ----------------------------------------------------------------------
 -----
 title
 -----
 Structure from the checkpoint file:  "1-1-2-trifluoropropene.chk"
 Charge =  0 Multiplicity = 1

                         Standard orientation:
 ---------------------------------------------------------------------
 Center     Atomic      Atomic             Coordinates (Angstroms)
 Number     Number       Type             X           Y           Z
 ---------------------------------------------------------------------
      1          6           0       -0.035450   -0.681860    0.000000
      2          9           0        1.048577   -1.447157    0.000000
      3          9           0       -1.137563   -1.409159    0.000000
      4          6           0        0.000000    0.641679    0.000000
      5          9           0       -1.187405    1.293847    0.000000
      6          6           0        1.198490    1.512864    0.000000
      7          1           0        2.107235    0.915995    0.000000
      8          1           0        1.201017    2.155061    0.882809
      9          1           0        1.201017    2.155061   -0.882809
 ---------------------------------------------------------------------

 SCF Done:  E(RHF) =  -413.819281005     A.U. after    2 cycles

 The electronic state is 1-A'.
 Alpha  occ. eigenvalues --  -26.17878 -26.17572 -26.14831 -11.43870 -11.35788
 Alpha  occ. eigenvalues --  -11.26679  -1.74550  -1.70062  -1.68454  -1.11654
 Alpha  occ. eigenvalues --   -1.00452  -0.91996  -0.86375  -0.83783  -0.82417
 Alpha  occ. eigenvalues --   -0.76362  -0.76163  -0.75827  -0.73845  -0.72803
 Alpha  occ. eigenvalues --   -0.60215  -0.60101  -0.58666  -0.39521
 Alpha virt. eigenvalues --    0.03278   0.05428   0.05580   0.07145   0.09425
 Alpha virt. eigenvalues --    0.11153   0.11503   0.13118   0.13386   0.15314
 Alpha virt. eigenvalues --    0.15526   0.16609   0.16686   0.18191   0.20283

 Mulliken charges:
               1
     1  C    0.693007
     2  F   -0.286407
     3  F   -0.280886
     4  C   -0.097435
     5  F   -0.354514
     6  C    0.295218
     7  H   -0.086301
     8  H    0.058659
     9  H    0.058659
 Sum of Mulliken charges =   0.00000

 Dipole moment (field-independent basis, Debye):
    X=              2.1118    Y=              1.4388    Z=             -0.0000  Tot=              2.5554

 Test job not archived.
 1\1\GINC-SE190\SP\RHF\Aug-CC-pVDZ\C3H3F3\OHZDE\05-Apr-2025\0\\#t hf au
 g-cc-pvdz iop(5/13=1,5/36=2,99/5=2) pseudo=read geom=check guess=(read
 ,tcheck) scf=(maxcycle=1)\\title\\0,1\C,0,-0.03545,-0.68186,0.\F,0,1.0
 48578,-1.447157,0.\F,0,-1.137562,-1.409159,0.\C,0,0.,0.641679,0.\F,0,-
 1.187405,1.293847,0.\C,0,1.19849,1.512864,0.\H,0,2.107235,0.915995,0.\
 H,0,1.201017,2.155061,0.882809\H,0,1.201017,2.155061,-0.882809\\Versio
 n=ES64L-G16RevC.01\State=1-A'\HF=-413.819281\RMSD=8.717e-03\Dipole=0.8
 308394,0.5660837,0.\Quadrupole=-0.8520267,-0.3182002,1.1702269,2.36718

 Normal termination of Gaussian 16 at Sat Apr  5 22:06:07 2025.
