 Gaussian 16, Revision C.01,

 ----------------------------------------------------------------------
 #t hf aug-cc-pvdz symm=none int=(grid=ultrafine) guess=(read,tcheck) s
 table=(opt,rrhf)
 ----------------------------------------------------------------------
 -----
 title
 -----
 Symbolic Z-matrix:
 Charge =  0 Multiplicity = 1

 SCF Done:  E(RHF) =  -1392.54454157     A.U. after   12 cycles

 1\1\GINC-SE085\Stability\RHF\Aug-CC-pVDZ\C2Cl2F4\OHZDE\05-Apr-2025\0\\
 #t hf aug-cc-pvdz symm=none int=(grid=ultrafine) guess=(read,tcheck) s
 table=(opt,rrhf)\\title\\0,1\C,0,0.396947,-0.334365,0.\C,0,-0.354044,1
 .033767,0.\F,0,1.717331,-0.069343,0.\Cl,0,-0.01232,-1.251697,1.466556\
 Cl,0,-0.01232,-1.251697,-1.466556\F,0,-1.674751,0.856796,0.\F,0,-0.012
 32,1.737455,1.082744\F,0,-0.01232,1.737455,-1.082744\\Version=ES64L-G1
 6RevC.01\HF=-1392.5445416\RMSD=7.297e-09\Dipole=-0.089333,-0.2902791,0
 .\Quadrupole=-1.2361903,0.1268773,1.109313,0.1715815,0.,0.\PG=Unknown\

 Normal termination of Gaussian 16 at Sat Apr  5 22:06:17 2025.
 Gaussian 16:  ES64L-G16RevC.01  3-Jul-2019

 ----------------------------------------------------------------------
 #t hf aug-cc-pvdz iop(5/13=1,5/36=2,99/5=2) pseudo=read geom=check gue
 ss=(read,tcheck) scf=(maxcycle=1)
 ----------------------------------------------------------------------
 -----
 title
 -----
 Structure from the checkpoint file:  "1-1-dichloro-tetrafluoroethane.chk"
 Charge =  0 Multiplicity = 1

                         Standard orientation:
 ---------------------------------------------------------------------
 Center     Atomic      Atomic             Coordinates (Angstroms)
 Number     Number       Type             X           Y           Z
 ---------------------------------------------------------------------
      1          6           0        0.396947   -0.334365    0.000000
      2          6           0       -0.354044    1.033767   -0.000000
      3          9           0        1.717331   -0.069343   -0.000000
      4         17           0       -0.012320   -1.251697    1.466556
      5         17           0       -0.012320   -1.251697   -1.466556
      6          9           0       -1.674751    0.856796   -0.000000
      7          9           0       -0.012320    1.737455    1.082744
      8          9           0       -0.012320    1.737455   -1.082744
 ---------------------------------------------------------------------

 SCF Done:  E(RHF) =  -1392.75187616     A.U. after    2 cycles

 The electronic state is 1-A'.
 Alpha  occ. eigenvalues -- -103.71320-103.71320 -26.19947 -26.19756 -26.19740
 Alpha  occ. eigenvalues --  -26.19729 -11.57178 -11.51397 -10.74655 -10.74643
 Alpha  occ. eigenvalues --   -8.40374  -8.40368  -8.40023  -8.40023  -8.40016
 Alpha  occ. eigenvalues --   -8.40015  -1.79862  -1.74454  -1.72651  -1.72472
 Alpha  occ. eigenvalues --   -1.26512  -1.18711  -1.09051  -0.98280  -0.91813
 Alpha  occ. eigenvalues --   -0.91549  -0.90215  -0.82824  -0.81423  -0.80043
 Alpha  occ. eigenvalues --   -0.79567  -0.76207  -0.76021  -0.75427  -0.74812
 Alpha  occ. eigenvalues --   -0.63771  -0.61745  -0.53892  -0.51844  -0.51684
 Alpha  occ. eigenvalues --   -0.49462
 Alpha virt. eigenvalues --    0.06076   0.07515   0.07821   0.08968   0.10060
 Alpha virt. eigenvalues --    0.11189   0.11914   0.12882   0.12934   0.14714
 Alpha virt. eigenvalues --    0.16278   0.17078   0.18211   0.18232   0.19226

 Mulliken charges:
               1
     1  C   -0.044158
     2  C    1.191356
     3  F   -0.350296
     4  Cl  -0.002618
     5  Cl  -0.002618
     6  F   -0.265016
     7  F   -0.263324
     8  F   -0.263324
 Sum of Mulliken charges =  -0.00000

 Dipole moment (field-independent basis, Debye):
    X=             -0.3543    Y=             -0.9975    Z=              0.0000  Tot=              1.0585

 Test job not archived.
 1\1\GINC-SE085\SP\RHF\Aug-CC-pVDZ\C2Cl2F4\OHZDE\05-Apr-2025\0\\#t hf a
 ug-cc-pvdz iop(5/13=1,5/36=2,99/5=2) pseudo=read geom=check guess=(rea
 d,tcheck) scf=(maxcycle=1)\\title\\0,1\C,0,0.396947,-0.334365,0.\C,0,-
 0.354044,1.033767,0.\F,0,1.717331,-0.069343,0.\Cl,0,-0.01232,-1.251697
 ,1.466556\Cl,0,-0.01232,-1.251697,-1.466556\F,0,-1.674751,0.856796,0.\
 F,0,-0.01232,1.737455,1.082744\F,0,-0.01232,1.737455,-1.082744\\Versio
 n=ES64L-G16RevC.01\State=1-A'\HF=-1392.7518762\RMSD=5.970e-03\Dipole=-
 0.1393988,-0.3924409,0.\Quadrupole=-1.4752847,0.1701148,1.3051699,0.22

 Normal termination of Gaussian 16 at Sat Apr  5 22:06:39 2025.
