 Gaussian 16, Revision C.01,

 ----------------------------------------------------------------------
 #t hf aug-cc-pvdz symm=none int=(grid=ultrafine) guess=(read,tcheck) s
 table=(opt,rrhf)
 ----------------------------------------------------------------------
 -----
 title
 -----
 Symbolic Z-matrix:
 Charge =  0 Multiplicity = 1

 SCF Done:  E(RHF) =  -559.233399239     A.U. after   15 cycles
 Normal termination of Gaussian 16 at Sat Apr  5 22:06:14 2025.
 Gaussian 16:  ES64L-G16RevC.01  3-Jul-2019

 ----------------------------------------------------------------------
 #t hf aug-cc-pvdz iop(5/13=1,5/36=2,99/5=2) pseudo=read geom=check gue
 ss=(read,tcheck) scf=(maxcycle=1)
 ----------------------------------------------------------------------
 -----
 title
 -----
 Structure from the checkpoint file:  "1-1-3-4-oxadiazol-2-yl-3H-imidazol-2-one.chk"
 Charge =  0 Multiplicity = 1

                         Standard orientation:
 ---------------------------------------------------------------------
 Center     Atomic      Atomic             Coordinates (Angstroms)
 Number     Number       Type             X           Y           Z
 ---------------------------------------------------------------------
      1          6           0       -0.749149   -2.765389    0.000000
      2          6           0       -0.579479   -0.671889    0.000000
      3          6           0        0.123559    2.779879    0.000000
      4          6           0       -0.748568    1.763546    0.000000
      5          6           0        1.389116    0.865788    0.000000
      6          7           0       -1.948842   -2.317880    0.000000
      7          7           0       -1.848213   -0.922014    0.000000
      8          7           0        1.407751    2.245729    0.000000
      9          7           0        0.000000    0.571384    0.000000
     10          8           0        2.321679    0.097408    0.000000
     11          8           0        0.193548   -1.775534    0.000000
     12          1           0       -0.403540   -3.783062    0.000000
     13          1           0       -0.057518    3.838204    0.000000
     14          1           0       -1.820876    1.742621    0.000000
     15          1           0        2.272372    2.755109    0.000000
 ---------------------------------------------------------------------

 SCF Done:  E(RHF) =  -559.401594151     A.U. after    2 cycles

 The electronic state is 1-A'.
 Alpha  occ. eigenvalues --  -20.68168 -20.55619 -15.71778 -15.69497 -15.67591
 Alpha  occ. eigenvalues --  -15.66328 -11.42593 -11.41488 -11.35962 -11.31334
 Alpha  occ. eigenvalues --  -11.30566  -1.49873  -1.39685  -1.31463  -1.27698
 Alpha  occ. eigenvalues --   -1.22949  -1.10488  -1.03783  -0.93003  -0.90919
 Alpha  occ. eigenvalues --   -0.84861  -0.81219  -0.76109  -0.74356  -0.72635
 Alpha  occ. eigenvalues --   -0.69778  -0.66494  -0.65328  -0.64748  -0.64529
 Alpha  occ. eigenvalues --   -0.63588  -0.53713  -0.50961  -0.50322  -0.49572
 Alpha  occ. eigenvalues --   -0.48055  -0.46019  -0.38368  -0.32904
 Alpha virt. eigenvalues --    0.02127   0.03557   0.04096   0.05603   0.06601
 Alpha virt. eigenvalues --    0.08605   0.09479   0.10093   0.10165   0.10479
 Alpha virt. eigenvalues --    0.11445   0.12535   0.13559   0.13779   0.14436

 Mulliken charges:
               1
     1  C    0.863366
     2  C    0.285608
     3  C    0.823453
     4  C    0.901430
     5  C    0.613307
     6  N   -0.376292
     7  N   -0.354746
     8  N   -0.403506
     9  N   -0.508160
    10  O   -0.419249
    11  O   -0.396808
    12  H   -0.303291
    13  H   -0.240696
    14  H   -0.363534
    15  H   -0.120882
 Sum of Mulliken charges =   0.00000

 Dipole moment (field-independent basis, Debye):
    X=              0.6744    Y=              3.8499    Z=              0.0000  Tot=              3.9086

 Test job not archived.
 1\1\GINC-SE196\SP\RHF\Aug-CC-pVDZ\C5H4N4O2\OHZDE\05-Apr-2025\0\\#t hf
 aug-cc-pvdz iop(5/13=1,5/36=2,99/5=2) pseudo=read geom=check guess=(re
 ad,tcheck) scf=(maxcycle=1)\\title\\0,1\C,0,-0.749149,-2.765389,0.\C,0
 ,-0.579479,-0.671889,0.\C,0,0.123559,2.779879,0.\C,0,-0.748568,1.76354
 6,0.\C,0,1.389116,0.865788,0.\N,0,-1.948842,-2.31788,0.\N,0,-1.848213,
 -0.922014,0.\N,0,1.407751,2.245729,0.\N,0,0.,0.571384,0.\O,0,2.321679,
 0.097408,0.\O,0,0.193548,-1.775534,0.\H,0,-0.40354,-3.783062,0.\H,0,-0
 .057518,3.838204,0.\H,0,-1.820876,1.742621,0.\H,0,2.272372,2.755109,0.

 Normal termination of Gaussian 16 at Sat Apr  5 22:06:44 2025.
