 Gaussian 16, Revision C.01,

 ----------------------------------------------------------------------
 #t hf aug-cc-pvdz symm=none int=(grid=ultrafine) guess=(read,tcheck) s
 table=(opt,rrhf)
 ----------------------------------------------------------------------
 -----
 title
 -----
 Symbolic Z-matrix:
 Charge =  0 Multiplicity = 1

 SCF Done:  E(RHF) =  -1095.94701297     A.U. after   12 cycles
 Normal termination of Gaussian 16 at Sat Apr  5 22:05:05 2025.
 Gaussian 16:  ES64L-G16RevC.01  3-Jul-2019

 ----------------------------------------------------------------------
 #t hf aug-cc-pvdz iop(5/13=1,5/36=2,99/5=2) pseudo=read geom=check gue
 ss=(read,tcheck) scf=(maxcycle=1)
 ----------------------------------------------------------------------
 -----
 title
 -----
 Structure from the checkpoint file:  "1-1-dichloro-1-fluoroethane.chk"
 Charge =  0 Multiplicity = 1

                         Standard orientation:
 ---------------------------------------------------------------------
 Center     Atomic      Atomic             Coordinates (Angstroms)
 Number     Number       Type             X           Y           Z
 ---------------------------------------------------------------------
      1          6           0        0.016027    0.345002   -0.000000
      2          6           0       -1.158543    1.289602   -0.000000
      3          9           0        1.179679    1.042816   -0.000000
      4         17           0        0.016027   -0.698667    1.468731
      5         17           0        0.016027   -0.698667   -1.468731
      6          1           0       -2.090468    0.731884    0.000000
      7          1           0       -1.108226    1.914914    0.889721
      8          1           0       -1.108226    1.914914   -0.889721
 ---------------------------------------------------------------------

 SCF Done:  E(RHF) =  -1096.04480385     A.U. after    2 cycles

 The electronic state is 1-A'.
 Alpha  occ. eigenvalues -- -103.68297-103.68296 -26.16442 -11.47744 -11.27384
 Alpha  occ. eigenvalues --  -10.71638 -10.71627  -8.37350  -8.37344  -8.37023
 Alpha  occ. eigenvalues --   -8.37023  -8.37022  -8.37020  -1.70908  -1.22836
 Alpha  occ. eigenvalues --   -1.15386  -1.04321  -0.90357  -0.79122  -0.78856
 Alpha  occ. eigenvalues --   -0.73706  -0.63580  -0.60110  -0.59628  -0.54897
 Alpha  occ. eigenvalues --   -0.51012  -0.48711  -0.48490  -0.46668
 Alpha virt. eigenvalues --    0.03519   0.05716   0.05763   0.07643   0.09300
 Alpha virt. eigenvalues --    0.09429   0.12884   0.13099   0.13629   0.14418
 Alpha virt. eigenvalues --    0.15819   0.16913   0.17257   0.18135   0.18361

 Mulliken charges:
               1
     1  C   -0.114062
     2  C    0.612798
     3  F   -0.361392
     4  Cl  -0.072485
     5  Cl  -0.072485
     6  H    0.007337
     7  H    0.000144
     8  H    0.000144
 Sum of Mulliken charges =  -0.00000

 Dipole moment (field-independent basis, Debye):
    X=             -2.0819    Y=              1.2147    Z=              0.0000  Tot=              2.4104

 Test job not archived.
 1\1\GINC-SE052\SP\RHF\Aug-CC-pVDZ\C2H3Cl2F1\OHZDE\05-Apr-2025\0\\#t hf
  aug-cc-pvdz iop(5/13=1,5/36=2,99/5=2) pseudo=read geom=check guess=(r
 ead,tcheck) scf=(maxcycle=1)\\title\\0,1\C,0,0.016027,0.345002,0.\C,0,
 -1.158543,1.289602,0.\F,0,1.179679,1.042816,0.\Cl,0,0.016027,-0.698667
 ,1.468731\Cl,0,0.016027,-0.698667,-1.468731\H,0,-2.090468,0.731884,0.\
 H,0,-1.108226,1.914914,0.889721\H,0,-1.108226,1.914914,-0.889721\\Vers
 ion=ES64L-G16RevC.01\State=1-A'\HF=-1096.0448038\RMSD=5.243e-03\Dipole
 =-0.8190846,0.4778943,0.\Quadrupole=-0.2779373,0.7282515,-0.4503143,-2

 Normal termination of Gaussian 16 at Sat Apr  5 22:06:06 2025.
