 Gaussian 16, Revision C.01,

 ----------------------------------------------------------------------
 #t hf aug-cc-pvdz symm=none int=(grid=ultrafine) guess=(read,tcheck) s
 table=(opt,rrhf)
 ----------------------------------------------------------------------
 -----
 title
 -----
 Symbolic Z-matrix:
 Charge =  0 Multiplicity = 1

 SCF Done:  E(RHF) =  -2030.86394318     A.U. after   13 cycles

 1\1\GINC-SE165\Stability\RHF\Aug-CC-pVDZ\C5H6Cl4\OHZDE\05-Apr-2025\0\\
 #t hf aug-cc-pvdz symm=none int=(grid=ultrafine) guess=(read,tcheck) s
 table=(opt,rrhf)\\title\\0,1\C,0,0.,0.,2.379326\C,0,-0.540152,1.120038
 ,1.453423\C,0,0.540152,-1.120038,1.453423\C,0,0.,0.780705,0.063279\C,0
 ,0.,-0.780705,0.063279\Cl,0,-0.918814,1.53037,-1.269894\Cl,0,1.722064,
 1.361119,-0.048861\Cl,0,-1.722064,-1.361119,-0.048861\Cl,0,0.918814,-1
 .53037,-1.269894\H,0,0.795834,0.369632,3.021692\H,0,-0.795834,-0.36963
 2,3.021692\H,0,-1.626332,1.099741,1.409111\H,0,-0.232881,2.118369,1.74

 Normal termination of Gaussian 16 at Sat Apr  5 22:06:20 2025.
 Gaussian 16:  ES64L-G16RevC.01  3-Jul-2019

 ----------------------------------------------------------------------
 #t hf aug-cc-pvdz iop(5/13=1,5/36=2,99/5=2) pseudo=read geom=check gue
 ss=(read,tcheck) scf=(maxcycle=1)
 ----------------------------------------------------------------------
 -----
 title
 -----
 Structure from the checkpoint file:  "1-1-2-2-tetrachlorocyclopentane.chk"
 Charge =  0 Multiplicity = 1

                         Standard orientation:
 ---------------------------------------------------------------------
 Center     Atomic      Atomic             Coordinates (Angstroms)
 Number     Number       Type             X           Y           Z
 ---------------------------------------------------------------------
      1          6           0       -0.000000   -0.000000    2.379326
      2          6           0       -0.540152    1.120038    1.453423
      3          6           0        0.540152   -1.120038    1.453423
      4          6           0       -0.000000    0.780705    0.063279
      5          6           0       -0.000000   -0.780705    0.063279
      6         17           0       -0.918814    1.530370   -1.269894
      7         17           0        1.722064    1.361119   -0.048861
      8         17           0       -1.722064   -1.361119   -0.048861
      9         17           0        0.918814   -1.530370   -1.269894
     10          1           0        0.795834    0.369632    3.021692
     11          1           0       -0.795834   -0.369632    3.021692
     12          1           0       -1.626332    1.099741    1.409111
     13          1           0       -0.232881    2.118369    1.749841
     14          1           0        1.626332   -1.099741    1.409111
     15          1           0        0.232881   -2.118369    1.749841
 ---------------------------------------------------------------------

 SCF Done:  E(RHF) =  -2030.98966532     A.U. after    2 cycles

 The electronic state is 1-A.
 Alpha  occ. eigenvalues -- -103.67694-103.67693-103.67629-103.67629 -11.40443
 Alpha  occ. eigenvalues --  -11.40394 -11.27164 -11.27161 -11.26413 -10.70986
 Alpha  occ. eigenvalues --  -10.70984 -10.70923 -10.70921  -8.36708  -8.36706
 Alpha  occ. eigenvalues --   -8.36634  -8.36631  -8.36389  -8.36388  -8.36386
 Alpha  occ. eigenvalues --   -8.36385  -8.36337  -8.36336  -8.36324  -8.36322
 Alpha  occ. eigenvalues --   -1.26438  -1.20121  -1.15081  -1.14143  -1.10511
 Alpha  occ. eigenvalues --   -0.99376  -0.95580  -0.82787  -0.76675  -0.69085
 Alpha  occ. eigenvalues --   -0.68920  -0.65449  -0.62798  -0.58962  -0.57470
 Alpha  occ. eigenvalues --   -0.56115  -0.53788  -0.52847  -0.51607  -0.49626
 Alpha  occ. eigenvalues --   -0.48772  -0.48658  -0.47708  -0.46939  -0.45722
 Alpha  occ. eigenvalues --   -0.45315  -0.44586
 Alpha virt. eigenvalues --    0.03336   0.04596   0.04868   0.05668   0.06613
 Alpha virt. eigenvalues --    0.07664   0.08084   0.08961   0.09498   0.09883
 Alpha virt. eigenvalues --    0.11423   0.12079   0.13275   0.13574   0.14595

 Mulliken charges:
               1
     1  C    0.464054
     2  C    0.680679
     3  C    0.680679
     4  C   -0.375816
     5  C   -0.375816
     6  Cl  -0.159900
     7  Cl  -0.077156
     8  Cl  -0.077156
     9  Cl  -0.159900
    10  H   -0.067449
    11  H   -0.067449
    12  H   -0.120784
    13  H   -0.111602
    14  H   -0.120784
    15  H   -0.111602
 Sum of Mulliken charges =  -0.00000

 Dipole moment (field-independent basis, Debye):
    X=             -0.0000    Y=              0.0000    Z=              3.4664  Tot=              3.4664

 Test job not archived.
 1\1\GINC-SE165\SP\RHF\Aug-CC-pVDZ\C5H6Cl4\OHZDE\05-Apr-2025\0\\#t hf a
 ug-cc-pvdz iop(5/13=1,5/36=2,99/5=2) pseudo=read geom=check guess=(rea
 d,tcheck) scf=(maxcycle=1)\\title\\0,1\C,0,0.,0.,2.379326\C,0,-0.54015
 2,1.120038,1.453423\C,0,0.540152,-1.120038,1.453423\C,0,0.,0.780705,0.
 063279\C,0,0.,-0.780705,0.063279\Cl,0,-0.918814,1.53037,-1.269894\Cl,0
 ,1.722064,1.361119,-0.048861\Cl,0,-1.722064,-1.361119,-0.048861\Cl,0,0
 .918814,-1.53037,-1.269894\H,0,0.795834,0.369632,3.021692\H,0,-0.79583
 4,-0.369632,3.021692\H,0,-1.626332,1.099741,1.409111\H,0,-0.232881,2.1

 Normal termination of Gaussian 16 at Sat Apr  5 22:06:41 2025.
