 Gaussian 16, Revision C.01,

 ----------------------------------------------------------------------
 #t hf aug-cc-pvdz symm=none int=(grid=ultrafine) guess=(read,tcheck) s
 table=(opt,rrhf)
 ----------------------------------------------------------------------
 -----
 title
 -----
 Symbolic Z-matrix:
 Charge =  0 Multiplicity = 1

 SCF Done:  E(RHF) =  -1455.99397285     A.U. after   12 cycles

 1\1\GINC-SE104\Stability\RHF\Aug-CC-pVDZ\C2H3Cl3\OHZDE\05-Apr-2025\0\\
 #t hf aug-cc-pvdz symm=none int=(grid=ultrafine) guess=(read,tcheck) s
 table=(opt,rrhf)\\title\\0,1\C,0,0.,0.,1.770041\C,0,0.,0.,0.257391\Cl,
 0,0.,1.68935,-0.363984\Cl,0,1.46302,-0.844675,-0.363984\Cl,0,-1.46302,
 -0.844675,-0.363984\H,0,0.,-1.025689,2.132856\H,0,0.888273,0.512844,2.
 132856\H,0,-0.888273,0.512844,2.132856\\Version=ES64L-G16RevC.01\HF=-1
 455.9939728\RMSD=4.195e-09\Dipole=0.,-0.0000002,0.8004392\Quadrupole=-
 0.9076984,-0.9077006,1.815399,0.,0.,-0.0000008\PG=Unknown\\@

 Normal termination of Gaussian 16 at Sat Apr  5 22:05:04 2025.
 Gaussian 16:  ES64L-G16RevC.01  3-Jul-2019

 ----------------------------------------------------------------------
 #t hf aug-cc-pvdz iop(5/13=1,5/36=2,99/5=2) pseudo=read geom=check gue
 ss=(read,tcheck) scf=(maxcycle=1)
 ----------------------------------------------------------------------
 -----
 title
 -----
 Structure from the checkpoint file:  "1-1-1-trichloroethane.chk"
 Charge =  0 Multiplicity = 1

                         Standard orientation:
 ---------------------------------------------------------------------
 Center     Atomic      Atomic             Coordinates (Angstroms)
 Number     Number       Type             X           Y           Z
 ---------------------------------------------------------------------
      1          6           0        0.000000    1.770041    0.000000
      2          6           0        0.000000    0.257391    0.000000
      3         17           0        1.689350   -0.363984    0.000000
      4         17           0       -0.844675   -0.363984    1.463020
      5         17           0       -0.844675   -0.363984   -1.463020
      6          1           0       -1.025689    2.132856    0.000000
      7          1           0        0.512844    2.132856    0.888273
      8          1           0        0.512844    2.132856   -0.888273
 ---------------------------------------------------------------------

 SCF Done:  E(RHF) =  -1456.07335055     A.U. after    2 cycles

 The electronic state is 1-A'.
 Alpha  occ. eigenvalues -- -103.68539-103.68539-103.68538 -11.45085 -11.27431
 Alpha  occ. eigenvalues --  -10.71852 -10.71852 -10.71828  -8.37562  -8.37562
 Alpha  occ. eigenvalues --   -8.37553  -8.37231  -8.37230  -8.37230  -8.37228
 Alpha  occ. eigenvalues --   -8.37227  -8.37227  -1.26156  -1.15315  -1.15315
 Alpha  occ. eigenvalues --   -1.02706  -0.81997  -0.66470  -0.66470  -0.63888
 Alpha  occ. eigenvalues --   -0.56984  -0.56984  -0.50761  -0.50761  -0.47911
 Alpha  occ. eigenvalues --   -0.47128  -0.47128  -0.46053
 Alpha virt. eigenvalues --    0.03619   0.05894   0.05894   0.07038   0.09178
 Alpha virt. eigenvalues --    0.09178   0.09314   0.13019   0.14536   0.14536
 Alpha virt. eigenvalues --    0.15484   0.15484   0.17320   0.17778   0.18357

 Mulliken charges:
               1
     1  C    0.879385
     2  C   -0.900739
     3  Cl   0.016671
     4  Cl   0.016671
     5  Cl   0.016671
     6  H   -0.009553
     7  H   -0.009553
     8  H   -0.009553
 Sum of Mulliken charges =  -0.00000

 Dipole moment (field-independent basis, Debye):
    X=             -0.0000    Y=              2.1040    Z=              0.0000  Tot=              2.1040

 Test job not archived.
 1\1\GINC-SE104\SP\RHF\Aug-CC-pVDZ\C2H3Cl3\OHZDE\05-Apr-2025\0\\#t hf a
 ug-cc-pvdz iop(5/13=1,5/36=2,99/5=2) pseudo=read geom=check guess=(rea
 d,tcheck) scf=(maxcycle=1)\\title\\0,1\C,0,0.,0.,1.770041\C,0,0.,0.,0.
 257391\Cl,0,0.,1.68935,-0.363984\Cl,0,1.46302,-0.844675,-0.363984\Cl,0
 ,-1.46302,-0.844675,-0.363984\H,0,0.,-1.025689,2.132856\H,0,0.888273,0
 .512844,2.132856\H,0,-0.888273,0.512844,2.132856\\Version=ES64L-G16Rev
 C.01\State=1-A'\HF=-1456.0733505\RMSD=4.777e-03\Dipole=0.,-0.0000002,0
 .8277849\Quadrupole=-0.9194746,-0.9194768,1.8389515,0.,0.,-0.0000008\P

 Normal termination of Gaussian 16 at Sat Apr  5 22:06:06 2025.
