 Gaussian 16, Revision C.01,

 ----------------------------------------------------------------------
 #t hf aug-cc-pvdz symm=none int=(grid=ultrafine) guess=(read,tcheck) s
 table=(opt,rrhf)
 ----------------------------------------------------------------------
 -----
 title
 -----
 Symbolic Z-matrix:
 Charge =  0 Multiplicity = 1

 SCF Done:  E(RHF) =  -766.243409450     A.U. after   14 cycles
 Normal termination of Gaussian 16 at Sat Apr  5 22:05:32 2025.
 Gaussian 16:  ES64L-G16RevC.01  3-Jul-2019

 ----------------------------------------------------------------------
 #t hf aug-cc-pvdz iop(5/13=1,5/36=2,99/5=2) pseudo=read geom=check gue
 ss=(read,tcheck) scf=(maxcycle=1)
 ----------------------------------------------------------------------
 -----
 title
 -----
 Structure from the checkpoint file:  "1-1-difluoro-2-isothiocyanatoethane.chk"
 Charge =  0 Multiplicity = 1

                         Standard orientation:
 ---------------------------------------------------------------------
 Center     Atomic      Atomic             Coordinates (Angstroms)
 Number     Number       Type             X           Y           Z
 ---------------------------------------------------------------------
      1         16           0        3.207011    0.103485   -0.057042
      2          9           0       -1.915460    1.328253   -0.160483
      3          9           0       -3.079188   -0.540242   -0.097326
      4          7           0        0.482209   -0.239691    0.285694
      5          6           0       -1.923576    0.054593    0.324835
      6          6           0       -0.750694   -0.732182   -0.236127
      7          6           0        1.650101   -0.112516    0.094338
      8          1           0       -1.934452    0.106448    1.414038
      9          1           0       -0.774486   -0.657000   -1.325535
     10          1           0       -0.881854   -1.778836    0.046326
 ---------------------------------------------------------------------

 SCF Done:  E(RHF) =  -766.388016902     A.U. after    2 cycles

 The electronic state is 1-A.
 Alpha  occ. eigenvalues --  -93.54328 -26.15547 -26.15160 -15.68922 -11.44543
 Alpha  occ. eigenvalues --  -11.40348 -11.34233  -8.84254  -6.18568  -6.17885
 Alpha  occ. eigenvalues --   -6.17836  -1.71712  -1.67200  -1.28203  -1.10766
 Alpha  occ. eigenvalues --   -1.02830  -0.96005  -0.84388  -0.83478  -0.81345
 Alpha  occ. eigenvalues --   -0.75235  -0.73297  -0.71170  -0.69224  -0.65923
 Alpha  occ. eigenvalues --   -0.60372  -0.59965  -0.54439  -0.53666  -0.37723
 Alpha  occ. eigenvalues --   -0.36674
 Alpha virt. eigenvalues --    0.03013   0.04003   0.05189   0.06483   0.08307
 Alpha virt. eigenvalues --    0.09319   0.10156   0.10655   0.10846   0.11416
 Alpha virt. eigenvalues --    0.12283   0.13229   0.14776   0.15002   0.16526

 Mulliken charges:
               1
     1  S    0.204509
     2  F   -0.359016
     3  F   -0.358547
     4  N   -0.142120
     5  C    1.016609
     6  C    0.598444
     7  C   -0.618965
     8  H   -0.189621
     9  H   -0.080210
    10  H   -0.071084
 Sum of Mulliken charges =  -0.00000

 Dipole moment (field-independent basis, Debye):
    X=             -0.8912    Y=             -1.9726    Z=              0.6089  Tot=              2.2486

 Test job not archived.
 1\1\GINC-SE145\SP\RHF\Aug-CC-pVDZ\C3H3F2N1S1\OHZDE\05-Apr-2025\0\\#t h
 f aug-cc-pvdz iop(5/13=1,5/36=2,99/5=2) pseudo=read geom=check guess=(
 read,tcheck) scf=(maxcycle=1)\\title\\0,1\S,0,3.207011,0.103485,-0.057
 042\F,0,-1.91546,1.328253,-0.160483\F,0,-3.079188,-0.540242,-0.097326\
 N,0,0.482209,-0.239691,0.285694\C,0,-1.923576,0.054593,0.324835\C,0,-0
 .750694,-0.732182,-0.236127\C,0,1.650101,-0.112516,0.094338\H,0,-1.934
 452,0.106448,1.414038\H,0,-0.774486,-0.657,-1.325535\H,0,-0.881854,-1.
 778836,0.046326\\Version=ES64L-G16RevC.01\State=1-A\HF=-766.3880169\RM

 Normal termination of Gaussian 16 at Sat Apr  5 22:06:08 2025.
