 Gaussian 16, Revision C.01,

 ----------------------------------------------------------------------
 #t hf aug-cc-pvdz symm=none int=(grid=ultrafine) guess=(read,tcheck) s
 table=(opt,rrhf)
 ----------------------------------------------------------------------
 -----
 title
 -----
 Symbolic Z-matrix:
 Charge =  0 Multiplicity = 1

 SCF Done:  E(RHF) =  -426.633851795     A.U. after   13 cycles
 Normal termination of Gaussian 16 at Sat Apr  5 22:05:30 2025.
 Gaussian 16:  ES64L-G16RevC.01  3-Jul-2019

 ----------------------------------------------------------------------
 #t hf aug-cc-pvdz iop(5/13=1,5/36=2,99/5=2) pseudo=read geom=check gue
 ss=(read,tcheck) scf=(maxcycle=1)
 ----------------------------------------------------------------------
 -----
 title
 -----
 Structure from the checkpoint file:  "1-1-difluoro-1-hydroperoxyethane.chk"
 Charge =  0 Multiplicity = 1

                         Standard orientation:
 ---------------------------------------------------------------------
 Center     Atomic      Atomic             Coordinates (Angstroms)
 Number     Number       Type             X           Y           Z
 ---------------------------------------------------------------------
      1          9           0       -0.357644   -0.471312    1.292576
      2          9           0       -1.367380   -0.721561   -0.632011
      3          8           0        0.767788   -0.495627   -0.659306
      4          8           0        1.909998    0.165753   -0.077280
      5          6           0       -0.382758   -0.035679   -0.006307
      6          6           0       -0.624405    1.447497   -0.059329
      7          1           0        2.203516   -0.500296    0.562031
      8          1           0       -0.689198    1.760727   -1.098748
      9          1           0       -1.559522    1.670655    0.449572
     10          1           0        0.191108    1.972855    0.428559
 ---------------------------------------------------------------------

 SCF Done:  E(RHF) =  -426.780152243     A.U. after    2 cycles

 The electronic state is 1-A.
 Alpha  occ. eigenvalues --  -26.15283 -26.14798 -20.67652 -20.67276 -11.49162
 Alpha  occ. eigenvalues --  -11.25938  -1.72231  -1.67157  -1.46802  -1.24701
 Alpha  occ. eigenvalues --   -1.05628  -0.93265  -0.84462  -0.82846  -0.79668
 Alpha  occ. eigenvalues --   -0.75383  -0.74850  -0.71199  -0.70680  -0.64783
 Alpha  occ. eigenvalues --   -0.61416  -0.58519  -0.58405  -0.54634  -0.53090
 Alpha virt. eigenvalues --    0.03478   0.04525   0.05822   0.06169   0.09133
 Alpha virt. eigenvalues --    0.11364   0.11603   0.13057   0.14954   0.15941
 Alpha virt. eigenvalues --    0.16646   0.16932   0.19393   0.20583   0.23030

 Mulliken charges:
               1
     1  F   -0.365256
     2  F   -0.308956
     3  O   -0.466596
     4  O   -0.269409
     5  C    1.002132
     6  C    0.109567
     7  H    0.234232
     8  H    0.028640
     9  H    0.019838
    10  H    0.015809
 Sum of Mulliken charges =  -0.00000

 Dipole moment (field-independent basis, Debye):
    X=              0.7952    Y=              1.6750    Z=              0.9533  Tot=              2.0849

 Test job not archived.
 1\1\GINC-SE042\SP\RHF\Aug-CC-pVDZ\C2H4F2O2\OHZDE\05-Apr-2025\0\\#t hf
 aug-cc-pvdz iop(5/13=1,5/36=2,99/5=2) pseudo=read geom=check guess=(re
 ad,tcheck) scf=(maxcycle=1)\\title\\0,1\F,0,-0.357644,-0.471312,1.2925
 76\F,0,-1.36738,-0.721561,-0.632011\O,0,0.767788,-0.495627,-0.659306\O
 ,0,1.909998,0.165753,-0.07728\C,0,-0.382758,-0.035679,-0.006307\C,0,-0
 .624405,1.447497,-0.059329\H,0,2.203516,-0.500296,0.562031\H,0,-0.6891
 98,1.760727,-1.098748\H,0,-1.559522,1.670655,0.449572\H,0,0.191108,1.9
 72855,0.428559\\Version=ES64L-G16RevC.01\State=1-A\HF=-426.7801522\RMS

 Normal termination of Gaussian 16 at Sat Apr  5 22:06:07 2025.
