 Gaussian 16, Revision C.01,

 ----------------------------------------------------------------------
 #t hf aug-cc-pvdz symm=none int=(grid=ultrafine) guess=(read,tcheck) s
 table=(opt,rrhf)
 ----------------------------------------------------------------------
 -----
 title
 -----
 Symbolic Z-matrix:
 Charge =  0 Multiplicity = 1

 SCF Done:  E(RHF) =  -534.827154846     A.U. after   12 cycles

 1\1\GINC-SE050\Stability\RHF\Aug-CC-pVDZ\C6H14O4\OHZDE\05-Apr-2025\0\\
 #t hf aug-cc-pvdz symm=none int=(grid=ultrafine) guess=(read,tcheck) s
 table=(opt,rrhf)\\title\\0,1\C,0,-3.230761,-0.667661,0.267528\C,0,1.61
 3648,-1.548109,-1.362053\C,0,1.930118,0.02852,1.827269\C,0,-0.095597,2
 .218883,-0.923603\C,0,-0.975112,-0.563177,-0.37163\C,0,0.386263,0.0496
 56,-0.003455\O,0,-1.977896,-0.047508,0.468903\O,0,1.332271,-0.191322,-
 1.040678\O,0,0.777361,-0.532375,1.194775\O,0,0.352154,1.427453,0.17117
 5\H,0,-3.588767,-0.528974,-0.760344\H,0,-3.934183,-0.201346,0.95391\H,

 Normal termination of Gaussian 16 at Sat Apr  5 22:08:09 2025.
 Gaussian 16:  ES64L-G16RevC.01  3-Jul-2019

 ----------------------------------------------------------------------
 #t hf aug-cc-pvdz iop(5/13=1,5/36=2,99/5=2) pseudo=read geom=check gue
 ss=(read,tcheck) scf=(maxcycle=1)
 ----------------------------------------------------------------------
 -----
 title
 -----
 Structure from the checkpoint file:  "1-1-1-2-tetramethoxyethane.chk"
 Charge =  0 Multiplicity = 1

                         Standard orientation:
 ---------------------------------------------------------------------
 Center     Atomic      Atomic             Coordinates (Angstroms)
 Number     Number       Type             X           Y           Z
 ---------------------------------------------------------------------
      1          6           0       -3.230761   -0.667660    0.267528
      2          6           0        1.613648   -1.548109   -1.362053
      3          6           0        1.930118    0.028520    1.827269
      4          6           0       -0.095597    2.218883   -0.923603
      5          6           0       -0.975112   -0.563177   -0.371630
      6          6           0        0.386263    0.049656   -0.003455
      7          8           0       -1.977896   -0.047508    0.468903
      8          8           0        1.332271   -0.191322   -1.040678
      9          8           0        0.777361   -0.532375    1.194775
     10          8           0        0.352154    1.427453    0.171175
     11          1           0       -3.588767   -0.528973   -0.760344
     12          1           0       -3.934183   -0.201345    0.953910
     13          1           0       -3.183230   -1.742605    0.478392
     14          1           0        1.786633   -2.144110   -0.464434
     15          1           0        2.519368   -1.537660   -1.964779
     16          1           0        0.811054   -2.004198   -1.948597
     17          1           0        2.760884    0.121924    1.126655
     18          1           0        2.196807   -0.665495    2.620743
     19          1           0        1.704697    1.005239    2.252683
     20          1           0       -1.160540    2.065114   -1.111288
     21          1           0        0.478256    2.010258   -1.826711
     22          1           0        0.061973    3.253034   -0.626958
     23          1           0       -0.901685   -1.650429   -0.263497
     24          1           0       -1.193741   -0.339419   -1.423512
 ---------------------------------------------------------------------

 SCF Done:  E(RHF) =  -535.002970696     A.U. after    2 cycles

 The electronic state is 1-A.
 Alpha  occ. eigenvalues --  -20.57468 -20.57235 -20.57190 -20.57137 -11.39995
 Alpha  occ. eigenvalues --  -11.28886 -11.28493 -11.28398 -11.27677 -11.27187
 Alpha  occ. eigenvalues --   -1.40927  -1.33661  -1.30737  -1.30554  -1.02234
 Alpha  occ. eigenvalues --   -0.96227  -0.93173  -0.92586  -0.88659  -0.78583
 Alpha  occ. eigenvalues --   -0.72465  -0.71830  -0.70903  -0.67336  -0.66023
 Alpha  occ. eigenvalues --   -0.63134  -0.62586  -0.61296  -0.60406  -0.59278
 Alpha  occ. eigenvalues --   -0.58458  -0.55905  -0.54679  -0.52504  -0.50947
 Alpha  occ. eigenvalues --   -0.49760  -0.48741  -0.45935  -0.45599  -0.44047
 Alpha  occ. eigenvalues --   -0.43882
 Alpha virt. eigenvalues --    0.03281   0.04195   0.04584   0.04772   0.05686
 Alpha virt. eigenvalues --    0.05809   0.06271   0.06546   0.06776   0.08291
 Alpha virt. eigenvalues --    0.08748   0.09054   0.09648   0.09724   0.12473

 Mulliken charges:
               1
     1  C    0.744874
     2  C    0.988452
     3  C    0.802706
     4  C    0.866423
     5  C    0.922818
     6  C    0.652648
     7  O   -0.620931
     8  O   -0.763683
     9  O   -0.711557
    10  O   -0.709152
    11  H   -0.059784
    12  H   -0.297597
    13  H   -0.074326
    14  H   -0.079823
    15  H   -0.274780
    16  H   -0.165807
    17  H   -0.074057
    18  H   -0.252143
    19  H   -0.082712
    20  H   -0.148559
    21  H   -0.068588
    22  H   -0.268828
    23  H   -0.243229
    24  H   -0.082366
 Sum of Mulliken charges =  -0.00000

 Dipole moment (field-independent basis, Debye):
    X=             -0.5373    Y=             -1.4645    Z=             -1.9547  Tot=              2.5009

 Test job not archived.
 1\1\GINC-SE050\SP\RHF\Aug-CC-pVDZ\C6H14O4\OHZDE\05-Apr-2025\0\\#t hf a
 ug-cc-pvdz iop(5/13=1,5/36=2,99/5=2) pseudo=read geom=check guess=(rea
 d,tcheck) scf=(maxcycle=1)\\title\\0,1\C,0,-3.230761,-0.667661,0.26752
 8\C,0,1.613648,-1.548109,-1.362053\C,0,1.930118,0.02852,1.827269\C,0,-
 0.095597,2.218883,-0.923603\C,0,-0.975112,-0.563177,-0.37163\C,0,0.386
 263,0.049656,-0.003455\O,0,-1.977896,-0.047508,0.468903\O,0,1.332271,-
 0.191322,-1.040678\O,0,0.777361,-0.532375,1.194775\O,0,0.352154,1.4274
 53,0.171175\H,0,-3.588767,-0.528974,-0.760344\H,0,-3.934183,-0.201346,

 Normal termination of Gaussian 16 at Sat Apr  5 22:08:51 2025.
