 Gaussian 16, Revision C.01,

 ----------------------------------------------------------------------
 #t hf aug-cc-pvdz symm=none int=(grid=ultrafine) guess=(read,tcheck) s
 table=(opt,rrhf)
 ----------------------------------------------------------------------
 -----
 title
 -----
 Symbolic Z-matrix:
 Charge =  0 Multiplicity = 1

 SCF Done:  E(RHF) =  -810.016854968     A.U. after   14 cycles
 Normal termination of Gaussian 16 at Sat Apr  5 22:07:06 2025.
 Gaussian 16:  ES64L-G16RevC.01  3-Jul-2019

 ----------------------------------------------------------------------
 #t hf aug-cc-pvdz iop(5/13=1,5/36=2,99/5=2) pseudo=read geom=check gue
 ss=(read,tcheck) scf=(maxcycle=1)
 ----------------------------------------------------------------------
 -----
 title
 -----
 Structure from the checkpoint file:  "1-1-diisocyanato-2-sulfanylethane.chk"
 Charge =  0 Multiplicity = 1

                         Standard orientation:
 ---------------------------------------------------------------------
 Center     Atomic      Atomic             Coordinates (Angstroms)
 Number     Number       Type             X           Y           Z
 ---------------------------------------------------------------------
      1         16           0       -1.960908   -0.984786   -0.704762
      2          8           0       -0.911149    2.680262   -0.504844
      3          8           0        3.424680   -0.179183   -0.597952
      4          7           0       -0.053917    1.049338    0.982459
      5          7           0        1.194387   -0.739778   -0.030324
      6          6           0        0.229652   -0.361475    0.989131
      7          6           0       -1.027868   -1.225362    0.844298
      8          6           0       -0.515341    1.815052    0.167561
      9          6           0        2.331372   -0.414621   -0.267512
     10          1           0       -1.018139   -1.475813   -1.529627
     11          1           0        0.662672   -0.584117    1.965684
     12          1           0       -1.719705   -0.969386    1.644141
     13          1           0       -0.748716   -2.271237    0.952542
 ---------------------------------------------------------------------

 SCF Done:  E(RHF) =  -810.165130104     A.U. after    2 cycles

 The electronic state is 1-A.
 Alpha  occ. eigenvalues --  -93.55521 -20.64603 -20.63796 -15.67184 -15.66567
 Alpha  occ. eigenvalues --  -11.43948 -11.43452 -11.39019 -11.30380  -8.85263
 Alpha  occ. eigenvalues --   -6.19426  -6.19221  -6.18898  -1.44916  -1.44193
 Alpha  occ. eigenvalues --   -1.29484  -1.23329  -1.09451  -0.99380  -0.87557
 Alpha  occ. eigenvalues --   -0.82107  -0.75941  -0.74911  -0.72414  -0.69434
 Alpha  occ. eigenvalues --   -0.67321  -0.66828  -0.64816  -0.62900  -0.62028
 Alpha  occ. eigenvalues --   -0.54867  -0.51012  -0.48002  -0.46393  -0.44821
 Alpha  occ. eigenvalues --   -0.43785  -0.38068
 Alpha virt. eigenvalues --    0.02428   0.03996   0.04670   0.05105   0.07676
 Alpha virt. eigenvalues --    0.07960   0.08908   0.09590   0.10114   0.10674
 Alpha virt. eigenvalues --    0.12180   0.12471   0.12909   0.13305   0.13944

 Mulliken charges:
               1
     1  S    0.267330
     2  O   -0.190626
     3  O   -0.206461
     4  N   -0.184810
     5  N   -0.145489
     6  C    0.983231
     7  C    0.080714
     8  C   -0.183522
     9  C   -0.243684
    10  H    0.109779
    11  H   -0.215908
    12  H   -0.008602
    13  H   -0.061952
 Sum of Mulliken charges =  -0.00000

 Dipole moment (field-independent basis, Debye):
    X=             -0.5679    Y=             -2.9387    Z=              2.6037  Tot=              3.9671

 Test job not archived.
 1\1\GINC-SE146\SP\RHF\Aug-CC-pVDZ\C4H4N2O2S1\OHZDE\05-Apr-2025\0\\#t h
 f aug-cc-pvdz iop(5/13=1,5/36=2,99/5=2) pseudo=read geom=check guess=(
 read,tcheck) scf=(maxcycle=1)\\title\\0,1\S,0,-1.960908,-0.984786,-0.7
 04762\O,0,-0.911149,2.680262,-0.504844\O,0,3.42468,-0.179183,-0.597952
 \N,0,-0.053917,1.049338,0.982459\N,0,1.194387,-0.739778,-0.030324\C,0,
 0.229652,-0.361475,0.989131\C,0,-1.027868,-1.225362,0.844298\C,0,-0.51
 5341,1.815052,0.167561\C,0,2.331372,-0.414621,-0.267512\H,0,-1.018139,
 -1.475813,-1.529627\H,0,0.662672,-0.584117,1.965684\H,0,-1.719705,-0.9

 Normal termination of Gaussian 16 at Sat Apr  5 22:07:13 2025.
