 Gaussian 16, Revision C.01,

 ----------------------------------------------------------------------
 #t hf aug-cc-pvdz symm=none int=(grid=ultrafine) guess=(read,tcheck) s
 table=(opt,rrhf)
 ----------------------------------------------------------------------
 -----
 title
 -----
 Symbolic Z-matrix:
 Charge =  0 Multiplicity = 1

 SCF Done:  E(RHF) =  -933.636002707     A.U. after   12 cycles
 Normal termination of Gaussian 16 at Sat Apr  5 22:05:10 2025.
 Gaussian 16:  ES64L-G16RevC.01  3-Jul-2019

 ----------------------------------------------------------------------
 #t hf aug-cc-pvdz iop(5/13=1,5/36=2,99/5=2) pseudo=read geom=check gue
 ss=(read,tcheck) scf=(maxcycle=1)
 ----------------------------------------------------------------------
 -----
 title
 -----
 Structure from the checkpoint file:  "1-1-1-2-tetrafluorochloroethane.chk"
 Charge =  0 Multiplicity = 1

                         Standard orientation:
 ---------------------------------------------------------------------
 Center     Atomic      Atomic             Coordinates (Angstroms)
 Number     Number       Type             X           Y           Z
 ---------------------------------------------------------------------
      1          6           0        0.451706    0.483657   -0.467135
      2          6           0       -0.861674   -0.168523   -0.001224
      3          1           0        0.454491    0.558887   -1.551837
      4          9           0        0.530176    1.727520    0.073771
      5         17           0        1.858333   -0.488147    0.023923
      6          9           0       -0.920875   -0.298900    1.324534
      7          9           0       -1.892087    0.597920   -0.396345
      8          9           0       -1.004585   -1.376672   -0.562482
 ---------------------------------------------------------------------

 SCF Done:  E(RHF) =  -933.825337623     A.U. after    2 cycles

 The electronic state is 1-A.
 Alpha  occ. eigenvalues -- -103.69889 -26.19213 -26.18968 -26.18954 -26.17546
 Alpha  occ. eigenvalues --  -11.55822 -11.44669 -10.73216  -8.38940  -8.38612
 Alpha  occ. eigenvalues --   -8.38601  -1.78896  -1.72034  -1.71664  -1.71360
 Alpha  occ. eigenvalues --   -1.22001  -1.09042  -0.98701  -0.91080  -0.90667
 Alpha  occ. eigenvalues --   -0.88591  -0.82327  -0.80284  -0.79101  -0.78252
 Alpha  occ. eigenvalues --   -0.75401  -0.75205  -0.74960  -0.74069  -0.63263
 Alpha  occ. eigenvalues --   -0.59595  -0.51009  -0.49734
 Alpha virt. eigenvalues --    0.03617   0.07073   0.07795   0.09012   0.10956
 Alpha virt. eigenvalues --    0.11631   0.12662   0.12716   0.14869   0.15093
 Alpha virt. eigenvalues --    0.17166   0.18463   0.19650   0.22251   0.25431

 Mulliken charges:
               1
     1  C    0.215146
     2  C    1.034281
     3  H    0.037439
     4  F   -0.360030
     5  Cl  -0.086207
     6  F   -0.262564
     7  F   -0.294132
     8  F   -0.283933
 Sum of Mulliken charges =   0.00000

 Dipole moment (field-independent basis, Debye):
    X=              0.6851    Y=             -0.1276    Z=             -1.7277  Tot=              1.8630

 Test job not archived.
 1\1\GINC-SE028\SP\RHF\Aug-CC-pVDZ\C2H1Cl1F4\OHZDE\05-Apr-2025\0\\#t hf
  aug-cc-pvdz iop(5/13=1,5/36=2,99/5=2) pseudo=read geom=check guess=(r
 ead,tcheck) scf=(maxcycle=1)\\title\\0,1\C,0,0.451706,0.483657,-0.4671
 35\C,0,-0.861674,-0.168523,-0.001224\H,0,0.454491,0.558887,-1.551837\F
 ,0,0.530176,1.72752,0.073771\Cl,0,1.858333,-0.488147,0.023923\F,0,-0.9
 20875,-0.2989,1.324534\F,0,-1.892087,0.59792,-0.396345\F,0,-1.004585,-
 1.376672,-0.562482\\Version=ES64L-G16RevC.01\State=1-A\HF=-933.8253376
 \RMSD=6.235e-03\Dipole=0.2695519,-0.0502094,-0.6797392\Quadrupole=-0.5

 Normal termination of Gaussian 16 at Sat Apr  5 22:06:07 2025.
