 Gaussian 16, Revision C.01,

 ----------------------------------------------------------------------
 #t hf aug-cc-pvdz symm=none int=(grid=ultrafine) guess=(read,tcheck) s
 table=(opt,rrhf)
 ----------------------------------------------------------------------
 -----
 title
 -----
 Symbolic Z-matrix:
 Charge =  0 Multiplicity = 1

 SCF Done:  E(RHF) =  -995.883036168     A.U. after   12 cycles

 1\1\GINC-SE041\Stability\RHF\Aug-CC-pVDZ\C2H2Cl2\OHZDE\05-Apr-2025\0\\
 #t hf aug-cc-pvdz symm=none int=(grid=ultrafine) guess=(read,tcheck) s
 table=(opt,rrhf)\\title\\0,1\C,0,0.,0.,1.747016\C,0,0.,0.,0.425505\H,0
 ,0.,0.930182,2.293878\H,0,0.,-0.930182,2.293878\Cl,0,0.,1.459069,-0.51
 832\Cl,0,0.,-1.459069,-0.51832\\Version=ES64L-G16RevC.01\HF=-995.88303
 62\RMSD=9.163e-09\Dipole=0.,0.,0.6659725\Quadrupole=-1.9648544,-0.2097
 053,2.1745597,0.,0.,0.\PG=Unknown\\@
 The archive entry for this job was punched.

 Normal termination of Gaussian 16 at Sat Apr  5 22:05:23 2025.
 Gaussian 16:  ES64L-G16RevC.01  3-Jul-2019

 ----------------------------------------------------------------------
 #t hf aug-cc-pvdz iop(5/13=1,5/36=2,99/5=2) pseudo=read geom=check gue
 ss=(read,tcheck) scf=(maxcycle=1)
 ----------------------------------------------------------------------
 -----
 title
 -----
 Structure from the checkpoint file:  "1-1-dichloroethene.chk"
 Charge =  0 Multiplicity = 1

                         Standard orientation:
 ---------------------------------------------------------------------
 Center     Atomic      Atomic             Coordinates (Angstroms)
 Number     Number       Type             X           Y           Z
 ---------------------------------------------------------------------
      1          6           0        0.000000   -0.000000    1.747016
      2          6           0        0.000000   -0.000000    0.425505
      3          1           0        0.000000    0.930182    2.293878
      4          1           0       -0.000000   -0.930182    2.293878
      5         17           0        0.000000    1.459069   -0.518320
      6         17           0       -0.000000   -1.459069   -0.518320
 ---------------------------------------------------------------------

 SCF Done:  E(RHF) =  -995.946823036     A.U. after    2 cycles

 The electronic state is 1-A1.
 Alpha  occ. eigenvalues -- -103.68812-103.68811 -11.37839 -11.27340 -10.72116
 Alpha  occ. eigenvalues --  -10.72107  -8.37851  -8.37844  -8.37514  -8.37512
 Alpha  occ. eigenvalues --   -8.37501  -8.37499  -1.24098  -1.15903  -1.03445
 Alpha  occ. eigenvalues --   -0.78224  -0.67521  -0.65402  -0.57431  -0.55862
 Alpha  occ. eigenvalues --   -0.50551  -0.49205  -0.47157  -0.38516
 Alpha virt. eigenvalues --    0.03691   0.05306   0.07364   0.07966   0.09165
 Alpha virt. eigenvalues --    0.10766   0.13958   0.14524   0.15916   0.16207
 Alpha virt. eigenvalues --    0.16940   0.16983   0.18181   0.18216   0.19396

 Mulliken charges:
               1
     1  C    0.861329
     2  C   -0.105050
     3  H   -0.198472
     4  H   -0.198472
     5  Cl  -0.179668
     6  Cl  -0.179668
 Sum of Mulliken charges =  -0.00000

 Dipole moment (field-independent basis, Debye):
    X=              0.0000    Y=              0.0000    Z=              1.7859  Tot=              1.7859

 Test job not archived.
 1\1\GINC-SE041\SP\RHF\Aug-CC-pVDZ\C2H2Cl2\OHZDE\05-Apr-2025\0\\#t hf a
 ug-cc-pvdz iop(5/13=1,5/36=2,99/5=2) pseudo=read geom=check guess=(rea
 d,tcheck) scf=(maxcycle=1)\\title\\0,1\C,0,0.,0.,1.747016\C,0,0.,0.,0.
 425505\H,0,0.,0.930182,2.293878\H,0,0.,-0.930182,2.293878\Cl,0,0.,1.45
 9069,-0.51832\Cl,0,0.,-1.459069,-0.51832\\Version=ES64L-G16RevC.01\Sta
 te=1-A1\HF=-995.946823\RMSD=5.289e-03\Dipole=0.,0.,0.7026126\Quadrupol
 e=-2.0039297,-0.241975,2.2459047,0.,0.,0.\PG=C02V [C2(C1C1),SGV(H2Cl2)
 ]\\@

 Normal termination of Gaussian 16 at Sat Apr  5 22:06:06 2025.
