 Gaussian 16, Revision C.01,

 ----------------------------------------------------------------------
 #t hf aug-cc-pvdz symm=none int=(grid=ultrafine) guess=(read,tcheck) s
 table=(opt,rrhf)
 ----------------------------------------------------------------------
 -----
 title
 -----
 Symbolic Z-matrix:
 Charge =  0 Multiplicity = 1

 SCF Done:  E(RHF) =  -375.866638507     A.U. after   11 cycles
 Normal termination of Gaussian 16 at Sat Apr  5 22:05:04 2025.
 Gaussian 16:  ES64L-G16RevC.01  3-Jul-2019

 ----------------------------------------------------------------------
 #t hf aug-cc-pvdz iop(5/13=1,5/36=2,99/5=2) pseudo=read geom=check gue
 ss=(read,tcheck) scf=(maxcycle=1)
 ----------------------------------------------------------------------
 -----
 title
 -----
 Structure from the checkpoint file:  "1-1-1-trifluoroethane.chk"
 Charge =  0 Multiplicity = 1

                         Standard orientation:
 ---------------------------------------------------------------------
 Center     Atomic      Atomic             Coordinates (Angstroms)
 Number     Number       Type             X           Y           Z
 ---------------------------------------------------------------------
      1          6           0       -1.478573    0.000000    0.000000
      2          6           0        0.023472    0.000000   -0.000000
      3          1           0       -1.838151   -1.026225    0.000000
      4          1           0       -1.838151    0.513112    0.888737
      5          1           0       -1.838151    0.513112   -0.888737
      6          9           0        0.527595    1.253973   -0.000000
      7          9           0        0.527595   -0.626987   -1.085973
      8          9           0        0.527595   -0.626987    1.085973
 ---------------------------------------------------------------------

 SCF Done:  E(RHF) =  -376.002827322     A.U. after    2 cycles

 The electronic state is 1-A'.
 Alpha  occ. eigenvalues --  -26.15939 -26.15939 -26.15924 -11.52260 -11.27152
 Alpha  occ. eigenvalues --   -1.75386  -1.68328  -1.68328  -1.08697  -0.96495
 Alpha  occ. eigenvalues --   -0.87337  -0.87337  -0.81655  -0.76786  -0.76786
 Alpha  occ. eigenvalues --   -0.72245  -0.72245  -0.71091  -0.59780  -0.59780
 Alpha  occ. eigenvalues --   -0.59457
 Alpha virt. eigenvalues --    0.03285   0.05521   0.05521   0.08039   0.11401
 Alpha virt. eigenvalues --    0.11692   0.11692   0.14892   0.14892   0.16255
 Alpha virt. eigenvalues --    0.20709   0.23688   0.23688   0.28203   0.28203

 Mulliken charges:
               1
     1  C    0.092095
     2  C    0.829245
     3  H    0.009072
     4  H    0.009072
     5  H    0.009072
     6  F   -0.316185
     7  F   -0.316185
     8  F   -0.316185
 Sum of Mulliken charges =  -0.00000

 Dipole moment (field-independent basis, Debye):
    X=             -2.8660    Y=              0.0000    Z=              0.0000  Tot=              2.8660

 Test job not archived.
 1\1\GINC-SE115\SP\RHF\Aug-CC-pVDZ\C2H3F3\OHZDE\05-Apr-2025\0\\#t hf au
 g-cc-pvdz iop(5/13=1,5/36=2,99/5=2) pseudo=read geom=check guess=(read
 ,tcheck) scf=(maxcycle=1)\\title\\0,1\C,0,0.,0.,1.478573\C,0,0.,0.,-0.
 023472\H,0,0.,-1.026225,1.838151\H,0,0.888737,0.513112,1.838151\H,0,-0
 .888737,0.513112,1.838151\F,0,0.,1.253973,-0.527595\F,0,-1.085973,-0.6
 26987,-0.527595\F,0,1.085973,-0.626987,-0.527595\\Version=ES64L-G16Rev
 C.01\State=1-A'\HF=-376.0028273\RMSD=6.815e-03\Dipole=0.,0.0000013,1.1
 275797\Quadrupole=-0.9227768,-0.9227753,1.8455522,0.,0.,-0.0000018\PG=

 Normal termination of Gaussian 16 at Sat Apr  5 22:06:06 2025.
