 Gaussian 16, Revision C.01,

 ----------------------------------------------------------------------
 #t hf aug-cc-pvdz symm=none int=(grid=ultrafine) guess=(read,tcheck) s
 table=(opt,rrhf)
 ----------------------------------------------------------------------
 -----
 title
 -----
 Symbolic Z-matrix:
 Charge =  0 Multiplicity = 1

 SCF Done:  E(RHF) =  -1752.58189045     A.U. after   12 cycles

 1\1\GINC-SE180\Stability\RHF\Aug-CC-pVDZ\C2Cl3F3\OHZDE\05-Apr-2025\0\\
 #t hf aug-cc-pvdz symm=none int=(grid=ultrafine) guess=(read,tcheck) s
 table=(opt,rrhf)\\title\\0,1\C,0,0.578488,0.148776,0.311897\C,0,-0.726
 971,-0.530081,-0.225129\F,0,0.477526,0.252431,1.648651\Cl,0,1.977285,-
 0.887503,-0.077159\Cl,0,0.78875,1.76724,-0.389497\Cl,0,-2.180351,0.394
 434,0.227356\F,0,-0.665283,-0.645666,-1.55547\F,0,-0.819545,-1.759329,
 0.300984\\Version=ES64L-G16RevC.01\HF=-1752.5818904\RMSD=9.487e-09\Dip
 ole=0.0516755,0.2053616,-0.081339\Quadrupole=1.3014889,0.3938928,-1.69

 Normal termination of Gaussian 16 at Sat Apr  5 22:05:10 2025.
 Gaussian 16:  ES64L-G16RevC.01  3-Jul-2019

 ----------------------------------------------------------------------
 #t hf aug-cc-pvdz iop(5/13=1,5/36=2,99/5=2) pseudo=read geom=check gue
 ss=(read,tcheck) scf=(maxcycle=1)
 ----------------------------------------------------------------------
 -----
 title
 -----
 Structure from the checkpoint file:  "1-1-2-trichloro-1-2-2-trifluoroethane.chk"
 Charge =  0 Multiplicity = 1

                         Standard orientation:
 ---------------------------------------------------------------------
 Center     Atomic      Atomic             Coordinates (Angstroms)
 Number     Number       Type             X           Y           Z
 ---------------------------------------------------------------------
      1          6           0        0.578488    0.148776    0.311897
      2          6           0       -0.726971   -0.530081   -0.225129
      3          9           0        0.477526    0.252431    1.648651
      4         17           0        1.977285   -0.887503   -0.077159
      5         17           0        0.788750    1.767240   -0.389497
      6         17           0       -2.180351    0.394434    0.227356
      7          9           0       -0.665283   -0.645666   -1.555470
      8          9           0       -0.819545   -1.759329    0.300984
 ---------------------------------------------------------------------

 SCF Done:  E(RHF) =  -1752.76976282     A.U. after    2 cycles

 The electronic state is 1-A.
 Alpha  occ. eigenvalues -- -103.71112-103.70917-103.70761 -26.19737 -26.19605
 Alpha  occ. eigenvalues --  -26.19510 -11.54308 -11.51335 -10.74447 -10.74240
 Alpha  occ. eigenvalues --  -10.74115  -8.40169  -8.39962  -8.39837  -8.39821
 Alpha  occ. eigenvalues --   -8.39815  -8.39617  -8.39608  -8.39496  -8.39488
 Alpha  occ. eigenvalues --   -1.77216  -1.74371  -1.72116  -1.26574  -1.21944
 Alpha  occ. eigenvalues --   -1.18269  -1.05529  -0.96408  -0.88994  -0.88469
 Alpha  occ. eigenvalues --   -0.85060  -0.82256  -0.80953  -0.78646  -0.75695
 Alpha  occ. eigenvalues --   -0.75177  -0.67983  -0.61706  -0.59998  -0.53756
 Alpha  occ. eigenvalues --   -0.52759  -0.52328  -0.51027  -0.50481  -0.48742
 Alpha virt. eigenvalues --    0.06071   0.06711   0.07805   0.09031   0.09772
 Alpha virt. eigenvalues --    0.10710   0.11354   0.12168   0.12881   0.13675
 Alpha virt. eigenvalues --    0.14238   0.15935   0.16843   0.17616   0.18022

 Mulliken charges:
               1
     1  C    0.169521
     2  C    0.791594
     3  F   -0.334133
     4  Cl   0.003714
     5  Cl   0.005037
     6  Cl  -0.074943
     7  F   -0.280501
     8  F   -0.280290
 Sum of Mulliken charges =  -0.00000

 Dipole moment (field-independent basis, Debye):
    X=              0.1460    Y=              0.7476    Z=             -0.3023  Tot=              0.8195

 Test job not archived.
 1\1\GINC-SE180\SP\RHF\Aug-CC-pVDZ\C2Cl3F3\OHZDE\05-Apr-2025\0\\#t hf a
 ug-cc-pvdz iop(5/13=1,5/36=2,99/5=2) pseudo=read geom=check guess=(rea
 d,tcheck) scf=(maxcycle=1)\\title\\0,1\C,0,0.578488,0.148776,0.311897\
 C,0,-0.726971,-0.530081,-0.225129\F,0,0.477526,0.252431,1.648651\Cl,0,
 1.977285,-0.887503,-0.077159\Cl,0,0.78875,1.76724,-0.389497\Cl,0,-2.18
 0351,0.394434,0.227356\F,0,-0.665283,-0.645666,-1.55547\F,0,-0.819545,
 -1.759329,0.300984\\Version=ES64L-G16RevC.01\State=1-A\HF=-1752.769762
 8\RMSD=5.289e-03\Dipole=0.0574548,0.2941275,-0.1189456\Quadrupole=1.68

 Normal termination of Gaussian 16 at Sat Apr  5 22:06:08 2025.
