 Gaussian 16, Revision C.01,

 ----------------------------------------------------------------------
 #t hf aug-cc-pvdz symm=none int=(grid=ultrafine) guess=(read,tcheck) s
 table=(opt,rrhf)
 ----------------------------------------------------------------------
 -----
 title
 -----
 Symbolic Z-matrix:
 Charge =  0 Multiplicity = 1

 SCF Done:  E(RHF) =  -307.026867825     A.U. after   11 cycles

 1\1\GINC-SE175\Stability\RHF\Aug-CC-pVDZ\C4H10O2\OHZDE\05-Apr-2025\0\\
 #t hf aug-cc-pvdz symm=none int=(grid=ultrafine) guess=(read,tcheck) s
 table=(opt,rrhf)\\title\\0,1\O,0,-0.475052,-0.494394,1.113221\O,0,-0.4
 75052,-0.494394,-1.113221\C,0,-0.475052,0.274157,2.299349\C,0,-0.47505
 2,0.274157,-2.299349\C,0,0.108864,0.139234,0.\C,0,1.624653,-0.011059,0
 .\H,0,0.536031,0.457395,2.678474\H,0,0.536031,0.457395,-2.678474\H,0,-
 1.025623,-0.297309,3.043115\H,0,-1.025623,-0.297309,-3.043115\H,0,-0.9
 74551,1.238607,2.149797\H,0,-0.974551,1.238607,-2.149797\H,0,-0.175109

 Normal termination of Gaussian 16 at Sat Apr  5 22:07:08 2025.
 Gaussian 16:  ES64L-G16RevC.01  3-Jul-2019

 ----------------------------------------------------------------------
 #t hf aug-cc-pvdz iop(5/13=1,5/36=2,99/5=2) pseudo=read geom=check gue
 ss=(read,tcheck) scf=(maxcycle=1)
 ----------------------------------------------------------------------
 -----
 title
 -----
 Structure from the checkpoint file:  "1-1-dimethoxyethane.chk"
 Charge =  0 Multiplicity = 1

                         Standard orientation:
 ---------------------------------------------------------------------
 Center     Atomic      Atomic             Coordinates (Angstroms)
 Number     Number       Type             X           Y           Z
 ---------------------------------------------------------------------
      1          8           0       -0.475052   -0.494394    1.113221
      2          8           0       -0.475052   -0.494394   -1.113221
      3          6           0       -0.475052    0.274157    2.299349
      4          6           0       -0.475052    0.274157   -2.299349
      5          6           0        0.108864    0.139234    0.000000
      6          6           0        1.624653   -0.011059    0.000000
      7          1           0        0.536031    0.457395    2.678474
      8          1           0        0.536031    0.457395   -2.678474
      9          1           0       -1.025623   -0.297309    3.043115
     10          1           0       -1.025623   -0.297309   -3.043115
     11          1           0       -0.974551    1.238607    2.149797
     12          1           0       -0.974551    1.238607   -2.149797
     13          1           0       -0.175109    1.205677   -0.000000
     14          1           0        1.876897   -1.070780    0.000000
     15          1           0        2.063428    0.459549   -0.880282
     16          1           0        2.063428    0.459549    0.880282
 ---------------------------------------------------------------------

 SCF Done:  E(RHF) =  -307.129923080     A.U. after    2 cycles

 The electronic state is 1-A'.
 Alpha  occ. eigenvalues --  -20.56946 -20.56944 -11.34420 -11.28498 -11.28498
 Alpha  occ. eigenvalues --  -11.22662  -1.36960  -1.30596  -1.01854  -0.94788
 Alpha  occ. eigenvalues --   -0.91203  -0.82088  -0.70079  -0.69587  -0.66881
 Alpha  occ. eigenvalues --   -0.63428  -0.59732  -0.58160  -0.57205  -0.54836
 Alpha  occ. eigenvalues --   -0.53124  -0.50632  -0.48280  -0.45609  -0.42641
 Alpha virt. eigenvalues --    0.03333   0.04450   0.04761   0.05117   0.06206
 Alpha virt. eigenvalues --    0.06825   0.07204   0.07521   0.08442   0.09826
 Alpha virt. eigenvalues --    0.11475   0.13229   0.14110   0.14962   0.15710

 Mulliken charges:
               1
     1  O   -0.692574
     2  O   -0.692574
     3  C    0.713328
     4  C    0.713328
     5  C    0.948928
     6  C    0.270533
     7  H   -0.091808
     8  H   -0.091808
     9  H   -0.249135
    10  H   -0.249135
    11  H   -0.075124
    12  H   -0.075124
    13  H   -0.213342
    14  H   -0.023447
    15  H   -0.096024
    16  H   -0.096024
 Sum of Mulliken charges =  -0.00000

 Dipole moment (field-independent basis, Debye):
    X=              1.2104    Y=              2.7134    Z=              0.0000  Tot=              2.9711

 Test job not archived.
 1\1\GINC-SE175\SP\RHF\Aug-CC-pVDZ\C4H10O2\OHZDE\05-Apr-2025\0\\#t hf a
 ug-cc-pvdz iop(5/13=1,5/36=2,99/5=2) pseudo=read geom=check guess=(rea
 d,tcheck) scf=(maxcycle=1)\\title\\0,1\O,0,-0.475052,-0.494394,1.11322
 1\O,0,-0.475052,-0.494394,-1.113221\C,0,-0.475052,0.274157,2.299349\C,
 0,-0.475052,0.274157,-2.299349\C,0,0.108864,0.139234,0.\C,0,1.624653,-
 0.011059,0.\H,0,0.536031,0.457395,2.678474\H,0,0.536031,0.457395,-2.67
 8474\H,0,-1.025623,-0.297309,3.043115\H,0,-1.025623,-0.297309,-3.04311
 5\H,0,-0.974551,1.238607,2.149797\H,0,-0.974551,1.238607,-2.149797\H,0

 Normal termination of Gaussian 16 at Sat Apr  5 22:07:11 2025.
