 Gaussian 16, Revision C.01,

 ----------------------------------------------------------------------
 #t hf aug-cc-pvdz symm=none int=(grid=ultrafine) guess=(read,tcheck) s
 table=(opt,rrhf)
 ----------------------------------------------------------------------
 -----
 title
 -----
 Symbolic Z-matrix:
 Charge =  0 Multiplicity = 1

 SCF Done:  E(RHF) =  -228.295066913     A.U. after   12 cycles

 1\1\GINC-SE190\Stability\RHF\Aug-CC-pVDZ\C3H10N2\OHZDE\05-Apr-2025\0\\
 #t hf aug-cc-pvdz symm=none int=(grid=ultrafine) guess=(read,tcheck) s
 table=(opt,rrhf)\\title\\0,1\C,0,1.979205,-0.084993,-0.208488\C,0,-1.5
 23606,-0.931315,-0.078157\C,0,-0.762496,1.356133,0.045941\N,0,0.728676
 ,-0.487073,0.41836\N,0,-0.413231,-0.017131,-0.292792\H,0,2.801931,-0.4
 42661,0.411618\H,0,2.096531,0.998915,-0.34016\H,0,2.053124,-0.556251,-
 1.187265\H,0,-1.22329,-1.932786,-0.375989\H,0,-2.371774,-0.616432,-0.6
 8676\H,0,-1.848711,-0.963839,0.974835\H,0,-1.044241,1.465794,1.107744\

 Normal termination of Gaussian 16 at Sat Apr  5 22:05:14 2025.
 Gaussian 16:  ES64L-G16RevC.01  3-Jul-2019

 ----------------------------------------------------------------------
 #t hf aug-cc-pvdz iop(5/13=1,5/36=2,99/5=2) pseudo=read geom=check gue
 ss=(read,tcheck) scf=(maxcycle=1)
 ----------------------------------------------------------------------
 -----
 title
 -----
 Structure from the checkpoint file:  "1-1-2-trimethylhydrazine.chk"
 Charge =  0 Multiplicity = 1

                         Standard orientation:
 ---------------------------------------------------------------------
 Center     Atomic      Atomic             Coordinates (Angstroms)
 Number     Number       Type             X           Y           Z
 ---------------------------------------------------------------------
      1          6           0        1.979205   -0.084993   -0.208488
      2          6           0       -1.523606   -0.931315   -0.078157
      3          6           0       -0.762496    1.356133    0.045941
      4          7           0        0.728676   -0.487073    0.418360
      5          7           0       -0.413231   -0.017131   -0.292792
      6          1           0        2.801931   -0.442661    0.411618
      7          1           0        2.096531    0.998915   -0.340160
      8          1           0        2.053124   -0.556251   -1.187265
      9          1           0       -1.223290   -1.932786   -0.375989
     10          1           0       -2.371774   -0.616432   -0.686760
     11          1           0       -1.848711   -0.963839    0.974835
     12          1           0       -1.044241    1.465794    1.107744
     13          1           0       -1.603731    1.682831   -0.565341
     14          1           0        0.077866    2.017471   -0.159362
     15          1           0        0.695565   -0.162564    1.385928
 ---------------------------------------------------------------------

 SCF Done:  E(RHF) =  -228.368333444     A.U. after    2 cycles

 The electronic state is 1-A.
 Alpha  occ. eigenvalues --  -15.63640 -15.63126 -11.25453 -11.24974 -11.24718
 Alpha  occ. eigenvalues --   -1.24931  -1.07606  -0.95060  -0.89586  -0.81000
 Alpha  occ. eigenvalues --   -0.67396  -0.64075  -0.62905  -0.59249  -0.55775
 Alpha  occ. eigenvalues --   -0.54617  -0.53613  -0.51458  -0.50384  -0.37318
 Alpha  occ. eigenvalues --   -0.35982
 Alpha virt. eigenvalues --    0.03505   0.04186   0.04493   0.04682   0.07069
 Alpha virt. eigenvalues --    0.07475   0.07650   0.07996   0.08628   0.09637
 Alpha virt. eigenvalues --    0.12867   0.13630   0.14391   0.15518   0.15857

 Mulliken charges:
               1
     1  C    0.873775
     2  C    0.852067
     3  C    0.809386
     4  N   -0.352629
     5  N   -0.705333
     6  H   -0.196880
     7  H   -0.143443
     8  H   -0.184156
     9  H   -0.202429
    10  H   -0.175057
    11  H   -0.064267
    12  H   -0.063316
    13  H   -0.172231
    14  H   -0.262588
    15  H   -0.012898
 Sum of Mulliken charges =  -0.00000

 Dipole moment (field-independent basis, Debye):
    X=             -0.1594    Y=              1.1363    Z=              0.8175  Tot=              1.4089

 Test job not archived.
 1\1\GINC-SE190\SP\RHF\Aug-CC-pVDZ\C3H10N2\OHZDE\05-Apr-2025\0\\#t hf a
 ug-cc-pvdz iop(5/13=1,5/36=2,99/5=2) pseudo=read geom=check guess=(rea
 d,tcheck) scf=(maxcycle=1)\\title\\0,1\C,0,1.979205,-0.084993,-0.20848
 8\C,0,-1.523606,-0.931315,-0.078157\C,0,-0.762496,1.356133,0.045941\N,
 0,0.728676,-0.487073,0.41836\N,0,-0.413231,-0.017131,-0.292792\H,0,2.8
 01931,-0.442661,0.411618\H,0,2.096531,0.998915,-0.34016\H,0,2.053124,-
 0.556251,-1.187265\H,0,-1.22329,-1.932786,-0.375989\H,0,-2.371774,-0.6
 16432,-0.68676\H,0,-1.848711,-0.963839,0.974835\H,0,-1.044241,1.465794

 Normal termination of Gaussian 16 at Sat Apr  5 22:06:08 2025.
