 Gaussian 16, Revision C.01,

 ----------------------------------------------------------------------
 #t hf aug-cc-pvdz symm=none int=(grid=ultrafine) guess=(read,tcheck) s
 table=(opt,rrhf)
 ----------------------------------------------------------------------
 -----
 title
 -----
 Symbolic Z-matrix:
 Charge =  0 Multiplicity = 1

 SCF Done:  E(RHF) =  -413.673911988     A.U. after   13 cycles
 Normal termination of Gaussian 16 at Sat Apr  5 22:05:02 2025.
 Gaussian 16:  ES64L-G16RevC.01  3-Jul-2019

 ----------------------------------------------------------------------
 #t hf aug-cc-pvdz iop(5/13=1,5/36=2,99/5=2) pseudo=read geom=check gue
 ss=(read,tcheck) scf=(maxcycle=1)
 ----------------------------------------------------------------------
 -----
 title
 -----
 Structure from the checkpoint file:  "1-1-3-trifluoropropene.chk"
 Charge =  0 Multiplicity = 1

                         Standard orientation:
 ---------------------------------------------------------------------
 Center     Atomic      Atomic             Coordinates (Angstroms)
 Number     Number       Type             X           Y           Z
 ---------------------------------------------------------------------
      1          6           0       -0.000000    0.862132    0.000000
      2          9           0       -1.305149    0.683741    0.000000
      3          9           0        0.270153    2.162974    0.000000
      4          6           0        0.934721   -0.068353    0.000000
      5          1           0        1.955306    0.288216    0.000000
      6          6           0        0.754530   -1.551413    0.000000
      7          9           0       -0.579844   -1.931007    0.000000
      8          1           0        1.221377   -1.991895    0.885372
      9          1           0        1.221377   -1.991895   -0.885372
 ---------------------------------------------------------------------

 SCF Done:  E(RHF) =  -413.821273810     A.U. after    2 cycles

 The electronic state is 1-A'.
 Alpha  occ. eigenvalues --  -26.17197 -26.17156 -26.11700 -11.44641 -11.35009
 Alpha  occ. eigenvalues --  -11.27131  -1.74323  -1.69472  -1.65013  -1.11226
 Alpha  occ. eigenvalues --   -0.99716  -0.91704  -0.85842  -0.81746  -0.79529
 Alpha  occ. eigenvalues --   -0.75858  -0.75617  -0.75249  -0.73302  -0.72319
 Alpha  occ. eigenvalues --   -0.63684  -0.58253  -0.57393  -0.39934
 Alpha virt. eigenvalues --    0.02961   0.04901   0.05047   0.07259   0.10504
 Alpha virt. eigenvalues --    0.11100   0.11446   0.12008   0.12503   0.15067
 Alpha virt. eigenvalues --    0.15402   0.16510   0.17080   0.18606   0.20130

 Mulliken charges:
               1
     1  C    0.537880
     2  F   -0.260371
     3  F   -0.311010
     4  C    0.011694
     5  H   -0.334285
     6  C    0.740521
     7  F   -0.365055
     8  H   -0.009687
     9  H   -0.009687
 Sum of Mulliken charges =  -0.00000

 Dipole moment (field-independent basis, Debye):
    X=              3.3753    Y=             -0.9301    Z=             -0.0000  Tot=              3.5011

 Test job not archived.
 1\1\GINC-SE196\SP\RHF\Aug-CC-pVDZ\C3H3F3\OHZDE\05-Apr-2025\0\\#t hf au
 g-cc-pvdz iop(5/13=1,5/36=2,99/5=2) pseudo=read geom=check guess=(read
 ,tcheck) scf=(maxcycle=1)\\title\\0,1\C,0,0.,0.862132,0.\F,0,-1.305149
 ,0.683741,0.\F,0,0.270153,2.162974,0.\C,0,0.934721,-0.068353,0.\H,0,1.
 955306,0.288216,0.\C,0,0.75453,-1.551413,0.\F,0,-0.579844,-1.931007,0.
 \H,0,1.221377,-1.991895,0.885372\H,0,1.221377,-1.991895,-0.885372\\Ver
 sion=ES64L-G16RevC.01\State=1-A'\HF=-413.8212738\RMSD=8.675e-03\Dipole
 =1.327927,-0.3659364,0.\Quadrupole=1.3725417,-2.20935,0.8368082,-3.040

 Normal termination of Gaussian 16 at Sat Apr  5 22:06:07 2025.
