 Gaussian 16, Revision C.01,

 ----------------------------------------------------------------------
 #t hf aug-cc-pvdz symm=none int=(grid=ultrafine) guess=(read,tcheck) s
 table=(opt,rrhf)
 ----------------------------------------------------------------------
 -----
 title
 -----
 Symbolic Z-matrix:
 Charge =  0 Multiplicity = 1

 SCF Done:  E(RHF) =  -411.201127199     A.U. after   15 cycles
 Normal termination of Gaussian 16 at Sat Apr  5 22:06:21 2025.
 Gaussian 16:  ES64L-G16RevC.01  3-Jul-2019

 ----------------------------------------------------------------------
 #t hf aug-cc-pvdz iop(5/13=1,5/36=2,99/5=2) pseudo=read geom=check gue
 ss=(read,tcheck) scf=(maxcycle=1)
 ----------------------------------------------------------------------
 -----
 title
 -----
 Structure from the checkpoint file:  "1-1-ethenediyl_dicyanate.chk"
 Charge =  0 Multiplicity = 1

                         Standard orientation:
 ---------------------------------------------------------------------
 Center     Atomic      Atomic             Coordinates (Angstroms)
 Number     Number       Type             X           Y           Z
 ---------------------------------------------------------------------
      1          8           0        1.086627   -0.768894   -0.000019
      2          8           0       -1.086627   -0.768894   -0.000018
      3          7           0        3.344570    0.172429    0.000005
      4          7           0       -3.344570    0.172429    0.000011
      5          6           0        0.000000    0.087074   -0.000001
      6          6           0        2.270510   -0.244533   -0.000005
      7          6           0       -2.270510   -0.244533   -0.000002
      8          6           0        0.000000    1.401601    0.000027
      9          1           0       -0.931172    1.945319    0.000038
     10          1           0        0.931172    1.945319    0.000038
 ---------------------------------------------------------------------

 SCF Done:  E(RHF) =  -411.332417735     A.U. after    2 cycles

 The electronic state is 1-A.
 Alpha  occ. eigenvalues --  -20.73656 -20.73654 -15.67583 -15.67583 -11.46246
 Alpha  occ. eigenvalues --  -11.38863 -11.38862 -11.29834  -1.54412  -1.49027
 Alpha  occ. eigenvalues --   -1.23404  -1.22602  -1.12236  -1.01972  -0.88323
 Alpha  occ. eigenvalues --   -0.80058  -0.78358  -0.78091  -0.71940  -0.69247
 Alpha  occ. eigenvalues --   -0.63719  -0.58760  -0.58543  -0.51159  -0.50379
 Alpha  occ. eigenvalues --   -0.50024  -0.48399  -0.42945
 Alpha virt. eigenvalues --    0.02828   0.05272   0.05652   0.06939   0.07053
 Alpha virt. eigenvalues --    0.09011   0.09229   0.09907   0.10647   0.11906
 Alpha virt. eigenvalues --    0.13243   0.14324   0.14546   0.14581   0.16205

 Mulliken charges:
               1
     1  O   -0.354036
     2  O   -0.354036
     3  N   -0.004358
     4  N   -0.004358
     5  C    1.477251
     6  C   -0.450315
     7  C   -0.450315
     8  C    0.709586
     9  H   -0.284709
    10  H   -0.284709
 Sum of Mulliken charges =  -0.00000

 Dipole moment (field-independent basis, Debye):
    X=             -0.0000    Y=              0.6667    Z=              0.0000  Tot=              0.6667

 Test job not archived.
 1\1\GINC-SE188\SP\RHF\Aug-CC-pVDZ\C4H2N2O2\OHZDE\05-Apr-2025\0\\#t hf
 aug-cc-pvdz iop(5/13=1,5/36=2,99/5=2) pseudo=read geom=check guess=(re
 ad,tcheck) scf=(maxcycle=1)\\title\\0,1\O,0,1.086627,-0.768894,-0.0000
 19\O,0,-1.086627,-0.768894,-0.000018\N,0,3.34457,0.172429,0.000005\N,0
 ,-3.34457,0.172429,0.000011\C,0,0.,0.087074,-0.000001\C,0,2.27051,-0.2
 44533,-0.000005\C,0,-2.27051,-0.244533,-0.000002\C,0,0.,1.401601,0.000
 027\H,0,-0.931172,1.945319,0.000038\H,0,0.931172,1.945319,0.000038\\Ve
 rsion=ES64L-G16RevC.01\State=1-A\HF=-411.3324177\RMSD=5.149e-03\Dipole

 Normal termination of Gaussian 16 at Sat Apr  5 22:06:39 2025.
