 Gaussian 16, Revision C.01,

 ----------------------------------------------------------------------
 #t hf aug-cc-pvdz symm=none int=(grid=ultrafine) guess=(read,tcheck) s
 table=(opt,rrhf)
 ----------------------------------------------------------------------
 -----
 title
 -----
 Symbolic Z-matrix:
 Charge =  0 Multiplicity = 1

 SCF Done:  E(RHF) =  -507.425402708     A.U. after   16 cycles
 Normal termination of Gaussian 16 at Sat Apr  5 22:08:35 2025.
 Gaussian 16:  ES64L-G16RevC.01  3-Jul-2019

 ----------------------------------------------------------------------
 #t hf aug-cc-pvdz iop(5/13=1,5/36=2,99/5=2) pseudo=read geom=check gue
 ss=(read,tcheck) scf=(maxcycle=1)
 ----------------------------------------------------------------------
 -----
 title
 -----
 Structure from the checkpoint file:  "1-1H-pyrrol-2-yl-3H-imidazol-2-one.chk"
 Charge =  0 Multiplicity = 1

                         Standard orientation:
 ---------------------------------------------------------------------
 Center     Atomic      Atomic             Coordinates (Angstroms)
 Number     Number       Type             X           Y           Z
 ---------------------------------------------------------------------
      1          6           0        2.000783   -2.375333   -0.000000
      2          6           0        1.952841   -0.953690   -0.000000
      3          6           0        0.709392   -2.839143    0.000000
      4          6           0        0.619213   -0.612080   -0.000000
      5          6           0       -0.282242    2.841230   -0.000000
      6          6           0        0.654875    1.876810   -0.000000
      7          6           0       -1.378739    0.841614    0.000000
      8          7           0       -0.129515   -1.752458    0.000000
      9          7           0       -1.520850    2.212219    0.000000
     10          7           0        0.000000    0.643566   -0.000000
     11          8           0       -2.261036   -0.010039    0.000000
     12          1           0        2.889351   -2.982383   -0.000000
     13          1           0        2.791003   -0.279563   -0.000000
     14          1           0        0.317417   -3.839971    0.000000
     15          1           0       -0.176176    3.909258   -0.000000
     16          1           0        1.724825    1.950503   -0.000000
     17          1           0       -1.139214   -1.728251    0.000000
     18          1           0       -2.423096    2.650993    0.000000
 ---------------------------------------------------------------------

 SCF Done:  E(RHF) =  -507.577898755     A.U. after    2 cycles

 The electronic state is 1-A'.
 Alpha  occ. eigenvalues --  -20.54393 -15.69758 -15.68651 -15.66267 -11.40868
 Alpha  occ. eigenvalues --  -11.31675 -11.30126 -11.29696 -11.25788 -11.22101
 Alpha  occ. eigenvalues --  -11.22009  -1.38476  -1.29884  -1.27283  -1.19153
 Alpha  occ. eigenvalues --   -1.03791  -1.03002  -0.97844  -0.87185  -0.85772
 Alpha  occ. eigenvalues --   -0.79082  -0.77282  -0.74543  -0.72085  -0.67054
 Alpha  occ. eigenvalues --   -0.65633  -0.64016  -0.63426  -0.61126  -0.59834
 Alpha  occ. eigenvalues --   -0.57826  -0.55662  -0.54145  -0.51442  -0.47751
 Alpha  occ. eigenvalues --   -0.46986  -0.35029  -0.33852  -0.27618
 Alpha virt. eigenvalues --    0.02332   0.03459   0.04005   0.05337   0.05600
 Alpha virt. eigenvalues --    0.07370   0.07684   0.08064   0.10419   0.10611
 Alpha virt. eigenvalues --    0.11523   0.11964   0.12099   0.13514   0.13910

 Mulliken charges:
               1
     1  C    0.390780
     2  C    1.111993
     3  C    0.802264
     4  C   -0.491789
     5  C    0.830051
     6  C    0.719299
     7  C    0.499262
     8  N   -0.222852
     9  N   -0.451120
    10  N   -0.524495
    11  O   -0.511414
    12  H   -0.374738
    13  H   -0.507650
    14  H   -0.392016
    15  H   -0.237490
    16  H   -0.452972
    17  H   -0.055178
    18  H   -0.131934
 Sum of Mulliken charges =  -0.00000

 Dipole moment (field-independent basis, Debye):
    X=              0.7093    Y=              3.7794    Z=             -0.0000  Tot=              3.8454

 Test job not archived.
 1\1\GINC-SE188\SP\RHF\Aug-CC-pVDZ\C7H7N3O1\OHZDE\05-Apr-2025\0\\#t hf
 aug-cc-pvdz iop(5/13=1,5/36=2,99/5=2) pseudo=read geom=check guess=(re
 ad,tcheck) scf=(maxcycle=1)\\title\\0,1\C,0,2.000783,-2.375333,0.\C,0,
 1.952841,-0.95369,0.\C,0,0.709392,-2.839143,0.\C,0,0.619213,-0.61208,0
 .\C,0,-0.282242,2.84123,0.\C,0,0.654875,1.87681,0.\C,0,-1.378739,0.841
 614,0.\N,0,-0.129515,-1.752458,0.\N,0,-1.52085,2.212219,0.\N,0,0.,0.64
 3566,0.\O,0,-2.261036,-0.010039,0.\H,0,2.889351,-2.982383,0.\H,0,2.791
 003,-0.279563,0.\H,0,0.317417,-3.839971,0.\H,0,-0.176176,3.909258,0.\H

 Normal termination of Gaussian 16 at Sat Apr  5 22:08:46 2025.
