 Gaussian 16, Revision C.01,

 ----------------------------------------------------------------------
 #t hf aug-cc-pvdz symm=none int=(grid=ultrafine) guess=(read,tcheck) s
 table=(opt,rrhf)
 ----------------------------------------------------------------------
 -----
 title
 -----
 Symbolic Z-matrix:
 Charge =  0 Multiplicity = 1

 SCF Done:  E(RHF) =  -377.330351355     A.U. after   13 cycles
 Normal termination of Gaussian 16 at Sat Apr  5 22:07:15 2025.
 Gaussian 16:  ES64L-G16RevC.01  3-Jul-2019

 ----------------------------------------------------------------------
 #t hf aug-cc-pvdz iop(5/13=1,5/36=2,99/5=2) pseudo=read geom=check gue
 ss=(read,tcheck) scf=(maxcycle=1)
 ----------------------------------------------------------------------
 -----
 title
 -----
 Structure from the checkpoint file:  "1-2-4-5-tetraoxane.chk"
 Charge =  0 Multiplicity = 1

                         Standard orientation:
 ---------------------------------------------------------------------
 Center     Atomic      Atomic             Coordinates (Angstroms)
 Number     Number       Type             X           Y           Z
 ---------------------------------------------------------------------
      1          8           0        0.667290    1.027732   -0.440985
      2          8           0        1.225661    0.020424    0.440386
      3          8           0       -1.225661   -0.020424    0.440386
      4          8           0       -0.667290   -1.027732   -0.440985
      5          6           0       -0.667290    1.205624    0.000454
      6          6           0        0.667290   -1.205624    0.000454
      7          1           0       -0.743907    1.858599    0.874591
      8          1           0       -1.180482    1.619002   -0.872517
      9          1           0        1.180482   -1.619002   -0.872517
     10          1           0        0.743907   -1.858599    0.874591
 ---------------------------------------------------------------------

 SCF Done:  E(RHF) =  -377.451541104     A.U. after    2 cycles

 The electronic state is 1-A.
 Alpha  occ. eigenvalues --  -20.66429 -20.66427 -20.66400 -20.66399 -11.37259
 Alpha  occ. eigenvalues --  -11.37257  -1.50075  -1.41801  -1.28582  -1.20037
 Alpha  occ. eigenvalues --   -0.96442  -0.86335  -0.77324  -0.77109  -0.76625
 Alpha  occ. eigenvalues --   -0.66120  -0.64768  -0.61064  -0.60808  -0.60704
 Alpha  occ. eigenvalues --   -0.57788  -0.51926  -0.49045  -0.47001
 Alpha virt. eigenvalues --    0.03702   0.04564   0.05112   0.05890   0.08750
 Alpha virt. eigenvalues --    0.08923   0.10327   0.13973   0.15569   0.15740
 Alpha virt. eigenvalues --    0.16889   0.17188   0.17451   0.18201   0.21273

 Mulliken charges:
               1
     1  O   -0.455204
     2  O   -0.455814
     3  O   -0.455814
     4  O   -0.455204
     5  C    1.229528
     6  C    1.229528
     7  H   -0.159244
     8  H   -0.159267
     9  H   -0.159267
    10  H   -0.159244
 Sum of Mulliken charges =   0.00000

 Dipole moment (field-independent basis, Debye):
    X=              0.0000    Y=             -0.0000    Z=              0.0029  Tot=              0.0029

 Test job not archived.
 1\1\GINC-SE115\SP\RHF\Aug-CC-pVDZ\C2H4O4\OHZDE\05-Apr-2025\0\\#t hf au
 g-cc-pvdz iop(5/13=1,5/36=2,99/5=2) pseudo=read geom=check guess=(read
 ,tcheck) scf=(maxcycle=1)\\title\\0,1\O,0,0.66729,1.027732,-0.440985\O
 ,0,1.225661,0.020424,0.440386\O,0,-1.225661,-0.020424,0.440386\O,0,-0.
 66729,-1.027732,-0.440985\C,0,-0.66729,1.205624,0.000454\C,0,0.66729,-
 1.205624,0.000454\H,0,-0.743907,1.858599,0.874591\H,0,-1.180482,1.6190
 02,-0.872517\H,0,1.180482,-1.619002,-0.872517\H,0,0.743907,-1.858599,0
 .874591\\Version=ES64L-G16RevC.01\State=1-A\HF=-377.4515411\RMSD=2.450

 Normal termination of Gaussian 16 at Sat Apr  5 22:07:18 2025.
