 Gaussian 16, Revision C.01,

 ----------------------------------------------------------------------
 #t hf aug-cc-pvdz symm=none int=(grid=ultrafine) guess=(read,tcheck) s
 table=(opt,rrhf)
 ----------------------------------------------------------------------
 -----
 title
 -----
 Symbolic Z-matrix:
 Charge =  0 Multiplicity = 1

 SCF Done:  E(RHF) =  -1146.72338554     A.U. after   14 cycles
 Normal termination of Gaussian 16 at Sat Apr  5 22:07:41 2025.
 Gaussian 16:  ES64L-G16RevC.01  3-Jul-2019

 ----------------------------------------------------------------------
 #t hf aug-cc-pvdz iop(5/13=1,5/36=2,99/5=2) pseudo=read geom=check gue
 ss=(read,tcheck) scf=(maxcycle=1)
 ----------------------------------------------------------------------
 -----
 title
 -----
 Structure from the checkpoint file:  "1-2-dichloroethyl_hydroperoxide.chk"
 Charge =  0 Multiplicity = 1

                         Standard orientation:
 ---------------------------------------------------------------------
 Center     Atomic      Atomic             Coordinates (Angstroms)
 Number     Number       Type             X           Y           Z
 ---------------------------------------------------------------------
      1         17           0       -0.802776    1.542890   -0.140419
      2         17           0        2.113305   -0.235887   -0.445398
      3          8           0       -0.818187   -1.131783   -0.204327
      4          8           0       -2.257807   -1.225852   -0.211671
      5          6           0       -0.450958   -0.091853    0.628640
      6          6           0        1.015455   -0.237799    0.975858
      7          1           0       -1.051458   -0.091718    1.536612
      8          1           0        1.314562    0.581471    1.620958
      9          1           0        1.157889   -1.186487    1.487459
     10          1           0       -2.479028   -0.683324   -0.985157
 ---------------------------------------------------------------------

 SCF Done:  E(RHF) =  -1146.83210580     A.U. after    2 cycles

 The electronic state is 1-A.
 Alpha  occ. eigenvalues -- -103.66540-103.66443 -20.68029 -20.67033 -11.39645
 Alpha  occ. eigenvalues --  -11.33418 -10.69851 -10.69717  -8.35558  -8.35443
 Alpha  occ. eigenvalues --   -8.35282  -8.35262  -8.35136  -8.35125  -1.47330
 Alpha  occ. eigenvalues --   -1.26406  -1.17763  -1.15197  -1.00490  -0.85907
 Alpha  occ. eigenvalues --   -0.78642  -0.71641  -0.70388  -0.67054  -0.62250
 Alpha  occ. eigenvalues --   -0.58499  -0.56537  -0.54847  -0.50475  -0.48098
 Alpha  occ. eigenvalues --   -0.46962  -0.46197  -0.45748
 Alpha virt. eigenvalues --    0.03318   0.04469   0.05348   0.05633   0.07994
 Alpha virt. eigenvalues --    0.09403   0.11937   0.12905   0.13712   0.14237
 Alpha virt. eigenvalues --    0.14915   0.15888   0.16588   0.16863   0.17317

 Mulliken charges:
               1
     1  Cl  -0.175148
     2  Cl  -0.069396
     3  O   -0.409518
     4  O   -0.278981
     5  C    0.435852
     6  C    0.077137
     7  H    0.017349
     8  H    0.078515
     9  H    0.078549
    10  H    0.245640
 Sum of Mulliken charges =  -0.00000

 Dipole moment (field-independent basis, Debye):
    X=             -0.7861    Y=              0.1232    Z=              2.0256  Tot=              2.1763

 Test job not archived.
 1\1\GINC-SE180\SP\RHF\Aug-CC-pVDZ\C2H4Cl2O2\OHZDE\05-Apr-2025\0\\#t hf
  aug-cc-pvdz iop(5/13=1,5/36=2,99/5=2) pseudo=read geom=check guess=(r
 ead,tcheck) scf=(maxcycle=1)\\title\\0,1\Cl,0,-0.802776,1.54289,-0.140
 419\Cl,0,2.113305,-0.235887,-0.445398\O,0,-0.818187,-1.131783,-0.20432
 7\O,0,-2.257807,-1.225852,-0.211671\C,0,-0.450958,-0.091853,0.62864\C,
 0,1.015455,-0.237799,0.975858\H,0,-1.051458,-0.091718,1.536612\H,0,1.3
 14562,0.581471,1.620958\H,0,1.157889,-1.186487,1.487459\H,0,-2.479028,
 -0.683324,-0.985157\\Version=ES64L-G16RevC.01\State=1-A\HF=-1146.83210

 Normal termination of Gaussian 16 at Sat Apr  5 22:07:44 2025.
