 Gaussian 16, Revision C.01,

 ----------------------------------------------------------------------
 #t hf aug-cc-pvdz symm=none int=(grid=ultrafine) guess=(read,tcheck) s
 table=(opt,rrhf)
 ----------------------------------------------------------------------
 -----
 title
 -----
 Symbolic Z-matrix:
 Charge =  0 Multiplicity = 1

 SCF Done:  E(RHF) =  -282.734519810     A.U. after   14 cycles
 Normal termination of Gaussian 16 at Sat Apr  5 22:07:14 2025.
 Gaussian 16:  ES64L-G16RevC.01  3-Jul-2019

 ----------------------------------------------------------------------
 #t hf aug-cc-pvdz iop(5/13=1,5/36=2,99/5=2) pseudo=read geom=check gue
 ss=(read,tcheck) scf=(maxcycle=1)
 ----------------------------------------------------------------------
 -----
 title
 -----
 Structure from the checkpoint file:  "1-2-4-dioxazolidine.chk"
 Charge =  0 Multiplicity = 1

                         Standard orientation:
 ---------------------------------------------------------------------
 Center     Atomic      Atomic             Coordinates (Angstroms)
 Number     Number       Type             X           Y           Z
 ---------------------------------------------------------------------
      1          8           0       -0.804675   -0.888675   -0.282832
      2          8           0        0.593730   -1.074263    0.088267
      3          7           0        0.083190    1.201711   -0.098487
      4          6           0       -1.066718    0.402828    0.261301
      5          6           0        1.178668    0.263370    0.057915
      6          1           0       -1.160115    0.336301    1.347953
      7          1           0       -1.985775    0.765929   -0.193125
      8          1           0        1.887206    0.349577   -0.766514
      9          1           0        1.686490    0.379911    1.015848
     10          1           0        0.005721    1.462625   -1.073532
 ---------------------------------------------------------------------

 SCF Done:  E(RHF) =  -282.823636096     A.U. after    2 cycles

 The electronic state is 1-A.
 Alpha  occ. eigenvalues --  -20.63960 -20.63481 -15.64145 -11.33394 -11.33386
 Alpha  occ. eigenvalues --   -1.44085  -1.21087  -1.19569  -0.90989  -0.88189
 Alpha  occ. eigenvalues --   -0.74797  -0.71679  -0.66215  -0.64655  -0.57843
 Alpha  occ. eigenvalues --   -0.56583  -0.56007  -0.52007  -0.45937  -0.42457
 Alpha virt. eigenvalues --    0.03331   0.04199   0.04325   0.06670   0.06955
 Alpha virt. eigenvalues --    0.09646   0.10152   0.12664   0.14462   0.15732
 Alpha virt. eigenvalues --    0.16491   0.16777   0.17633   0.18671   0.19759

 Mulliken charges:
               1
     1  O   -0.447495
     2  O   -0.486995
     3  N   -0.593413
     4  C    1.089362
     5  C    1.074935
     6  H   -0.146749
     7  H   -0.178201
     8  H   -0.166436
     9  H   -0.203630
    10  H    0.058623
 Sum of Mulliken charges =  -0.00000

 Dipole moment (field-independent basis, Debye):
    X=              0.1099    Y=              2.5403    Z=             -0.3395  Tot=              2.5652

 Test job not archived.
 1\1\GINC-SE165\SP\RHF\Aug-CC-pVDZ\C2H5N1O2\OHZDE\05-Apr-2025\0\\#t hf
 aug-cc-pvdz iop(5/13=1,5/36=2,99/5=2) pseudo=read geom=check guess=(re
 ad,tcheck) scf=(maxcycle=1)\\title\\0,1\O,0,-0.804673,-0.888677,-0.282
 832\O,0,0.593732,-1.074262,0.088267\N,0,0.083188,1.201711,-0.098487\C,
 0,-1.066719,0.402826,0.261301\C,0,1.178668,0.263372,0.057915\H,0,-1.16
 0116,0.336299,1.347953\H,0,-1.985776,0.765925,-0.193125\H,0,1.887205,0
 .34958,-0.766514\H,0,1.686489,0.379914,1.015848\H,0,0.005718,1.462625,
 -1.073532\\Version=ES64L-G16RevC.01\State=1-A\HF=-282.8236361\RMSD=2.4

 Normal termination of Gaussian 16 at Sat Apr  5 22:07:17 2025.
