 Gaussian 16, Revision C.01,

 ----------------------------------------------------------------------
 #t hf aug-cc-pvdz symm=none int=(grid=ultrafine) guess=(read,tcheck) s
 table=(opt,rrhf)
 ----------------------------------------------------------------------
 -----
 title
 -----
 Symbolic Z-matrix:
 Charge =  0 Multiplicity = 1

 SCF Done:  E(RHF) =  -230.602117174     A.U. after   12 cycles
 Normal termination of Gaussian 16 at Sat Apr  5 22:07:06 2025.
 Gaussian 16:  ES64L-G16RevC.01  3-Jul-2019

 ----------------------------------------------------------------------
 #t hf aug-cc-pvdz iop(5/13=1,5/36=2,99/5=2) pseudo=read geom=check gue
 ss=(read,tcheck) scf=(maxcycle=1)
 ----------------------------------------------------------------------
 -----
 title
 -----
 Structure from the checkpoint file:  "1-2-4-5-hexatetraene.chk"
 Charge =  0 Multiplicity = 1

                         Standard orientation:
 ---------------------------------------------------------------------
 Center     Atomic      Atomic             Coordinates (Angstroms)
 Number     Number       Type             X           Y           Z
 ---------------------------------------------------------------------
      1          6           0       -1.082759    1.467406    0.000000
      2          6           0       -2.155944    2.199238    0.000000
      3          6           0        0.000000    0.731453    0.000000
      4          6           0       -0.000007   -0.731463    0.000000
      5          6           0        1.082753   -1.467415    0.000000
      6          6           0        2.155946   -2.199235    0.000000
      7          1           0       -2.623852    2.519476    0.924515
      8          1           0       -2.623852    2.519476   -0.924515
      9          1           0        0.966558    1.224888    0.000000
     10          1           0       -0.966564   -1.224897    0.000000
     11          1           0        2.623889   -2.519421   -0.924515
     12          1           0        2.623889   -2.519421    0.924515
 ---------------------------------------------------------------------

 SCF Done:  E(RHF) =  -230.675727741     A.U. after    2 cycles

 The electronic state is 1-A'.
 Alpha  occ. eigenvalues --  -11.27026 -11.27026 -11.26177 -11.26107 -11.25201
 Alpha  occ. eigenvalues --  -11.25200  -1.10703  -1.05765  -0.99437  -0.92134
 Alpha  occ. eigenvalues --   -0.73082  -0.71918  -0.66042  -0.63460  -0.61592
 Alpha  occ. eigenvalues --   -0.61231  -0.57850  -0.45121  -0.39682  -0.38044
 Alpha  occ. eigenvalues --   -0.32634
 Alpha virt. eigenvalues --    0.03565   0.03982   0.05001   0.05017   0.05876
 Alpha virt. eigenvalues --    0.05907   0.09786   0.10176   0.10377   0.11189
 Alpha virt. eigenvalues --    0.11506   0.12041   0.12646   0.14395   0.14588

 Mulliken charges:
               1
     1  C   -0.857974
     2  C    0.873543
     3  C    0.812660
     4  C    0.812653
     5  C   -0.857978
     6  C    0.873555
     7  H   -0.218709
     8  H   -0.218709
     9  H   -0.390812
    10  H   -0.390812
    11  H   -0.218709
    12  H   -0.218709
 Sum of Mulliken charges =  -0.00000

 Dipole moment (field-independent basis, Debye):
    X=              0.0001    Y=              0.0001    Z=              0.0000  Tot=              0.0001

 Test job not archived.
 1\1\GINC-SE085\SP\RHF\Aug-CC-pVDZ\C6H6\OHZDE\05-Apr-2025\0\\#t hf aug-
 cc-pvdz iop(5/13=1,5/36=2,99/5=2) pseudo=read geom=check guess=(read,t
 check) scf=(maxcycle=1)\\title\\0,1\C,0,0.604942,1.720376,0.\C,0,0.606
 915,3.019337,0.\C,0,0.604942,0.41118,0.\C,0,-0.604954,-0.41118,0.\C,0,
 -0.604953,-1.720376,0.\C,0,-0.606912,-3.019337,0.\H,0,0.608735,3.58633
 5,0.924515\H,0,0.608735,3.586335,-0.924515\H,0,1.556375,-0.110823,0.\H
 ,0,-1.556386,0.110823,0.\H,0,-0.608669,-3.586335,-0.924515\H,0,-0.6086
 69,-3.586335,0.924515\\Version=ES64L-G16RevC.01\State=1-A'\HF=-230.675

 Normal termination of Gaussian 16 at Sat Apr  5 22:07:12 2025.
