 Gaussian 16, Revision C.01,

 ----------------------------------------------------------------------
 #t hf aug-cc-pvdz symm=none int=(grid=ultrafine) guess=(read,tcheck) s
 table=(opt,rrhf)
 ----------------------------------------------------------------------
 -----
 title
 -----
 Symbolic Z-matrix:
 Charge =  0 Multiplicity = 1

 SCF Done:  E(RHF) =  -1181.65845865     A.U. after   16 cycles
 Normal termination of Gaussian 16 at Sat Apr  5 22:08:35 2025.
 Gaussian 16:  ES64L-G16RevC.01  3-Jul-2019

 ----------------------------------------------------------------------
 #t hf aug-cc-pvdz iop(5/13=1,5/36=2,99/5=2) pseudo=read geom=check gue
 ss=(read,tcheck) scf=(maxcycle=1)
 ----------------------------------------------------------------------
 -----
 title
 -----
 Structure from the checkpoint file:  "1-2-dichloro-1-2-dihydropyrimidine.chk"
 Charge =  0 Multiplicity = 1

                         Standard orientation:
 ---------------------------------------------------------------------
 Center     Atomic      Atomic             Coordinates (Angstroms)
 Number     Number       Type             X           Y           Z
 ---------------------------------------------------------------------
      1         17           0        0.166446    2.029748   -0.534405
      2         17           0       -2.226375   -0.504117    0.180096
      3          7           0       -0.509875   -0.569838    0.156783
      4          7           0        1.549944    0.221170    0.996445
      5          6           0        0.208766    0.520260    0.714401
      6          6           0        0.106052   -1.471911   -0.652182
      7          6           0        1.460676   -1.542010   -0.638384
      8          6           0        2.129257   -0.705879    0.304895
      9          1           0       -0.325278    0.953353    1.547915
     10          1           0       -0.533226   -2.118979   -1.232017
     11          1           0        1.984941   -2.262604   -1.244494
     12          1           0        3.183372   -0.869602    0.506885
 ---------------------------------------------------------------------

 SCF Done:  E(RHF) =  -1181.77149466     A.U. after    2 cycles

 The electronic state is 1-A.
 Alpha  occ. eigenvalues -- -103.73262-103.62083 -15.74557 -15.64305 -11.39972
 Alpha  occ. eigenvalues --  -11.34835 -11.32587 -11.26272 -10.76176 -10.65367
 Alpha  occ. eigenvalues --   -8.41947  -8.41550  -8.41498  -8.31046  -8.30799
 Alpha  occ. eigenvalues --   -8.30794  -1.34437  -1.23995  -1.13840  -1.11783
 Alpha  occ. eigenvalues --   -1.05631  -0.92893  -0.90329  -0.77035  -0.73265
 Alpha  occ. eigenvalues --   -0.70103  -0.67270  -0.64066  -0.62780  -0.58219
 Alpha  occ. eigenvalues --   -0.55221  -0.52137  -0.49015  -0.46345  -0.43576
 Alpha  occ. eigenvalues --   -0.43337  -0.42605  -0.33765
 Alpha virt. eigenvalues --    0.02577   0.03710   0.04524   0.05663   0.05932
 Alpha virt. eigenvalues --    0.06847   0.08282   0.10029   0.10919   0.12283
 Alpha virt. eigenvalues --    0.12485   0.12750   0.12887   0.13557   0.14304

 Mulliken charges:
               1
     1  Cl  -0.226187
     2  Cl   0.270005
     3  N   -0.655947
     4  N   -0.485420
     5  C    0.708425
     6  C    0.624120
     7  C    0.683460
     8  C    0.300230
     9  H   -0.163359
    10  H   -0.386192
    11  H   -0.373093
    12  H   -0.296042
 Sum of Mulliken charges =  -0.00000

 Dipole moment (field-independent basis, Debye):
    X=             -0.3376    Y=             -4.7139    Z=             -0.2606  Tot=              4.7331

 Test job not archived.
 1\1\GINC-SE115\SP\RHF\Aug-CC-pVDZ\C4H4Cl2N2\OHZDE\05-Apr-2025\0\\#t hf
  aug-cc-pvdz iop(5/13=1,5/36=2,99/5=2) pseudo=read geom=check guess=(r
 ead,tcheck) scf=(maxcycle=1)\\title\\0,1\Cl,0,0.166446,2.029748,-0.534
 405\Cl,0,-2.226375,-0.504117,0.180096\N,0,-0.509875,-0.569838,0.156783
 \N,0,1.549944,0.22117,0.996445\C,0,0.208766,0.52026,0.714401\C,0,0.106
 052,-1.471911,-0.652182\C,0,1.460676,-1.54201,-0.638384\C,0,2.129257,-
 0.705879,0.304895\H,0,-0.325278,0.953353,1.547915\H,0,-0.533226,-2.118
 979,-1.232017\H,0,1.984941,-2.262604,-1.244494\H,0,3.183372,-0.869602,

 Normal termination of Gaussian 16 at Sat Apr  5 22:08:41 2025.
