 Gaussian 16, Revision C.01,

 ----------------------------------------------------------------------
 #t hf aug-cc-pvdz symm=none int=(grid=ultrafine) guess=(read,tcheck) s
 table=(opt,rrhf)
 ----------------------------------------------------------------------
 -----
 title
 -----
 Symbolic Z-matrix:
 Charge =  0 Multiplicity = 1

 SCF Done:  E(RHF) =  -549.094391891     A.U. after   16 cycles
 Normal termination of Gaussian 16 at Sat Apr  5 22:12:06 2025.
 Gaussian 16:  ES64L-G16RevC.01  3-Jul-2019

 ----------------------------------------------------------------------
 #t hf aug-cc-pvdz iop(5/13=1,5/36=2,99/5=2) pseudo=read geom=check gue
 ss=(read,tcheck) scf=(maxcycle=1)
 ----------------------------------------------------------------------
 -----
 title
 -----
 Structure from the checkpoint file:  "1-2-furylpyridin-2-one.chk"
 Charge =  0 Multiplicity = 1

                         Standard orientation:
 ---------------------------------------------------------------------
 Center     Atomic      Atomic             Coordinates (Angstroms)
 Number     Number       Type             X           Y           Z
 ---------------------------------------------------------------------
      1          6           0       -3.194575   -0.313665    0.532954
      2          6           0       -1.888732   -0.508814    1.083438
      3          6           0       -3.009799    0.096865   -0.744869
      4          6           0       -1.019311   -0.203012    0.091580
      5          6           0        3.135362   -0.257975   -0.067413
      6          6           0        2.506179    0.937102    0.061393
      7          6           0        2.396422   -1.469775   -0.153237
      8          6           0        1.044926   -1.406409   -0.107584
      9          6           0        1.064931    1.048883    0.123453
     10          7           0        0.385002   -0.209485    0.027326
     11          8           0        0.429863    2.079331    0.252424
     12          8           0       -1.682395    0.164204   -1.036752
     13          1           0       -4.138874   -0.452415    1.029472
     14          1           0       -1.631730   -0.812260    2.082940
     15          1           0       -3.678984    0.370087   -1.539794
     16          1           0        4.216627   -0.293566   -0.105985
     17          1           0        3.049817    1.867462    0.131301
     18          1           0        2.886862   -2.424324   -0.258784
     19          1           0        0.409095   -2.276074   -0.174091
 ---------------------------------------------------------------------

 SCF Done:  E(RHF) =  -549.260985854     A.U. after    2 cycles

 The electronic state is 1-A.
 Alpha  occ. eigenvalues --  -20.64595 -20.53439 -15.70083 -11.37247 -11.34569
 Alpha  occ. eigenvalues --  -11.32234 -11.30693 -11.28436 -11.25246 -11.25189
 Alpha  occ. eigenvalues --  -11.25164 -11.24719  -1.43620  -1.35199  -1.26117
 Alpha  occ. eigenvalues --   -1.11932  -1.08904  -1.03106  -1.00435  -0.89295
 Alpha  occ. eigenvalues --   -0.86976  -0.83308  -0.79559  -0.76696  -0.71490
 Alpha  occ. eigenvalues --   -0.70541  -0.67242  -0.65395  -0.64478  -0.62778
 Alpha  occ. eigenvalues --   -0.62274  -0.59247  -0.58566  -0.57346  -0.56281
 Alpha  occ. eigenvalues --   -0.54791  -0.50100  -0.44648  -0.43088  -0.41516
 Alpha  occ. eigenvalues --   -0.33464  -0.32076
 Alpha virt. eigenvalues --    0.02808   0.03330   0.04108   0.04384   0.05271
 Alpha virt. eigenvalues --    0.05907   0.06465   0.06910   0.09210   0.10236
 Alpha virt. eigenvalues --    0.10490   0.10932   0.11675   0.12078   0.12704

 Mulliken charges:
               1
     1  C    0.585942
     2  C    0.798355
     3  C    0.565487
     4  C    0.053394
     5  C   -0.094405
     6  C    0.998656
     7  C    0.500899
     8  C    0.943824
     9  C    0.147674
    10  N   -0.437693
    11  O   -0.503712
    12  O   -0.586090
    13  H   -0.309070
    14  H   -0.430185
    15  H   -0.373010
    16  H   -0.409367
    17  H   -0.489553
    18  H   -0.448243
    19  H   -0.512904
 Sum of Mulliken charges =   0.00000

 Dipole moment (field-independent basis, Debye):
    X=              0.6969    Y=             -4.5510    Z=              0.3640  Tot=              4.6184

 Test job not archived.
 1\1\GINC-SE052\SP\RHF\Aug-CC-pVDZ\C9H7N1O2\OHZDE\05-Apr-2025\0\\#t hf
 aug-cc-pvdz iop(5/13=1,5/36=2,99/5=2) pseudo=read geom=check guess=(re
 ad,tcheck) scf=(maxcycle=1)\\title\\0,1\C,0,-3.194575,-0.313665,0.5329
 54\C,0,-1.888732,-0.508814,1.083438\C,0,-3.009799,0.096865,-0.744869\C
 ,0,-1.019311,-0.203012,0.09158\C,0,3.135362,-0.257975,-0.067413\C,0,2.
 506179,0.937102,0.061393\C,0,2.396422,-1.469775,-0.153237\C,0,1.044926
 ,-1.406409,-0.107584\C,0,1.064931,1.048883,0.123453\N,0,0.385002,-0.20
 9485,0.027326\O,0,0.429863,2.079331,0.252424\O,0,-1.682395,0.164204,-1

 Normal termination of Gaussian 16 at Sat Apr  5 22:13:01 2025.
