 Gaussian 16, Revision C.01,

 ----------------------------------------------------------------------
 #t hf aug-cc-pvdz symm=none int=(grid=ultrafine) guess=(read,tcheck) s
 table=(opt,rrhf)
 ----------------------------------------------------------------------
 -----
 title
 -----
 Symbolic Z-matrix:
 Charge =  0 Multiplicity = 1

 SCF Done:  E(RHF) =  -260.600581137     A.U. after   15 cycles
 Normal termination of Gaussian 16 at Sat Apr  5 22:06:41 2025.
 Gaussian 16:  ES64L-G16RevC.01  3-Jul-2019

 ----------------------------------------------------------------------
 #t hf aug-cc-pvdz iop(5/13=1,5/36=2,99/5=2) pseudo=read geom=check gue
 ss=(read,tcheck) scf=(maxcycle=1)
 ----------------------------------------------------------------------
 -----
 title
 -----
 Structure from the checkpoint file:  "1-2-3-oxadiazole.chk"
 Charge =  0 Multiplicity = 1

                         Standard orientation:
 ---------------------------------------------------------------------
 Center     Atomic      Atomic             Coordinates (Angstroms)
 Number     Number       Type             X           Y           Z
 ---------------------------------------------------------------------
      1          8           0       -1.090936    0.355540    0.000000
      2          7           0       -0.611357   -1.025671   -0.000000
      3          7           0        0.631549   -0.984727   -0.000000
      4          6           0        1.095265    0.310964    0.000000
      5          6           0       -0.000000    1.106756    0.000000
      6          1           0        2.142317    0.547367    0.000000
      7          1           0       -0.127759    2.174789    0.000000
 ---------------------------------------------------------------------

 SCF Done:  E(RHF) =  -260.677244492     A.U. after    2 cycles

 The electronic state is 1-A'.
 Alpha  occ. eigenvalues --  -20.67966 -15.76722 -15.71559 -11.34976 -11.29225
 Alpha  occ. eigenvalues --   -1.48667  -1.29514  -1.09436  -0.88155  -0.86102
 Alpha  occ. eigenvalues --   -0.76616  -0.69402  -0.66074  -0.61135  -0.55726
 Alpha  occ. eigenvalues --   -0.51238  -0.47484  -0.38995
 Alpha virt. eigenvalues --    0.02768   0.04158   0.07638   0.08781   0.10086
 Alpha virt. eigenvalues --    0.10341   0.11983   0.13300   0.14181   0.14620
 Alpha virt. eigenvalues --    0.15887   0.18920   0.19259   0.19479   0.21222

 Mulliken charges:
               1
     1  O   -0.532559
     2  N   -0.023723
     3  N   -0.287930
     4  C    0.605846
     5  C    0.654029
     6  H   -0.199419
     7  H   -0.216245
 Sum of Mulliken charges =  -0.00000

 Dipole moment (field-independent basis, Debye):
    X=              1.8056    Y=              3.0266    Z=              0.0000  Tot=              3.5242

 Test job not archived.
 1\1\GINC-SE232\SP\RHF\Aug-CC-pVDZ\C2H2N2O1\OHZDE\05-Apr-2025\0\\#t hf
 aug-cc-pvdz iop(5/13=1,5/36=2,99/5=2) pseudo=read geom=check guess=(re
 ad,tcheck) scf=(maxcycle=1)\\title\\0,1\O,0,-1.090936,0.35554,0.\N,0,-
 0.611357,-1.025671,0.\N,0,0.631549,-0.984727,0.\C,0,1.095265,0.310964,
 0.\C,0,0.,1.106756,0.\H,0,2.142317,0.547367,0.\H,0,-0.127759,2.174789,
 0.\\Version=ES64L-G16RevC.01\State=1-A'\HF=-260.6772445\RMSD=5.342e-03
 \Dipole=0.7103781,1.1907411,0.\Quadrupole=-0.2147698,0.9032505,-0.6884
 807,0.5197369,0.,0.\PG=CS [SG(C2H2N2O1)]\\@

 Normal termination of Gaussian 16 at Sat Apr  5 22:06:43 2025.
