 Gaussian 16, Revision C.01,

 ----------------------------------------------------------------------
 #t hf aug-cc-pvdz symm=none int=(grid=ultrafine) guess=(read,tcheck) s
 table=(opt,rrhf)
 ----------------------------------------------------------------------
 -----
 title
 -----
 Symbolic Z-matrix:
 Charge =  0 Multiplicity = 1

 SCF Done:  E(RHF) =  -982.020538603     A.U. after   15 cycles
 Normal termination of Gaussian 16 at Sat Apr  5 22:06:15 2025.
 Gaussian 16:  ES64L-G16RevC.01  3-Jul-2019

 ----------------------------------------------------------------------
 #t hf aug-cc-pvdz iop(5/13=1,5/36=2,99/5=2) pseudo=read geom=check gue
 ss=(read,tcheck) scf=(maxcycle=1)
 ----------------------------------------------------------------------
 -----
 title
 -----
 Structure from the checkpoint file:  "1-2-3-dithiazolidin-4-imine.chk"
 Charge =  0 Multiplicity = 1

                         Standard orientation:
 ---------------------------------------------------------------------
 Center     Atomic      Atomic             Coordinates (Angstroms)
 Number     Number       Type             X           Y           Z
 ---------------------------------------------------------------------
      1         16           0       -1.169858   -1.011282    0.175331
      2         16           0       -1.142550    1.044339   -0.322638
      3          7           0        0.518150   -1.217936   -0.077229
      4          7           0        2.527323   -0.088721   -0.233399
      5          6           0        1.295329   -0.062239    0.065703
      6          6           0        0.478211    1.133537    0.539987
      7          1           0        0.785257   -1.791625   -0.865407
      8          1           0        2.962650    0.821414   -0.123246
      9          1           0        0.970962    2.062828    0.267287
     10          1           0        0.320110    1.097290    1.618539
 ---------------------------------------------------------------------

 SCF Done:  E(RHF) =  -982.117741203     A.U. after    2 cycles

 The electronic state is 1-A.
 Alpha  occ. eigenvalues --  -93.60361 -93.57665 -15.67423 -15.61638 -11.35574
 Alpha  occ. eigenvalues --  -11.30795  -8.89620  -8.87254  -6.23729  -6.23509
 Alpha  occ. eigenvalues --   -6.23036  -6.21294  -6.21176  -6.20741  -1.26724
 Alpha  occ. eigenvalues --   -1.15503  -1.06650  -0.96218  -0.84131  -0.80096
 Alpha  occ. eigenvalues --   -0.69780  -0.66678  -0.61700  -0.58796  -0.56065
 Alpha  occ. eigenvalues --   -0.51691  -0.46301  -0.45562  -0.41872  -0.38138
 Alpha  occ. eigenvalues --   -0.33731
 Alpha virt. eigenvalues --    0.03258   0.04583   0.04796   0.05417   0.06686
 Alpha virt. eigenvalues --    0.07257   0.10151   0.10669   0.11988   0.12501
 Alpha virt. eigenvalues --    0.12770   0.14006   0.14497   0.14991   0.15779

 Mulliken charges:
               1
     1  S    0.392866
     2  S    0.178578
     3  N   -0.620068
     4  N   -0.405183
     5  C    0.505321
     6  C    0.008091
     7  H   -0.022937
     8  H    0.005639
     9  H   -0.057303
    10  H    0.014996
 Sum of Mulliken charges =  -0.00000

 Dipole moment (field-independent basis, Debye):
    X=             -0.2559    Y=              1.6303    Z=              0.3742  Tot=              1.6922

 Test job not archived.
 1\1\GINC-SE231\SP\RHF\Aug-CC-pVDZ\C2H4N2S2\OHZDE\05-Apr-2025\0\\#t hf
 aug-cc-pvdz iop(5/13=1,5/36=2,99/5=2) pseudo=read geom=check guess=(re
 ad,tcheck) scf=(maxcycle=1)\\title\\0,1\S,0,-1.169858,-1.011282,0.1753
 31\S,0,-1.14255,1.044339,-0.322638\N,0,0.51815,-1.217936,-0.077229\N,0
 ,2.527323,-0.088722,-0.233399\C,0,1.295329,-0.062239,0.065703\C,0,0.47
 8211,1.133537,0.539987\H,0,0.785257,-1.791625,-0.865407\H,0,2.96265,0.
 821413,-0.123246\H,0,0.970963,2.062828,0.267287\H,0,0.32011,1.09729,1.
 618539\\Version=ES64L-G16RevC.01\State=1-A\HF=-982.1177412\RMSD=4.844e

 Normal termination of Gaussian 16 at Sat Apr  5 22:06:39 2025.
