 Gaussian 16, Revision C.01,

 ----------------------------------------------------------------------
 #t hf aug-cc-pvdz symm=none int=(grid=ultrafine) guess=(read,tcheck) s
 table=(opt,rrhf)
 ----------------------------------------------------------------------
 -----
 title
 -----
 Symbolic Z-matrix:
 Charge =  0 Multiplicity = 1

 SCF Done:  E(RHF) =  -531.954613913     A.U. after   18 cycles

 1\1\GINC-SE084\Stability\RHF\Aug-CC-pVDZ\C10H6O2\OHZDE\05-Apr-2025\0\\
 #t hf aug-cc-pvdz symm=none int=(grid=ultrafine) guess=(read,tcheck) s
 table=(opt,rrhf)\\title\\0,1\O,0,1.361068,-2.102147,0.\C,0,1.045295,-0
 .93588,-0.000003\C,0,-0.368855,-0.479577,0.000039\C,0,-0.663338,0.8979
 64,0.000004\C,0,-1.998519,1.302976,-0.000021\C,0,-3.022439,0.362805,-0
 .000027\C,0,-2.725364,-0.995943,-0.000004\C,0,-1.400135,-1.413451,0.00
 0019\C,0,0.412017,1.881771,0.000016\C,0,1.715208,1.558479,0.000033\C,0
 ,2.154699,0.161657,0.000003\O,0,3.320597,-0.165604,-0.000046\H,0,-2.23

 Normal termination of Gaussian 16 at Sat Apr  5 22:12:25 2025.
 Gaussian 16:  ES64L-G16RevC.01  3-Jul-2019

 ----------------------------------------------------------------------
 #t hf aug-cc-pvdz iop(5/13=1,5/36=2,99/5=2) pseudo=read geom=check gue
 ss=(read,tcheck) scf=(maxcycle=1)
 ----------------------------------------------------------------------
 -----
 title
 -----
 Structure from the checkpoint file:  "1-2-naphthalenedione.chk"
 Charge =  0 Multiplicity = 1

                         Standard orientation:
 ---------------------------------------------------------------------
 Center     Atomic      Atomic             Coordinates (Angstroms)
 Number     Number       Type             X           Y           Z
 ---------------------------------------------------------------------
      1          8           0        1.361068   -2.102147   -0.000000
      2          6           0        1.045295   -0.935880   -0.000003
      3          6           0       -0.368855   -0.479577    0.000039
      4          6           0       -0.663338    0.897964    0.000004
      5          6           0       -1.998519    1.302976   -0.000021
      6          6           0       -3.022439    0.362805   -0.000027
      7          6           0       -2.725364   -0.995943   -0.000004
      8          6           0       -1.400135   -1.413451    0.000019
      9          6           0        0.412017    1.881771    0.000016
     10          6           0        1.715208    1.558479    0.000033
     11          6           0        2.154699    0.161657    0.000003
     12          8           0        3.320597   -0.165604   -0.000046
     13          1           0       -2.234107    2.359259   -0.000035
     14          1           0       -4.052746    0.691593   -0.000046
     15          1           0       -3.523054   -1.725709   -0.000000
     16          1           0       -1.145325   -2.463972    0.000055
     17          1           0        0.118437    2.925051    0.000016
     18          1           0        2.492067    2.310977    0.000032
 ---------------------------------------------------------------------

 SCF Done:  E(RHF) =  -532.110044498     A.U. after    2 cycles

 The electronic state is 1-A.
 Alpha  occ. eigenvalues --  -20.58840 -20.58566 -11.36348 -11.35965 -11.29829
 Alpha  occ. eigenvalues --  -11.29143 -11.28027 -11.27747 -11.27650 -11.27628
 Alpha  occ. eigenvalues --  -11.27241 -11.27152  -1.38816  -1.35773  -1.19268
 Alpha  occ. eigenvalues --   -1.12056  -1.05746  -1.03199  -0.95830  -0.88271
 Alpha  occ. eigenvalues --   -0.85529  -0.82944  -0.75117  -0.73442  -0.71227
 Alpha  occ. eigenvalues --   -0.67302  -0.66554  -0.65144  -0.63370  -0.62823
 Alpha  occ. eigenvalues --   -0.60996  -0.58945  -0.55125  -0.54806  -0.53129
 Alpha  occ. eigenvalues --   -0.53090  -0.50502  -0.44472  -0.42645  -0.37237
 Alpha  occ. eigenvalues --   -0.34348
 Alpha virt. eigenvalues --   -0.00313   0.02310   0.03064   0.03991   0.05228
 Alpha virt. eigenvalues --    0.05910   0.06740   0.07568   0.08816   0.09179
 Alpha virt. eigenvalues --    0.10132   0.10455   0.11648   0.11732   0.12356

 Mulliken charges:
               1
     1  O   -0.463126
     2  C   -0.379182
     3  C    1.093726
     4  C   -0.127552
     5  C    0.992103
     6  C    0.302285
     7  C    0.424884
     8  C    0.435083
     9  C    0.474636
    10  C    0.686561
    11  C    0.147468
    12  O   -0.503261
    13  H   -0.558479
    14  H   -0.455087
    15  H   -0.431825
    16  H   -0.606148
    17  H   -0.597469
    18  H   -0.434616
 Sum of Mulliken charges =   0.00000

 Dipole moment (field-independent basis, Debye):
    X=             -6.0421    Y=              4.1399    Z=              0.0001  Tot=              7.3243

 Test job not archived.
 1\1\GINC-SE084\SP\RHF\Aug-CC-pVDZ\C10H6O2\OHZDE\05-Apr-2025\0\\#t hf a
 ug-cc-pvdz iop(5/13=1,5/36=2,99/5=2) pseudo=read geom=check guess=(rea
 d,tcheck) scf=(maxcycle=1)\\title\\0,1\O,0,1.361068,-2.102147,0.\C,0,1
 .045295,-0.93588,-0.000003\C,0,-0.368855,-0.479577,0.000039\C,0,-0.663
 338,0.897964,0.000004\C,0,-1.998519,1.302976,-0.000021\C,0,-3.022439,0
 .362805,-0.000027\C,0,-2.725364,-0.995943,-0.000004\C,0,-1.400135,-1.4
 13451,0.000019\C,0,0.412017,1.881771,0.000016\C,0,1.715208,1.558479,0.
 000033\C,0,2.154699,0.161657,0.000003\O,0,3.320597,-0.165604,-0.000046

 Normal termination of Gaussian 16 at Sat Apr  5 22:13:00 2025.
