 Gaussian 16, Revision C.01,

 ----------------------------------------------------------------------
 #t hf aug-cc-pvdz symm=none int=(grid=ultrafine) guess=(read,tcheck) s
 table=(opt,rrhf)
 ----------------------------------------------------------------------
 -----
 title
 -----
 Symbolic Z-matrix:
 Charge =  0 Multiplicity = 1

 SCF Done:  E(RHF) =  -256.797582665     A.U. after   15 cycles
 Normal termination of Gaussian 16 at Sat Apr  5 22:06:08 2025.
 Gaussian 16:  ES64L-G16RevC.01  3-Jul-2019

 ----------------------------------------------------------------------
 #t hf aug-cc-pvdz iop(5/13=1,5/36=2,99/5=2) pseudo=read geom=check gue
 ss=(read,tcheck) scf=(maxcycle=1)
 ----------------------------------------------------------------------
 -----
 title
 -----
 Structure from the checkpoint file:  "1-2-3-5-tetrazole.chk"
 Charge =  0 Multiplicity = 1

                         Standard orientation:
 ---------------------------------------------------------------------
 Center     Atomic      Atomic             Coordinates (Angstroms)
 Number     Number       Type             X           Y           Z
 ---------------------------------------------------------------------
      1          7           0        1.116569    0.323298    0.000000
      2          7           0        0.000000    1.033096    0.000000
      3          7           0       -1.109966    0.315745    0.000000
      4          7           0       -0.722852   -0.930666    0.000000
      5          6           0        0.629718   -0.907123    0.000000
      6          1           0       -0.009536    2.040913    0.000000
      7          1           0        1.244977   -1.788487    0.000000
 ---------------------------------------------------------------------

 SCF Done:  E(RHF) =  -256.868587468     A.U. after    2 cycles

 The electronic state is 1-A'.
 Alpha  occ. eigenvalues --  -15.77620 -15.74520 -15.70322 -15.68421 -11.32158
 Alpha  occ. eigenvalues --   -1.46839  -1.23193  -1.16341  -0.91214  -0.87786
 Alpha  occ. eigenvalues --   -0.78127  -0.68574  -0.65617  -0.57048  -0.50323
 Alpha  occ. eigenvalues --   -0.47045  -0.44600  -0.41406
 Alpha virt. eigenvalues --    0.02848   0.03859   0.08481   0.08577   0.11411
 Alpha virt. eigenvalues --    0.11462   0.12332   0.15001   0.16545   0.16646
 Alpha virt. eigenvalues --    0.17386   0.18992   0.19875   0.20264   0.21798

 Mulliken charges:
               1
     1  N   -0.391539
     2  N    0.125215
     3  N   -0.151828
     4  N   -0.361215
     5  C    0.926329
     6  H    0.042110
     7  H   -0.189073
 Sum of Mulliken charges =  -0.00000

 Dipole moment (field-independent basis, Debye):
    X=              1.3786    Y=              1.7810    Z=              0.0000  Tot=              2.2522

 Test job not archived.
 1\1\GINC-SE226\SP\RHF\Aug-CC-pVDZ\C1H2N4\OHZDE\05-Apr-2025\0\\#t hf au
 g-cc-pvdz iop(5/13=1,5/36=2,99/5=2) pseudo=read geom=check guess=(read
 ,tcheck) scf=(maxcycle=1)\\title\\0,1\N,0,1.116569,0.323298,0.\N,0,0.,
 1.033096,0.\N,0,-1.109966,0.315745,0.\N,0,-0.722852,-0.930666,0.\C,0,0
 .629718,-0.907123,0.\H,0,-0.009536,2.040913,0.\H,0,1.244977,-1.788487,
 0.\\Version=ES64L-G16RevC.01\State=1-A'\HF=-256.8685875\RMSD=3.287e-03
 \Dipole=0.5423721,0.7006873,0.\Quadrupole=-4.1810305,4.7904703,-0.6094
 398,-2.8845565,0.,0.\PG=CS [SG(C1H2N4)]\\@

 Normal termination of Gaussian 16 at Sat Apr  5 22:06:37 2025.
