 Gaussian 16, Revision C.01,

 ----------------------------------------------------------------------
 #t hf aug-cc-pvdz symm=none int=(grid=ultrafine) guess=(read,tcheck) s
 table=(opt,rrhf)
 ----------------------------------------------------------------------
 -----
 title
 -----
 Symbolic Z-matrix:
 Charge =  0 Multiplicity = 1

 SCF Done:  E(RHF) =  -997.086369292     A.U. after   11 cycles

 1\1\GINC-SE180\Stability\RHF\Aug-CC-pVDZ\C2H4Cl2\OHZDE\05-Apr-2025\0\\
 #t hf aug-cc-pvdz symm=none int=(grid=ultrafine) guess=(read,tcheck) s
 table=(opt,rrhf)\\title\\0,1\C,0,-0.299342,0.692073,0.892875\C,0,0.299
 342,-0.692073,0.892875\Cl,0,0.299342,1.715125,-0.46931\Cl,0,-0.299342,
 -1.715125,-0.46931\H,0,-1.381552,0.661641,0.812196\H,0,-0.016551,1.207
 148,1.808816\H,0,0.016551,-1.207148,1.808816\H,0,1.381552,-0.661641,0.
 812196\\Version=ES64L-G16RevC.01\HF=-997.0863693\RMSD=9.015e-09\Dipole
 =0.,0.,1.2247135\Quadrupole=0.8176572,-3.4010969,2.5834397,-1.1008203,

 Normal termination of Gaussian 16 at Sat Apr  5 22:07:30 2025.
 Gaussian 16:  ES64L-G16RevC.01  3-Jul-2019

 ----------------------------------------------------------------------
 #t hf aug-cc-pvdz iop(5/13=1,5/36=2,99/5=2) pseudo=read geom=check gue
 ss=(read,tcheck) scf=(maxcycle=1)
 ----------------------------------------------------------------------
 -----
 title
 -----
 Structure from the checkpoint file:  "1-2-dichloroethane.chk"
 Charge =  0 Multiplicity = 1

                         Standard orientation:
 ---------------------------------------------------------------------
 Center     Atomic      Atomic             Coordinates (Angstroms)
 Number     Number       Type             X           Y           Z
 ---------------------------------------------------------------------
      1          6           0       -0.299342    0.692073    0.892875
      2          6           0        0.299342   -0.692073    0.892875
      3         17           0        0.299342    1.715125   -0.469310
      4         17           0       -0.299342   -1.715125   -0.469310
      5          1           0       -1.381552    0.661641    0.812196
      6          1           0       -0.016551    1.207148    1.808816
      7          1           0        0.016551   -1.207148    1.808816
      8          1           0        1.381552   -0.661641    0.812196
 ---------------------------------------------------------------------

 SCF Done:  E(RHF) =  -997.148732329     A.U. after    2 cycles

 The electronic state is 1-A.
 Alpha  occ. eigenvalues -- -103.65827-103.65827 -11.32608 -11.32546 -10.69110
 Alpha  occ. eigenvalues --  -10.69110  -8.34831  -8.34830  -8.34536  -8.34534
 Alpha  occ. eigenvalues --   -8.34526  -8.34525  -1.19250  -1.15060  -1.00745
 Alpha  occ. eigenvalues --   -0.85593  -0.67532  -0.66144  -0.60967  -0.55330
 Alpha  occ. eigenvalues --   -0.54009  -0.46812  -0.46042  -0.45165  -0.45016
 Alpha virt. eigenvalues --    0.03001   0.04761   0.05315   0.06038   0.08368
 Alpha virt. eigenvalues --    0.09487   0.12436   0.12915   0.14388   0.14615
 Alpha virt. eigenvalues --    0.15066   0.17365   0.17523   0.17802   0.18397

 Mulliken charges:
               1
     1  C   -0.000565
     2  C   -0.000565
     3  Cl  -0.122412
     4  Cl  -0.122412
     5  H    0.067059
     6  H    0.055918
     7  H    0.055918
     8  H    0.067059
 Sum of Mulliken charges =  -0.00000

 Dipole moment (field-independent basis, Debye):
    X=             -0.0000    Y=             -0.0000    Z=              3.2001  Tot=              3.2001

 Test job not archived.
 1\1\GINC-SE180\SP\RHF\Aug-CC-pVDZ\C2H4Cl2\OHZDE\05-Apr-2025\0\\#t hf a
 ug-cc-pvdz iop(5/13=1,5/36=2,99/5=2) pseudo=read geom=check guess=(rea
 d,tcheck) scf=(maxcycle=1)\\title\\0,1\C,0,-0.299342,0.692073,0.892875
 \C,0,0.299342,-0.692073,0.892875\Cl,0,0.299342,1.715125,-0.46931\Cl,0,
 -0.299342,-1.715125,-0.46931\H,0,-1.381552,0.661641,0.812196\H,0,-0.01
 6551,1.207148,1.808816\H,0,0.016551,-1.207148,1.808816\H,0,1.381552,-0
 .661641,0.812196\\Version=ES64L-G16RevC.01\State=1-A\HF=-997.1487323\R
 MSD=3.375e-03\Dipole=0.,0.,1.2590255\Quadrupole=0.8207956,-3.4720086,2

 Normal termination of Gaussian 16 at Sat Apr  5 22:07:32 2025.
