 Gaussian 16, Revision C.01,

 ----------------------------------------------------------------------
 #t hf aug-cc-pvdz symm=none int=(grid=ultrafine) guess=(read,tcheck) s
 table=(opt,rrhf)
 ----------------------------------------------------------------------
 -----
 title
 -----
 Symbolic Z-matrix:
 Charge =  0 Multiplicity = 1

 SCF Done:  E(RHF) =  -260.583392929     A.U. after   13 cycles
 Normal termination of Gaussian 16 at Sat Apr  5 22:07:23 2025.
 Gaussian 16:  ES64L-G16RevC.01  3-Jul-2019

 ----------------------------------------------------------------------
 #t hf aug-cc-pvdz iop(5/13=1,5/36=2,99/5=2) pseudo=read geom=check gue
 ss=(read,tcheck) scf=(maxcycle=1)
 ----------------------------------------------------------------------
 -----
 title
 -----
 Structure from the checkpoint file:  "1-2-5-oxadiazole.chk"
 Charge =  0 Multiplicity = 1

                         Standard orientation:
 ---------------------------------------------------------------------
 Center     Atomic      Atomic             Coordinates (Angstroms)
 Number     Number       Type             X           Y           Z
 ---------------------------------------------------------------------
      1          8           0        0.000000   -0.000000    1.125015
      2          7           0        0.000000    1.129079    0.352670
      3          6           0        0.000000    0.709443   -0.877819
      4          6           0       -0.000000   -0.709443   -0.877819
      5          7           0       -0.000000   -1.129079    0.352670
      6          1           0        0.000000    1.401671   -1.701840
      7          1           0       -0.000000   -1.401671   -1.701840
 ---------------------------------------------------------------------

 SCF Done:  E(RHF) =  -260.659315045     A.U. after    2 cycles

 The electronic state is 1-A1.
 Alpha  occ. eigenvalues --  -20.70384 -15.73207 -15.73185 -11.31486 -11.31392
 Alpha  occ. eigenvalues --   -1.50530  -1.19251  -1.17076  -0.87329  -0.86866
 Alpha  occ. eigenvalues --   -0.75485  -0.70502  -0.66391  -0.60486  -0.53039
 Alpha  occ. eigenvalues --   -0.49640  -0.46007  -0.43223
 Alpha virt. eigenvalues --    0.02583   0.04038   0.06881   0.08490   0.10665
 Alpha virt. eigenvalues --    0.10683   0.11725   0.11905   0.14153   0.15274
 Alpha virt. eigenvalues --    0.15598   0.18484   0.19307   0.20200   0.20219

 Mulliken charges:
               1
     1  O   -0.593759
     2  N   -0.168173
     3  C    0.666071
     4  C    0.666071
     5  N   -0.168173
     6  H   -0.201019
     7  H   -0.201019
 Sum of Mulliken charges =  -0.00000

 Dipole moment (field-independent basis, Debye):
    X=              0.0000    Y=             -0.0000    Z=             -4.0117  Tot=              4.0117

 Test job not archived.
 1\1\GINC-SE028\SP\RHF\Aug-CC-pVDZ\C2H2N2O1\OHZDE\05-Apr-2025\0\\#t hf
 aug-cc-pvdz iop(5/13=1,5/36=2,99/5=2) pseudo=read geom=check guess=(re
 ad,tcheck) scf=(maxcycle=1)\\title\\0,1\O,0,0.,0.,1.125015\N,0,0.,1.12
 9079,0.35267\C,0,0.,0.709443,-0.877819\C,0,0.,-0.709443,-0.877819\N,0,
 0.,-1.129079,0.35267\H,0,0.,1.401671,-1.70184\H,0,0.,-1.401671,-1.7018
 4\\Version=ES64L-G16RevC.01\State=1-A1\HF=-260.659315\RMSD=5.217e-03\D
 ipole=0.,0.,-1.5783367\Quadrupole=-0.6229142,-1.3782969,2.0012111,0.,0
 .,0.\PG=C02V [C2(O1),SGV(C2H2N2)]\\@

 Normal termination of Gaussian 16 at Sat Apr  5 22:07:25 2025.
