 Gaussian 16, Revision C.01,

 ----------------------------------------------------------------------
 #t hf aug-cc-pvdz symm=none int=(grid=ultrafine) guess=(read,tcheck) s
 table=(opt,rrhf)
 ----------------------------------------------------------------------
 -----
 title
 -----
 Symbolic Z-matrix:
 Charge =  0 Multiplicity = 1

 SCF Done:  E(RHF) =  -353.494529225     A.U. after   17 cycles
 Normal termination of Gaussian 16 at Sat Apr  5 22:07:41 2025.
 Gaussian 16:  ES64L-G16RevC.01  3-Jul-2019

 ----------------------------------------------------------------------
 #t hf aug-cc-pvdz iop(5/13=1,5/36=2,99/5=2) pseudo=read geom=check gue
 ss=(read,tcheck) scf=(maxcycle=1)
 ----------------------------------------------------------------------
 -----
 title
 -----
 Structure from the checkpoint file:  "1-2-dihydro-3H-1-2-4-triazol-3-ylidenemethanone.chk"
 Charge =  0 Multiplicity = 1

                         Standard orientation:
 ---------------------------------------------------------------------
 Center     Atomic      Atomic             Coordinates (Angstroms)
 Number     Number       Type             X           Y           Z
 ---------------------------------------------------------------------
      1          8           0        2.804747    0.017257   -0.101685
      2          7           0       -0.501813   -1.172528    0.046451
      3          7           0       -0.518237    1.148566    0.064488
      4          7           0       -1.829526   -0.691292   -0.149633
      5          6           0        0.336696    0.001975    0.169153
      6          6           0       -1.784183    0.580024   -0.127805
      7          6           0        1.635206    0.015429   -0.087720
      8          1           0       -0.507329   -1.788898    0.852503
      9          1           0       -0.455507    1.869545    0.772931
     10          1           0       -2.654421    1.203511   -0.262863
 ---------------------------------------------------------------------

 SCF Done:  E(RHF) =  -353.599559327     A.U. after    2 cycles

 The electronic state is 1-A.
 Alpha  occ. eigenvalues --  -20.64445 -15.67907 -15.67820 -15.66876 -11.38785
 Alpha  occ. eigenvalues --  -11.33766 -11.33038  -1.43181  -1.34554  -1.18206
 Alpha  occ. eigenvalues --   -1.11648  -0.97687  -0.83002  -0.80553  -0.74946
 Alpha  occ. eigenvalues --   -0.69083  -0.66941  -0.66238  -0.63430  -0.59954
 Alpha  occ. eigenvalues --   -0.58411  -0.47154  -0.46256  -0.42810  -0.30248
 Alpha virt. eigenvalues --    0.02414   0.03876   0.04561   0.06070   0.09142
 Alpha virt. eigenvalues --    0.09698   0.10195   0.10929   0.11564   0.12043
 Alpha virt. eigenvalues --    0.13560   0.14376   0.15537   0.16212   0.17189

 Mulliken charges:
               1
     1  O   -0.207200
     2  N   -0.467431
     3  N   -0.527188
     4  N   -0.300115
     5  C    1.224827
     6  C    0.790535
     7  C   -0.416608
     8  H    0.087510
     9  H    0.010648
    10  H   -0.194979
 Sum of Mulliken charges =  -0.00000

 Dipole moment (field-independent basis, Debye):
    X=             -1.8006    Y=              2.2802    Z=              2.2188  Tot=              3.6558

 Test job not archived.
 1\1\GINC-SE199\SP\RHF\Aug-CC-pVDZ\C3H3N3O1\OHZDE\05-Apr-2025\0\\#t hf
 aug-cc-pvdz iop(5/13=1,5/36=2,99/5=2) pseudo=read geom=check guess=(re
 ad,tcheck) scf=(maxcycle=1)\\title\\0,1\O,0,2.804747,0.017257,-0.10168
 5\N,0,-0.501813,-1.172528,0.046451\N,0,-0.518237,1.148566,0.064488\N,0
 ,-1.829526,-0.691292,-0.149633\C,0,0.336696,0.001975,0.169153\C,0,-1.7
 84183,0.580024,-0.127805\C,0,1.635206,0.015429,-0.08772\H,0,-0.507329,
 -1.788898,0.852503\H,0,-0.455507,1.869545,0.772931\H,0,-2.654421,1.203
 511,-0.262863\\Version=ES64L-G16RevC.01\State=1-A\HF=-353.5995593\RMSD

 Normal termination of Gaussian 16 at Sat Apr  5 22:07:44 2025.
