 Gaussian 16, Revision C.01,

 ----------------------------------------------------------------------
 #t hf aug-cc-pvdz symm=none int=(grid=ultrafine) guess=(read,tcheck) s
 table=(opt,rrhf)
 ----------------------------------------------------------------------
 -----
 title
 -----
 Symbolic Z-matrix:
 Charge =  0 Multiplicity = 1

 SCF Done:  E(RHF) =  -1075.16949446     A.U. after   13 cycles

 1\1\GINC-SE185\Stability\RHF\Aug-CC-pVDZ\C4H8Cl2\OHZDE\05-Apr-2025\0\\
 #t hf aug-cc-pvdz symm=none int=(grid=ultrafine) guess=(read,tcheck) s
 table=(opt,rrhf)\\title\\0,1\H,0,0.81997,0.970836,1.504408\H,0,-1.1665
 48,-1.746969,-0.177938\H,0,-0.984908,-0.88052,1.362012\C,0,-1.009069,-
 0.777888,0.281092\H,0,0.177283,0.021144,-1.322049\Cl,0,1.582703,-1.367
 58,-0.036028\C,0,0.252711,-0.117091,-0.245865\C,0,0.632489,1.180766,0.
 448756\H,0,2.728827,1.294378,-0.120432\H,0,2.019134,2.837293,0.35229\H
 ,0,1.638622,2.14094,-1.219876\C,0,1.825906,1.901249,-0.171533\H,0,-0.2

 Normal termination of Gaussian 16 at Sat Apr  5 22:08:34 2025.
 Gaussian 16:  ES64L-G16RevC.01  3-Jul-2019

 ----------------------------------------------------------------------
 #t hf aug-cc-pvdz iop(5/13=1,5/36=2,99/5=2) pseudo=read geom=check gue
 ss=(read,tcheck) scf=(maxcycle=1)
 ----------------------------------------------------------------------
 -----
 title
 -----
 Structure from the checkpoint file:  "1-2-dichlorobutane.chk"
 Charge =  0 Multiplicity = 1

                         Standard orientation:
 ---------------------------------------------------------------------
 Center     Atomic      Atomic             Coordinates (Angstroms)
 Number     Number       Type             X           Y           Z
 ---------------------------------------------------------------------
      1          1           0        0.819970    0.970836    1.504408
      2          1           0       -1.166548   -1.746969   -0.177938
      3          1           0       -0.984908   -0.880520    1.362012
      4          6           0       -1.009069   -0.777888    0.281092
      5          1           0        0.177283    0.021144   -1.322049
      6         17           0        1.582703   -1.367580   -0.036028
      7          6           0        0.252711   -0.117091   -0.245865
      8          6           0        0.632489    1.180766    0.448756
      9          1           0        2.728827    1.294378   -0.120432
     10          1           0        2.019134    2.837293    0.352290
     11          1           0        1.638622    2.140940   -1.219876
     12          6           0        1.825906    1.901249   -0.171533
     13          1           0       -0.246766    1.827735    0.407093
     14         17           0       -2.476694    0.215400   -0.120455
 ---------------------------------------------------------------------

 SCF Done:  E(RHF) =  -1075.25452260     A.U. after    2 cycles

 The electronic state is 1-A.
 Alpha  occ. eigenvalues -- -103.66093-103.65624 -11.32731 -11.32158 -11.25330
 Alpha  occ. eigenvalues --  -11.23511 -10.69362 -10.68900  -8.35079  -8.34799
 Alpha  occ. eigenvalues --   -8.34785  -8.34608  -8.34341  -8.34327  -1.19430
 Alpha  occ. eigenvalues --   -1.15383  -1.05514  -0.98366  -0.88510  -0.81023
 Alpha  occ. eigenvalues --   -0.67240  -0.64559  -0.63622  -0.59440  -0.57787
 Alpha  occ. eigenvalues --   -0.53530  -0.52228  -0.51307  -0.49598  -0.47010
 Alpha  occ. eigenvalues --   -0.45700  -0.45297  -0.44855
 Alpha virt. eigenvalues --    0.03693   0.04406   0.04583   0.05578   0.06459
 Alpha virt. eigenvalues --    0.06850   0.07700   0.08645   0.09109   0.11248
 Alpha virt. eigenvalues --    0.12434   0.12682   0.13980   0.15007   0.16099

 Mulliken charges:
               1
     1  H   -0.092481
     2  H    0.017721
     3  H    0.033054
     4  C    0.377988
     5  H   -0.126475
     6  Cl  -0.185873
     7  C   -0.336562
     8  C    0.255321
     9  H   -0.058962
    10  H   -0.050056
    11  H   -0.058928
    12  C    0.443108
    13  H   -0.076860
    14  Cl  -0.140995
 Sum of Mulliken charges =  -0.00000

 Dipole moment (field-independent basis, Debye):
    X=              0.3161    Y=              0.7636    Z=              0.3060  Tot=              0.8812

 Test job not archived.
 1\1\GINC-SE185\SP\RHF\Aug-CC-pVDZ\C4H8Cl2\OHZDE\05-Apr-2025\0\\#t hf a
 ug-cc-pvdz iop(5/13=1,5/36=2,99/5=2) pseudo=read geom=check guess=(rea
 d,tcheck) scf=(maxcycle=1)\\title\\0,1\H,0,0.81997,0.970836,1.504408\H
 ,0,-1.166548,-1.746969,-0.177938\H,0,-0.984908,-0.88052,1.362012\C,0,-
 1.009069,-0.777888,0.281092\H,0,0.177283,0.021144,-1.322049\Cl,0,1.582
 703,-1.36758,-0.036028\C,0,0.252711,-0.117091,-0.245865\C,0,0.632489,1
 .180766,0.448756\H,0,2.728827,1.294378,-0.120432\H,0,2.019134,2.837293
 ,0.35229\H,0,1.638622,2.14094,-1.219876\C,0,1.825906,1.901249,-0.17153

 Normal termination of Gaussian 16 at Sat Apr  5 22:08:40 2025.
