 Gaussian 16, Revision C.01,

 ----------------------------------------------------------------------
 #t hf aug-cc-pvdz symm=none int=(grid=ultrafine) guess=(read,tcheck) s
 table=(opt,rrhf)
 ----------------------------------------------------------------------
 -----
 title
 -----
 Symbolic Z-matrix:
 Charge =  0 Multiplicity = 1

 SCF Done:  E(RHF) =  -964.854160221     A.U. after   15 cycles
 Normal termination of Gaussian 16 at Sat Apr  5 22:08:46 2025.
 Gaussian 16:  ES64L-G16RevC.01  3-Jul-2019

 ----------------------------------------------------------------------
 #t hf aug-cc-pvdz iop(5/13=1,5/36=2,99/5=2) pseudo=read geom=check gue
 ss=(read,tcheck) scf=(maxcycle=1)
 ----------------------------------------------------------------------
 -----
 title
 -----
 Structure from the checkpoint file:  "1-2-thiazole-32H-thione.chk"
 Charge =  0 Multiplicity = 1

                         Standard orientation:
 ---------------------------------------------------------------------
 Center     Atomic      Atomic             Coordinates (Angstroms)
 Number     Number       Type             X           Y           Z
 ---------------------------------------------------------------------
      1         16           0       -1.852923   -0.547135    0.000003
      2         16           0        2.341496   -0.118506    0.000003
      3          7           0       -0.197443   -0.956196   -0.000012
      4          6           0        0.689320    0.084870   -0.000004
      5          6           0       -0.074363    1.311044   -0.000004
      6          6           0       -1.409363    1.123574    0.000003
      7          1           0        0.409589    2.273247   -0.000007
      8          1           0        0.109128   -1.916200    0.000016
      9          1           0       -2.187332    1.869648    0.000005
 ---------------------------------------------------------------------

 SCF Done:  E(RHF) =  -964.946709224     A.U. after    2 cycles

 The electronic state is 1-A.
 Alpha  occ. eigenvalues --  -93.62830 -93.48027 -15.71062 -11.36595 -11.33055
 Alpha  occ. eigenvalues --  -11.28134  -8.92305  -8.77905  -6.26474  -6.26268
 Alpha  occ. eigenvalues --   -6.25800  -6.12166  -6.11605  -6.11516  -1.29145
 Alpha  occ. eigenvalues --   -1.10294  -1.05650  -0.91818  -0.85385  -0.80669
 Alpha  occ. eigenvalues --   -0.69253  -0.64348  -0.61524  -0.61224  -0.54611
 Alpha  occ. eigenvalues --   -0.50132  -0.44347  -0.41578  -0.32354  -0.30466
 Alpha virt. eigenvalues --    0.02596   0.03773   0.04728   0.05061   0.07521
 Alpha virt. eigenvalues --    0.08640   0.09757   0.09836   0.11349   0.11911
 Alpha virt. eigenvalues --    0.12898   0.13048   0.13726   0.14849   0.16414

 Mulliken charges:
               1
     1  S    0.893517
     2  S   -0.093283
     3  N   -0.594656
     4  C    0.009249
     5  C    0.754231
     6  C   -0.267404
     7  H   -0.299718
     8  H   -0.088957
     9  H   -0.312978
 Sum of Mulliken charges =  -0.00000

 Dipole moment (field-independent basis, Debye):
    X=             -5.3704    Y=              0.3788    Z=              0.0000  Tot=              5.3838

 Test job not archived.
 1\1\GINC-SE187\SP\RHF\Aug-CC-pVDZ\C3H3N1S2\OHZDE\05-Apr-2025\0\\#t hf
 aug-cc-pvdz iop(5/13=1,5/36=2,99/5=2) pseudo=read geom=check guess=(re
 ad,tcheck) scf=(maxcycle=1)\\title\\0,1\S,0,-1.852923,-0.547135,0.0000
 03\S,0,2.341496,-0.118506,0.000003\N,0,-0.197443,-0.956196,-0.000012\C
 ,0,0.68932,0.08487,-0.000004\C,0,-0.074363,1.311044,-0.000004\C,0,-1.4
 09363,1.123574,0.000003\H,0,0.409589,2.273247,-0.000007\H,0,0.109128,-
 1.9162,0.000016\H,0,-2.187332,1.869648,0.000005\\Version=ES64L-G16RevC
 .01\State=1-A\HF=-964.9467092\RMSD=1.523e-02\Dipole=-2.1128828,0.14901

 Normal termination of Gaussian 16 at Sat Apr  5 22:08:50 2025.
