 Gaussian 16, Revision C.01,

 ----------------------------------------------------------------------
 #t hf aug-cc-pvdz symm=none int=(grid=ultrafine) guess=(read,tcheck) s
 table=(opt,rrhf)
 ----------------------------------------------------------------------
 -----
 title
 -----
 Symbolic Z-matrix:
 Charge =  0 Multiplicity = 1

 SCF Done:  E(RHF) =  -659.063850319     A.U. after   16 cycles
 Normal termination of Gaussian 16 at Sat Apr  5 22:08:47 2025.
 Gaussian 16:  ES64L-G16RevC.01  3-Jul-2019

 ----------------------------------------------------------------------
 #t hf aug-cc-pvdz iop(5/13=1,5/36=2,99/5=2) pseudo=read geom=check gue
 ss=(read,tcheck) scf=(maxcycle=1)
 ----------------------------------------------------------------------
 -----
 title
 -----
 Structure from the checkpoint file:  "1-2-thiazole-4-carbonitrile.chk"
 Charge =  0 Multiplicity = 1

                         Standard orientation:
 ---------------------------------------------------------------------
 Center     Atomic      Atomic             Coordinates (Angstroms)
 Number     Number       Type             X           Y           Z
 ---------------------------------------------------------------------
      1         16           0        1.790737   -0.475898   -0.000002
      2          7           0        1.364374    1.134172   -0.000002
      3          7           0       -3.240588   -0.146020   -0.000007
      4          6           0       -0.672756    0.008613    0.000004
      5          6           0        0.191251   -1.060988    0.000003
      6          6           0        0.060358    1.235299    0.000002
      7          6           0       -2.089661   -0.084352    0.000005
      8          1           0       -0.056134   -2.109489    0.000004
      9          1           0       -0.397308    2.215358    0.000003
 ---------------------------------------------------------------------

 SCF Done:  E(RHF) =  -659.164088407     A.U. after    2 cycles

 The electronic state is 1-A.
 Alpha  occ. eigenvalues --  -93.62792 -15.68774 -15.65739 -11.33813 -11.33156
 Alpha  occ. eigenvalues --  -11.31503 -11.30763  -8.92321  -6.26446  -6.26272
 Alpha  occ. eigenvalues --   -6.25894  -1.28829  -1.21084  -1.10294  -1.04401
 Alpha  occ. eigenvalues --   -0.86495  -0.82796  -0.77814  -0.64868  -0.63461
 Alpha  occ. eigenvalues --   -0.60732  -0.56497  -0.53106  -0.51428  -0.49693
 Alpha  occ. eigenvalues --   -0.46642  -0.40827  -0.38023
 Alpha virt. eigenvalues --    0.02869   0.03945   0.04661   0.06465   0.07327
 Alpha virt. eigenvalues --    0.07953   0.09068   0.09680   0.11726   0.12431
 Alpha virt. eigenvalues --    0.12645   0.12807   0.13670   0.14060   0.15032

 Mulliken charges:
               1
     1  S    0.892157
     2  N   -0.875488
     3  N   -0.114339
     4  C    1.308285
     5  C   -0.287475
     6  C    0.697216
     7  C   -0.934163
     8  H   -0.379750
     9  H   -0.306442
 Sum of Mulliken charges =  -0.00000

 Dipole moment (field-independent basis, Debye):
    X=              2.4153    Y=             -1.2769    Z=              0.0000  Tot=              2.7321

 Test job not archived.
 1\1\GINC-SE190\SP\RHF\Aug-CC-pVDZ\C4H2N2S1\OHZDE\05-Apr-2025\0\\#t hf
 aug-cc-pvdz iop(5/13=1,5/36=2,99/5=2) pseudo=read geom=check guess=(re
 ad,tcheck) scf=(maxcycle=1)\\title\\0,1\S,0,1.790737,-0.475898,-0.0000
 02\N,0,1.364374,1.134172,-0.000002\N,0,-3.240588,-0.14602,-0.000007\C,
 0,-0.672756,0.008613,0.000004\C,0,0.191251,-1.060988,0.000003\C,0,0.06
 0358,1.235299,0.000002\C,0,-2.089661,-0.084352,0.000005\H,0,-0.056134,
 -2.109489,0.000004\H,0,-0.397308,2.215358,0.000003\\Version=ES64L-G16R
 evC.01\State=1-A\HF=-659.1640884\RMSD=1.065e-02\Dipole=0.9502547,-0.50

 Normal termination of Gaussian 16 at Sat Apr  5 22:08:51 2025.
