 Gaussian 16, Revision C.01,

 ----------------------------------------------------------------------
 #t hf aug-cc-pvdz symm=none int=(grid=ultrafine) guess=(read,tcheck) s
 table=(opt,rrhf)
 ----------------------------------------------------------------------
 -----
 title
 -----
 Symbolic Z-matrix:
 Charge =  0 Multiplicity = 1

 SCF Done:  E(RHF) =  -676.149699419     A.U. after   16 cycles
 Normal termination of Gaussian 16 at Sat Apr  5 22:07:07 2025.
 Gaussian 16:  ES64L-G16RevC.01  3-Jul-2019

 ----------------------------------------------------------------------
 #t hf aug-cc-pvdz iop(5/13=1,5/36=2,99/5=2) pseudo=read geom=check gue
 ss=(read,tcheck) scf=(maxcycle=1)
 ----------------------------------------------------------------------
 -----
 title
 -----
 Structure from the checkpoint file:  "1-2-3-thiadiazole-23H-carbonitrile.chk"
 Charge =  0 Multiplicity = 1

                         Standard orientation:
 ---------------------------------------------------------------------
 Center     Atomic      Atomic             Coordinates (Angstroms)
 Number     Number       Type             X           Y           Z
 ---------------------------------------------------------------------
      1         16           0        0.596501   -1.254311   -0.215908
      2          7           0       -0.521489    0.078464   -0.630668
      3          7           0        0.161630    1.335417   -0.521980
      4          7           0       -2.690102    0.007425    0.617646
      5          6           0        1.600362   -0.083701    0.655744
      6          6           0        1.269049    1.169256    0.363538
      7          6           0       -1.667835    0.056671    0.083610
      8          1           0        0.450648    1.618461   -1.455320
      9          1           0        2.392643   -0.412715    1.306776
     10          1           0        1.752966    2.060731    0.730728
 ---------------------------------------------------------------------

 SCF Done:  E(RHF) =  -676.253809244     A.U. after    2 cycles

 The electronic state is 1-A.
 Alpha  occ. eigenvalues --  -93.60982 -15.74655 -15.71012 -15.63575 -11.31928
 Alpha  occ. eigenvalues --  -11.31668 -11.30345  -8.90385  -6.24521  -6.24298
 Alpha  occ. eigenvalues --   -6.23861  -1.34287  -1.19893  -1.12231  -1.08707
 Alpha  occ. eigenvalues --   -0.93125  -0.82047  -0.76790  -0.72471  -0.67398
 Alpha  occ. eigenvalues --   -0.62428  -0.57507  -0.54860  -0.53602  -0.50378
 Alpha  occ. eigenvalues --   -0.46421  -0.44433  -0.41395  -0.34239
 Alpha virt. eigenvalues --    0.02338   0.03509   0.04320   0.06869   0.07452
 Alpha virt. eigenvalues --    0.08166   0.09399   0.10880   0.11600   0.12109
 Alpha virt. eigenvalues --    0.12727   0.13190   0.14095   0.14639   0.15414

 Mulliken charges:
               1
     1  S    0.666580
     2  N   -0.463923
     3  N   -0.345359
     4  N   -0.168015
     5  C    0.039807
     6  C    0.784413
     7  C   -0.001551
     8  H    0.088890
     9  H   -0.364003
    10  H   -0.236837
 Sum of Mulliken charges =  -0.00000

 Dipole moment (field-independent basis, Debye):
    X=              5.5909    Y=              1.0687    Z=             -1.0295  Tot=              5.7845

 Test job not archived.
 1\1\GINC-SE028\SP\RHF\Aug-CC-pVDZ\C3H3N3S1\OHZDE\05-Apr-2025\0\\#t hf
 aug-cc-pvdz iop(5/13=1,5/36=2,99/5=2) pseudo=read geom=check guess=(re
 ad,tcheck) scf=(maxcycle=1)\\title\\0,1\S,0,0.596501,-1.254311,-0.2159
 08\N,0,-0.521489,0.078464,-0.630668\N,0,0.16163,1.335417,-0.52198\N,0,
 -2.690102,0.007425,0.617646\C,0,1.600362,-0.083701,0.655744\C,0,1.2690
 49,1.169256,0.363538\C,0,-1.667835,0.056671,0.08361\H,0,0.450648,1.618
 461,-1.45532\H,0,2.392643,-0.412715,1.306776\H,0,1.752966,2.060731,0.7
 30728\\Version=ES64L-G16RevC.01\State=1-A\HF=-676.2538092\RMSD=6.185e-

 Normal termination of Gaussian 16 at Sat Apr  5 22:07:13 2025.
