 Gaussian 16, Revision C.01,

 ----------------------------------------------------------------------
 #t hf aug-cc-pvdz symm=none int=(grid=ultrafine) guess=(read,tcheck) s
 table=(opt,rrhf)
 ----------------------------------------------------------------------
 -----
 title
 -----
 Symbolic Z-matrix:
 Charge =  0 Multiplicity = 1

 SCF Done:  E(RHF) =  -1056.57479106     A.U. after   14 cycles
 Normal termination of Gaussian 16 at Sat Apr  5 22:07:43 2025.
 Gaussian 16:  ES64L-G16RevC.01  3-Jul-2019

 ----------------------------------------------------------------------
 #t hf aug-cc-pvdz iop(5/13=1,5/36=2,99/5=2) pseudo=read geom=check gue
 ss=(read,tcheck) scf=(maxcycle=1)
 ----------------------------------------------------------------------
 -----
 title
 -----
 Structure from the checkpoint file:  "1-2-dicyano-1-2-ethenedithiol.chk"
 Charge =  0 Multiplicity = 1

                         Standard orientation:
 ---------------------------------------------------------------------
 Center     Atomic      Atomic             Coordinates (Angstroms)
 Number     Number       Type             X           Y           Z
 ---------------------------------------------------------------------
      1         16           0        1.653853   -1.466360   -0.041522
      2         16           0       -1.653852    1.466360   -0.041519
      3          7           0        1.962541    2.243904    0.036069
      4          7           0       -1.962541   -2.243903    0.036069
      5          6           0        0.678815    0.016108    0.014810
      6          6           0       -0.678816   -0.016108    0.014811
      7          6           0        1.374142    1.251705    0.022854
      8          6           0       -1.374142   -1.251704    0.022855
      9          1           0        2.827783   -0.852150    0.185852
     10          1           0       -2.827783    0.852149    0.185851
 ---------------------------------------------------------------------

 SCF Done:  E(RHF) =  -1056.69001963     A.U. after    2 cycles

 The electronic state is 1-A.
 Alpha  occ. eigenvalues --  -93.60154 -93.60154 -15.68464 -15.68463 -11.37445
 Alpha  occ. eigenvalues --  -11.37303 -11.32834 -11.32834  -8.89879  -8.89877
 Alpha  occ. eigenvalues --   -6.24078  -6.24030  -6.23860  -6.23858  -6.23428
 Alpha  occ. eigenvalues --   -6.23424  -1.24723  -1.23312  -1.17488  -1.06815
 Alpha  occ. eigenvalues --   -0.96939  -0.93898  -0.78136  -0.70294  -0.61331
 Alpha  occ. eigenvalues --   -0.60066  -0.58995  -0.58852  -0.55532  -0.55049
 Alpha  occ. eigenvalues --   -0.53148  -0.50451  -0.47846  -0.46555  -0.44402
 Alpha  occ. eigenvalues --   -0.35123
 Alpha virt. eigenvalues --    0.01429   0.03420   0.03550   0.06328   0.06962
 Alpha virt. eigenvalues --    0.08418   0.09173   0.09676   0.09866   0.10650
 Alpha virt. eigenvalues --    0.11700   0.12002   0.12452   0.12738   0.13518

 Mulliken charges:
               1
     1  S    0.391119
     2  S    0.391120
     3  N   -0.085605
     4  N   -0.085604
     5  C    0.763540
     6  C    0.763541
     7  C   -1.132881
     8  C   -1.132883
     9  H    0.063827
    10  H    0.063826
 Sum of Mulliken charges =  -0.00000

 Dipole moment (field-independent basis, Debye):
    X=             -0.0000    Y=              0.0000    Z=              0.2255  Tot=              0.2255

 Test job not archived.
 1\1\GINC-SE194\SP\RHF\Aug-CC-pVDZ\C4H2N2S2\OHZDE\05-Apr-2025\0\\#t hf
 aug-cc-pvdz iop(5/13=1,5/36=2,99/5=2) pseudo=read geom=check guess=(re
 ad,tcheck) scf=(maxcycle=1)\\title\\0,1\S,0,1.653853,-1.46636,-0.04152
 2\S,0,-1.653853,1.466359,-0.041519\N,0,1.96254,2.243904,0.036069\N,0,-
 1.96254,-2.243904,0.036069\C,0,0.678815,0.016108,0.01481\C,0,-0.678816
 ,-0.016108,0.014811\C,0,1.374141,1.251705,0.022854\C,0,-1.374142,-1.25
 1705,0.022855\H,0,2.827783,-0.852149,0.185852\H,0,-2.827783,0.852148,0
 .185851\\Version=ES64L-G16RevC.01\State=1-A\HF=-1056.6900196\RMSD=2.12

 Normal termination of Gaussian 16 at Sat Apr  5 22:07:48 2025.
