 Gaussian 16, Revision C.01,

 ----------------------------------------------------------------------
 #t hf aug-cc-pvdz symm=none int=(grid=ultrafine) guess=(read,tcheck) s
 table=(opt,rrhf)
 ----------------------------------------------------------------------
 -----
 title
 -----
 Symbolic Z-matrix:
 Charge =  0 Multiplicity = 1

 SCF Done:  E(RHF) =  -385.109672643     A.U. after   11 cycles

 1\1\GINC-SE188\Stability\RHF\Aug-CC-pVDZ\C6H14O2\OHZDE\05-Apr-2025\0\\
 #t hf aug-cc-pvdz symm=none int=(grid=ultrafine) guess=(read,tcheck) s
 table=(opt,rrhf)\\title\\0,1\C,0,-0.185454,3.476467,1.177678\C,0,0.185
 454,-3.476467,1.177678\C,0,0.448568,2.723875,0.026404\C,0,-0.448568,-2
 .723875,0.026404\C,0,0.330721,0.678899,-1.157349\C,0,-0.330721,-0.6788
 99,-1.157349\O,0,-0.185454,1.462479,-0.100569\O,0,0.185454,-1.462479,-
 0.100569\H,0,0.289479,4.45091,1.299148\H,0,-1.249152,3.631512,0.997075
 \H,0,-0.073398,2.919207,2.107537\H,0,-0.289479,-4.45091,1.299148\H,0,1

 Normal termination of Gaussian 16 at Sat Apr  5 22:10:38 2025.
 Gaussian 16:  ES64L-G16RevC.01  3-Jul-2019

 ----------------------------------------------------------------------
 #t hf aug-cc-pvdz iop(5/13=1,5/36=2,99/5=2) pseudo=read geom=check gue
 ss=(read,tcheck) scf=(maxcycle=1)
 ----------------------------------------------------------------------
 -----
 title
 -----
 Structure from the checkpoint file:  "1-2-diethoxyethane.chk"
 Charge =  0 Multiplicity = 1

                         Standard orientation:
 ---------------------------------------------------------------------
 Center     Atomic      Atomic             Coordinates (Angstroms)
 Number     Number       Type             X           Y           Z
 ---------------------------------------------------------------------
      1          6           0       -0.185454    3.476467    1.177678
      2          6           0        0.185454   -3.476467    1.177678
      3          6           0        0.448568    2.723875    0.026404
      4          6           0       -0.448568   -2.723875    0.026404
      5          6           0        0.330721    0.678899   -1.157349
      6          6           0       -0.330721   -0.678899   -1.157349
      7          8           0       -0.185454    1.462479   -0.100569
      8          8           0        0.185454   -1.462479   -0.100569
      9          1           0        0.289479    4.450910    1.299148
     10          1           0       -1.249152    3.631512    0.997075
     11          1           0       -0.073398    2.919207    2.107537
     12          1           0       -0.289479   -4.450910    1.299148
     13          1           0        1.249152   -3.631512    0.997075
     14          1           0        0.073398   -2.919207    2.107537
     15          1           0        1.523271    2.581941    0.202423
     16          1           0        0.343221    3.289948   -0.909829
     17          1           0       -1.523271   -2.581941    0.202423
     18          1           0       -0.343221   -3.289948   -0.909829
     19          1           0        0.140113    1.170529   -2.121857
     20          1           0        1.415919    0.554537   -1.050343
     21          1           0       -0.140113   -1.170529   -2.121857
     22          1           0       -1.415919   -0.554537   -1.050343
 ---------------------------------------------------------------------

 SCF Done:  E(RHF) =  -385.236264833     A.U. after    2 cycles

 The electronic state is 1-A.
 Alpha  occ. eigenvalues --  -20.56272 -20.56271 -11.28206 -11.28154 -11.28118
 Alpha  occ. eigenvalues --  -11.28114 -11.22068 -11.22068  -1.33681  -1.32087
 Alpha  occ. eigenvalues --   -1.04627  -1.00835  -0.95858  -0.84406  -0.83249
 Alpha  occ. eigenvalues --   -0.82325  -0.69241  -0.69065  -0.65822  -0.65127
 Alpha  occ. eigenvalues --   -0.63300  -0.58514  -0.57421  -0.56577  -0.53646
 Alpha  occ. eigenvalues --   -0.53368  -0.50381  -0.50033  -0.49342  -0.48202
 Alpha  occ. eigenvalues --   -0.47370  -0.43434  -0.42598
 Alpha virt. eigenvalues --    0.03617   0.04208   0.04597   0.04815   0.05615
 Alpha virt. eigenvalues --    0.05743   0.06058   0.06914   0.07387   0.07849
 Alpha virt. eigenvalues --    0.08094   0.08968   0.10442   0.10551   0.12441

 Mulliken charges:
               1
     1  C    0.339562
     2  C    0.339562
     3  C    0.467916
     4  C    0.467916
     5  C    0.574450
     6  C    0.574450
     7  O   -0.653308
     8  O   -0.653308
     9  H   -0.051437
    10  H   -0.054522
    11  H   -0.045222
    12  H   -0.051437
    13  H   -0.054522
    14  H   -0.045222
    15  H   -0.147341
    16  H   -0.142047
    17  H   -0.147341
    18  H   -0.142047
    19  H   -0.127410
    20  H   -0.160642
    21  H   -0.127410
    22  H   -0.160642
 Sum of Mulliken charges =  -0.00000

 Dipole moment (field-independent basis, Debye):
    X=             -0.0000    Y=             -0.0000    Z=             -1.5002  Tot=              1.5002

 Test job not archived.
 1\1\GINC-SE188\SP\RHF\Aug-CC-pVDZ\C6H14O2\OHZDE\05-Apr-2025\0\\#t hf a
 ug-cc-pvdz iop(5/13=1,5/36=2,99/5=2) pseudo=read geom=check guess=(rea
 d,tcheck) scf=(maxcycle=1)\\title\\0,1\C,0,-0.185454,3.476467,1.177678
 \C,0,0.185454,-3.476467,1.177678\C,0,0.448568,2.723875,0.026404\C,0,-0
 .448568,-2.723875,0.026404\C,0,0.330721,0.678899,-1.157349\C,0,-0.3307
 21,-0.678899,-1.157349\O,0,-0.185454,1.462479,-0.100569\O,0,0.185454,-
 1.462479,-0.100569\H,0,0.289479,4.45091,1.299148\H,0,-1.249152,3.63151
 2,0.997075\H,0,-0.073398,2.919207,2.107537\H,0,-0.289479,-4.45091,1.29

 Normal termination of Gaussian 16 at Sat Apr  5 22:10:45 2025.
