 Gaussian 16, Revision C.01,

 ----------------------------------------------------------------------
 #t hf aug-cc-pvdz symm=none int=(grid=ultrafine) guess=(read,tcheck) s
 table=(opt,rrhf)
 ----------------------------------------------------------------------
 -----
 title
 -----
 Symbolic Z-matrix:
 Charge =  0 Multiplicity = 1

 SCF Done:  E(RHF) =  -249.032291319     A.U. after   12 cycles
 Normal termination of Gaussian 16 at Sat Apr  5 22:06:29 2025.
 Gaussian 16:  ES64L-G16RevC.01  3-Jul-2019

 ----------------------------------------------------------------------
 #t hf aug-cc-pvdz iop(5/13=1,5/36=2,99/5=2) pseudo=read geom=check gue
 ss=(read,tcheck) scf=(maxcycle=1)
 ----------------------------------------------------------------------
 -----
 title
 -----
 Structure from the checkpoint file:  "1-2-3-6-tetrahydropyridine.chk"
 Charge =  0 Multiplicity = 1

                         Standard orientation:
 ---------------------------------------------------------------------
 Center     Atomic      Atomic             Coordinates (Angstroms)
 Number     Number       Type             X           Y           Z
 ---------------------------------------------------------------------
      1          1           0       -1.470271    2.051300    0.139796
      2          6           0       -0.812779    1.192330    0.058323
      3          1           0        0.914317    2.364351   -0.092773
      4          6           0        0.501406    1.362711   -0.053276
      5          1           0        2.325124    0.404709    0.529666
      6          1           0        1.868711    0.112199   -1.129780
      7          6           0        1.463386    0.206961   -0.115255
      8          1           0        0.675255   -1.115005    1.396505
      9          1           0        1.389092   -1.962725    0.036134
     10          6           0        0.779659   -1.100064    0.308149
     11          1           0       -2.309570   -0.197467   -0.590760
     12          1           0       -1.867638   -0.356259    1.088810
     13          6           0       -1.454743   -0.170688    0.089051
     14          1           0       -0.487677   -1.340668   -1.269513
     15          7           0       -0.556988   -1.272562   -0.261434
 ---------------------------------------------------------------------

 SCF Done:  E(RHF) =  -249.107605058     A.U. after    2 cycles

 The electronic state is 1-A.
 Alpha  occ. eigenvalues --  -15.60357 -11.25945 -11.25504 -11.23393 -11.23198
 Alpha  occ. eigenvalues --  -11.23115  -1.18422  -1.05009  -1.00787  -0.86826
 Alpha  occ. eigenvalues --   -0.84553  -0.72285  -0.67907  -0.62709  -0.60891
 Alpha  occ. eigenvalues --   -0.58127  -0.55738  -0.53876  -0.52090  -0.49302
 Alpha  occ. eigenvalues --   -0.47251  -0.35838  -0.34965
 Alpha virt. eigenvalues --    0.03435   0.04146   0.04403   0.04755   0.06406
 Alpha virt. eigenvalues --    0.06738   0.06992   0.07769   0.08548   0.12226
 Alpha virt. eigenvalues --    0.12903   0.13508   0.14055   0.14448   0.14945

 Mulliken charges:
               1
     1  H   -0.379846
     2  C    0.147226
     3  H   -0.394742
     4  C   -0.070113
     5  H    0.000756
     6  H    0.008440
     7  C    0.114619
     8  H   -0.154859
     9  H   -0.145442
    10  C    0.806682
    11  H   -0.055364
    12  H   -0.024016
    13  C    0.694235
    14  H    0.001276
    15  N   -0.548854
 Sum of Mulliken charges =  -0.00000

 Dipole moment (field-independent basis, Debye):
    X=              0.5306    Y=              0.7500    Z=             -0.4999  Tot=              1.0459

 Test job not archived.
 1\1\GINC-SE231\SP\RHF\Aug-CC-pVDZ\C5H9N1\OHZDE\05-Apr-2025\0\\#t hf au
 g-cc-pvdz iop(5/13=1,5/36=2,99/5=2) pseudo=read geom=check guess=(read
 ,tcheck) scf=(maxcycle=1)\\title\\0,1\H,0,-1.47027,2.0513,0.139796\C,0
 ,-0.812779,1.19233,0.058323\H,0,0.914318,2.364351,-0.092773\C,0,0.5014
 06,1.362711,-0.053276\H,0,2.325124,0.404708,0.529666\H,0,1.868711,0.11
 2198,-1.12978\C,0,1.463386,0.206961,-0.115255\H,0,0.675255,-1.115005,1
 .396505\H,0,1.389091,-1.962725,0.036134\C,0,0.779659,-1.100064,0.30814
 9\H,0,-2.30957,-0.197466,-0.59076\H,0,-1.867638,-0.356258,1.08881\C,0,

 Normal termination of Gaussian 16 at Sat Apr  5 22:06:40 2025.
