 Gaussian 16, Revision C.01,

 ----------------------------------------------------------------------
 #t hf aug-cc-pvdz symm=none int=(grid=ultrafine) guess=(read,tcheck) s
 table=(opt,rrhf)
 ----------------------------------------------------------------------
 -----
 title
 -----
 Symbolic Z-matrix:
 Charge =  0 Multiplicity = 1

 SCF Done:  E(RHF) =  -347.848665069     A.U. after   16 cycles
 Normal termination of Gaussian 16 at Sat Apr  5 22:10:38 2025.
 Gaussian 16:  ES64L-G16RevC.01  3-Jul-2019

 ----------------------------------------------------------------------
 #t hf aug-cc-pvdz iop(5/13=1,5/36=2,99/5=2) pseudo=read geom=check gue
 ss=(read,tcheck) scf=(maxcycle=1)
 ----------------------------------------------------------------------
 -----
 title
 -----
 Structure from the checkpoint file:  "1-2-4-trimethylbenzene.chk"
 Charge =  0 Multiplicity = 1

                         Standard orientation:
 ---------------------------------------------------------------------
 Center     Atomic      Atomic             Coordinates (Angstroms)
 Number     Number       Type             X           Y           Z
 ---------------------------------------------------------------------
      1          6           0        1.195758   -1.298145   -0.004519
      2          6           0       -0.164078   -1.590289   -0.001142
      3          6           0        0.666857    1.027078   -0.003574
      4          6           0        1.634761    0.020991   -0.004468
      5          6           0       -1.127279   -0.586152    0.001431
      6          6           0       -0.698001    0.753544   -0.000391
      7          6           0        3.101945    0.363537    0.005491
      8          6           0       -2.592222   -0.934876    0.003747
      9          6           0       -1.694071    1.883282   -0.000809
     10          1           0        1.916869   -2.105981   -0.008032
     11          1           0       -0.483106   -2.625508   -0.001941
     12          1           0        0.988228    2.062856   -0.006517
     13          1           0        3.350936    1.071949   -0.786662
     14          1           0        3.394831    0.823552    0.952224
     15          1           0        3.716693   -0.524973   -0.134151
     16          1           0       -3.103136   -0.529106    0.880359
     17          1           0       -3.105416   -0.531909   -0.872848
     18          1           0       -2.735435   -2.014351    0.005643
     19          1           0       -1.191305    2.849145   -0.002610
     20          1           0       -2.346579    1.844113   -0.876396
     21          1           0       -2.344609    1.846392    0.876330
 ---------------------------------------------------------------------

 SCF Done:  E(RHF) =  -347.954504083     A.U. after    2 cycles

 The electronic state is 1-A.
 Alpha  occ. eigenvalues --  -11.24212 -11.24065 -11.23768 -11.23233 -11.23048
 Alpha  occ. eigenvalues --  -11.22946 -11.22923 -11.22850 -11.22820  -1.14553
 Alpha  occ. eigenvalues --   -1.05724  -1.02502  -0.96855  -0.93168  -0.88750
 Alpha  occ. eigenvalues --   -0.81261  -0.76843  -0.66285  -0.65814  -0.61476
 Alpha  occ. eigenvalues --   -0.59375  -0.57137  -0.56853  -0.55917  -0.55141
 Alpha  occ. eigenvalues --   -0.54923  -0.54028  -0.52193  -0.47687  -0.47528
 Alpha  occ. eigenvalues --   -0.46993  -0.32693  -0.31070
 Alpha virt. eigenvalues --    0.03521   0.03762   0.04041   0.05264   0.05589
 Alpha virt. eigenvalues --    0.05697   0.06500   0.07274   0.07615   0.07941
 Alpha virt. eigenvalues --    0.09656   0.09900   0.10549   0.11182   0.12186

 Mulliken charges:
               1
     1  C    0.415968
     2  C    0.418299
     3  C    0.226467
     4  C   -0.217344
     5  C   -0.430665
     6  C   -0.538686
     7  C    0.554544
     8  C    0.726188
     9  C    0.589380
    10  H   -0.594548
    11  H   -0.633005
    12  H   -0.648051
    13  H    0.046104
    14  H    0.102759
    15  H   -0.180526
    16  H    0.160801
    17  H    0.160017
    18  H   -0.264384
    19  H   -0.263396
    20  H    0.185599
    21  H    0.184480
 Sum of Mulliken charges =  -0.00000

 Dipole moment (field-independent basis, Debye):
    X=             -0.2553    Y=              0.3049    Z=              0.0133  Tot=              0.3979

 Test job not archived.
 1\1\GINC-SE190\SP\RHF\Aug-CC-pVDZ\C9H12\OHZDE\05-Apr-2025\0\\#t hf aug
 -cc-pvdz iop(5/13=1,5/36=2,99/5=2) pseudo=read geom=check guess=(read,
 tcheck) scf=(maxcycle=1)\\title\\0,1\C,0,1.195758,-1.298145,-0.004519\
 C,0,-0.164078,-1.590289,-0.001142\C,0,0.666857,1.027078,-0.003574\C,0,
 1.634761,0.020991,-0.004468\C,0,-1.127279,-0.586152,0.001431\C,0,-0.69
 8001,0.753544,-0.000391\C,0,3.101945,0.363537,0.005491\C,0,-2.592222,-
 0.934876,0.003747\C,0,-1.694071,1.883282,-0.000809\H,0,1.916869,-2.105
 981,-0.008032\H,0,-0.483106,-2.625508,-0.001941\H,0,0.988228,2.062856,

 Normal termination of Gaussian 16 at Sat Apr  5 22:10:50 2025.
