 Gaussian 16, Revision C.01,

 ----------------------------------------------------------------------
 #t hf aug-cc-pvdz symm=none int=(grid=ultrafine) guess=(read,tcheck) s
 table=(opt,rrhf)
 ----------------------------------------------------------------------
 -----
 title
 -----
 Symbolic Z-matrix:
 Charge =  0 Multiplicity = 1

 SCF Done:  E(RHF) =  -626.164978976     A.U. after   12 cycles
 Normal termination of Gaussian 16 at Sat Apr  5 22:07:33 2025.
 Gaussian 16:  ES64L-G16RevC.01  3-Jul-2019

 ----------------------------------------------------------------------
 #t hf aug-cc-pvdz iop(5/13=1,5/36=2,99/5=2) pseudo=read geom=check gue
 ss=(read,tcheck) scf=(maxcycle=1)
 ----------------------------------------------------------------------
 -----
 title
 -----
 Structure from the checkpoint file:  "1-2-4-5-tetrafluorobenzene.chk"
 Charge =  0 Multiplicity = 1

                         Standard orientation:
 ---------------------------------------------------------------------
 Center     Atomic      Atomic             Coordinates (Angstroms)
 Number     Number       Type             X           Y           Z
 ---------------------------------------------------------------------
      1          6           0        0.000000    1.191371    0.693954
      2          6           0        0.000000    0.000000    1.397434
      3          6           0       -0.000000   -1.191371    0.693954
      4          6           0       -0.000000   -1.191371   -0.693954
      5          6           0        0.000000    0.000000   -1.397434
      6          6           0        0.000000    1.191371   -0.693954
      7          9           0        0.000000    2.357926    1.354335
      8          1           0        0.000000    0.000000    2.477199
      9          9           0       -0.000000   -2.357926    1.354335
     10          9           0       -0.000000   -2.357926   -1.354335
     11          1           0        0.000000    0.000000   -2.477199
     12          9           0        0.000000    2.357926   -1.354335
 ---------------------------------------------------------------------

 SCF Done:  E(RHF) =  -626.377037428     A.U. after    2 cycles

 The electronic state is 1-AG.
 Alpha  occ. eigenvalues --  -26.16601 -26.16598 -26.16595 -26.16594 -11.37735
 Alpha  occ. eigenvalues --  -11.37728 -11.37619 -11.37614 -11.29612 -11.29605
 Alpha  occ. eigenvalues --   -1.71085  -1.71051  -1.70129  -1.70112  -1.21015
 Alpha  occ. eigenvalues --   -1.08089  -1.07519  -0.94262  -0.93492  -0.85155
 Alpha  occ. eigenvalues --   -0.84685  -0.84609  -0.79432  -0.79145  -0.78761
 Alpha  occ. eigenvalues --   -0.77549  -0.77144  -0.76917  -0.75105  -0.74948
 Alpha  occ. eigenvalues --   -0.66995  -0.66392  -0.62923  -0.59429  -0.54981
 Alpha  occ. eigenvalues --   -0.39452  -0.37681
 Alpha virt. eigenvalues --    0.03458   0.03829   0.07051   0.07340   0.08320
 Alpha virt. eigenvalues --    0.08865   0.10738   0.10852   0.11054   0.12564
 Alpha virt. eigenvalues --    0.13114   0.13237   0.13518   0.14421   0.15755

 Mulliken charges:
               1
     1  C    0.256058
     2  C    0.418618
     3  C    0.256058
     4  C    0.256058
     5  C    0.418618
     6  C    0.256058
     7  F   -0.276657
     8  H   -0.377419
     9  F   -0.276657
    10  F   -0.276657
    11  H   -0.377419
    12  F   -0.276657
 Sum of Mulliken charges =   0.00000

 Dipole moment (field-independent basis, Debye):
    X=              0.0000    Y=              0.0000    Z=              0.0000  Tot=              0.0000

 Test job not archived.
 1\1\GINC-SE115\SP\RHF\Aug-CC-pVDZ\C6H2F4\OHZDE\05-Apr-2025\0\\#t hf au
 g-cc-pvdz iop(5/13=1,5/36=2,99/5=2) pseudo=read geom=check guess=(read
 ,tcheck) scf=(maxcycle=1)\\title\\0,1\C,0,0.,1.191371,0.693954\C,0,0.,
 0.,1.397434\C,0,0.,-1.191371,0.693954\C,0,0.,-1.191371,-0.693954\C,0,0
 .,0.,-1.397434\C,0,0.,1.191371,-0.693954\F,0,0.,2.357926,1.354335\H,0,
 0.,0.,2.477199\F,0,0.,-2.357926,1.354335\F,0,0.,-2.357926,-1.354335\H,
 0,0.,0.,-2.477199\F,0,0.,2.357926,-1.354335\\Version=ES64L-G16RevC.01\
 State=1-AG\HF=-626.3770374\RMSD=2.621e-02\Dipole=0.,0.,0.\Quadrupole=2

 Normal termination of Gaussian 16 at Sat Apr  5 22:07:37 2025.
