 Gaussian 16, Revision C.01,

 ----------------------------------------------------------------------
 #t hf aug-cc-pvdz symm=none int=(grid=ultrafine) guess=(read,tcheck) s
 table=(opt,rrhf)
 ----------------------------------------------------------------------
 -----
 title
 -----
 Symbolic Z-matrix:
 Charge =  0 Multiplicity = 1

 SCF Done:  E(RHF) =  -240.813167471     A.U. after   12 cycles
 Normal termination of Gaussian 16 at Sat Apr  5 22:07:23 2025.
 Gaussian 16:  ES64L-G16RevC.01  3-Jul-2019

 ----------------------------------------------------------------------
 #t hf aug-cc-pvdz iop(5/13=1,5/36=2,99/5=2) pseudo=read geom=check gue
 ss=(read,tcheck) scf=(maxcycle=1)
 ----------------------------------------------------------------------
 -----
 title
 -----
 Structure from the checkpoint file:  "1-2-5-triazole.chk"
 Charge =  0 Multiplicity = 1

                         Standard orientation:
 ---------------------------------------------------------------------
 Center     Atomic      Atomic             Coordinates (Angstroms)
 Number     Number       Type             X           Y           Z
 ---------------------------------------------------------------------
      1          7           0        0.000000    1.125330    0.353534
      2          7           0        0.000000    0.000000    1.049856
      3          7           0       -0.000000   -1.125330    0.353534
      4          6           0        0.000000   -0.700907   -0.908175
      5          6           0        0.000000    0.700907   -0.908175
      6          1           0        0.000000    0.000000    2.055597
      7          1           0        0.000000   -1.396879   -1.727982
      8          1           0        0.000000    1.396879   -1.727982
 ---------------------------------------------------------------------

 SCF Done:  E(RHF) =  -240.881658287     A.U. after    2 cycles

 The electronic state is 1-A1.
 Alpha  occ. eigenvalues --  -15.74974 -15.68645 -15.68628 -11.27969 -11.27859
 Alpha  occ. eigenvalues --   -1.41110  -1.16456  -1.09503  -0.85782  -0.84116
 Alpha  occ. eigenvalues --   -0.74542  -0.64970  -0.63170  -0.62259  -0.50177
 Alpha  occ. eigenvalues --   -0.47250  -0.39919  -0.37998
 Alpha virt. eigenvalues --    0.03452   0.03820   0.04769   0.09677   0.10455
 Alpha virt. eigenvalues --    0.10737   0.12855   0.13671   0.13893   0.14679
 Alpha virt. eigenvalues --    0.16537   0.16841   0.17768   0.18242   0.20143

 Mulliken charges:
               1
     1  N   -0.438323
     2  N    0.073391
     3  N   -0.438323
     4  C    0.633894
     5  C    0.633894
     6  H    0.033539
     7  H   -0.249036
     8  H   -0.249036
 Sum of Mulliken charges =   0.00000

 Dipole moment (field-independent basis, Debye):
    X=              0.0000    Y=              0.0000    Z=             -0.1766  Tot=              0.1766

 Test job not archived.
 1\1\GINC-SE055\SP\RHF\Aug-CC-pVDZ\C2H3N3\OHZDE\05-Apr-2025\0\\#t hf au
 g-cc-pvdz iop(5/13=1,5/36=2,99/5=2) pseudo=read geom=check guess=(read
 ,tcheck) scf=(maxcycle=1)\\title\\0,1\N,0,0.,1.12533,0.353534\N,0,0.,0
 .,1.049856\N,0,0.,-1.12533,0.353534\C,0,0.,-0.700907,-0.908175\C,0,0.,
 0.700907,-0.908175\H,0,0.,0.,2.055597\H,0,0.,-1.396879,-1.727982\H,0,0
 .,1.396879,-1.727982\\Version=ES64L-G16RevC.01\State=1-A1\HF=-240.8816
 583\RMSD=5.267e-03\Dipole=0.,0.,-0.0694896\Quadrupole=-1.944802,-3.856
 5558,5.8013579,0.,0.,0.\PG=C02V [C2(N1H1),SGV(C2H2N2)]\\@

 Normal termination of Gaussian 16 at Sat Apr  5 22:07:25 2025.
