 Gaussian 16, Revision C.01,

 ----------------------------------------------------------------------
 #t hf aug-cc-pvdz symm=none int=(grid=ultrafine) guess=(read,tcheck) s
 table=(opt,rrhf)
 ----------------------------------------------------------------------
 -----
 title
 -----
 Symbolic Z-matrix:
 Charge =  0 Multiplicity = 1

 SCF Done:  E(RHF) =  -436.330919475     A.U. after   15 cycles
 Normal termination of Gaussian 16 at Sat Apr  5 22:10:11 2025.
 Gaussian 16:  ES64L-G16RevC.01  3-Jul-2019

 ----------------------------------------------------------------------
 #t hf aug-cc-pvdz iop(5/13=1,5/36=2,99/5=2) pseudo=read geom=check gue
 ss=(read,tcheck) scf=(maxcycle=1)
 ----------------------------------------------------------------------
 -----
 title
 -----
 Structure from the checkpoint file:  "1-2-furylpyrrole.chk"
 Charge =  0 Multiplicity = 1

                         Standard orientation:
 ---------------------------------------------------------------------
 Center     Atomic      Atomic             Coordinates (Angstroms)
 Number     Number       Type             X           Y           Z
 ---------------------------------------------------------------------
      1          6           0       -2.772926   -0.745430    0.127040
      2          6           0       -2.835748    0.657366   -0.109605
      3          6           0        2.860308    0.583052    0.103711
      4          6           0        1.551119    1.154181    0.212862
      5          6           0       -1.451987   -1.096859    0.185131
      6          6           0       -1.550872    1.119466   -0.190721
      7          6           0        2.691852   -0.736863   -0.133470
      8          6           0        0.685887    0.123810    0.019734
      9          7           0       -0.697666    0.046430   -0.010764
     10          8           0        1.353226   -1.035205   -0.194701
     11          1           0       -3.604798   -1.419043    0.239788
     12          1           0       -3.724063    1.255180   -0.219283
     13          1           0        3.800352    1.097381    0.201917
     14          1           0        1.298133    2.176815    0.425961
     15          1           0       -0.974196   -2.044614    0.349051
     16          1           0       -1.163532    2.103939   -0.379320
     17          1           0        3.360167   -1.565371   -0.273248
 ---------------------------------------------------------------------

 SCF Done:  E(RHF) =  -436.464120176     A.U. after    2 cycles

 The electronic state is 1-A.
 Alpha  occ. eigenvalues --  -20.64820 -15.69245 -11.35623 -11.30125 -11.27267
 Alpha  occ. eigenvalues --  -11.27182 -11.24970 -11.24156 -11.23130 -11.22922
 Alpha  occ. eigenvalues --   -1.43809  -1.28684  -1.09693  -1.08096  -0.98733
 Alpha  occ. eigenvalues --   -0.98216  -0.84298  -0.83094  -0.77531  -0.77007
 Alpha  occ. eigenvalues --   -0.75235  -0.68358  -0.67561  -0.62226  -0.60263
 Alpha  occ. eigenvalues --   -0.59054  -0.58365  -0.58071  -0.56902  -0.55240
 Alpha  occ. eigenvalues --   -0.54294  -0.42087  -0.39078  -0.31291  -0.29528
 Alpha virt. eigenvalues --    0.03288   0.03744   0.03957   0.05138   0.05427
 Alpha virt. eigenvalues --    0.06770   0.06950   0.08990   0.09824   0.10941
 Alpha virt. eigenvalues --    0.11867   0.12239   0.12428   0.12825   0.13598

 Mulliken charges:
               1
     1  C    0.178124
     2  C    0.306680
     3  C    0.478777
     4  C    0.991594
     5  C    0.949567
     6  C    0.602775
     7  C    0.633876
     8  C   -0.428074
     9  N   -0.462339
    10  O   -0.430348
    11  H   -0.343341
    12  H   -0.341337
    13  H   -0.327547
    14  H   -0.456343
    15  H   -0.455044
    16  H   -0.504296
    17  H   -0.392725
 Sum of Mulliken charges =  -0.00000

 Dipole moment (field-independent basis, Debye):
    X=              1.2231    Y=              0.7528    Z=              0.1827  Tot=              1.4478

 Test job not archived.
 1\1\GINC-SE055\SP\RHF\Aug-CC-pVDZ\C8H7N1O1\OHZDE\05-Apr-2025\0\\#t hf
 aug-cc-pvdz iop(5/13=1,5/36=2,99/5=2) pseudo=read geom=check guess=(re
 ad,tcheck) scf=(maxcycle=1)\\title\\0,1\C,0,-2.772926,-0.74543,0.12704
 \C,0,-2.835748,0.657366,-0.109605\C,0,2.860308,0.583052,0.103711\C,0,1
 .551119,1.154181,0.212862\C,0,-1.451987,-1.096859,0.185131\C,0,-1.5508
 72,1.119466,-0.190721\C,0,2.691852,-0.736863,-0.13347\C,0,0.685887,0.1
 2381,0.019734\N,0,-0.697666,0.04643,-0.010764\O,0,1.353226,-1.035205,-
 0.194701\H,0,-3.604798,-1.419043,0.239788\H,0,-3.724063,1.25518,-0.219

 Normal termination of Gaussian 16 at Sat Apr  5 22:10:47 2025.
