 Gaussian 16, Revision C.01,

 ----------------------------------------------------------------------
 #t hf aug-cc-pvdz symm=none int=(grid=ultrafine) guess=(read,tcheck) s
 table=(opt,rrhf)
 ----------------------------------------------------------------------
 -----
 title
 -----
 Symbolic Z-matrix:
 Charge =  0 Multiplicity = 1

 SCF Done:  E(RHF) =  -412.485350754     A.U. after   13 cycles
 Normal termination of Gaussian 16 at Sat Apr  5 22:07:43 2025.
 Gaussian 16:  ES64L-G16RevC.01  3-Jul-2019

 ----------------------------------------------------------------------
 #t hf aug-cc-pvdz iop(5/13=1,5/36=2,99/5=2) pseudo=read geom=check gue
 ss=(read,tcheck) scf=(maxcycle=1)
 ----------------------------------------------------------------------
 -----
 title
 -----
 Structure from the checkpoint file:  "1-2-diisocyanatoethane.chk"
 Charge =  0 Multiplicity = 1

                         Standard orientation:
 ---------------------------------------------------------------------
 Center     Atomic      Atomic             Coordinates (Angstroms)
 Number     Number       Type             X           Y           Z
 ---------------------------------------------------------------------
      1          8           0       -4.169729   -0.037851   -0.000189
      2          8           0        4.169729    0.037850   -0.000331
      3          7           0       -1.822306    0.260406    0.000120
      4          7           0        1.822306   -0.260406    0.000229
      5          6           0       -0.587346   -0.486761    0.000192
      6          6           0        0.587346    0.486762    0.000114
      7          6           0       -3.002288    0.047253   -0.000041
      8          6           0        3.002288   -0.047254   -0.000081
      9          1           0       -0.530798   -1.125725   -0.882692
     10          1           0       -0.530812   -1.125555    0.883200
     11          1           0        0.530823    1.125555   -0.882895
     12          1           0        0.530787    1.125727    0.882997
 ---------------------------------------------------------------------

 SCF Done:  E(RHF) =  -412.616066995     A.U. after    2 cycles

 The electronic state is 1-A.
 Alpha  occ. eigenvalues --  -20.63018 -20.63018 -15.66507 -15.66506 -11.42605
 Alpha  occ. eigenvalues --  -11.42604 -11.32357 -11.32302  -1.43264  -1.43256
 Alpha  occ. eigenvalues --   -1.26322  -1.24845  -1.07625  -0.93393  -0.77500
 Alpha  occ. eigenvalues --   -0.75469  -0.73714  -0.71066  -0.69064  -0.67439
 Alpha  occ. eigenvalues --   -0.67116  -0.65648  -0.64651  -0.59252  -0.57589
 Alpha  occ. eigenvalues --   -0.46697  -0.45034  -0.43626  -0.43619
 Alpha virt. eigenvalues --    0.02901   0.03603   0.03823   0.05849   0.07007
 Alpha virt. eigenvalues --    0.08521   0.08912   0.09469   0.10814   0.11152
 Alpha virt. eigenvalues --    0.11974   0.12188   0.12622   0.13582   0.15291

 Mulliken charges:
               1
     1  O   -0.223560
     2  O   -0.223561
     3  N   -0.072101
     4  N   -0.072100
     5  C    0.864382
     6  C    0.864382
     7  C   -0.304687
     8  C   -0.304687
     9  H   -0.132021
    10  H   -0.132012
    11  H   -0.132029
    12  H   -0.132004
 Sum of Mulliken charges =  -0.00000

 Dipole moment (field-independent basis, Debye):
    X=             -0.0000    Y=              0.0000    Z=              0.0004  Tot=              0.0004

 Test job not archived.
 1\1\GINC-SE198\SP\RHF\Aug-CC-pVDZ\C4H4N2O2\OHZDE\05-Apr-2025\0\\#t hf
 aug-cc-pvdz iop(5/13=1,5/36=2,99/5=2) pseudo=read geom=check guess=(re
 ad,tcheck) scf=(maxcycle=1)\\title\\0,1\O,0,-4.169729,-0.037851,-0.000
 189\O,0,4.169729,0.03785,-0.000331\N,0,-1.822306,0.260406,0.00012\N,0,
 1.822306,-0.260406,0.000229\C,0,-0.587346,-0.486761,0.000192\C,0,0.587
 346,0.486762,0.000114\C,0,-3.002288,0.047253,-0.000041\C,0,3.002288,-0
 .047254,-0.000081\H,0,-0.530798,-1.125725,-0.882692\H,0,-0.530812,-1.1
 25555,0.8832\H,0,0.530823,1.125555,-0.882895\H,0,0.530787,1.125727,0.8

 Normal termination of Gaussian 16 at Sat Apr  5 22:07:48 2025.
