 Gaussian 16, Revision C.01,

 ----------------------------------------------------------------------
 #t hf aug-cc-pvdz symm=none int=(grid=ultrafine) guess=(read,tcheck) s
 table=(opt,rrhf)
 ----------------------------------------------------------------------
 -----
 title
 -----
 Symbolic Z-matrix:
 Charge =  0 Multiplicity = 1

 SCF Done:  E(RHF) =  -1074.93638967     A.U. after   15 cycles
 Normal termination of Gaussian 16 at Sat Apr  5 22:07:35 2025.
 Gaussian 16:  ES64L-G16RevC.01  3-Jul-2019

 ----------------------------------------------------------------------
 #t hf aug-cc-pvdz iop(5/13=1,5/36=2,99/5=2) pseudo=read geom=check gue
 ss=(read,tcheck) scf=(maxcycle=1)
 ----------------------------------------------------------------------
 -----
 title
 -----
 Structure from the checkpoint file:  "1-2-4-triazole-5-mercaptomethyl-3-thione.chk"
 Charge =  0 Multiplicity = 1

                         Standard orientation:
 ---------------------------------------------------------------------
 Center     Atomic      Atomic             Coordinates (Angstroms)
 Number     Number       Type             X           Y           Z
 ---------------------------------------------------------------------
      1         16           0        3.158398    0.012249   -0.430328
      2         16           0       -3.209591   -0.375034   -0.249597
      3          7           0        0.242548    1.157410    0.432157
      4          7           0       -1.076255    1.253277   -0.028584
      5          7           0       -0.552113   -0.911454    0.160999
      6          6           0        0.499106   -0.189314    0.400050
      7          6           0        1.863333   -0.733224    0.644600
      8          6           0       -1.610629   -0.027657   -0.042353
      9          1           0        0.910796    1.791602    0.010985
     10          1           0        2.185538   -0.503864    1.660042
     11          1           0        1.837961   -1.811016    0.524244
     12          1           0       -1.629039    2.025841    0.310848
     13          1           0        2.703714   -0.491460   -1.593112
 ---------------------------------------------------------------------

 SCF Done:  E(RHF) =  -1075.05375943     A.U. after    2 cycles

 The electronic state is 1-A.
 Alpha  occ. eigenvalues --  -93.58119 -93.47773 -15.73090 -15.71843 -15.65156
 Alpha  occ. eigenvalues --  -11.38531 -11.38507 -11.32650  -8.87810  -8.77693
 Alpha  occ. eigenvalues --   -6.21963  -6.21757  -6.21418  -6.11949  -6.11404
 Alpha  occ. eigenvalues --   -6.11289  -1.40022  -1.20696  -1.16690  -1.07334
 Alpha  occ. eigenvalues --   -0.96836  -0.93713  -0.84558  -0.82106  -0.75346
 Alpha  occ. eigenvalues --   -0.72446  -0.65581  -0.64940  -0.62770  -0.57848
 Alpha  occ. eigenvalues --   -0.52427  -0.50418  -0.48569  -0.46769  -0.45438
 Alpha  occ. eigenvalues --   -0.40382  -0.32227  -0.31564
 Alpha virt. eigenvalues --    0.02181   0.03209   0.03557   0.05207   0.06330
 Alpha virt. eigenvalues --    0.07052   0.07917   0.09075   0.09259   0.09932
 Alpha virt. eigenvalues --    0.11354   0.12523   0.13239   0.14145   0.14277

 Mulliken charges:
               1
     1  S    0.283524
     2  S   -0.001519
     3  N   -0.218511
     4  N   -0.296299
     5  N   -0.549620
     6  C    0.124010
     7  C   -0.006121
     8  C    0.405648
     9  H    0.090601
    10  H    0.079680
    11  H   -0.044285
    12  H    0.049992
    13  H    0.082900
 Sum of Mulliken charges =   0.00000

 Dipole moment (field-independent basis, Debye):
    X=              6.1198    Y=              3.1568    Z=              0.9801  Tot=              6.9555

 Test job not archived.
 1\1\GINC-SE185\SP\RHF\Aug-CC-pVDZ\C3H5N3S2\OHZDE\05-Apr-2025\0\\#t hf
 aug-cc-pvdz iop(5/13=1,5/36=2,99/5=2) pseudo=read geom=check guess=(re
 ad,tcheck) scf=(maxcycle=1)\\title\\0,1\S,0,3.158398,0.012249,-0.43032
 8\S,0,-3.209591,-0.375034,-0.249597\N,0,0.242548,1.15741,0.432157\N,0,
 -1.076255,1.253277,-0.028584\N,0,-0.552113,-0.911454,0.160999\C,0,0.49
 9106,-0.189314,0.40005\C,0,1.863333,-0.733224,0.6446\C,0,-1.610629,-0.
 027657,-0.042353\H,0,0.910796,1.791602,0.010985\H,0,2.185538,-0.503864
 ,1.660042\H,0,1.837961,-1.811016,0.524244\H,0,-1.629039,2.025841,0.310

 Normal termination of Gaussian 16 at Sat Apr  5 22:07:41 2025.
