 Gaussian 16, Revision C.01,

 ----------------------------------------------------------------------
 #t hf aug-cc-pvdz symm=none int=(grid=ultrafine) guess=(read,tcheck) s
 table=(opt,rrhf)
 ----------------------------------------------------------------------
 -----
 title
 -----
 Symbolic Z-matrix:
 Charge =  0 Multiplicity = 1

 SCF Done:  E(RHF) =  -527.306028677     A.U. after   14 cycles
 Normal termination of Gaussian 16 at Sat Apr  5 22:07:19 2025.
 Gaussian 16:  ES64L-G16RevC.01  3-Jul-2019

 ----------------------------------------------------------------------
 #t hf aug-cc-pvdz iop(5/13=1,5/36=2,99/5=2) pseudo=read geom=check gue
 ss=(read,tcheck) scf=(maxcycle=1)
 ----------------------------------------------------------------------
 -----
 title
 -----
 Structure from the checkpoint file:  "1-2-3-trifluorobenzene.chk"
 Charge =  0 Multiplicity = 1

                         Standard orientation:
 ---------------------------------------------------------------------
 Center     Atomic      Atomic             Coordinates (Angstroms)
 Number     Number       Type             X           Y           Z
 ---------------------------------------------------------------------
      1          6           0       -0.000000    0.000000   -2.055605
      2          6           0        0.000000    1.208669   -1.369465
      3          6           0        0.000000    1.195102    0.013528
      4          6           0        0.000000   -0.000000    0.720519
      5          6           0       -0.000000   -1.195102    0.013528
      6          6           0       -0.000000   -1.208669   -1.369465
      7          9           0        0.000000   -2.344755    0.704591
      8          9           0        0.000000   -0.000000    2.056059
      9          9           0        0.000000    2.344755    0.704591
     10          1           0       -0.000000    0.000000   -3.135818
     11          1           0        0.000000    2.157806   -1.884800
     12          1           0       -0.000000   -2.157806   -1.884800
 ---------------------------------------------------------------------

 SCF Done:  E(RHF) =  -527.482578604     A.U. after    2 cycles

 The electronic state is 1-A1.
 Alpha  occ. eigenvalues --  -26.16057 -26.15902 -26.15900 -11.36977 -11.36960
 Alpha  occ. eigenvalues --  -11.36606 -11.28253 -11.27601 -11.27591  -1.70682
 Alpha  occ. eigenvalues --   -1.69886  -1.69320  -1.19348  -1.06218  -1.06127
 Alpha  occ. eigenvalues --   -0.92036  -0.91657  -0.83883  -0.82361  -0.81268
 Alpha  occ. eigenvalues --   -0.78956  -0.77118  -0.76047  -0.75099  -0.73013
 Alpha  occ. eigenvalues --   -0.72124  -0.68241  -0.62794  -0.57324  -0.57282
 Alpha  occ. eigenvalues --   -0.53892  -0.37468  -0.37362
 Alpha virt. eigenvalues --    0.02899   0.04025   0.04985   0.07963   0.09017
 Alpha virt. eigenvalues --    0.09220   0.09301   0.10782   0.10873   0.13361
 Alpha virt. eigenvalues --    0.13458   0.13833   0.13867   0.14639   0.14665

 Mulliken charges:
               1
     1  C    0.597045
     2  C    0.271483
     3  C    0.372800
     4  C    0.171091
     5  C    0.372800
     6  C    0.271483
     7  F   -0.315456
     8  F   -0.206030
     9  F   -0.315456
    10  H   -0.406608
    11  H   -0.406577
    12  H   -0.406577
 Sum of Mulliken charges =  -0.00000

 Dipole moment (field-independent basis, Debye):
    X=             -0.0000    Y=              0.0000    Z=             -4.0515  Tot=              4.0515

 Test job not archived.
 1\1\GINC-SE052\SP\RHF\Aug-CC-pVDZ\C6H3F3\OHZDE\05-Apr-2025\0\\#t hf au
 g-cc-pvdz iop(5/13=1,5/36=2,99/5=2) pseudo=read geom=check guess=(read
 ,tcheck) scf=(maxcycle=1)\\title\\0,1\C,0,0.,0.,-2.055605\C,0,0.,1.208
 669,-1.369465\C,0,0.,1.195102,0.013528\C,0,0.,0.,0.720519\C,0,0.,-1.19
 5102,0.013528\C,0,0.,-1.208669,-1.369465\F,0,0.,-2.344755,0.704591\F,0
 ,0.,0.,2.056059\F,0,0.,2.344755,0.704591\H,0,0.,0.,-3.135818\H,0,0.,2.
 157806,-1.8848\H,0,0.,-2.157806,-1.8848\\Version=ES64L-G16RevC.01\Stat
 e=1-A1\HF=-527.4825786\RMSD=1.930e-02\Dipole=0.,0.,-1.5939785\Quadrupo

 Normal termination of Gaussian 16 at Sat Apr  5 22:07:24 2025.
