 Gaussian 16, Revision C.01,

 ----------------------------------------------------------------------
 #t hf aug-cc-pvdz symm=none int=(grid=ultrafine) guess=(read,tcheck) s
 table=(opt,rrhf)
 ----------------------------------------------------------------------
 -----
 title
 -----
 Symbolic Z-matrix:
 Charge =  0 Multiplicity = 1

 SCF Done:  E(RHF) =  -276.593324850     A.U. after   15 cycles
 Normal termination of Gaussian 16 at Sat Apr  5 22:06:09 2025.
 Gaussian 16:  ES64L-G16RevC.01  3-Jul-2019

 ----------------------------------------------------------------------
 #t hf aug-cc-pvdz iop(5/13=1,5/36=2,99/5=2) pseudo=read geom=check gue
 ss=(read,tcheck) scf=(maxcycle=1)
 ----------------------------------------------------------------------
 -----
 title
 -----
 Structure from the checkpoint file:  "1-2-3-4-oxatriazole.chk"
 Charge =  0 Multiplicity = 1

                         Standard orientation:
 ---------------------------------------------------------------------
 Center     Atomic      Atomic             Coordinates (Angstroms)
 Number     Number       Type             X           Y           Z
 ---------------------------------------------------------------------
      1          6           0       -0.000000    1.060596    0.000000
      2          7           0        1.107973    0.392861    0.000000
      3          7           0        0.687701   -0.924391    0.000000
      4          7           0       -0.543555   -1.038784    0.000000
      5          8           0       -1.082437    0.312079    0.000000
      6          1           0       -0.105336    2.131991    0.000000
 ---------------------------------------------------------------------

 SCF Done:  E(RHF) =  -276.672946870     A.U. after    2 cycles

 The electronic state is 1-A'.
 Alpha  occ. eigenvalues --  -20.70997 -15.78987 -15.76150 -15.69822 -11.40231
 Alpha  occ. eigenvalues --   -1.53735  -1.33812  -1.21561  -0.91892  -0.91120
 Alpha  occ. eigenvalues --   -0.78282  -0.73229  -0.66605  -0.60506  -0.54395
 Alpha  occ. eigenvalues --   -0.50988  -0.50565  -0.45598
 Alpha virt. eigenvalues --    0.02732   0.06429   0.07583   0.09271   0.10179
 Alpha virt. eigenvalues --    0.12939   0.12956   0.15085   0.15518   0.17692
 Alpha virt. eigenvalues --    0.18665   0.20059   0.20816   0.23153   0.24230

 Mulliken charges:
               1
     1  C    0.923642
     2  N   -0.338560
     3  N   -0.016207
     4  N    0.091572
     5  O   -0.494662
     6  H   -0.165786
 Sum of Mulliken charges =  -0.00000

 Dipole moment (field-independent basis, Debye):
    X=             -0.7922    Y=              2.6732    Z=              0.0000  Tot=              2.7881

 Test job not archived.
 1\1\GINC-SE198\SP\RHF\Aug-CC-pVDZ\C1H1N3O1\OHZDE\05-Apr-2025\0\\#t hf
 aug-cc-pvdz iop(5/13=1,5/36=2,99/5=2) pseudo=read geom=check guess=(re
 ad,tcheck) scf=(maxcycle=1)\\title\\0,1\C,0,0.,1.060596,0.\N,0,1.10797
 3,0.392861,0.\N,0,0.687701,-0.924391,0.\N,0,-0.543555,-1.038784,0.\O,0
 ,-1.082437,0.312079,0.\H,0,-0.105336,2.131991,0.\\Version=ES64L-G16Rev
 C.01\State=1-A'\HF=-276.6729469\RMSD=3.244e-03\Dipole=-0.3116707,1.051
 7186,0.\Quadrupole=-3.56231,2.772896,0.7894139,-0.7918498,0.,0.\PG=CS
 [SG(C1H1N3O1)]\\@

 Normal termination of Gaussian 16 at Sat Apr  5 22:06:37 2025.
