 Gaussian 16, Revision C.01,

 ----------------------------------------------------------------------
 #t hf aug-cc-pvdz symm=none int=(grid=ultrafine) guess=(read,tcheck) s
 table=(opt,rrhf)
 ----------------------------------------------------------------------
 -----
 title
 -----
 Symbolic Z-matrix:
 Charge =  0 Multiplicity = 1

 SCF Done:  E(RHF) =  -347.845104989     A.U. after   15 cycles
 Normal termination of Gaussian 16 at Sat Apr  5 22:09:01 2025.
 Gaussian 16:  ES64L-G16RevC.01  3-Jul-2019

 ----------------------------------------------------------------------
 #t hf aug-cc-pvdz iop(5/13=1,5/36=2,99/5=2) pseudo=read geom=check gue
 ss=(read,tcheck) scf=(maxcycle=1)
 ----------------------------------------------------------------------
 -----
 title
 -----
 Structure from the checkpoint file:  "1-2-3-trimethylbenzene.chk"
 Charge =  0 Multiplicity = 1

                         Standard orientation:
 ---------------------------------------------------------------------
 Center     Atomic      Atomic             Coordinates (Angstroms)
 Number     Number       Type             X           Y           Z
 ---------------------------------------------------------------------
      1          6           0       -0.013713   -2.140034    0.000000
      2          6           0       -1.206232   -1.434267    0.000000
      3          6           0        1.188364   -1.448980    0.000000
      4          6           0       -1.219337   -0.039134    0.000000
      5          6           0        1.211026   -0.056326    0.000000
      6          6           0        0.000000    0.658904    0.000000
      7          6           0       -2.548821    0.677092    0.000000
      8          6           0        2.533357    0.666411    0.000000
      9          6           0        0.040515    2.167409    0.000000
     10          1           0       -0.020953   -3.222033    0.000000
     11          1           0       -2.147129   -1.970109    0.000000
     12          1           0        2.124223   -1.993715    0.000000
     13          1           0       -2.669919    1.314846    0.878141
     14          1           0       -2.669919    1.314846   -0.878141
     15          1           0       -3.368212   -0.040077    0.000000
     16          1           0        2.643869    1.309810   -0.876251
     17          1           0        2.643869    1.309810    0.876251
     18          1           0        3.361993   -0.039937    0.000000
     19          1           0        0.571159    2.550206   -0.875359
     20          1           0       -0.951091    2.609692    0.000000
     21          1           0        0.571159    2.550206    0.875359
 ---------------------------------------------------------------------

 SCF Done:  E(RHF) =  -347.950858347     A.U. after    2 cycles

 The electronic state is 1-A'.
 Alpha  occ. eigenvalues --  -11.24230 -11.24137 -11.23891 -11.23258 -11.23009
 Alpha  occ. eigenvalues --  -11.22993 -11.22893 -11.22862 -11.22836  -1.14608
 Alpha  occ. eigenvalues --   -1.04682  -1.03937  -0.96359  -0.91997  -0.90792
 Alpha  occ. eigenvalues --   -0.78829  -0.78287  -0.67209  -0.66128  -0.60630
 Alpha  occ. eigenvalues --   -0.59884  -0.56898  -0.56252  -0.56168  -0.55487
 Alpha  occ. eigenvalues --   -0.54739  -0.54368  -0.52254  -0.47591  -0.47339
 Alpha  occ. eigenvalues --   -0.47291  -0.31970  -0.31734
 Alpha virt. eigenvalues --    0.03487   0.03932   0.03984   0.05273   0.05334
 Alpha virt. eigenvalues --    0.05541   0.06929   0.07428   0.07707   0.08304
 Alpha virt. eigenvalues --    0.08900   0.10045   0.11720   0.11753   0.12106

 Mulliken charges:
               1
     1  C   -0.172496
     2  C    0.921393
     3  C    1.069813
     4  C   -0.066499
     5  C   -1.009922
     6  C   -0.783812
     7  C    0.316694
     8  C    0.522954
     9  C    0.578848
    10  H   -0.472729
    11  H   -0.582659
    12  H   -0.580209
    13  H    0.216932
    14  H    0.216932
    15  H   -0.284768
    16  H    0.164119
    17  H    0.164119
    18  H   -0.278616
    19  H    0.209695
    20  H   -0.359484
    21  H    0.209695
 Sum of Mulliken charges =  -0.00000

 Dipole moment (field-independent basis, Debye):
    X=              0.0123    Y=              0.7362    Z=             -0.0000  Tot=              0.7363

 Test job not archived.
 1\1\GINC-SE052\SP\RHF\Aug-CC-pVDZ\C9H12\OHZDE\05-Apr-2025\0\\#t hf aug
 -cc-pvdz iop(5/13=1,5/36=2,99/5=2) pseudo=read geom=check guess=(read,
 tcheck) scf=(maxcycle=1)\\title\\0,1\C,0,-0.013713,-2.140034,0.\C,0,-1
 .206232,-1.434267,0.\C,0,1.188364,-1.44898,0.\C,0,-1.219337,-0.039134,
 0.\C,0,1.211026,-0.056326,0.\C,0,0.,0.658904,0.\C,0,-2.548821,0.677092
 ,0.\C,0,2.533357,0.666411,0.\C,0,0.040515,2.167409,0.\H,0,-0.020953,-3
 .222033,0.\H,0,-2.147129,-1.970109,0.\H,0,2.124223,-1.993715,0.\H,0,-2
 .669919,1.314846,0.878141\H,0,-2.669919,1.314846,-0.878141\H,0,-3.3682

 Normal termination of Gaussian 16 at Sat Apr  5 22:09:50 2025.
