 Gaussian 16, Revision C.01,

 ----------------------------------------------------------------------
 #t hf aug-cc-pvdz symm=none int=(grid=ultrafine) guess=(read,tcheck) s
 table=(opt,rrhf)
 ----------------------------------------------------------------------
 -----
 title
 -----
 Symbolic Z-matrix:
 Charge =  0 Multiplicity = 1

 SCF Done:  E(RHF) =  -228.348803375     A.U. after   13 cycles

 1\1\GINC-SE164\Stability\RHF\Aug-CC-pVDZ\C3H10N2\OHZDE\05-Apr-2025\0\\
 #t hf aug-cc-pvdz symm=none int=(grid=ultrafine) guess=(read,tcheck) s
 table=(opt,rrhf)\\title\\0,1\N,0,0.515491,1.391494,-0.213362\H,0,-0.25
 848,1.947494,0.128733\H,0,1.36414,1.866364,0.068915\N,0,-2.061342,-0.1
 2769,0.037236\H,0,-2.181732,0.757797,-0.436282\H,0,-2.220834,0.015135,
 1.026891\C,0,-0.749795,-0.71169,-0.229148\H,0,-0.747392,-1.729706,0.16
 841\H,0,-0.63564,-0.788418,-1.312659\C,0,1.758237,-0.700957,-0.022941\
 H,0,1.744056,-1.722779,0.358287\H,0,1.887491,-0.735988,-1.105935\H,0,2

 Normal termination of Gaussian 16 at Sat Apr  5 22:07:39 2025.
 Gaussian 16:  ES64L-G16RevC.01  3-Jul-2019

 ----------------------------------------------------------------------
 #t hf aug-cc-pvdz iop(5/13=1,5/36=2,99/5=2) pseudo=read geom=check gue
 ss=(read,tcheck) scf=(maxcycle=1)
 ----------------------------------------------------------------------
 -----
 title
 -----
 Structure from the checkpoint file:  "1-2-diaminopropane.chk"
 Charge =  0 Multiplicity = 1

                         Standard orientation:
 ---------------------------------------------------------------------
 Center     Atomic      Atomic             Coordinates (Angstroms)
 Number     Number       Type             X           Y           Z
 ---------------------------------------------------------------------
      1          7           0        0.515491    1.391494   -0.213362
      2          1           0       -0.258480    1.947494    0.128733
      3          1           0        1.364140    1.866364    0.068915
      4          7           0       -2.061342   -0.127690    0.037236
      5          1           0       -2.181732    0.757797   -0.436282
      6          1           0       -2.220834    0.015135    1.026891
      7          6           0       -0.749795   -0.711690   -0.229148
      8          1           0       -0.747392   -1.729706    0.168410
      9          1           0       -0.635640   -0.788418   -1.312659
     10          6           0        1.758237   -0.700957   -0.022941
     11          1           0        1.744056   -1.722779    0.358287
     12          1           0        1.887491   -0.735988   -1.105935
     13          1           0        2.629221   -0.200050    0.404284
     14          6           0        0.469629    0.030604    0.335268
     15          1           0        0.371697    0.035781    1.433164
 ---------------------------------------------------------------------

 SCF Done:  E(RHF) =  -228.420515982     A.U. after    2 cycles

 The electronic state is 1-A.
 Alpha  occ. eigenvalues --  -15.60513 -15.60286 -11.26168 -11.25211 -11.22428
 Alpha  occ. eigenvalues --   -1.17199  -1.12236  -0.99566  -0.89617  -0.78502
 Alpha  occ. eigenvalues --   -0.68326  -0.66066  -0.62840  -0.60719  -0.54545
 Alpha  occ. eigenvalues --   -0.52677  -0.51825  -0.50140  -0.49654  -0.39449
 Alpha  occ. eigenvalues --   -0.37112
 Alpha virt. eigenvalues --    0.03155   0.04066   0.04428   0.04865   0.06832
 Alpha virt. eigenvalues --    0.07152   0.07421   0.07722   0.09569   0.09942
 Alpha virt. eigenvalues --    0.12596   0.13624   0.14577   0.15304   0.15921

 Mulliken charges:
               1
     1  N   -0.306989
     2  H   -0.011740
     3  H   -0.010269
     4  N   -0.432438
     5  H    0.008659
     6  H    0.004198
     7  C    0.984479
     8  H   -0.107611
     9  H   -0.098231
    10  C    0.606689
    11  H   -0.049124
    12  H    0.027509
    13  H   -0.105361
    14  C   -0.375796
    15  H   -0.133974
 Sum of Mulliken charges =   0.00000

 Dipole moment (field-independent basis, Debye):
    X=              0.9960    Y=              0.9302    Z=              1.7183  Tot=              2.1932

 Test job not archived.
 1\1\GINC-SE164\SP\RHF\Aug-CC-pVDZ\C3H10N2\OHZDE\05-Apr-2025\0\\#t hf a
 ug-cc-pvdz iop(5/13=1,5/36=2,99/5=2) pseudo=read geom=check guess=(rea
 d,tcheck) scf=(maxcycle=1)\\title\\0,1\N,0,0.515491,1.391494,-0.213362
 \H,0,-0.25848,1.947494,0.128733\H,0,1.36414,1.866364,0.068915\N,0,-2.0
 61342,-0.12769,0.037236\H,0,-2.181732,0.757797,-0.436282\H,0,-2.220834
 ,0.015135,1.026891\C,0,-0.749795,-0.71169,-0.229148\H,0,-0.747392,-1.7
 29706,0.16841\H,0,-0.63564,-0.788418,-1.312659\C,0,1.758237,-0.700957,
 -0.022941\H,0,1.744056,-1.722779,0.358287\H,0,1.887491,-0.735988,-1.10

 Normal termination of Gaussian 16 at Sat Apr  5 22:07:44 2025.
