 Gaussian 16, Revision C.01,

 ----------------------------------------------------------------------
 #t hf aug-cc-pvdz symm=none int=(grid=ultrafine) guess=(read,tcheck) s
 table=(opt,rrhf)
 ----------------------------------------------------------------------
 -----
 title
 -----
 Symbolic Z-matrix:
 Charge =  0 Multiplicity = 1

 SCF Done:  E(RHF) =  -793.058710475     A.U. after   15 cycles
 Normal termination of Gaussian 16 at Sat Apr  5 22:08:34 2025.
 Gaussian 16:  ES64L-G16RevC.01  3-Jul-2019

 ----------------------------------------------------------------------
 #t hf aug-cc-pvdz iop(5/13=1,5/36=2,99/5=2) pseudo=read geom=check gue
 ss=(read,tcheck) scf=(maxcycle=1)
 ----------------------------------------------------------------------
 -----
 title
 -----
 Structure from the checkpoint file:  "1-2-5-oxathiazolidine-4-carboxylic_acid.chk"
 Charge =  0 Multiplicity = 1

                         Standard orientation:
 ---------------------------------------------------------------------
 Center     Atomic      Atomic             Coordinates (Angstroms)
 Number     Number       Type             X           Y           Z
 ---------------------------------------------------------------------
      1         16           0        2.173408   -0.484649   -0.218616
      2          8           0        1.706873    1.062931    0.309144
      3          8           0       -2.406268    1.061439   -0.306376
      4          8           0       -2.347569   -1.153252    0.077835
      5          7           0        0.354539    1.209545   -0.199575
      6          6           0       -0.337365    0.073070    0.423591
      7          6           0       -1.793433    0.075562    0.003121
      8          6           0        0.479207   -1.171035    0.031849
      9          1           0       -3.285795   -1.061746   -0.148192
     10          1           0        0.051131    2.086883    0.215271
     11          1           0       -0.334047    0.154184    1.518761
     12          1           0        0.458740   -1.921418    0.816656
     13          1           0        0.138929   -1.604861   -0.903801
 ---------------------------------------------------------------------

 SCF Done:  E(RHF) =  -793.202993716     A.U. after    2 cycles

 The electronic state is 1-A.
 Alpha  occ. eigenvalues --  -93.59005 -20.65063 -20.63638 -20.58973 -15.70090
 Alpha  occ. eigenvalues --  -11.42618 -11.32153 -11.29543  -8.88150  -6.22330
 Alpha  occ. eigenvalues --   -6.22058  -6.21597  -1.45213  -1.38538  -1.35442
 Alpha  occ. eigenvalues --   -1.14532  -1.06490  -0.94487  -0.84982  -0.83522
 Alpha  occ. eigenvalues --   -0.74788  -0.73852  -0.72972  -0.66863  -0.65294
 Alpha  occ. eigenvalues --   -0.63278  -0.60909  -0.58801  -0.56549  -0.54515
 Alpha  occ. eigenvalues --   -0.52333  -0.50070  -0.46814  -0.42290  -0.35425
 Alpha virt. eigenvalues --    0.02752   0.04150   0.04636   0.05415   0.06747
 Alpha virt. eigenvalues --    0.08182   0.08301   0.09959   0.11221   0.12141
 Alpha virt. eigenvalues --    0.12773   0.13215   0.13643   0.15062   0.15309

 Mulliken charges:
               1
     1  S    0.831826
     2  O   -0.847069
     3  O   -0.479169
     4  O   -0.519397
     5  N   -0.251989
     6  C    0.288785
     7  C    0.652447
     8  C    0.087777
     9  H    0.216248
    10  H    0.098192
    11  H    0.019895
    12  H   -0.024913
    13  H   -0.072633
 Sum of Mulliken charges =  -0.00000

 Dipole moment (field-independent basis, Debye):
    X=             -2.0334    Y=             -2.6953    Z=              1.3746  Tot=              3.6454

 Test job not archived.
 1\1\GINC-SE053\SP\RHF\Aug-CC-pVDZ\C3H5N1O3S1\OHZDE\05-Apr-2025\0\\#t h
 f aug-cc-pvdz iop(5/13=1,5/36=2,99/5=2) pseudo=read geom=check guess=(
 read,tcheck) scf=(maxcycle=1)\\title\\0,1\S,0,2.173408,-0.484649,-0.21
 8616\O,0,1.706873,1.062931,0.309144\O,0,-2.406268,1.061439,-0.306376\O
 ,0,-2.347569,-1.153252,0.077835\N,0,0.354539,1.209545,-0.199575\C,0,-0
 .337365,0.07307,0.423591\C,0,-1.793433,0.075562,0.003121\C,0,0.479207,
 -1.171035,0.031849\H,0,-3.285795,-1.061746,-0.148192\H,0,0.051131,2.08
 6883,0.215271\H,0,-0.334047,0.154184,1.518761\H,0,0.45874,-1.921418,0.

 Normal termination of Gaussian 16 at Sat Apr  5 22:08:40 2025.
