 Gaussian 16, Revision C.01,

 ----------------------------------------------------------------------
 #t hf aug-cc-pvdz symm=none int=(grid=ultrafine) guess=(read,tcheck) s
 table=(opt,rrhf)
 ----------------------------------------------------------------------
 -----
 title
 -----
 Symbolic Z-matrix:
 Charge =  0 Multiplicity = 1

 SCF Done:  E(RHF) =  -278.649069003     A.U. after   13 cycles
 Normal termination of Gaussian 16 at Sat Apr  5 22:07:07 2025.
 Gaussian 16:  ES64L-G16RevC.01  3-Jul-2019

 ----------------------------------------------------------------------
 #t hf aug-cc-pvdz iop(5/13=1,5/36=2,99/5=2) pseudo=read geom=check gue
 ss=(read,tcheck) scf=(maxcycle=1)
 ----------------------------------------------------------------------
 -----
 title
 -----
 Structure from the checkpoint file:  "1-2-3-triazine.chk"
 Charge =  0 Multiplicity = 1

                         Standard orientation:
 ---------------------------------------------------------------------
 Center     Atomic      Atomic             Coordinates (Angstroms)
 Number     Number       Type             X           Y           Z
 ---------------------------------------------------------------------
      1          7           0        0.000000    1.151590    0.730933
      2          7           0        0.000000    0.000000    1.376561
      3          7           0       -0.000000   -1.151590    0.730933
      4          6           0        0.000000   -1.164165   -0.603698
      5          6           0        0.000000   -0.000000   -1.346005
      6          6           0        0.000000    1.164165   -0.603698
      7          1           0        0.000000   -2.145712   -1.060908
      8          1           0        0.000000   -0.000000   -2.426768
      9          1           0        0.000000    2.145712   -1.060908
 ---------------------------------------------------------------------

 SCF Done:  E(RHF) =  -278.727642889     A.U. after    2 cycles

 The electronic state is 1-A1.
 Alpha  occ. eigenvalues --  -15.73466 -15.69109 -15.69094 -11.32392 -11.32392
 Alpha  occ. eigenvalues --  -11.29323  -1.37146  -1.19100  -1.12978  -0.93917
 Alpha  occ. eigenvalues --   -0.92380  -0.74915  -0.74362  -0.66673  -0.61950
 Alpha  occ. eigenvalues --   -0.61481  -0.57127  -0.43409  -0.43252  -0.42346
 Alpha  occ. eigenvalues --   -0.41983
 Alpha virt. eigenvalues --    0.02127   0.03481   0.05411   0.06561   0.06963
 Alpha virt. eigenvalues --    0.08584   0.09908   0.10329   0.11668   0.13137
 Alpha virt. eigenvalues --    0.13793   0.13922   0.14209   0.15257   0.15655

 Mulliken charges:
               1
     1  N   -0.333259
     2  N   -0.231291
     3  N   -0.333259
     4  C    0.610132
     5  C    0.611912
     6  C    0.610132
     7  H   -0.286061
     8  H   -0.362245
     9  H   -0.286061
 Sum of Mulliken charges =  -0.00000

 Dipole moment (field-independent basis, Debye):
    X=              0.0000    Y=              0.0000    Z=             -5.0057  Tot=              5.0057

 Test job not archived.
 1\1\GINC-SE055\SP\RHF\Aug-CC-pVDZ\C3H3N3\OHZDE\05-Apr-2025\0\\#t hf au
 g-cc-pvdz iop(5/13=1,5/36=2,99/5=2) pseudo=read geom=check guess=(read
 ,tcheck) scf=(maxcycle=1)\\title\\0,1\N,0,0.,1.15159,0.730933\N,0,0.,0
 .,1.376561\N,0,0.,-1.15159,0.730933\C,0,0.,-1.164165,-0.603698\C,0,0.,
 0.,-1.346005\C,0,0.,1.164165,-0.603698\H,0,0.,-2.145712,-1.060908\H,0,
 0.,0.,-2.426768\H,0,0.,2.145712,-1.060908\\Version=ES64L-G16RevC.01\St
 ate=1-A1\HF=-278.7276429\RMSD=6.617e-03\Dipole=0.,0.,-1.969379\Quadrup
 ole=-0.3232125,0.7832498,-0.4600372,0.,0.,0.\PG=C02V [C2(H1C1N1),SGV(C

 Normal termination of Gaussian 16 at Sat Apr  5 22:07:10 2025.
