 Gaussian 16, Revision C.01,

 ----------------------------------------------------------------------
 #t hf aug-cc-pvdz symm=none int=(grid=ultrafine) guess=(read,tcheck) s
 table=(opt,rrhf)
 ----------------------------------------------------------------------
 -----
 title
 -----
 Symbolic Z-matrix:
 Charge =  0 Multiplicity = 1

 SCF Done:  E(RHF) =  -193.956813990     A.U. after   13 cycles
 Normal termination of Gaussian 16 at Sat Apr  5 22:08:49 2025.
 Gaussian 16:  ES64L-G16RevC.01  3-Jul-2019

 ----------------------------------------------------------------------
 #t hf aug-cc-pvdz iop(5/13=1,5/36=2,99/5=2) pseudo=read geom=check gue
 ss=(read,tcheck) scf=(maxcycle=1)
 ----------------------------------------------------------------------
 -----
 title
 -----
 Structure from the checkpoint file:  "1-2-pentadiene.chk"
 Charge =  0 Multiplicity = 1

                         Standard orientation:
 ---------------------------------------------------------------------
 Center     Atomic      Atomic             Coordinates (Angstroms)
 Number     Number       Type             X           Y           Z
 ---------------------------------------------------------------------
      1          6           0       -1.396817    0.429335    0.000000
      2          6           0       -1.472698   -1.093148    0.000000
      3          6           0        0.000000    1.004651    0.000000
      4          6           0        1.112304    0.327742    0.000000
      5          6           0        2.229478   -0.340821    0.000000
      6          1           0       -1.928062    0.827718    0.870383
      7          1           0       -1.928062    0.827718   -0.870383
      8          1           0       -0.983848   -1.513104   -0.879616
      9          1           0       -2.511270   -1.424852    0.000000
     10          1           0       -0.983848   -1.513104    0.879616
     11          1           0        0.069668    2.089604    0.000000
     12          1           0        2.715910   -0.630267   -0.924292
     13          1           0        2.715910   -0.630267    0.924292
 ---------------------------------------------------------------------

 SCF Done:  E(RHF) =  -194.020291919     A.U. after    2 cycles

 The electronic state is 1-A'.
 Alpha  occ. eigenvalues --  -11.25844 -11.24701 -11.24267 -11.24104 -11.22294
 Alpha  occ. eigenvalues --   -1.08709  -1.01879  -0.94072  -0.84311  -0.69285
 Alpha  occ. eigenvalues --   -0.63660  -0.62067  -0.60902  -0.59959  -0.51078
 Alpha  occ. eigenvalues --   -0.50431  -0.50118  -0.37372  -0.36190
 Alpha virt. eigenvalues --    0.03539   0.04277   0.04720   0.04901   0.06622
 Alpha virt. eigenvalues --    0.06629   0.07374   0.08478   0.09993   0.12088
 Alpha virt. eigenvalues --    0.12442   0.13941   0.14154   0.14633   0.15907

 Mulliken charges:
               1
     1  C   -0.008170
     2  C    0.412128
     3  C    0.682160
     4  C   -0.846567
     5  C    0.732152
     6  H   -0.017600
     7  H   -0.017600
     8  H   -0.003257
     9  H   -0.108000
    10  H   -0.003257
    11  H   -0.339535
    12  H   -0.241228
    13  H   -0.241228
 Sum of Mulliken charges =  -0.00000

 Dipole moment (field-independent basis, Debye):
    X=             -0.5183    Y=              0.0244    Z=              0.0000  Tot=              0.5189

 Test job not archived.
 1\1\GINC-SE115\SP\RHF\Aug-CC-pVDZ\C5H8\OHZDE\05-Apr-2025\0\\#t hf aug-
 cc-pvdz iop(5/13=1,5/36=2,99/5=2) pseudo=read geom=check guess=(read,t
 check) scf=(maxcycle=1)\\title\\0,1\C,0,-1.396817,0.429335,0.\C,0,-1.4
 72698,-1.093148,0.\C,0,0.,1.004651,0.\C,0,1.112304,0.327742,0.\C,0,2.2
 29478,-0.340821,0.\H,0,-1.928062,0.827718,0.870383\H,0,-1.928062,0.827
 718,-0.870383\H,0,-0.983848,-1.513104,-0.879616\H,0,-2.51127,-1.424852
 ,0.\H,0,-0.983848,-1.513104,0.879616\H,0,0.069668,2.089604,0.\H,0,2.71
 591,-0.630267,-0.924292\H,0,2.71591,-0.630267,0.924292\\Version=ES64L-

 Normal termination of Gaussian 16 at Sat Apr  5 22:08:52 2025.
