 Gaussian 16, Revision C.01,

 ----------------------------------------------------------------------
 #t hf aug-cc-pvdz symm=none int=(grid=ultrafine) guess=(read,tcheck) s
 table=(opt,rrhf)
 ----------------------------------------------------------------------
 -----
 title
 -----
 Symbolic Z-matrix:
 Charge =  0 Multiplicity = 1

 SCF Done:  E(RHF) =  -226.544873333     A.U. after   13 cycles
 Normal termination of Gaussian 16 at Sat Apr  5 22:07:21 2025.
 Gaussian 16:  ES64L-G16RevC.01  3-Jul-2019

 ----------------------------------------------------------------------
 #t hf aug-cc-pvdz iop(5/13=1,5/36=2,99/5=2) pseudo=read geom=check gue
 ss=(read,tcheck) scf=(maxcycle=1)
 ----------------------------------------------------------------------
 -----
 title
 -----
 Structure from the checkpoint file:  "1-2-acetylenediol.chk"
 Charge =  0 Multiplicity = 1

                         Standard orientation:
 ---------------------------------------------------------------------
 Center     Atomic      Atomic             Coordinates (Angstroms)
 Number     Number       Type             X           Y           Z
 ---------------------------------------------------------------------
      1          8           0       -1.911245    0.085603   -0.071095
      2          8           0        1.911245   -0.085603   -0.071094
      3          6           0       -0.597007   -0.013624    0.006112
      4          6           0        0.597007    0.013624    0.006111
      5          1           0       -2.328814   -0.541074    0.532088
      6          1           0        2.328813    0.541078    0.532085
 ---------------------------------------------------------------------

 SCF Done:  E(RHF) =  -226.621594696     A.U. after    2 cycles

 The electronic state is 1-A.
 Alpha  occ. eigenvalues --  -20.64017 -20.64016 -11.29753 -11.29348  -1.39710
 Alpha  occ. eigenvalues --   -1.39228  -1.01884  -0.83667  -0.79702  -0.68047
 Alpha  occ. eigenvalues --   -0.67157  -0.62530  -0.62394  -0.37584  -0.37432
 Alpha virt. eigenvalues --    0.02827   0.03746   0.10023   0.10753   0.12337
 Alpha virt. eigenvalues --    0.12378   0.12797   0.13351   0.15973   0.19539
 Alpha virt. eigenvalues --    0.22372   0.23620   0.25186   0.26676   0.26969

 Mulliken charges:
               1
     1  O   -0.321098
     2  O   -0.321097
     3  C    0.148926
     4  C    0.148923
     5  H    0.172173
     6  H    0.172173
 Sum of Mulliken charges =  -0.00000

 Dipole moment (field-independent basis, Debye):
    X=             -0.0000    Y=              0.0000    Z=              2.1791  Tot=              2.1791

 Test job not archived.
 1\1\GINC-SE185\SP\RHF\Aug-CC-pVDZ\C2H2O2\OHZDE\05-Apr-2025\0\\#t hf au
 g-cc-pvdz iop(5/13=1,5/36=2,99/5=2) pseudo=read geom=check guess=(read
 ,tcheck) scf=(maxcycle=1)\\title\\0,1\O,0,-1.911245,0.085603,-0.071095
 \O,0,1.911245,-0.085603,-0.071094\C,0,-0.597007,-0.013624,0.006112\C,0
 ,0.597007,0.013624,0.006111\H,0,-2.328814,-0.541074,0.532088\H,0,2.328
 813,0.541078,0.532085\\Version=ES64L-G16RevC.01\State=1-A\HF=-226.6215
 947\RMSD=6.872e-03\Dipole=-0.0000005,0.0000031,0.8573364\Quadrupole=2.
 6224852,-1.2834428,-1.3390424,4.6021497,-0.000016,0.0000008\PG=C01 [X(

 Normal termination of Gaussian 16 at Sat Apr  5 22:07:23 2025.
