 Gaussian 16, Revision C.01,

 ----------------------------------------------------------------------
 #t hf aug-cc-pvdz symm=none int=(grid=ultrafine) guess=(read,tcheck) s
 table=(opt,rrhf)
 ----------------------------------------------------------------------
 -----
 title
 -----
 Symbolic Z-matrix:
 Charge =  0 Multiplicity = 1

 SCF Done:  E(RHF) =  -307.021357262     A.U. after   11 cycles

 1\1\GINC-SE198\Stability\RHF\Aug-CC-pVDZ\C4H10O2\OHZDE\05-Apr-2025\0\\
 #t hf aug-cc-pvdz symm=none int=(grid=ultrafine) guess=(read,tcheck) s
 table=(opt,rrhf)\\title\\0,1\C,0,0.170671,2.748478,-0.443046\C,0,-0.17
 0671,-2.748478,-0.443046\C,0,-0.170671,0.7354,0.732131\C,0,0.170671,-0
 .7354,0.732131\O,0,0.508228,1.383432,-0.325029\O,0,-0.508228,-1.383432
 ,-0.325029\H,0,0.742895,3.152831,-1.275405\H,0,0.423122,3.30609,0.4678
 16\H,0,-0.898648,2.880525,-0.647014\H,0,0.898648,-2.880525,-0.647014\H
 ,0,-0.742895,-3.152831,-1.275405\H,0,-0.423122,-3.30609,0.467816\H,0,0

 Normal termination of Gaussian 16 at Sat Apr  5 22:08:09 2025.
 Gaussian 16:  ES64L-G16RevC.01  3-Jul-2019

 ----------------------------------------------------------------------
 #t hf aug-cc-pvdz iop(5/13=1,5/36=2,99/5=2) pseudo=read geom=check gue
 ss=(read,tcheck) scf=(maxcycle=1)
 ----------------------------------------------------------------------
 -----
 title
 -----
 Structure from the checkpoint file:  "1-2-dimethoxyethane.chk"
 Charge =  0 Multiplicity = 1

                         Standard orientation:
 ---------------------------------------------------------------------
 Center     Atomic      Atomic             Coordinates (Angstroms)
 Number     Number       Type             X           Y           Z
 ---------------------------------------------------------------------
      1          6           0        0.170671    2.748478   -0.443046
      2          6           0       -0.170671   -2.748478   -0.443046
      3          6           0       -0.170671    0.735400    0.732131
      4          6           0        0.170671   -0.735400    0.732131
      5          8           0        0.508228    1.383432   -0.325029
      6          8           0       -0.508228   -1.383432   -0.325029
      7          1           0        0.742895    3.152831   -1.275405
      8          1           0        0.423122    3.306090    0.467816
      9          1           0       -0.898648    2.880525   -0.647014
     10          1           0        0.898648   -2.880525   -0.647014
     11          1           0       -0.742895   -3.152831   -1.275405
     12          1           0       -0.423122   -3.306090    0.467816
     13          1           0        0.125486    1.172411    1.696274
     14          1           0       -1.256057    0.857539    0.624047
     15          1           0       -0.125486   -1.172411    1.696274
     16          1           0        1.256057   -0.857539    0.624047
 ---------------------------------------------------------------------

 SCF Done:  E(RHF) =  -307.124026757     A.U. after    2 cycles

 The electronic state is 1-A.
 Alpha  occ. eigenvalues --  -20.56648 -20.56648 -11.28433 -11.28374 -11.27920
 Alpha  occ. eigenvalues --  -11.27920  -1.33926  -1.32307  -1.02636  -0.93252
 Alpha  occ. eigenvalues --   -0.89094  -0.82593  -0.68872  -0.68561  -0.66270
 Alpha  occ. eigenvalues --   -0.64141  -0.63642  -0.60151  -0.55205  -0.53909
 Alpha  occ. eigenvalues --   -0.51434  -0.49271  -0.47910  -0.43950  -0.43109
 Alpha virt. eigenvalues --    0.03587   0.04340   0.04886   0.05247   0.06218
 Alpha virt. eigenvalues --    0.06551   0.06863   0.07919   0.08211   0.08989
 Alpha virt. eigenvalues --    0.11814   0.13283   0.14424   0.14820   0.15750

 Mulliken charges:
               1
     1  C    0.720275
     2  C    0.720275
     3  C    0.624024
     4  C    0.624024
     5  O   -0.647507
     6  O   -0.647507
     7  H   -0.270072
     8  H   -0.071163
     9  H   -0.075394
    10  H   -0.075394
    11  H   -0.270072
    12  H   -0.071163
    13  H   -0.125346
    14  H   -0.154817
    15  H   -0.125346
    16  H   -0.154817
 Sum of Mulliken charges =  -0.00000

 Dipole moment (field-independent basis, Debye):
    X=              0.0000    Y=              0.0000    Z=              1.7041  Tot=              1.7041

 Test job not archived.
 1\1\GINC-SE198\SP\RHF\Aug-CC-pVDZ\C4H10O2\OHZDE\05-Apr-2025\0\\#t hf a
 ug-cc-pvdz iop(5/13=1,5/36=2,99/5=2) pseudo=read geom=check guess=(rea
 d,tcheck) scf=(maxcycle=1)\\title\\0,1\C,0,0.170671,2.748478,-0.443046
 \C,0,-0.170671,-2.748478,-0.443046\C,0,-0.170671,0.7354,0.732131\C,0,0
 .170671,-0.7354,0.732131\O,0,0.508228,1.383432,-0.325029\O,0,-0.508228
 ,-1.383432,-0.325029\H,0,0.742895,3.152831,-1.275405\H,0,0.423122,3.30
 609,0.467816\H,0,-0.898648,2.880525,-0.647014\H,0,0.898648,-2.880525,-
 0.647014\H,0,-0.742895,-3.152831,-1.275405\H,0,-0.423122,-3.30609,0.46

 Normal termination of Gaussian 16 at Sat Apr  5 22:08:38 2025.
