 Gaussian 16, Revision C.01,

 ----------------------------------------------------------------------
 #t hf aug-cc-pvdz symm=none int=(grid=ultrafine) guess=(read,tcheck) s
 table=(opt,rrhf)
 ----------------------------------------------------------------------
 -----
 title
 -----
 Symbolic Z-matrix:
 Charge =  0 Multiplicity = 1

 SCF Done:  E(RHF) =  -529.611007207     A.U. after   17 cycles
 Normal termination of Gaussian 16 at Sat Apr  5 22:10:09 2025.
 Gaussian 16:  ES64L-G16RevC.01  3-Jul-2019

 ----------------------------------------------------------------------
 #t hf aug-cc-pvdz iop(5/13=1,5/36=2,99/5=2) pseudo=read geom=check gue
 ss=(read,tcheck) scf=(maxcycle=1)
 ----------------------------------------------------------------------
 -----
 title
 -----
 Structure from the checkpoint file:  "1-2-fluoroethyl-1-nitrosourea.chk"
 Charge =  0 Multiplicity = 1

                         Standard orientation:
 ---------------------------------------------------------------------
 Center     Atomic      Atomic             Coordinates (Angstroms)
 Number     Number       Type             X           Y           Z
 ---------------------------------------------------------------------
      1          9           0        2.238616   -0.469672   -1.083891
      2          8           0       -0.514809   -2.003549    0.451487
      3          8           0       -1.632764    1.813980   -0.275594
      4          7           0       -0.198773    0.275717    0.380007
      5          7           0       -0.548484    1.562718    0.217650
      6          7           0       -2.134520   -0.747839   -0.527734
      7          6           0       -0.963461   -0.934369    0.104720
      8          6           0        1.144957    0.122000    0.957118
      9          6           0        2.245900    0.443632   -0.031865
     10          1           0       -2.462917    0.183522   -0.731508
     11          1           0       -2.687718   -1.568038   -0.704569
     12          1           0        1.225249   -0.904699    1.298472
     13          1           0        1.231055    0.793777    1.810409
     14          1           0        2.119544    1.439137   -0.458411
     15          1           0        3.215888    0.378152    0.464183
 ---------------------------------------------------------------------

 SCF Done:  E(RHF) =  -529.778801101     A.U. after    2 cycles

 The electronic state is 1-A.
 Alpha  occ. eigenvalues --  -26.11307 -20.64065 -20.55956 -15.83286 -15.72868
 Alpha  occ. eigenvalues --  -15.66385 -11.42968 -11.33822 -11.30376  -1.64454
 Alpha  occ. eigenvalues --   -1.49995  -1.39019  -1.26991  -1.20436  -1.05861
 Alpha  occ. eigenvalues --   -0.97388  -0.90979  -0.82066  -0.77149  -0.76909
 Alpha  occ. eigenvalues --   -0.75430  -0.74655  -0.71279  -0.69569  -0.68097
 Alpha  occ. eigenvalues --   -0.66327  -0.62438  -0.60803  -0.59431  -0.56620
 Alpha  occ. eigenvalues --   -0.55165  -0.49502  -0.44932  -0.43925  -0.43614
 Alpha virt. eigenvalues --    0.03074   0.03483   0.04579   0.05007   0.06820
 Alpha virt. eigenvalues --    0.07051   0.07301   0.09643   0.10732   0.11857
 Alpha virt. eigenvalues --    0.12622   0.13102   0.14668   0.14756   0.15469

 Mulliken charges:
               1
     1  F   -0.433899
     2  O   -0.461169
     3  O   -0.509787
     4  N   -0.250647
     5  N    0.058688
     6  N   -0.059190
     7  C    0.735506
     8  C    0.609768
     9  C    0.782435
    10  H    0.056483
    11  H   -0.006608
    12  H   -0.194617
    13  H   -0.092016
    14  H   -0.127007
    15  H   -0.107941
 Sum of Mulliken charges =  -0.00000

 Dipole moment (field-independent basis, Debye):
    X=              0.0099    Y=              1.7107    Z=              1.3940  Tot=              2.2068

 Test job not archived.
 1\1\GINC-SE028\SP\RHF\Aug-CC-pVDZ\C3H6F1N3O2\OHZDE\05-Apr-2025\0\\#t h
 f aug-cc-pvdz iop(5/13=1,5/36=2,99/5=2) pseudo=read geom=check guess=(
 read,tcheck) scf=(maxcycle=1)\\title\\0,1\F,0,2.238616,-0.469672,-1.08
 3891\O,0,-0.514809,-2.003549,0.451487\O,0,-1.632764,1.81398,-0.275594\
 N,0,-0.198773,0.275717,0.380007\N,0,-0.548484,1.562718,0.21765\N,0,-2.
 13452,-0.747839,-0.527734\C,0,-0.963461,-0.934369,0.10472\C,0,1.144957
 ,0.122,0.957118\C,0,2.2459,0.443632,-0.031865\H,0,-2.462917,0.183522,-
 0.731508\H,0,-2.687718,-1.568038,-0.704569\H,0,1.225249,-0.904699,1.29

 Normal termination of Gaussian 16 at Sat Apr  5 22:10:42 2025.
