 Gaussian 16, Revision C.01,

 ----------------------------------------------------------------------
 #t hf aug-cc-pvdz symm=none int=(grid=ultrafine) guess=(read,tcheck) s
 table=(opt,rrhf)
 ----------------------------------------------------------------------
 -----
 title
 -----
 Symbolic Z-matrix:
 Charge =  0 Multiplicity = 1

 SCF Done:  E(RHF) =  -392.560656343     A.U. after   15 cycles
 Normal termination of Gaussian 16 at Sat Apr  5 22:08:34 2025.
 Gaussian 16:  ES64L-G16RevC.01  3-Jul-2019

 ----------------------------------------------------------------------
 #t hf aug-cc-pvdz iop(5/13=1,5/36=2,99/5=2) pseudo=read geom=check gue
 ss=(read,tcheck) scf=(maxcycle=1)
 ----------------------------------------------------------------------
 -----
 title
 -----
 Structure from the checkpoint file:  "1-2-dicyano-2-hydroxylamino-ethane.chk"
 Charge =  0 Multiplicity = 1

                         Standard orientation:
 ---------------------------------------------------------------------
 Center     Atomic      Atomic             Coordinates (Angstroms)
 Number     Number       Type             X           Y           Z
 ---------------------------------------------------------------------
      1          8           0        0.313702   -1.614925   -0.926768
      2          7           0        1.171613   -1.268187    0.163198
      3          7           0        1.427390    2.027391   -0.681155
      4          7           0       -2.527750    0.403730   -0.742264
      5          6           0        0.711444   -0.025519    0.777150
      6          6           0       -0.791840    0.053445    1.169705
      7          6           0        1.112029    1.119852   -0.051970
      8          6           0       -1.739571    0.231309    0.075617
      9          1           0        0.885285   -1.552765   -1.700527
     10          1           0        1.045190   -2.024365    0.828812
     11          1           0        1.278390    0.046227    1.709846
     12          1           0       -1.048671   -0.855680    1.716626
     13          1           0       -0.920956    0.890916    1.857922
 ---------------------------------------------------------------------

 SCF Done:  E(RHF) =  -392.676111864     A.U. after    2 cycles

 The electronic state is 1-A.
 Alpha  occ. eigenvalues --  -20.63696 -15.72230 -15.66008 -15.64560 -11.36643
 Alpha  occ. eigenvalues --  -11.32682 -11.30379 -11.29595  -1.39865  -1.22361
 Alpha  occ. eigenvalues --   -1.20274  -1.17101  -1.06535  -0.95586  -0.78200
 Alpha  occ. eigenvalues --   -0.74048  -0.73091  -0.69433  -0.65276  -0.64347
 Alpha  occ. eigenvalues --   -0.61917  -0.56489  -0.55065  -0.53989  -0.49161
 Alpha  occ. eigenvalues --   -0.48233  -0.48022  -0.46858  -0.43795
 Alpha virt. eigenvalues --    0.01422   0.03470   0.04084   0.04742   0.06421
 Alpha virt. eigenvalues --    0.08151   0.09582   0.10285   0.10616   0.12305
 Alpha virt. eigenvalues --    0.13055   0.13360   0.13915   0.14250   0.14457

 Mulliken charges:
               1
     1  O   -0.490475
     2  N   -0.275474
     3  N   -0.141393
     4  N   -0.202305
     5  C    0.675630
     6  C    0.424025
     7  C   -0.333324
     8  C   -0.121829
     9  H    0.225402
    10  H    0.087949
    11  H    0.018821
    12  H    0.057330
    13  H    0.075643
 Sum of Mulliken charges =  -0.00000

 Dipole moment (field-independent basis, Debye):
    X=              2.1111    Y=             -3.3521    Z=              5.0163  Tot=              6.3919

 Test job not archived.
 1\1\GINC-SE196\SP\RHF\Aug-CC-pVDZ\C4H5N3O1\OHZDE\05-Apr-2025\0\\#t hf
 aug-cc-pvdz iop(5/13=1,5/36=2,99/5=2) pseudo=read geom=check guess=(re
 ad,tcheck) scf=(maxcycle=1)\\title\\0,1\O,0,0.313702,-1.614925,-0.9267
 68\N,0,1.171613,-1.268187,0.163198\N,0,1.42739,2.027391,-0.681155\N,0,
 -2.52775,0.40373,-0.742264\C,0,0.711444,-0.025519,0.77715\C,0,-0.79184
 ,0.053445,1.169705\C,0,1.112029,1.119852,-0.05197\C,0,-1.739571,0.2313
 09,0.075617\H,0,0.885285,-1.552765,-1.700527\H,0,1.04519,-2.024365,0.8
 28812\H,0,1.27839,0.046227,1.709846\H,0,-1.048671,-0.85568,1.716626\H,

 Normal termination of Gaussian 16 at Sat Apr  5 22:08:39 2025.
