 Gaussian 16, Revision C.01,

 ----------------------------------------------------------------------
 #t hf aug-cc-pvdz symm=none int=(grid=ultrafine) guess=(read,tcheck) s
 table=(opt,rrhf)
 ----------------------------------------------------------------------
 -----
 title
 -----
 Symbolic Z-matrix:
 Charge =  0 Multiplicity = 1

 SCF Done:  E(RHF) =  -154.918293186     A.U. after   13 cycles
 Normal termination of Gaussian 16 at Sat Apr  5 22:07:24 2025.
 Gaussian 16:  ES64L-G16RevC.01  3-Jul-2019

 ----------------------------------------------------------------------
 #t hf aug-cc-pvdz iop(5/13=1,5/36=2,99/5=2) pseudo=read geom=check gue
 ss=(read,tcheck) scf=(maxcycle=1)
 ----------------------------------------------------------------------
 -----
 title
 -----
 Structure from the checkpoint file:  "1-2-butadiene.chk"
 Charge =  0 Multiplicity = 1

                         Standard orientation:
 ---------------------------------------------------------------------
 Center     Atomic      Atomic             Coordinates (Angstroms)
 Number     Number       Type             X           Y           Z
 ---------------------------------------------------------------------
      1          6           0       -0.676877    1.824455    0.000000
      2          6           0        0.000000    0.712806    0.000000
      3          6           0        0.674729   -0.400337    0.000000
      4          6           0        0.070788   -1.779546    0.000000
      5          1           0       -0.970419    2.308430    0.924346
      6          1           0       -0.970419    2.308430   -0.924346
      7          1           0        1.759891   -0.339248    0.000000
      8          1           0       -1.016629   -1.735258    0.000000
      9          1           0        0.392869   -2.343309   -0.878652
     10          1           0        0.392869   -2.343309    0.878652
 ---------------------------------------------------------------------

 SCF Done:  E(RHF) =  -154.969719094     A.U. after    2 cycles

 The electronic state is 1-A'.
 Alpha  occ. eigenvalues --  -11.26013 -11.24996 -11.24225 -11.23868  -1.07967
 Alpha  occ. eigenvalues --   -0.99553  -0.89238  -0.70521  -0.64333  -0.60800
 Alpha  occ. eigenvalues --   -0.57721  -0.57108  -0.53083  -0.37546  -0.36339
 Alpha virt. eigenvalues --    0.03542   0.04469   0.05124   0.05180   0.06780
 Alpha virt. eigenvalues --    0.07158   0.10180   0.10861   0.12366   0.12602
 Alpha virt. eigenvalues --    0.13683   0.15525   0.16696   0.16801   0.17078

 Mulliken charges:
               1
     1  C    0.760928
     2  C   -0.665290
     3  C    0.609705
     4  C    0.209761
     5  H   -0.229214
     6  H   -0.229214
     7  H   -0.326411
     8  H   -0.142906
     9  H    0.006320
    10  H    0.006320
 Sum of Mulliken charges =  -0.00000

 Dipole moment (field-independent basis, Debye):
    X=              0.0627    Y=             -0.4713    Z=             -0.0000  Tot=              0.4755

 Test job not archived.
 1\1\GINC-SE190\SP\RHF\Aug-CC-pVDZ\C4H6\OHZDE\05-Apr-2025\0\\#t hf aug-
 cc-pvdz iop(5/13=1,5/36=2,99/5=2) pseudo=read geom=check guess=(read,t
 check) scf=(maxcycle=1)\\title\\0,1\C,0,-0.676877,1.824455,0.\C,0,0.,0
 .712806,0.\C,0,0.674729,-0.400337,0.\C,0,0.070788,-1.779546,0.\H,0,-0.
 970419,2.30843,0.924346\H,0,-0.970419,2.30843,-0.924346\H,0,1.759891,-
 0.339248,0.\H,0,-1.016629,-1.735258,0.\H,0,0.392869,-2.343309,-0.87865
 2\H,0,0.392869,-2.343309,0.878652\\Version=ES64L-G16RevC.01\State=1-A'
 \HF=-154.9697191\RMSD=6.524e-03\Dipole=0.024682,-0.1854332,0.\Quadrupo

 Normal termination of Gaussian 16 at Sat Apr  5 22:07:26 2025.
