 Gaussian 16, Revision C.01,

 ----------------------------------------------------------------------
 #t hf aug-cc-pvdz symm=none int=(grid=ultrafine) guess=(read,tcheck) s
 table=(opt,rrhf)
 ----------------------------------------------------------------------
 -----
 title
 -----
 Symbolic Z-matrix:
 Charge =  0 Multiplicity = 1

 SCF Done:  E(RHF) =  -336.361285896     A.U. after   16 cycles
 Normal termination of Gaussian 16 at Sat Apr  5 22:08:47 2025.
 Gaussian 16:  ES64L-G16RevC.01  3-Jul-2019

 ----------------------------------------------------------------------
 #t hf aug-cc-pvdz iop(5/13=1,5/36=2,99/5=2) pseudo=read geom=check gue
 ss=(read,tcheck) scf=(maxcycle=1)
 ----------------------------------------------------------------------
 -----
 title
 -----
 Structure from the checkpoint file:  "1-2-oxazole-4-carbonitrile.chk"
 Charge =  0 Multiplicity = 1

                         Standard orientation:
 ---------------------------------------------------------------------
 Center     Atomic      Atomic             Coordinates (Angstroms)
 Number     Number       Type             X           Y           Z
 ---------------------------------------------------------------------
      1          8           0        0.710722   -1.733894    0.000000
      2          7           0       -0.691137   -1.797404    0.000000
      3          7           0       -0.085069    2.920338    0.000000
      4          6           0        0.000000    0.355924    0.000000
      5          6           0        1.091283   -0.460386    0.000000
      6          6           0       -1.094603   -0.562112    0.000000
      7          6           0       -0.038720    1.769277    0.000000
      8          1           0        2.149576   -0.263839    0.000000
      9          1           0       -2.149674   -0.341769    0.000000
 ---------------------------------------------------------------------

 SCF Done:  E(RHF) =  -336.460266234     A.U. after    2 cycles

 The electronic state is 1-A'.
 Alpha  occ. eigenvalues --  -20.70370 -15.72871 -15.66192 -11.38071 -11.33447
 Alpha  occ. eigenvalues --  -11.31448 -11.31350  -1.49496  -1.21970  -1.19214
 Alpha  occ. eigenvalues --   -1.12009  -0.91864  -0.86600  -0.81801  -0.72313
 Alpha  occ. eigenvalues --   -0.71018  -0.64412  -0.62495  -0.56892  -0.54144
 Alpha  occ. eigenvalues --   -0.52591  -0.48252  -0.46376  -0.39628
 Alpha virt. eigenvalues --    0.02891   0.03449   0.05781   0.07409   0.07463
 Alpha virt. eigenvalues --    0.08663   0.09587   0.10599   0.11697   0.13125
 Alpha virt. eigenvalues --    0.13258   0.14072   0.14411   0.14447   0.15371

 Mulliken charges:
               1
     1  O   -0.607712
     2  N   -0.245332
     3  N   -0.141026
     4  C    1.008380
     5  C    0.660471
     6  C    0.651068
     7  C   -0.777525
     8  H   -0.299280
     9  H   -0.249044
 Sum of Mulliken charges =  -0.00000

 Dipole moment (field-independent basis, Debye):
    X=              0.6447    Y=             -1.0945    Z=              0.0000  Tot=              1.2703

 Test job not archived.
 1\1\GINC-SE104\SP\RHF\Aug-CC-pVDZ\C4H2N2O1\OHZDE\05-Apr-2025\0\\#t hf
 aug-cc-pvdz iop(5/13=1,5/36=2,99/5=2) pseudo=read geom=check guess=(re
 ad,tcheck) scf=(maxcycle=1)\\title\\0,1\O,0,0.710722,-1.733894,0.\N,0,
 -0.691138,-1.797404,0.\N,0,-0.085068,2.920338,0.\C,0,0.,0.355924,0.\C,
 0,1.091283,-0.460386,0.\C,0,-1.094603,-0.562112,0.\C,0,-0.03872,1.7692
 77,0.\H,0,2.149576,-0.26384,0.\H,0,-2.149674,-0.341769,0.\\Version=ES6
 4L-G16RevC.01\State=1-A'\HF=-336.4602662\RMSD=7.648e-03\Dipole=0.25365
 72,-0.4306289,0.\Quadrupole=8.9676694,-11.6017697,2.6341003,-0.480395,

 Normal termination of Gaussian 16 at Sat Apr  5 22:08:52 2025.
