 Gaussian 16, Revision C.01,

 ----------------------------------------------------------------------
 #t hf aug-cc-pvdz symm=none int=(grid=ultrafine) guess=(read,tcheck) s
 table=(opt,rrhf)
 ----------------------------------------------------------------------
 -----
 title
 -----
 Symbolic Z-matrix:
 Charge =  0 Multiplicity = 1

 SCF Done:  E(RHF) =  -889.671804110     A.U. after   17 cycles
 Normal termination of Gaussian 16 at Sat Apr  5 22:08:41 2025.
 Gaussian 16:  ES64L-G16RevC.01  3-Jul-2019

 ----------------------------------------------------------------------
 #t hf aug-cc-pvdz iop(5/13=1,5/36=2,99/5=2) pseudo=read geom=check gue
 ss=(read,tcheck) scf=(maxcycle=1)
 ----------------------------------------------------------------------
 -----
 title
 -----
 Structure from the checkpoint file:  "1-2-chloroethyl-1-nitrosourea.chk"
 Charge =  0 Multiplicity = 1

                         Standard orientation:
 ---------------------------------------------------------------------
 Center     Atomic      Atomic             Coordinates (Angstroms)
 Number     Number       Type             X           Y           Z
 ---------------------------------------------------------------------
      1         17           0       -2.331716    0.385323   -0.842661
      2          8           0        0.800067    1.956894    0.684740
      3          8           0        1.924475   -1.710939   -0.590900
      4          7           0        0.559473   -0.319605    0.435360
      5          7           0        0.933917   -1.565968    0.100956
      6          7           0        2.266673    0.888042   -0.680548
      7          6           0        1.219264    0.950722    0.158620
      8          6           0       -0.659018   -0.298092    1.257074
      9          6           0       -1.897922   -0.742235    0.503473
     10          1           0        2.749788    1.749947   -0.864293
     11          1           0        2.588978   -0.000540   -1.031486
     12          1           0       -0.513599   -0.974263    2.100509
     13          1           0       -0.765445    0.714099    1.630691
     14          1           0       -2.748841   -0.765557    1.178688
     15          1           0       -1.762439   -1.721470    0.055027
 ---------------------------------------------------------------------

 SCF Done:  E(RHF) =  -889.821751842     A.U. after    2 cycles

 The electronic state is 1-A.
 Alpha  occ. eigenvalues -- -103.65718 -20.64219 -20.56074 -15.83392 -15.72985
 Alpha  occ. eigenvalues --  -15.66482 -11.43094 -11.32106 -11.30974 -10.68989
 Alpha  occ. eigenvalues --   -8.34709  -8.34423  -8.34410  -1.50146  -1.39143
 Alpha  occ. eigenvalues --   -1.27268  -1.20630  -1.16873  -1.03589  -0.97146
 Alpha  occ. eigenvalues --   -0.88648  -0.81853  -0.76755  -0.75655  -0.70744
 Alpha  occ. eigenvalues --   -0.69896  -0.66678  -0.65130  -0.63408  -0.60923
 Alpha  occ. eigenvalues --   -0.60458  -0.58476  -0.53773  -0.49883  -0.46359
 Alpha  occ. eigenvalues --   -0.45528  -0.44982  -0.44001  -0.43418
 Alpha virt. eigenvalues --    0.03021   0.03439   0.04729   0.05079   0.06810
 Alpha virt. eigenvalues --    0.06985   0.07294   0.09121   0.09727   0.12168
 Alpha virt. eigenvalues --    0.12672   0.12931   0.14130   0.14846   0.14972

 Mulliken charges:
               1
     1  Cl  -0.141442
     2  O   -0.459118
     3  O   -0.509160
     4  N   -0.192865
     5  N    0.019389
     6  N   -0.058964
     7  C    0.764186
     8  C    0.710129
     9  C    0.036022
    10  H   -0.005364
    11  H    0.054530
    12  H   -0.088181
    13  H   -0.192366
    14  H    0.040938
    15  H    0.022266
 Sum of Mulliken charges =   0.00000

 Dipole moment (field-independent basis, Debye):
    X=              0.5112    Y=             -1.5697    Z=              1.2648  Tot=              2.0796

 Test job not archived.
 1\1\GINC-SE085\SP\RHF\Aug-CC-pVDZ\C3H6Cl1N3O2\OHZDE\05-Apr-2025\0\\#t
 hf aug-cc-pvdz iop(5/13=1,5/36=2,99/5=2) pseudo=read geom=check guess=
 (read,tcheck) scf=(maxcycle=1)\\title\\0,1\Cl,0,-2.331716,0.385323,-0.
 842661\O,0,0.800067,1.956894,0.68474\O,0,1.924475,-1.710939,-0.5909\N,
 0,0.559473,-0.319605,0.43536\N,0,0.933917,-1.565968,0.100956\N,0,2.266
 673,0.888042,-0.680548\C,0,1.219264,0.950722,0.15862\C,0,-0.659018,-0.
 298092,1.257074\C,0,-1.897922,-0.742235,0.503473\H,0,2.749788,1.749947
 ,-0.864293\H,0,2.588978,-0.00054,-1.031486\H,0,-0.513599,-0.974263,2.1

 Normal termination of Gaussian 16 at Sat Apr  5 22:08:49 2025.
