 Gaussian 16, Revision C.01,

 ----------------------------------------------------------------------
 #t hf aug-cc-pvdz symm=none int=(grid=ultrafine) guess=(read,tcheck) s
 table=(opt,rrhf)
 ----------------------------------------------------------------------
 -----
 title
 -----
 Symbolic Z-matrix:
 Charge =  0 Multiplicity = 1

 SCF Done:  E(RHF) =  -189.260416146     A.U. after   11 cycles
 Normal termination of Gaussian 16 at Sat Apr  5 22:07:32 2025.
 Gaussian 16:  ES64L-G16RevC.01  3-Jul-2019

 ----------------------------------------------------------------------
 #t hf aug-cc-pvdz iop(5/13=1,5/36=2,99/5=2) pseudo=read geom=check gue
 ss=(read,tcheck) scf=(maxcycle=1)
 ----------------------------------------------------------------------
 -----
 title
 -----
 Structure from the checkpoint file:  "1-2-dimethylhydrazine.chk"
 Charge =  0 Multiplicity = 1

                         Standard orientation:
 ---------------------------------------------------------------------
 Center     Atomic      Atomic             Coordinates (Angstroms)
 Number     Number       Type             X           Y           Z
 ---------------------------------------------------------------------
      1          6           0        0.414691    1.407380    0.525760
      2          7           0        0.414691    0.576813   -0.674955
      3          7           0       -0.414691   -0.576813   -0.674955
      4          6           0       -0.414691   -1.407380    0.525760
      5          1           0       -1.350955   -0.279245   -0.913971
      6          1           0       -0.587418    1.808180    0.689219
      7          1           0        0.736630    0.902508    1.444977
      8          1           0        1.084191    2.249794    0.349899
      9          1           0        1.350955    0.279245   -0.913971
     10          1           0       -1.084191   -2.249794    0.349899
     11          1           0       -0.736630   -0.902508    1.444977
     12          1           0        0.587418   -1.808180    0.689219
 ---------------------------------------------------------------------

 SCF Done:  E(RHF) =  -189.321171589     A.U. after    2 cycles

 The electronic state is 1-A.
 Alpha  occ. eigenvalues --  -15.63101 -15.63060 -11.25363 -11.25362  -1.23376
 Alpha  occ. eigenvalues --   -1.05504  -0.92334  -0.84877  -0.65999  -0.65894
 Alpha  occ. eigenvalues --   -0.60516  -0.59362  -0.54881  -0.54299  -0.51263
 Alpha  occ. eigenvalues --   -0.37852  -0.36479
 Alpha virt. eigenvalues --    0.03429   0.04018   0.04500   0.05156   0.07362
 Alpha virt. eigenvalues --    0.07929   0.07936   0.09107   0.11911   0.13178
 Alpha virt. eigenvalues --    0.14828   0.16201   0.16411   0.16755   0.18456

 Mulliken charges:
               1
     1  C    0.862534
     2  N   -0.349575
     3  N   -0.349575
     4  C    0.862534
     5  H   -0.004656
     6  H   -0.170141
     7  H   -0.126053
     8  H   -0.212109
     9  H   -0.004656
    10  H   -0.212109
    11  H   -0.126053
    12  H   -0.170141
 Sum of Mulliken charges =  -0.00000

 Dipole moment (field-independent basis, Debye):
    X=              0.0000    Y=              0.0000    Z=              1.6208  Tot=              1.6208

 Test job not archived.
 1\1\GINC-SE041\SP\RHF\Aug-CC-pVDZ\C2H8N2\OHZDE\05-Apr-2025\0\\#t hf au
 g-cc-pvdz iop(5/13=1,5/36=2,99/5=2) pseudo=read geom=check guess=(read
 ,tcheck) scf=(maxcycle=1)\\title\\0,1\C,0,0.414691,1.40738,0.52576\N,0
 ,0.414691,0.576813,-0.674955\N,0,-0.414691,-0.576813,-0.674955\C,0,-0.
 414691,-1.40738,0.52576\H,0,-1.350955,-0.279245,-0.913971\H,0,-0.58741
 8,1.80818,0.689219\H,0,0.73663,0.902508,1.444977\H,0,1.084191,2.249794
 ,0.349899\H,0,1.350955,0.279245,-0.913971\H,0,-1.084191,-2.249794,0.34
 9899\H,0,-0.73663,-0.902508,1.444977\H,0,0.587418,-1.80818,0.689219\\V

 Normal termination of Gaussian 16 at Sat Apr  5 22:07:35 2025.
