 Gaussian 16, Revision C.01,

 ----------------------------------------------------------------------
 #t hf aug-cc-pvdz symm=none int=(grid=ultrafine) guess=(read,tcheck) s
 table=(opt,rrhf)
 ----------------------------------------------------------------------
 -----
 title
 -----
 Symbolic Z-matrix:
 Charge =  0 Multiplicity = 1

 SCF Done:  E(RHF) =  -505.466420921     A.U. after   13 cycles
 Normal termination of Gaussian 16 at Sat Apr  5 22:08:34 2025.
 Gaussian 16:  ES64L-G16RevC.01  3-Jul-2019

 ----------------------------------------------------------------------
 #t hf aug-cc-pvdz iop(5/13=1,5/36=2,99/5=2) pseudo=read geom=check gue
 ss=(read,tcheck) scf=(maxcycle=1)
 ----------------------------------------------------------------------
 -----
 title
 -----
 Structure from the checkpoint file:  "1-2-3-triazine-1-3-52H-4H-triol.chk"
 Charge =  0 Multiplicity = 1

                         Standard orientation:
 ---------------------------------------------------------------------
 Center     Atomic      Atomic             Coordinates (Angstroms)
 Number     Number       Type             X           Y           Z
 ---------------------------------------------------------------------
      1          8           0        0.569866    2.594177    0.155646
      2          8           0       -2.539724   -0.757188    0.081104
      3          8           0        2.008162   -1.846814    0.105094
      4          7           0        0.242250    1.348825   -0.423189
      5          7           0       -1.244556   -0.381909   -0.375129
      6          7           0       -0.961122    0.888967    0.212235
      7          6           0        1.064962   -0.864266    0.012715
      8          6           0        1.310784    0.421168   -0.255557
      9          6           0       -0.329933   -1.403054    0.142311
     10          1           0        0.854266    2.424315    1.072480
     11          1           0       -3.127778   -0.379899   -0.584305
     12          1           0        2.891391   -1.470121    0.025779
     13          1           0       -0.747835    0.743908    1.215313
     14          1           0        2.292038    0.814417   -0.479160
     15          1           0       -0.568579   -1.662973    1.182597
     16          1           0       -0.430809   -2.305324   -0.461686
 ---------------------------------------------------------------------

 SCF Done:  E(RHF) =  -505.617707472     A.U. after    2 cycles

 The electronic state is 1-A.
 Alpha  occ. eigenvalues --  -20.62418 -20.62411 -20.61864 -15.72654 -15.72458
 Alpha  occ. eigenvalues --  -15.69223 -11.33204 -11.29046 -11.27737  -1.41337
 Alpha  occ. eigenvalues --   -1.38622  -1.38471  -1.25069  -1.10338  -1.08660
 Alpha  occ. eigenvalues --   -0.93218  -0.92035  -0.81179  -0.76590  -0.75225
 Alpha  occ. eigenvalues --   -0.72161  -0.69402  -0.66885  -0.65007  -0.63822
 Alpha  occ. eigenvalues --   -0.62339  -0.60405  -0.58070  -0.54931  -0.54817
 Alpha  occ. eigenvalues --   -0.50906  -0.49200  -0.43023  -0.39699  -0.33725
 Alpha virt. eigenvalues --    0.02421   0.03703   0.03943   0.05058   0.06244
 Alpha virt. eigenvalues --    0.06982   0.08408   0.10237   0.10807   0.13004
 Alpha virt. eigenvalues --    0.13277   0.13437   0.14137   0.15357   0.15770

 Mulliken charges:
               1
     1  O   -0.447046
     2  O   -0.425238
     3  O   -0.571325
     4  N   -0.410251
     5  N   -0.353204
     6  N    0.014264
     7  C   -0.050468
     8  C    1.355322
     9  C    0.804971
    10  H    0.176026
    11  H    0.194702
    12  H    0.144454
    13  H    0.131755
    14  H   -0.424428
    15  H   -0.000431
    16  H   -0.139103
 Sum of Mulliken charges =  -0.00000

 Dipole moment (field-independent basis, Debye):
    X=              2.2668    Y=             -1.2128    Z=              1.6059  Tot=              3.0312

 Test job not archived.
 1\1\GINC-SE036\SP\RHF\Aug-CC-pVDZ\C3H7N3O3\OHZDE\05-Apr-2025\0\\#t hf
 aug-cc-pvdz iop(5/13=1,5/36=2,99/5=2) pseudo=read geom=check guess=(re
 ad,tcheck) scf=(maxcycle=1)\\title\\0,1\O,0,0.569873,2.594176,0.155646
 \O,0,-2.539726,-0.757181,0.081104\O,0,2.008157,-1.846819,0.105094\N,0,
 0.242253,1.348825,-0.423189\N,0,-1.244557,-0.381906,-0.375129\N,0,-0.9
 6112,0.88897,0.212235\C,0,1.06496,-0.864269,0.012715\C,0,1.310785,0.42
 1165,-0.255557\C,0,-0.329937,-1.403053,0.142311\H,0,0.854272,2.424313,
 1.07248\H,0,-3.127779,-0.379891,-0.584305\H,0,2.891387,-1.470128,0.025

 Normal termination of Gaussian 16 at Sat Apr  5 22:08:42 2025.
