 Gaussian 16, Revision C.01,

 ----------------------------------------------------------------------
 #t hf aug-cc-pvdz symm=none int=(grid=ultrafine) guess=(read,tcheck) s
 table=(opt,rrhf)
 ----------------------------------------------------------------------
 -----
 title
 -----
 Symbolic Z-matrix:
 Charge =  0 Multiplicity = 1

 SCF Done:  E(RHF) =  -240.805897911     A.U. after   14 cycles
 Normal termination of Gaussian 16 at Sat Apr  5 22:07:12 2025.
 Gaussian 16:  ES64L-G16RevC.01  3-Jul-2019

 ----------------------------------------------------------------------
 #t hf aug-cc-pvdz iop(5/13=1,5/36=2,99/5=2) pseudo=read geom=check gue
 ss=(read,tcheck) scf=(maxcycle=1)
 ----------------------------------------------------------------------
 -----
 title
 -----
 Structure from the checkpoint file:  "1-2-3-triazole.chk"
 Charge =  0 Multiplicity = 1

                         Standard orientation:
 ---------------------------------------------------------------------
 Center     Atomic      Atomic             Coordinates (Angstroms)
 Number     Number       Type             X           Y           Z
 ---------------------------------------------------------------------
      1          7           0        0.000000    1.067552    0.000000
      2          7           0       -1.127818    0.334603    0.000000
      3          7           0       -0.769838   -0.912161    0.000000
      4          6           0        0.589795   -0.989098    0.000000
      5          6           0        1.100389    0.282255    0.000000
      6          1           0       -0.062722    2.071574    0.000000
      7          1           0        1.103956   -1.933077    0.000000
      8          1           0        2.101258    0.672603    0.000000
 ---------------------------------------------------------------------

 SCF Done:  E(RHF) =  -240.874724521     A.U. after    2 cycles

 The electronic state is 1-A'.
 Alpha  occ. eigenvalues --  -15.72874 -15.71112 -15.66662 -11.30306 -11.27071
 Alpha  occ. eigenvalues --   -1.40135  -1.17289  -1.07445  -0.86557  -0.83433
 Alpha  occ. eigenvalues --   -0.76832  -0.64111  -0.63815  -0.62384  -0.51370
 Alpha  occ. eigenvalues --   -0.43590  -0.41864  -0.36378
 Alpha virt. eigenvalues --    0.02301   0.03692   0.05278   0.09271   0.10670
 Alpha virt. eigenvalues --    0.10850   0.11945   0.12926   0.14594   0.14711
 Alpha virt. eigenvalues --    0.15614   0.16146   0.17644   0.18855   0.19767

 Mulliken charges:
               1
     1  N   -0.094383
     2  N   -0.261806
     3  N   -0.454764
     4  C    0.739037
     5  C    0.576876
     6  H   -0.024194
     7  H   -0.229776
     8  H   -0.250990
 Sum of Mulliken charges =  -0.00000

 Dipole moment (field-independent basis, Debye):
    X=              3.6590    Y=              2.6447    Z=              0.0000  Tot=              4.5147

 Test job not archived.
 1\1\GINC-SE104\SP\RHF\Aug-CC-pVDZ\C2H3N3\OHZDE\05-Apr-2025\0\\#t hf au
 g-cc-pvdz iop(5/13=1,5/36=2,99/5=2) pseudo=read geom=check guess=(read
 ,tcheck) scf=(maxcycle=1)\\title\\0,1\N,0,0.,1.067552,0.\N,0,-1.127818
 ,0.334603,0.\N,0,-0.769838,-0.912161,0.\C,0,0.589795,-0.989098,0.\C,0,
 1.100389,0.282255,0.\H,0,-0.062722,2.071574,0.\H,0,1.103956,-1.933077,
 0.\H,0,2.101258,0.672603,0.\\Version=ES64L-G16RevC.01\State=1-A'\HF=-2
 40.8747245\RMSD=5.446e-03\Dipole=1.4395469,1.0404969,0.\Quadrupole=-1.
 5783086,3.6011715,-2.0228629,-0.8341279,0.,0.\PG=CS [SG(C2H3N3)]\\@

 Normal termination of Gaussian 16 at Sat Apr  5 22:07:15 2025.
