 Gaussian 16, Revision C.01,

 ----------------------------------------------------------------------
 #t hf aug-cc-pvdz symm=none int=(grid=ultrafine) guess=(read,tcheck) s
 table=(opt,rrhf)
 ----------------------------------------------------------------------
 -----
 title
 -----
 Symbolic Z-matrix:
 Charge =  0 Multiplicity = 1

 SCF Done:  E(RHF) =  -1088.81557643     A.U. after   14 cycles
 Normal termination of Gaussian 16 at Sat Apr  5 22:07:37 2025.
 Gaussian 16:  ES64L-G16RevC.01  3-Jul-2019

 ----------------------------------------------------------------------
 #t hf aug-cc-pvdz iop(5/13=1,5/36=2,99/5=2) pseudo=read geom=check gue
 ss=(read,tcheck) scf=(maxcycle=1)
 ----------------------------------------------------------------------
 -----
 title
 -----
 Structure from the checkpoint file:  "1-2-dichloro-1-cyanoethane.chk"
 Charge =  0 Multiplicity = 1

                         Standard orientation:
 ---------------------------------------------------------------------
 Center     Atomic      Atomic             Coordinates (Angstroms)
 Number     Number       Type             X           Y           Z
 ---------------------------------------------------------------------
      1         17           0        0.551587    1.629115    0.087511
      2         17           0       -2.244644   -0.339481   -0.083117
      3          7           0        2.790232   -1.254867    0.059102
      4          6           0        0.482758   -0.120609   -0.375006
      5          6           0       -0.599970   -0.872040    0.395411
      6          6           0        1.784559   -0.732929   -0.133991
      7          1           0        0.269104   -0.138557   -1.441420
      8          1           0       -0.528062   -1.933131    0.170399
      9          1           0       -0.494775   -0.714549    1.464113
 ---------------------------------------------------------------------

 SCF Done:  E(RHF) =  -1088.90265695     A.U. after    2 cycles

 The electronic state is 1-A.
 Alpha  occ. eigenvalues -- -103.69195-103.68202 -15.67371 -11.38926 -11.35286
 Alpha  occ. eigenvalues --  -11.31872 -10.72434 -10.71472  -8.38155  -8.37836
 Alpha  occ. eigenvalues --   -8.37829  -8.37198  -8.36894  -8.36880  -1.24532
 Alpha  occ. eigenvalues --   -1.21091  -1.17926  -1.05485  -0.91563  -0.76026
 Alpha  occ. eigenvalues --   -0.70419  -0.65438  -0.60203  -0.59262  -0.57084
 Alpha  occ. eigenvalues --   -0.50716  -0.50304  -0.49336  -0.48260  -0.47614
 Alpha  occ. eigenvalues --   -0.47144
 Alpha virt. eigenvalues --    0.03204   0.04229   0.05303   0.06774   0.07614
 Alpha virt. eigenvalues --    0.09085   0.11164   0.11430   0.11536   0.12808
 Alpha virt. eigenvalues --    0.13390   0.14183   0.15706   0.15759   0.16591

 Mulliken charges:
               1
     1  Cl  -0.049536
     2  Cl  -0.082423
     3  N   -0.114577
     4  C    0.277312
     5  C    0.088649
     6  C   -0.280968
     7  H    0.074539
     8  H    0.026555
     9  H    0.060448
 Sum of Mulliken charges =  -0.00000

 Dipole moment (field-independent basis, Debye):
    X=             -1.6736    Y=             -0.7077    Z=             -0.3941  Tot=              1.8593

 Test job not archived.
 1\1\GINC-SE158\SP\RHF\Aug-CC-pVDZ\C3H3Cl2N1\OHZDE\05-Apr-2025\0\\#t hf
  aug-cc-pvdz iop(5/13=1,5/36=2,99/5=2) pseudo=read geom=check guess=(r
 ead,tcheck) scf=(maxcycle=1)\\title\\0,1\Cl,0,0.551587,1.629115,0.0875
 11\Cl,0,-2.244644,-0.339481,-0.083117\N,0,2.790232,-1.254867,0.059102\
 C,0,0.482758,-0.120609,-0.375006\C,0,-0.59997,-0.87204,0.395411\C,0,1.
 784559,-0.732929,-0.133991\H,0,0.269104,-0.138557,-1.44142\H,0,-0.5280
 62,-1.933131,0.170399\H,0,-0.494775,-0.714549,1.464113\\Version=ES64L-
 G16RevC.01\State=1-A\HF=-1088.902657\RMSD=6.344e-03\Dipole=-0.6584537,

 Normal termination of Gaussian 16 at Sat Apr  5 22:07:41 2025.
