 Gaussian 16, Revision C.01,

 ----------------------------------------------------------------------
 #t hf aug-cc-pvdz symm=none int=(grid=ultrafine) guess=(read,tcheck) s
 table=(opt,rrhf)
 ----------------------------------------------------------------------
 -----
 title
 -----
 Symbolic Z-matrix:
 Charge =  0 Multiplicity = 1

 SCF Done:  E(RHF) =  -385.726069225     A.U. after   15 cycles
 Normal termination of Gaussian 16 at Sat Apr  5 22:08:38 2025.
 Gaussian 16:  ES64L-G16RevC.01  3-Jul-2019

 ----------------------------------------------------------------------
 #t hf aug-cc-pvdz iop(5/13=1,5/36=2,99/5=2) pseudo=read geom=check gue
 ss=(read,tcheck) scf=(maxcycle=1)
 ----------------------------------------------------------------------
 -----
 title
 -----
 Structure from the checkpoint file:  "1-2-3-4-tetrahydronaphthalene.chk"
 Charge =  0 Multiplicity = 1

                         Standard orientation:
 ---------------------------------------------------------------------
 Center     Atomic      Atomic             Coordinates (Angstroms)
 Number     Number       Type             X           Y           Z
 ---------------------------------------------------------------------
      1          6           0        0.001554    0.695598    2.566237
      2          6           0       -0.001554   -0.695598    2.566237
      3          6           0        0.001554    1.377725    1.359666
      4          6           0       -0.001554   -1.377725    1.359666
      5          6           0       -0.000611    0.700261    0.137630
      6          6           0        0.000611   -0.700261    0.137630
      7          6           0       -0.033424    1.492200   -1.154152
      8          6           0        0.033424   -1.492200   -1.154152
      9          6           0        0.363799    0.671723   -2.381520
     10          6           0       -0.363799   -0.671723   -2.381520
     11          1           0        0.004381    1.242851    3.499649
     12          1           0       -0.004381   -1.242851    3.499649
     13          1           0        0.004118    2.461556    1.357812
     14          1           0       -0.004118   -2.461556    1.357812
     15          1           0       -1.048027    1.879885   -1.300277
     16          1           0        0.609583    2.369836   -1.057795
     17          1           0        1.048027   -1.879885   -1.300277
     18          1           0       -0.609583   -2.369836   -1.057795
     19          1           0        0.142317    1.233423   -3.290989
     20          1           0        1.444186    0.496649   -2.375566
     21          1           0       -0.142317   -1.233423   -3.290989
     22          1           0       -1.444186   -0.496649   -2.375566
 ---------------------------------------------------------------------

 SCF Done:  E(RHF) =  -385.839280514     A.U. after    2 cycles

 The electronic state is 1-A.
 Alpha  occ. eigenvalues --  -11.24042 -11.23935 -11.23523 -11.23425 -11.23296
 Alpha  occ. eigenvalues --  -11.23290 -11.23276 -11.23273 -11.22906 -11.22851
 Alpha  occ. eigenvalues --   -1.14996  -1.08391  -1.03117  -0.99686  -0.96665
 Alpha  occ. eigenvalues --   -0.86359  -0.82897  -0.81466  -0.75090  -0.68466
 Alpha  occ. eigenvalues --   -0.64948  -0.64244  -0.61052  -0.59265  -0.59149
 Alpha  occ. eigenvalues --   -0.56560  -0.54138  -0.53952  -0.52370  -0.49795
 Alpha  occ. eigenvalues --   -0.47483  -0.47311  -0.45222  -0.44762  -0.32797
 Alpha  occ. eigenvalues --   -0.31910
 Alpha virt. eigenvalues --    0.03512   0.03801   0.03908   0.04873   0.05276
 Alpha virt. eigenvalues --    0.05526   0.06639   0.06840   0.07249   0.07968
 Alpha virt. eigenvalues --    0.08255   0.09636   0.11173   0.11679   0.12243

 Mulliken charges:
               1
     1  C    0.164644
     2  C    0.164644
     3  C    0.264119
     4  C    0.264119
     5  C    0.082938
     6  C    0.082938
     7  C    0.095972
     8  C    0.095972
     9  C    0.610017
    10  C    0.610017
    11  H   -0.465740
    12  H   -0.465740
    13  H   -0.651232
    14  H   -0.651232
    15  H    0.120757
    16  H   -0.007340
    17  H    0.120757
    18  H   -0.007340
    19  H   -0.052066
    20  H   -0.162069
    21  H   -0.052066
    22  H   -0.162069
 Sum of Mulliken charges =  -0.00000

 Dipole moment (field-independent basis, Debye):
    X=              0.0000    Y=             -0.0000    Z=             -0.7899  Tot=              0.7899

 Test job not archived.
 1\1\GINC-SE199\SP\RHF\Aug-CC-pVDZ\C10H12\OHZDE\05-Apr-2025\0\\#t hf au
 g-cc-pvdz iop(5/13=1,5/36=2,99/5=2) pseudo=read geom=check guess=(read
 ,tcheck) scf=(maxcycle=1)\\title\\0,1\C,0,0.001554,0.695598,2.566237\C
 ,0,-0.001554,-0.695598,2.566237\C,0,0.001554,1.377725,1.359666\C,0,-0.
 001554,-1.377725,1.359666\C,0,-0.000611,0.700261,0.13763\C,0,0.000611,
 -0.700261,0.13763\C,0,-0.033424,1.4922,-1.154152\C,0,0.033424,-1.4922,
 -1.154152\C,0,0.363799,0.671723,-2.38152\C,0,-0.363799,-0.671723,-2.38
 152\H,0,0.004381,1.242851,3.499649\H,0,-0.004381,-1.242851,3.499649\H,

 Normal termination of Gaussian 16 at Sat Apr  5 22:08:46 2025.
