 Gaussian 16, Revision C.01,

 ----------------------------------------------------------------------
 #t hf aug-cc-pvdz symm=none int=(grid=ultrafine) guess=(read,tcheck) s
 table=(opt,rrhf)
 ----------------------------------------------------------------------
 -----
 title
 -----
 Symbolic Z-matrix:
 Charge =  0 Multiplicity = 1

 SCF Done:  E(RHF) =  -604.282896760     A.U. after   16 cycles
 Normal termination of Gaussian 16 at Sat Apr  5 22:06:42 2025.
 Gaussian 16:  ES64L-G16RevC.01  3-Jul-2019

 ----------------------------------------------------------------------
 #t hf aug-cc-pvdz iop(5/13=1,5/36=2,99/5=2) pseudo=read geom=check gue
 ss=(read,tcheck) scf=(maxcycle=1)
 ----------------------------------------------------------------------
 -----
 title
 -----
 Structure from the checkpoint file:  "1-2-3-oxathiazole.chk"
 Charge =  0 Multiplicity = 1

                         Standard orientation:
 ---------------------------------------------------------------------
 Center     Atomic      Atomic             Coordinates (Angstroms)
 Number     Number       Type             X           Y           Z
 ---------------------------------------------------------------------
      1         16           0        1.186410   -0.064007    0.045138
      2          8           0       -0.061151   -1.221903   -0.137878
      3          7           0        0.175745    1.267799   -0.042280
      4          6           0       -1.314499   -0.572651    0.090963
      5          6           0       -1.045627    0.909738   -0.039631
      6          1           0       -2.026855   -0.942921   -0.648855
      7          1           0       -1.699332   -0.803959    1.095565
      8          1           0       -1.836623    1.649106   -0.077924
 ---------------------------------------------------------------------

 SCF Done:  E(RHF) =  -604.373313493     A.U. after    2 cycles

 The electronic state is 1-A.
 Alpha  occ. eigenvalues --  -93.61663 -20.61266 -15.67882 -11.32607 -11.31889
 Alpha  occ. eigenvalues --   -8.90623  -6.24788  -6.24544  -6.23987  -1.36747
 Alpha  occ. eigenvalues --   -1.22430  -1.02705  -0.88504  -0.80564  -0.70711
 Alpha  occ. eigenvalues --   -0.68947  -0.63156  -0.57217  -0.53540  -0.51903
 Alpha  occ. eigenvalues --   -0.50677  -0.45776  -0.33110
 Alpha virt. eigenvalues --    0.02970   0.04767   0.04965   0.07580   0.08390
 Alpha virt. eigenvalues --    0.09498   0.09912   0.11380   0.13054   0.13838
 Alpha virt. eigenvalues --    0.14410   0.15301   0.15838   0.17357   0.17584

 Mulliken charges:
               1
     1  S    0.947749
     2  O   -0.861613
     3  N   -0.759405
     4  C    0.637172
     5  C    0.404220
     6  H   -0.110885
     7  H   -0.053127
     8  H   -0.204111
 Sum of Mulliken charges =  -0.00000

 Dipole moment (field-independent basis, Debye):
    X=             -2.8768    Y=              0.3601    Z=              0.3668  Tot=              2.9224

 Test job not archived.
 1\1\GINC-SE232\SP\RHF\Aug-CC-pVDZ\C2H3N1O1S1\OHZDE\05-Apr-2025\0\\#t h
 f aug-cc-pvdz iop(5/13=1,5/36=2,99/5=2) pseudo=read geom=check guess=(
 read,tcheck) scf=(maxcycle=1)\\title\\0,1\S,0,1.18641,-0.064006,0.0451
 38\O,0,-0.06115,-1.221903,-0.137878\N,0,0.175744,1.267799,-0.04228\C,0
 ,-1.314499,-0.572652,0.090963\C,0,-1.045628,0.909737,-0.039631\H,0,-2.
 026854,-0.942923,-0.648855\H,0,-1.699331,-0.803961,1.095565\H,0,-1.836
 625,1.649104,-0.077924\\Version=ES64L-G16RevC.01\State=1-A\HF=-604.373
 3135\RMSD=4.625e-03\Dipole=-1.1318298,0.1416732,0.1443105\Quadrupole=3

 Normal termination of Gaussian 16 at Sat Apr  5 22:06:45 2025.
