 Gaussian 16, Revision C.01,

 ----------------------------------------------------------------------
 #t hf aug-cc-pvdz symm=none int=(grid=ultrafine) guess=(read,tcheck) s
 table=(opt,rrhf)
 ----------------------------------------------------------------------
 -----
 title
 -----
 Symbolic Z-matrix:
 Charge =  0 Multiplicity = 1

 SCF Done:  E(RHF) =  -302.473774387     A.U. after   13 cycles
 Normal termination of Gaussian 16 at Sat Apr  5 22:07:12 2025.
 Gaussian 16:  ES64L-G16RevC.01  3-Jul-2019

 ----------------------------------------------------------------------
 #t hf aug-cc-pvdz iop(5/13=1,5/36=2,99/5=2) pseudo=read geom=check gue
 ss=(read,tcheck) scf=(maxcycle=1)
 ----------------------------------------------------------------------
 -----
 title
 -----
 Structure from the checkpoint file:  "1-2-3-trioxolane.chk"
 Charge =  0 Multiplicity = 1

                         Standard orientation:
 ---------------------------------------------------------------------
 Center     Atomic      Atomic             Coordinates (Angstroms)
 Number     Number       Type             X           Y           Z
 ---------------------------------------------------------------------
      1          8           0       -0.557524   -1.069370    0.000000
      2          8           0        0.138457   -0.482273    1.115905
      3          8           0        0.138457   -0.482273   -1.115905
      4          6           0        0.138457    0.901420    0.775632
      5          6           0        0.138457    0.901420   -0.775632
      6          1           0        1.040255    1.327083    1.210950
      7          1           0        1.040255    1.327083   -1.210950
      8          1           0       -0.748557    1.400059    1.169152
      9          1           0       -0.748557    1.400059   -1.169152
 ---------------------------------------------------------------------

 SCF Done:  E(RHF) =  -302.570591742     A.U. after    2 cycles

 The electronic state is 1-A'.
 Alpha  occ. eigenvalues --  -20.70759 -20.65926 -20.65919 -11.31951 -11.31904
 Alpha  occ. eigenvalues --   -1.50568  -1.32971  -1.17868  -0.97654  -0.88400
 Alpha  occ. eigenvalues --   -0.75018  -0.74051  -0.69073  -0.66523  -0.62246
 Alpha  occ. eigenvalues --   -0.56977  -0.56603  -0.53854  -0.49371  -0.47650
 Alpha virt. eigenvalues --    0.03109   0.04559   0.04655   0.06726   0.08379
 Alpha virt. eigenvalues --    0.11146   0.11291   0.14291   0.14314   0.15996
 Alpha virt. eigenvalues --    0.17398   0.18603   0.18942   0.19858   0.21846

 Mulliken charges:
               1
     1  O   -0.193586
     2  O   -0.382683
     3  O   -0.382683
     4  C    0.761977
     5  C    0.761977
     6  H   -0.140462
     7  H   -0.140462
     8  H   -0.142040
     9  H   -0.142040
 Sum of Mulliken charges =  -0.00000

 Dipole moment (field-independent basis, Debye):
    X=              0.3109    Y=              4.0000    Z=              0.0000  Tot=              4.0120

 Test job not archived.
 1\1\GINC-SE085\SP\RHF\Aug-CC-pVDZ\C2H4O3\OHZDE\05-Apr-2025\0\\#t hf au
 g-cc-pvdz iop(5/13=1,5/36=2,99/5=2) pseudo=read geom=check guess=(read
 ,tcheck) scf=(maxcycle=1)\\title\\0,1\O,0,-0.557524,-1.06937,0.\O,0,0.
 138457,-0.482273,1.115905\O,0,0.138457,-0.482273,-1.115905\C,0,0.13845
 7,0.90142,0.775632\C,0,0.138457,0.90142,-0.775632\H,0,1.040255,1.32708
 3,1.21095\H,0,1.040255,1.327083,-1.21095\H,0,-0.748557,1.400059,1.1691
 52\H,0,-0.748557,1.400059,-1.169152\\Version=ES64L-G16RevC.01\State=1-
 A'\HF=-302.5705917\RMSD=3.762e-03\Dipole=0.1223023,1.5737125,0.\Quadru

 Normal termination of Gaussian 16 at Sat Apr  5 22:07:15 2025.
