 Gaussian 16, Revision C.01,

 ----------------------------------------------------------------------
 #t hf aug-cc-pvdz symm=none int=(grid=ultrafine) guess=(read,tcheck) s
 table=(opt,rrhf)
 ----------------------------------------------------------------------
 -----
 title
 -----
 Symbolic Z-matrix:
 Charge =  0 Multiplicity = 1

 SCF Done:  E(RHF) =  -626.160187006     A.U. after   14 cycles
 Normal termination of Gaussian 16 at Sat Apr  5 22:06:34 2025.
 Gaussian 16:  ES64L-G16RevC.01  3-Jul-2019

 ----------------------------------------------------------------------
 #t hf aug-cc-pvdz iop(5/13=1,5/36=2,99/5=2) pseudo=read geom=check gue
 ss=(read,tcheck) scf=(maxcycle=1)
 ----------------------------------------------------------------------
 -----
 title
 -----
 Structure from the checkpoint file:  "1-2-3-4-tetrafluorobenzene.chk"
 Charge =  0 Multiplicity = 1

                         Standard orientation:
 ---------------------------------------------------------------------
 Center     Atomic      Atomic             Coordinates (Angstroms)
 Number     Number       Type             X           Y           Z
 ---------------------------------------------------------------------
      1          6           0        0.000000    1.377987   -0.525257
      2          6           0        0.000000    0.695340   -1.726214
      3          6           0       -0.000000   -0.695340   -1.726214
      4          6           0       -0.000000   -1.377987   -0.525257
      5          6           0        0.000000   -0.694285    0.684098
      6          6           0        0.000000    0.694285    0.684098
      7          9           0        0.000000    2.719143   -0.501822
      8          1           0        0.000000    1.255360   -2.649366
      9          1           0       -0.000000   -1.255360   -2.649366
     10          9           0       -0.000000   -2.719143   -0.501822
     11          9           0        0.000000   -1.357117    1.841111
     12          9           0        0.000000    1.357117    1.841111
 ---------------------------------------------------------------------

 SCF Done:  E(RHF) =  -626.372538387     A.U. after    2 cycles

 The electronic state is 1-A1.
 Alpha  occ. eigenvalues --  -26.17213 -26.17208 -26.16531 -26.16530 -11.38274
 Alpha  occ. eigenvalues --  -11.38160 -11.37539 -11.37534 -11.29230 -11.29116
 Alpha  occ. eigenvalues --   -1.71939  -1.71156  -1.70350  -1.70178  -1.20899
 Alpha  occ. eigenvalues --   -1.07831  -1.07624  -0.94037  -0.93887  -0.85830
 Alpha  occ. eigenvalues --   -0.84529  -0.84320  -0.80392  -0.80316  -0.78572
 Alpha  occ. eigenvalues --   -0.77716  -0.77423  -0.76873  -0.75008  -0.72636
 Alpha  occ. eigenvalues --   -0.71687  -0.63653  -0.62496  -0.58689  -0.54888
 Alpha  occ. eigenvalues --   -0.38841  -0.38097
 Alpha virt. eigenvalues --    0.02899   0.04458   0.06441   0.08107   0.08712
 Alpha virt. eigenvalues --    0.08948   0.09259   0.10789   0.11018   0.13149
 Alpha virt. eigenvalues --    0.13274   0.13436   0.14113   0.14424   0.14730

 Mulliken charges:
               1
     1  C    0.246838
     2  C    0.392552
     3  C    0.392552
     4  C    0.246838
     5  C    0.286437
     6  C    0.286437
     7  F   -0.290251
     8  H   -0.403639
     9  H   -0.403639
    10  F   -0.290251
    11  F   -0.231937
    12  F   -0.231937
 Sum of Mulliken charges =  -0.00000

 Dipole moment (field-independent basis, Debye):
    X=              0.0000    Y=              0.0000    Z=             -3.4692  Tot=              3.4692

 Test job not archived.
 1\1\GINC-SE198\SP\RHF\Aug-CC-pVDZ\C6H2F4\OHZDE\05-Apr-2025\0\\#t hf au
 g-cc-pvdz iop(5/13=1,5/36=2,99/5=2) pseudo=read geom=check guess=(read
 ,tcheck) scf=(maxcycle=1)\\title\\0,1\C,0,0.,1.377987,-0.525257\C,0,0.
 ,0.69534,-1.726214\C,0,0.,-0.69534,-1.726214\C,0,0.,-1.377987,-0.52525
 7\C,0,0.,-0.694285,0.684098\C,0,0.,0.694285,0.684098\F,0,0.,2.719143,-
 0.501822\H,0,0.,1.25536,-2.649366\H,0,0.,-1.25536,-2.649366\F,0,0.,-2.
 719143,-0.501822\F,0,0.,-1.357117,1.841111\F,0,0.,1.357117,1.841111\\V
 ersion=ES64L-G16RevC.01\State=1-A1\HF=-626.3725384\RMSD=2.376e-02\Dipo

 Normal termination of Gaussian 16 at Sat Apr  5 22:06:41 2025.
