 Gaussian 16, Revision C.01,

 ----------------------------------------------------------------------
 #t hf aug-cc-pvdz symm=none int=(grid=ultrafine) guess=(read,tcheck) s
 table=(opt,rrhf)
 ----------------------------------------------------------------------
 -----
 title
 -----
 Symbolic Z-matrix:
 Charge =  0 Multiplicity = 1

 SCF Done:  E(RHF) =  -871.752643414     A.U. after   17 cycles
 Normal termination of Gaussian 16 at Sat Apr  5 22:12:08 2025.
 Gaussian 16:  ES64L-G16RevC.01  3-Jul-2019

 ----------------------------------------------------------------------
 #t hf aug-cc-pvdz iop(5/13=1,5/36=2,99/5=2) pseudo=read geom=check gue
 ss=(read,tcheck) scf=(maxcycle=1)
 ----------------------------------------------------------------------
 -----
 title
 -----
 Structure from the checkpoint file:  "1-2-thienylpyridin-4-one.chk"
 Charge =  0 Multiplicity = 1

                         Standard orientation:
 ---------------------------------------------------------------------
 Center     Atomic      Atomic             Coordinates (Angstroms)
 Number     Number       Type             X           Y           Z
 ---------------------------------------------------------------------
      1          6           0       -3.260747    0.996763    0.430923
      2          6           0       -1.865684    1.229535    0.570709
      3          6           0       -3.546891   -0.215226   -0.118964
      4          6           0       -1.112417    0.187192    0.114195
      5          6           0        2.381637    1.125229   -0.488236
      6          6           0        2.306330   -1.101133    0.504790
      7          6           0        1.033891    1.153086   -0.447360
      8          6           0        0.961179   -1.008421    0.530032
      9          6           0        3.145966   -0.022380   -0.008396
     10          7           0        0.292939    0.105453    0.062562
     11          8           0        4.374161   -0.076554   -0.036314
     12         16           0       -2.114227   -1.095088   -0.513823
     13          1           0       -4.018281    1.696745    0.749056
     14          1           0       -1.438528    2.118035    1.010517
     15          1           0       -4.511080   -0.656491   -0.304364
     16          1           0        2.922894    1.963430   -0.901979
     17          1           0        2.789940   -1.988514    0.885958
     18          1           0        0.451171    1.981024   -0.821014
     19          1           0        0.328052   -1.786428    0.929407
 ---------------------------------------------------------------------

 SCF Done:  E(RHF) =  -871.915155042     A.U. after    2 cycles

 The electronic state is 1-A.
 Alpha  occ. eigenvalues --  -93.59187 -20.52243 -15.71781 -11.34289 -11.32856
 Alpha  occ. eigenvalues --  -11.32243 -11.32222 -11.29599 -11.27461 -11.27348
 Alpha  occ. eigenvalues --  -11.24778 -11.24754  -8.88995  -6.23123  -6.22987
 Alpha  occ. eigenvalues --   -6.22629  -1.31793  -1.30474  -1.18662  -1.08381
 Alpha  occ. eigenvalues --   -1.06601  -1.00829  -0.99021  -0.88782  -0.86685
 Alpha  occ. eigenvalues --   -0.81232  -0.78914  -0.74115  -0.70975  -0.68637
 Alpha  occ. eigenvalues --   -0.66075  -0.63929  -0.63040  -0.62076  -0.59176
 Alpha  occ. eigenvalues --   -0.57863  -0.56478  -0.55280  -0.54684  -0.51739
 Alpha  occ. eigenvalues --   -0.50019  -0.41752  -0.39587  -0.37812  -0.37322
 Alpha  occ. eigenvalues --   -0.31720
 Alpha virt. eigenvalues --    0.02367   0.03286   0.03881   0.04163   0.05175
 Alpha virt. eigenvalues --    0.05934   0.06621   0.07416   0.07925   0.09159
 Alpha virt. eigenvalues --    0.09454   0.10051   0.11042   0.11110   0.11868

 Mulliken charges:
               1
     1  C    0.380183
     2  C    0.544219
     3  C    0.035376
     4  C   -0.172049
     5  C    0.678238
     6  C    0.754953
     7  C    0.969591
     8  C    0.946081
     9  C   -0.660986
    10  N   -0.524178
    11  O   -0.546695
    12  S    0.745187
    13  H   -0.322972
    14  H   -0.478440
    15  H   -0.346734
    16  H   -0.463837
    17  H   -0.462854
    18  H   -0.544223
    19  H   -0.530859
 Sum of Mulliken charges =  -0.00000

 Dipole moment (field-independent basis, Debye):
    X=             -7.7371    Y=              0.9869    Z=              0.4899  Tot=              7.8152

 Test job not archived.
 1\1\GINC-SE196\SP\RHF\Aug-CC-pVDZ\C9H7N1O1S1\OHZDE\05-Apr-2025\0\\#t h
 f aug-cc-pvdz iop(5/13=1,5/36=2,99/5=2) pseudo=read geom=check guess=(
 read,tcheck) scf=(maxcycle=1)\\title\\0,1\C,0,-3.260747,0.996763,0.430
 923\C,0,-1.865684,1.229535,0.570709\C,0,-3.546891,-0.215226,-0.118964\
 C,0,-1.112417,0.187192,0.114195\C,0,2.381637,1.125229,-0.488236\C,0,2.
 30633,-1.101133,0.50479\C,0,1.033891,1.153086,-0.44736\C,0,0.961179,-1
 .008421,0.530032\C,0,3.145966,-0.02238,-0.008396\N,0,0.292939,0.105453
 ,0.062562\O,0,4.374161,-0.076554,-0.036314\S,0,-2.114227,-1.095088,-0.

 Normal termination of Gaussian 16 at Sat Apr  5 22:13:01 2025.
