 Gaussian 16, Revision C.01,

 ----------------------------------------------------------------------
 #t hf aug-cc-pvdz symm=none int=(grid=ultrafine) guess=(read,tcheck) s
 table=(opt,rrhf)
 ----------------------------------------------------------------------
 -----
 title
 -----
 Symbolic Z-matrix:
 Charge =  0 Multiplicity = 1

 SCF Done:  E(RHF) =  -583.330891672     A.U. after   15 cycles
 Normal termination of Gaussian 16 at Sat Apr  5 22:07:12 2025.
 Gaussian 16:  ES64L-G16RevC.01  3-Jul-2019

 ----------------------------------------------------------------------
 #t hf aug-cc-pvdz iop(5/13=1,5/36=2,99/5=2) pseudo=read geom=check gue
 ss=(read,tcheck) scf=(maxcycle=1)
 ----------------------------------------------------------------------
 -----
 title
 -----
 Structure from the checkpoint file:  "1-2-4-thiadiazole.chk"
 Charge =  0 Multiplicity = 1

                         Standard orientation:
 ---------------------------------------------------------------------
 Center     Atomic      Atomic             Coordinates (Angstroms)
 Number     Number       Type             X           Y           Z
 ---------------------------------------------------------------------
      1          6           0       -0.690377   -1.160681    0.000000
      2          6           0        1.195972   -0.095042    0.000000
      3          7           0        0.670277   -1.287237    0.000000
      4          7           0       -1.238357    0.028231    0.000000
      5         16           0        0.000000    1.143132    0.000000
      6          1           0       -1.314687   -2.042848    0.000000
      7          1           0        2.257676    0.100119    0.000000
 ---------------------------------------------------------------------

 SCF Done:  E(RHF) =  -583.409520655     A.U. after    2 cycles

 The electronic state is 1-A'.
 Alpha  occ. eigenvalues --  -93.61084 -15.66877 -15.65522 -11.34750 -11.33396
 Alpha  occ. eigenvalues --   -8.90674  -6.24784  -6.24616  -6.24247  -1.31658
 Alpha  occ. eigenvalues --   -1.15436  -1.03491  -0.84042  -0.80475  -0.70265
 Alpha  occ. eigenvalues --   -0.62831  -0.60148  -0.53808  -0.47794  -0.44668
 Alpha  occ. eigenvalues --   -0.42374  -0.38335
 Alpha virt. eigenvalues --    0.03247   0.04239   0.06954   0.07148   0.08364
 Alpha virt. eigenvalues --    0.08883   0.10319   0.12078   0.13172   0.13947
 Alpha virt. eigenvalues --    0.14659   0.14915   0.16911   0.18235   0.19280

 Mulliken charges:
               1
     1  C    0.809692
     2  C    0.056292
     3  N   -0.479114
     4  N   -0.829903
     5  S    0.806842
     6  H   -0.161857
     7  H   -0.201951
 Sum of Mulliken charges =  -0.00000

 Dipole moment (field-independent basis, Debye):
    X=              1.4541    Y=              0.5616    Z=              0.0000  Tot=              1.5588

 Test job not archived.
 1\1\GINC-SE180\SP\RHF\Aug-CC-pVDZ\C2H2N2S1\OHZDE\05-Apr-2025\0\\#t hf
 aug-cc-pvdz iop(5/13=1,5/36=2,99/5=2) pseudo=read geom=check guess=(re
 ad,tcheck) scf=(maxcycle=1)\\title\\0,1\C,0,-0.690377,-1.160681,0.\C,0
 ,1.195972,-0.095042,0.\N,0,0.670277,-1.287237,0.\N,0,-1.238357,0.02823
 1,0.\S,0,0.,1.143132,0.\H,0,-1.314687,-2.042848,0.\H,0,2.257676,0.1001
 19,0.\\Version=ES64L-G16RevC.01\State=1-A'\HF=-583.4095207\RMSD=4.410e
 -03\Dipole=0.5720749,0.2209558,0.\Quadrupole=0.9235079,-0.0023639,-0.9
 21144,3.6647144,0.,0.\PG=CS [SG(C2H2N2S1)]\\@

 Normal termination of Gaussian 16 at Sat Apr  5 22:07:16 2025.
