 Gaussian 16, Revision C.01,

 ----------------------------------------------------------------------
 #t hf aug-cc-pvdz symm=none int=(grid=ultrafine) guess=(read,tcheck) s
 table=(opt,rrhf)
 ----------------------------------------------------------------------
 -----
 title
 -----
 Symbolic Z-matrix:
 Charge =  0 Multiplicity = 1

 SCF Done:  E(RHF) =  -361.571371285     A.U. after   14 cycles
 Normal termination of Gaussian 16 at Sat Apr  5 22:07:39 2025.
 Gaussian 16:  ES64L-G16RevC.01  3-Jul-2019

 ----------------------------------------------------------------------
 #t hf aug-cc-pvdz iop(5/13=1,5/36=2,99/5=2) pseudo=read geom=check gue
 ss=(read,tcheck) scf=(maxcycle=1)
 ----------------------------------------------------------------------
 -----
 title
 -----
 Structure from the checkpoint file:  "1-2-dicyanofluoroethane.chk"
 Charge =  0 Multiplicity = 1

                         Standard orientation:
 ---------------------------------------------------------------------
 Center     Atomic      Atomic             Coordinates (Angstroms)
 Number     Number       Type             X           Y           Z
 ---------------------------------------------------------------------
      1          9           0        0.548649    1.404763   -0.866830
      2          7           0        1.973333   -1.532425   -0.071295
      3          7           0       -2.338792   -0.929584   -0.574584
      4          6           0        0.660912    0.696914    0.317359
      5          6           0       -0.731990    0.476706    0.920774
      6          6           0        1.389652   -0.554071    0.072761
      7          6           0       -1.622829   -0.312424    0.077679
      8          1           0        1.247307    1.305371    1.008994
      9          1           0       -0.623459   -0.014179    1.889654
     10          1           0       -1.177948    1.457246    1.092538
 ---------------------------------------------------------------------

 SCF Done:  E(RHF) =  -361.684190968     A.U. after    2 cycles

 The electronic state is 1-A.
 Alpha  occ. eigenvalues --  -26.16809 -15.68047 -15.66327 -11.42756 -11.34185
 Alpha  occ. eigenvalues --  -11.31936 -11.31045  -1.70251  -1.23474  -1.21947
 Alpha  occ. eigenvalues --   -1.13757  -1.00261  -0.84376  -0.81909  -0.79040
 Alpha  occ. eigenvalues --   -0.73240  -0.66947  -0.65310  -0.63827  -0.57868
 Alpha  occ. eigenvalues --   -0.56586  -0.51066  -0.50159  -0.48438  -0.48373
 Alpha virt. eigenvalues --    0.01539   0.04016   0.04112   0.07028   0.08582
 Alpha virt. eigenvalues --    0.09552   0.10410   0.10796   0.11301   0.12446
 Alpha virt. eigenvalues --    0.12986   0.13129   0.14451   0.14819   0.14976

 Mulliken charges:
               1
     1  F   -0.402296
     2  N   -0.100534
     3  N   -0.165783
     4  C    0.815136
     5  C    0.232375
     6  C   -0.394513
     7  C   -0.145149
     8  H   -0.004641
     9  H    0.066144
    10  H    0.099262
 Sum of Mulliken charges =  -0.00000

 Dipole moment (field-independent basis, Debye):
    X=              0.5778    Y=              3.7880    Z=              4.4952  Tot=              5.9067

 Test job not archived.
 1\1\GINC-SE196\SP\RHF\Aug-CC-pVDZ\C4H3F1N2\OHZDE\05-Apr-2025\0\\#t hf
 aug-cc-pvdz iop(5/13=1,5/36=2,99/5=2) pseudo=read geom=check guess=(re
 ad,tcheck) scf=(maxcycle=1)\\title\\0,1\F,0,0.548649,1.404763,-0.86683
 \N,0,1.973333,-1.532425,-0.071295\N,0,-2.338792,-0.929583,-0.574584\C,
 0,0.660912,0.696914,0.317359\C,0,-0.73199,0.476706,0.920774\C,0,1.3896
 52,-0.554071,0.072761\C,0,-1.622829,-0.312424,0.077679\H,0,1.247307,1.
 305371,1.008994\H,0,-0.623459,-0.014179,1.889654\H,0,-1.177948,1.45724
 6,1.092538\\Version=ES64L-G16RevC.01\State=1-A\HF=-361.684191\RMSD=5.3

 Normal termination of Gaussian 16 at Sat Apr  5 22:07:43 2025.
