 Gaussian 16, Revision C.01,

 ----------------------------------------------------------------------
 #t hf aug-cc-pvdz symm=none int=(grid=ultrafine) guess=(read,tcheck) s
 table=(opt,rrhf)
 ----------------------------------------------------------------------
 -----
 title
 -----
 Symbolic Z-matrix:
 Charge =  0 Multiplicity = 1

 SCF Done:  E(RHF) =  -642.093149691     A.U. after   17 cycles
 Normal termination of Gaussian 16 at Sat Apr  5 22:07:30 2025.
 Gaussian 16:  ES64L-G16RevC.01  3-Jul-2019

 ----------------------------------------------------------------------
 #t hf aug-cc-pvdz iop(5/13=1,5/36=2,99/5=2) pseudo=read geom=check gue
 ss=(read,tcheck) scf=(maxcycle=1)
 ----------------------------------------------------------------------
 -----
 title
 -----
 Structure from the checkpoint file:  "1-2-6-oxathiazine.chk"
 Charge =  0 Multiplicity = 1

                         Standard orientation:
 ---------------------------------------------------------------------
 Center     Atomic      Atomic             Coordinates (Angstroms)
 Number     Number       Type             X           Y           Z
 ---------------------------------------------------------------------
      1         16           0       -1.333869   -0.074841   -0.191279
      2          8           0       -0.280808   -1.189269    0.481817
      3          7           0        1.033450   -1.218918   -0.164297
      4          6           0       -0.367982    1.345481    0.076452
      5          6           0        1.577197   -0.062059   -0.172578
      6          6           0        0.965100    1.208069    0.174489
      7          1           0       -0.880250    2.298065    0.110510
      8          1           0        2.586562   -0.065980   -0.571412
      9          1           0        1.602013    2.063015    0.346729
 ---------------------------------------------------------------------

 SCF Done:  E(RHF) =  -642.191272227     A.U. after    2 cycles

 The electronic state is 1-A.
 Alpha  occ. eigenvalues --  -93.61112 -20.63851 -15.70588 -11.31646 -11.31510
 Alpha  occ. eigenvalues --  -11.27612  -8.90314  -6.24500  -6.24229  -6.23810
 Alpha  occ. eigenvalues --   -1.38109  -1.16891  -1.11113  -0.94251  -0.88275
 Alpha  occ. eigenvalues --   -0.74465  -0.69914  -0.69346  -0.64172  -0.61187
 Alpha  occ. eigenvalues --   -0.57214  -0.50185  -0.49355  -0.46053  -0.42233
 Alpha  occ. eigenvalues --   -0.33752
 Alpha virt. eigenvalues --    0.02727   0.03804   0.04815   0.05371   0.08091
 Alpha virt. eigenvalues --    0.08906   0.10704   0.11315   0.12071   0.13377
 Alpha virt. eigenvalues --    0.13598   0.14279   0.14845   0.15060   0.15665

 Mulliken charges:
               1
     1  S    0.816961
     2  O   -0.849703
     3  N   -0.181948
     4  C   -0.052519
     5  C    0.402334
     6  C    0.775073
     7  H   -0.373810
     8  H   -0.218057
     9  H   -0.318330
 Sum of Mulliken charges =  -0.00000

 Dipole moment (field-independent basis, Debye):
    X=              0.8737    Y=              4.1117    Z=             -0.5377  Tot=              4.2378

 Test job not archived.
 1\1\GINC-SE104\SP\RHF\Aug-CC-pVDZ\C3H3N1O1S1\OHZDE\05-Apr-2025\0\\#t h
 f aug-cc-pvdz iop(5/13=1,5/36=2,99/5=2) pseudo=read geom=check guess=(
 read,tcheck) scf=(maxcycle=1)\\title\\0,1\S,0,-1.333869,-0.074841,-0.1
 91279\O,0,-0.280808,-1.189269,0.481817\N,0,1.03345,-1.218918,-0.164297
 \C,0,-0.367982,1.345481,0.076452\C,0,1.577197,-0.062059,-0.172578\C,0,
 0.9651,1.208069,0.174489\H,0,-0.88025,2.298065,0.11051\H,0,2.586562,-0
 .06598,-0.571412\H,0,1.602013,2.063015,0.346729\\Version=ES64L-G16RevC
 .01\State=1-A\HF=-642.1912722\RMSD=7.916e-03\Dipole=0.3437461,1.617674

 Normal termination of Gaussian 16 at Sat Apr  5 22:07:34 2025.
