 Gaussian 16, Revision C.01,

 ----------------------------------------------------------------------
 #t hf aug-cc-pvdz symm=none int=(grid=ultrafine) guess=(read,tcheck) s
 table=(opt,rrhf)
 ----------------------------------------------------------------------
 -----
 title
 -----
 Symbolic Z-matrix:
 Charge =  0 Multiplicity = 1

 SCF Done:  E(RHF) =  -1036.12805124     A.U. after   12 cycles

 1\1\GINC-SE194\Stability\RHF\Aug-CC-pVDZ\C3H6Cl2\OHZDE\05-Apr-2025\0\\
 #t hf aug-cc-pvdz symm=none int=(grid=ultrafine) guess=(read,tcheck) s
 table=(opt,rrhf)\\title\\0,1\C,0,0.666782,1.690821,-0.460286\C,0,-0.72
 5969,0.098901,0.986609\C,0,0.649984,0.536037,0.52168\Cl,0,-1.857919,-0
 .342878,-0.351048\Cl,0,1.569886,-0.883973,-0.164823\H,0,0.168266,1.420
 936,-1.388454\H,0,0.146881,2.547529,-0.025224\H,0,1.689864,1.985265,-0
 .683868\H,0,-0.661903,-0.769025,1.634334\H,0,-1.198048,0.91969,1.52343
 3\H,0,1.206722,0.79753,1.421558\\Version=ES64L-G16RevC.01\HF=-1036.128

 Normal termination of Gaussian 16 at Sat Apr  5 22:07:33 2025.
 Gaussian 16:  ES64L-G16RevC.01  3-Jul-2019

 ----------------------------------------------------------------------
 #t hf aug-cc-pvdz iop(5/13=1,5/36=2,99/5=2) pseudo=read geom=check gue
 ss=(read,tcheck) scf=(maxcycle=1)
 ----------------------------------------------------------------------
 -----
 title
 -----
 Structure from the checkpoint file:  "1-2-dichloropropane.chk"
 Charge =  0 Multiplicity = 1

                         Standard orientation:
 ---------------------------------------------------------------------
 Center     Atomic      Atomic             Coordinates (Angstroms)
 Number     Number       Type             X           Y           Z
 ---------------------------------------------------------------------
      1          6           0        0.666782    1.690821   -0.460286
      2          6           0       -0.725969    0.098901    0.986609
      3          6           0        0.649984    0.536037    0.521680
      4         17           0       -1.857919   -0.342878   -0.351048
      5         17           0        1.569886   -0.883973   -0.164823
      6          1           0        0.168266    1.420936   -1.388454
      7          1           0        0.146881    2.547529   -0.025224
      8          1           0        1.689864    1.985265   -0.683868
      9          1           0       -0.661903   -0.769025    1.634334
     10          1           0       -1.198048    0.919690    1.523433
     11          1           0        1.206722    0.797530    1.421558
 ---------------------------------------------------------------------

 SCF Done:  E(RHF) =  -1036.20160835     A.U. after    2 cycles

 The electronic state is 1-A.
 Alpha  occ. eigenvalues -- -103.65609-103.65125 -11.32968 -11.32191 -11.24984
 Alpha  occ. eigenvalues --  -10.68888 -10.68408  -8.34608  -8.34321  -8.34307
 Alpha  occ. eigenvalues --   -8.34120  -8.33841  -8.33831  -1.19260  -1.14717
 Alpha  occ. eigenvalues --   -1.03532  -0.95209  -0.80911  -0.67564  -0.66267
 Alpha  occ. eigenvalues --   -0.61861  -0.57259  -0.54859  -0.53633  -0.51431
 Alpha  occ. eigenvalues --   -0.46262  -0.45504  -0.44805  -0.44668
 Alpha virt. eigenvalues --    0.02947   0.04454   0.05049   0.05615   0.07147
 Alpha virt. eigenvalues --    0.07490   0.08873   0.09886   0.12492   0.13537
 Alpha virt. eigenvalues --    0.14586   0.14827   0.15598   0.15912   0.16907

 Mulliken charges:
               1
     1  C    0.573643
     2  C    0.199604
     3  C   -0.448639
     4  Cl  -0.131507
     5  Cl  -0.222018
     6  H   -0.020187
     7  H   -0.009680
     8  H   -0.057716
     9  H    0.048452
    10  H    0.053138
    11  H    0.014911
 Sum of Mulliken charges =  -0.00000

 Dipole moment (field-independent basis, Debye):
    X=              0.2464    Y=              2.4786    Z=              2.1867  Tot=              3.3145

 Test job not archived.
 1\1\GINC-SE194\SP\RHF\Aug-CC-pVDZ\C3H6Cl2\OHZDE\05-Apr-2025\0\\#t hf a
 ug-cc-pvdz iop(5/13=1,5/36=2,99/5=2) pseudo=read geom=check guess=(rea
 d,tcheck) scf=(maxcycle=1)\\title\\0,1\C,0,0.666782,1.690821,-0.460286
 \C,0,-0.725969,0.098901,0.986609\C,0,0.649984,0.536037,0.52168\Cl,0,-1
 .857919,-0.342878,-0.351048\Cl,0,1.569886,-0.883973,-0.164823\H,0,0.16
 8266,1.420936,-1.388454\H,0,0.146881,2.547529,-0.025224\H,0,1.689864,1
 .985265,-0.683868\H,0,-0.661903,-0.769025,1.634334\H,0,-1.198048,0.919
 69,1.523433\H,0,1.206722,0.79753,1.421558\\Version=ES64L-G16RevC.01\St

 Normal termination of Gaussian 16 at Sat Apr  5 22:07:37 2025.
