 Gaussian 16, Revision C.01,

 ----------------------------------------------------------------------
 #t hf aug-cc-pvdz symm=none int=(grid=ultrafine) guess=(read,tcheck) s
 table=(opt,rrhf)
 ----------------------------------------------------------------------
 -----
 title
 -----
 Symbolic Z-matrix:
 Charge =  0 Multiplicity = 1

 SCF Done:  E(RHF) =  -631.938218682     A.U. after   17 cycles
 Normal termination of Gaussian 16 at Sat Apr  5 22:08:51 2025.
 Gaussian 16:  ES64L-G16RevC.01  3-Jul-2019

 ----------------------------------------------------------------------
 #t hf aug-cc-pvdz iop(5/13=1,5/36=2,99/5=2) pseudo=read geom=check gue
 ss=(read,tcheck) scf=(maxcycle=1)
 ----------------------------------------------------------------------
 -----
 title
 -----
 Structure from the checkpoint file:  "1-2-difluoro-3-nitrobenzene.chk"
 Charge =  0 Multiplicity = 1

                         Standard orientation:
 ---------------------------------------------------------------------
 Center     Atomic      Atomic             Coordinates (Angstroms)
 Number     Number       Type             X           Y           Z
 ---------------------------------------------------------------------
      1          9           0       -0.174377   -1.959003   -0.132114
      2          9           0       -2.700777   -1.150004   -0.078605
      3          8           0        2.821157    0.734982   -0.401394
      4          8           0        2.306279   -1.197619    0.437397
      5          7           0        2.021435   -0.091571    0.012142
      6          6           0        0.601826    0.299791    0.013607
      7          6           0       -0.410428   -0.657728   -0.033324
      8          6           0       -1.733657   -0.226270   -0.015537
      9          6           0        0.291444    1.653903    0.071365
     10          6           0       -2.054339    1.114433    0.058602
     11          6           0       -1.032431    2.057202    0.104097
     12          1           0        1.101788    2.365330    0.093910
     13          1           0       -3.095956    1.401601    0.074126
     14          1           0       -1.273459    3.108243    0.162559
 ---------------------------------------------------------------------

 SCF Done:  E(RHF) =  -632.139408819     A.U. after    2 cycles

 The electronic state is 1-A.
 Alpha  occ. eigenvalues --  -26.17764 -26.17206 -20.63355 -20.63026 -15.93762
 Alpha  occ. eigenvalues --  -11.40096 -11.38287 -11.34923 -11.30481 -11.30333
 Alpha  occ. eigenvalues --  -11.29541  -1.72429  -1.71036  -1.56787  -1.38277
 Alpha  occ. eigenvalues --   -1.22121  -1.11531  -1.07908  -0.98990  -0.92668
 Alpha  occ. eigenvalues --   -0.89626  -0.84764  -0.81537  -0.81203  -0.80126
 Alpha  occ. eigenvalues --   -0.77835  -0.75921  -0.74991  -0.74488  -0.73779
 Alpha  occ. eigenvalues --   -0.70148  -0.65828  -0.59928  -0.59201  -0.56303
 Alpha  occ. eigenvalues --   -0.53107  -0.52541  -0.48566  -0.40651  -0.38885
 Alpha virt. eigenvalues --    0.02077   0.02323   0.03748   0.05147   0.07464
 Alpha virt. eigenvalues --    0.08068   0.09164   0.09597   0.10749   0.11054
 Alpha virt. eigenvalues --    0.12636   0.12680   0.12893   0.13065   0.13797

 Mulliken charges:
               1
     1  F   -0.166840
     2  F   -0.303638
     3  O   -0.554482
     4  O   -0.511960
     5  N    0.029084
     6  C    1.069336
     7  C    0.138705
     8  C    0.433444
     9  C    0.197953
    10  C    0.415875
    11  C    0.520081
    12  H   -0.441873
    13  H   -0.425208
    14  H   -0.400477
 Sum of Mulliken charges =  -0.00000

 Dipole moment (field-independent basis, Debye):
    X=             -3.8363    Y=              4.4763    Z=              0.2283  Tot=              5.8997

 Test job not archived.
 1\1\GINC-SE187\SP\RHF\Aug-CC-pVDZ\C6H3F2N1O2\OHZDE\05-Apr-2025\0\\#t h
 f aug-cc-pvdz iop(5/13=1,5/36=2,99/5=2) pseudo=read geom=check guess=(
 read,tcheck) scf=(maxcycle=1)\\title\\0,1\F,0,-0.174377,-1.959003,-0.1
 32114\F,0,-2.700777,-1.150004,-0.078605\O,0,2.821157,0.734982,-0.40139
 4\O,0,2.306279,-1.197619,0.437397\N,0,2.021435,-0.091571,0.012142\C,0,
 0.601826,0.299791,0.013607\C,0,-0.410428,-0.657728,-0.033324\C,0,-1.73
 3657,-0.22627,-0.015537\C,0,0.291444,1.653903,0.071365\C,0,-2.054339,1
 .114433,0.058602\C,0,-1.032431,2.057202,0.104097\H,0,1.101788,2.36533,

 Normal termination of Gaussian 16 at Sat Apr  5 22:09:41 2025.
