 Gaussian 16, Revision C.01,

 ----------------------------------------------------------------------
 #t hf aug-cc-pvdz symm=none int=(grid=ultrafine) guess=(read,tcheck) s
 table=(opt,rrhf)
 ----------------------------------------------------------------------
 -----
 title
 -----
 Symbolic Z-matrix:
 Charge =  0 Multiplicity = 1

 SCF Done:  E(RHF) =  -276.964303918     A.U. after   11 cycles
 Normal termination of Gaussian 16 at Sat Apr  5 22:07:28 2025.
 Gaussian 16:  ES64L-G16RevC.01  3-Jul-2019

 ----------------------------------------------------------------------
 #t hf aug-cc-pvdz iop(5/13=1,5/36=2,99/5=2) pseudo=read geom=check gue
 ss=(read,tcheck) scf=(maxcycle=1)
 ----------------------------------------------------------------------
 -----
 title
 -----
 Structure from the checkpoint file:  "1-2-difluoroethane.chk"
 Charge =  0 Multiplicity = 1

                         Standard orientation:
 ---------------------------------------------------------------------
 Center     Atomic      Atomic             Coordinates (Angstroms)
 Number     Number       Type             X           Y           Z
 ---------------------------------------------------------------------
      1          6           0        0.425915    0.627157    0.000000
      2          6           0       -0.425915   -0.627157    0.000000
      3          9           0       -0.425915    1.731378    0.000000
      4          9           0        0.425915   -1.731378    0.000000
      5          1           0        1.051850    0.677105    0.891207
      6          1           0        1.051850    0.677105   -0.891207
      7          1           0       -1.051850   -0.677105    0.891207
      8          1           0       -1.051850   -0.677105   -0.891207
 ---------------------------------------------------------------------

 SCF Done:  E(RHF) =  -277.061563844     A.U. after    2 cycles

 The electronic state is 1-AG.
 Alpha  occ. eigenvalues --  -26.11923 -26.11922 -11.33710 -11.33651  -1.65116
 Alpha  occ. eigenvalues --   -1.64856  -1.05696  -0.91071  -0.77554  -0.77059
 Alpha  occ. eigenvalues --   -0.76153  -0.74238  -0.70716  -0.67891  -0.60138
 Alpha  occ. eigenvalues --   -0.53757  -0.52691
 Alpha virt. eigenvalues --    0.03791   0.04669   0.04806   0.07484   0.08397
 Alpha virt. eigenvalues --    0.11682   0.11989   0.14835   0.14972   0.16532
 Alpha virt. eigenvalues --    0.17142   0.19158   0.21966   0.24625   0.28528

 Mulliken charges:
               1
     1  C    0.577829
     2  C    0.577829
     3  F   -0.418166
     4  F   -0.418166
     5  H   -0.079832
     6  H   -0.079832
     7  H   -0.079832
     8  H   -0.079832
 Sum of Mulliken charges =  -0.00000

 Dipole moment (field-independent basis, Debye):
    X=             -0.0000    Y=             -0.0000    Z=             -0.0000  Tot=              0.0000

 Test job not archived.
 1\1\GINC-SE187\SP\RHF\Aug-CC-pVDZ\C2H4F2\OHZDE\05-Apr-2025\0\\#t hf au
 g-cc-pvdz iop(5/13=1,5/36=2,99/5=2) pseudo=read geom=check guess=(read
 ,tcheck) scf=(maxcycle=1)\\title\\0,1\C,0,0.425915,0.627157,0.\C,0,-0.
 425915,-0.627157,0.\F,0,-0.425915,1.731378,0.\F,0,0.425915,-1.731378,0
 .\H,0,1.05185,0.677105,0.891207\H,0,1.05185,0.677105,-0.891207\H,0,-1.
 05185,-0.677105,0.891207\H,0,-1.05185,-0.677105,-0.891207\\Version=ES6
 4L-G16RevC.01\State=1-AG\HF=-277.0615638\RMSD=5.766e-03\Dipole=0.,0.,0
 .\Quadrupole=2.0957772,-4.6638546,2.5680774,2.8837022,0.,0.\PG=C02H [S

 Normal termination of Gaussian 16 at Sat Apr  5 22:07:30 2025.
