 Gaussian 16, Revision C.01,

 ----------------------------------------------------------------------
 #t hf aug-cc-pvdz symm=none int=(grid=ultrafine) guess=(read,tcheck) s
 table=(opt,rrhf)
 ----------------------------------------------------------------------
 -----
 title
 -----
 Symbolic Z-matrix:
 Charge =  0 Multiplicity = 1

 SCF Done:  E(RHF) =  -294.635401316     A.U. after   11 cycles
 Normal termination of Gaussian 16 at Sat Apr  5 22:07:06 2025.
 Gaussian 16:  ES64L-G16RevC.01  3-Jul-2019

 ----------------------------------------------------------------------
 #t hf aug-cc-pvdz iop(5/13=1,5/36=2,99/5=2) pseudo=read geom=check gue
 ss=(read,tcheck) scf=(maxcycle=1)
 ----------------------------------------------------------------------
 -----
 title
 -----
 Structure from the checkpoint file:  "1-2-4-5-tetrazine.chk"
 Charge =  0 Multiplicity = 1

                         Standard orientation:
 ---------------------------------------------------------------------
 Center     Atomic      Atomic             Coordinates (Angstroms)
 Number     Number       Type             X           Y           Z
 ---------------------------------------------------------------------
      1          7           0        0.000000    1.188502    0.658697
      2          7           0        0.000000    1.188502   -0.658697
      3          6           0        0.000000    0.000000   -1.262286
      4          7           0       -0.000000   -1.188502   -0.658697
      5          7           0       -0.000000   -1.188502    0.658697
      6          6           0       -0.000000    0.000000    1.262286
      7          1           0        0.000000    0.000000   -2.343802
      8          1           0       -0.000000    0.000000    2.343802
 ---------------------------------------------------------------------

 SCF Done:  E(RHF) =  -294.716563162     A.U. after    2 cycles

 The electronic state is 1-AG.
 Alpha  occ. eigenvalues --  -15.72810 -15.72806 -15.72730 -15.72729 -11.35265
 Alpha  occ. eigenvalues --  -11.35262  -1.40595  -1.29571  -1.17226  -1.00444
 Alpha  occ. eigenvalues --   -0.95655  -0.79267  -0.75081  -0.70040  -0.64858
 Alpha  occ. eigenvalues --   -0.56074  -0.52412  -0.52237  -0.49328  -0.43365
 Alpha  occ. eigenvalues --   -0.41046
 Alpha virt. eigenvalues --    0.03158   0.03218   0.03725   0.05808   0.08100
 Alpha virt. eigenvalues --    0.09961   0.09981   0.10486   0.11623   0.15058
 Alpha virt. eigenvalues --    0.15390   0.15536   0.17493   0.18993   0.20193

 Mulliken charges:
               1
     1  N   -0.253260
     2  N   -0.253260
     3  C    0.706597
     4  N   -0.253260
     5  N   -0.253260
     6  C    0.706597
     7  H   -0.200076
     8  H   -0.200076
 Sum of Mulliken charges =  -0.00000

 Dipole moment (field-independent basis, Debye):
    X=             -0.0000    Y=              0.0000    Z=             -0.0000  Tot=              0.0000

 Test job not archived.
 1\1\GINC-SE164\SP\RHF\Aug-CC-pVDZ\C2H2N4\OHZDE\05-Apr-2025\0\\#t hf au
 g-cc-pvdz iop(5/13=1,5/36=2,99/5=2) pseudo=read geom=check guess=(read
 ,tcheck) scf=(maxcycle=1)\\title\\0,1\N,0,0.,1.188502,0.658697\N,0,0.,
 1.188502,-0.658697\C,0,0.,0.,-1.262286\N,0,0.,-1.188502,-0.658697\N,0,
 0.,-1.188502,0.658697\C,0,0.,0.,1.262286\H,0,0.,0.,-2.343802\H,0,0.,0.
 ,2.343802\\Version=ES64L-G16RevC.01\State=1-AG\HF=-294.7165632\RMSD=2.
 342e-03\Dipole=0.,0.,0.\Quadrupole=1.2872945,-6.6563537,5.3690593,0.,0
 .,0.\PG=D02H [C2"(H1C1.C1H1),SG(N4)]\\@

 Normal termination of Gaussian 16 at Sat Apr  5 22:07:10 2025.
