 Gaussian 16, Revision C.01,

 ----------------------------------------------------------------------
 #t hf aug-cc-pvdz symm=none int=(grid=ultrafine) guess=(read,tcheck) s
 table=(opt,rrhf)
 ----------------------------------------------------------------------
 -----
 title
 -----
 Symbolic Z-matrix:
 Charge =  0 Multiplicity = 1

 SCF Done:  E(RHF) =  -278.679445031     A.U. after   15 cycles
 Normal termination of Gaussian 16 at Sat Apr  5 22:07:08 2025.
 Gaussian 16:  ES64L-G16RevC.01  3-Jul-2019

 ----------------------------------------------------------------------
 #t hf aug-cc-pvdz iop(5/13=1,5/36=2,99/5=2) pseudo=read geom=check gue
 ss=(read,tcheck) scf=(maxcycle=1)
 ----------------------------------------------------------------------
 -----
 title
 -----
 Structure from the checkpoint file:  "1-2-4-triazine.chk"
 Charge =  0 Multiplicity = 1

                         Standard orientation:
 ---------------------------------------------------------------------
 Center     Atomic      Atomic             Coordinates (Angstroms)
 Number     Number       Type             X           Y           Z
 ---------------------------------------------------------------------
      1          6           0        0.000000    1.283548    0.000000
      2          7           0        1.195886    0.688755    0.000000
      3          7           0       -1.187170    0.683937    0.000000
      4          6           0        1.154952   -0.633315    0.000000
      5          6           0       -0.067010   -1.302568    0.000000
      6          7           0       -1.219098   -0.643966    0.000000
      7          1           0       -0.131661   -2.382786    0.000000
      8          1           0        2.096736   -1.170292    0.000000
      9          1           0       -0.020059    2.366010    0.000000
 ---------------------------------------------------------------------

 SCF Done:  E(RHF) =  -278.757915791     A.U. after    2 cycles

 The electronic state is 1-A'.
 Alpha  occ. eigenvalues --  -15.70813 -15.68863 -15.67339 -11.33859 -11.32958
 Alpha  occ. eigenvalues --  -11.30761  -1.35009  -1.22673  -1.12179  -0.94153
 Alpha  occ. eigenvalues --   -0.92204  -0.74932  -0.74543  -0.68072  -0.61882
 Alpha  occ. eigenvalues --   -0.61301  -0.51816  -0.49376  -0.45896  -0.40438
 Alpha  occ. eigenvalues --   -0.40285
 Alpha virt. eigenvalues --    0.02708   0.03901   0.04909   0.05407   0.07609
 Alpha virt. eigenvalues --    0.09698   0.09820   0.10055   0.11891   0.12559
 Alpha virt. eigenvalues --    0.12813   0.14509   0.14691   0.15703   0.16496

 Mulliken charges:
               1
     1  C    0.638680
     2  N   -0.404378
     3  N   -0.269021
     4  C    0.402089
     5  C    0.865939
     6  N   -0.483918
     7  H   -0.253255
     8  H   -0.252823
     9  H   -0.243311
 Sum of Mulliken charges =  -0.00000

 Dipole moment (field-independent basis, Debye):
    X=              2.3245    Y=             -1.3512    Z=              0.0000  Tot=              2.6886

 Test job not archived.
 1\1\GINC-SE185\SP\RHF\Aug-CC-pVDZ\C3H3N3\OHZDE\05-Apr-2025\0\\#t hf au
 g-cc-pvdz iop(5/13=1,5/36=2,99/5=2) pseudo=read geom=check guess=(read
 ,tcheck) scf=(maxcycle=1)\\title\\0,1\C,0,0.,1.283548,0.\N,0,1.195886,
 0.688755,0.\N,0,-1.18717,0.683937,0.\C,0,1.154952,-0.633315,0.\C,0,-0.
 06701,-1.302568,0.\N,0,-1.219098,-0.643966,0.\H,0,-0.131661,-2.382786,
 0.\H,0,2.096736,-1.170292,0.\H,0,-0.020059,2.36601,0.\\Version=ES64L-G
 16RevC.01\State=1-A'\HF=-278.7579158\RMSD=4.483e-03\Dipole=0.9145102,-
 0.5316004,0.\Quadrupole=-4.3899708,4.4417463,-0.0517755,-2.3740838,0.,

 Normal termination of Gaussian 16 at Sat Apr  5 22:07:11 2025.
