 Gaussian 16, Revision C.01,

 ----------------------------------------------------------------------
 #t hf aug-cc-pvdz symm=none int=(grid=ultrafine) guess=(read,tcheck) s
 table=(opt,rrhf)
 ----------------------------------------------------------------------
 -----
 title
 -----
 Symbolic Z-matrix:
 Charge =  0 Multiplicity = 1

 SCF Done:  E(RHF) =  -659.059407881     A.U. after   17 cycles
 Normal termination of Gaussian 16 at Sat Apr  5 22:08:48 2025.
 Gaussian 16:  ES64L-G16RevC.01  3-Jul-2019

 ----------------------------------------------------------------------
 #t hf aug-cc-pvdz iop(5/13=1,5/36=2,99/5=2) pseudo=read geom=check gue
 ss=(read,tcheck) scf=(maxcycle=1)
 ----------------------------------------------------------------------
 -----
 title
 -----
 Structure from the checkpoint file:  "1-2-thiazole-3-carbonitrile.chk"
 Charge =  0 Multiplicity = 1

                         Standard orientation:
 ---------------------------------------------------------------------
 Center     Atomic      Atomic             Coordinates (Angstroms)
 Number     Number       Type             X           Y           Z
 ---------------------------------------------------------------------
      1         16           0        1.711330   -0.591498   -0.000002
      2          7           0        0.125713   -1.050663    0.000000
      3          7           0       -3.206102   -0.162108    0.000004
      4          6           0        0.041278    1.287387    0.000000
      5          6           0       -0.631726    0.033488    0.000001
      6          6           0        1.390605    1.091295   -0.000002
      7          6           0       -2.056708   -0.099158    0.000002
      8          1           0       -0.453822    2.244922    0.000000
      9          1           0        2.174575    1.830378   -0.000003
 ---------------------------------------------------------------------

 SCF Done:  E(RHF) =  -659.160255965     A.U. after    2 cycles

 The electronic state is 1-A.
 Alpha  occ. eigenvalues --  -93.62794 -15.69680 -15.66092 -11.35389 -11.32322
 Alpha  occ. eigenvalues --  -11.30528 -11.29189  -8.92298  -6.26438  -6.26240
 Alpha  occ. eigenvalues --   -6.25880  -1.29471  -1.20910  -1.08981  -1.05148
 Alpha  occ. eigenvalues --   -0.86759  -0.83448  -0.75399  -0.65490  -0.62553
 Alpha  occ. eigenvalues --   -0.61119  -0.56683  -0.52441  -0.50384  -0.49032
 Alpha  occ. eigenvalues --   -0.48467  -0.40525  -0.38146
 Alpha virt. eigenvalues --    0.02268   0.04117   0.04636   0.06732   0.08165
 Alpha virt. eigenvalues --    0.08824   0.08964   0.10194   0.10318   0.12179
 Alpha virt. eigenvalues --    0.12742   0.13100   0.13395   0.13830   0.14448

 Mulliken charges:
               1
     1  S    0.926991
     2  N   -1.026888
     3  N   -0.048895
     4  C    0.594416
     5  C    1.203561
     6  C   -0.020225
     7  C   -0.989883
     8  H   -0.355080
     9  H   -0.283997
 Sum of Mulliken charges =  -0.00000

 Dipole moment (field-independent basis, Debye):
    X=              4.4595    Y=              2.9080    Z=             -0.0000  Tot=              5.3239

 Test job not archived.
 1\1\GINC-SE185\SP\RHF\Aug-CC-pVDZ\C4H2N2S1\OHZDE\05-Apr-2025\0\\#t hf
 aug-cc-pvdz iop(5/13=1,5/36=2,99/5=2) pseudo=read geom=check guess=(re
 ad,tcheck) scf=(maxcycle=1)\\title\\0,1\S,0,-1.71133,-0.591498,0.00000
 2\N,0,-0.125713,-1.050663,0.\N,0,3.206102,-0.162108,-0.000004\C,0,-0.0
 41278,1.287387,0.\C,0,0.631726,0.033488,-0.000001\C,0,-1.390605,1.0912
 95,0.000002\C,0,2.056708,-0.099158,-0.000002\H,0,0.453822,2.244922,0.\
 H,0,-2.174575,1.830378,0.000003\\Version=ES64L-G16RevC.01\State=1-A\HF
 =-659.160256\RMSD=1.161e-02\Dipole=-1.7545062,1.1441047,0.0000026\Quad

 Normal termination of Gaussian 16 at Sat Apr  5 22:08:52 2025.
