 Gaussian 16, Revision C.01,

 ----------------------------------------------------------------------
 #t hf aug-cc-pvdz symm=none int=(grid=ultrafine) guess=(read,tcheck) s
 table=(opt,rrhf)
 ----------------------------------------------------------------------
 -----
 title
 -----
 Symbolic Z-matrix:
 Charge =  0 Multiplicity = 1

 SCF Done:  E(RHF) =  -1495.04622018     A.U. after   13 cycles

 1\1\GINC-SE129\Stability\RHF\Aug-CC-pVDZ\C3H5Cl3\OHZDE\05-Apr-2025\0\\
 #t hf aug-cc-pvdz symm=none int=(grid=ultrafine) guess=(read,tcheck) s
 table=(opt,rrhf)\\title\\0,1\C,0,0.430741,0.570041,0.\C,0,-0.305104,0.
 279695,1.300643\C,0,-0.305104,0.279695,-1.300643\Cl,0,0.726567,2.38202
 3,0.\Cl,0,-0.305104,-1.475215,-1.736081\Cl,0,-0.305104,-1.475215,1.736
 081\H,0,1.416453,0.11506,0.\H,0,0.183833,0.788707,-2.122928\H,0,0.1838
 33,0.788707,2.122928\H,0,-1.342701,0.596935,-1.244192\H,0,-1.342701,0.
 596935,1.244192\\Version=ES64L-G16RevC.01\HF=-1495.0462202\RMSD=3.683e

 Normal termination of Gaussian 16 at Sat Apr  5 22:07:21 2025.
 Gaussian 16:  ES64L-G16RevC.01  3-Jul-2019

 ----------------------------------------------------------------------
 #t hf aug-cc-pvdz iop(5/13=1,5/36=2,99/5=2) pseudo=read geom=check gue
 ss=(read,tcheck) scf=(maxcycle=1)
 ----------------------------------------------------------------------
 -----
 title
 -----
 Structure from the checkpoint file:  "1-2-3-trichloropropane.chk"
 Charge =  0 Multiplicity = 1

                         Standard orientation:
 ---------------------------------------------------------------------
 Center     Atomic      Atomic             Coordinates (Angstroms)
 Number     Number       Type             X           Y           Z
 ---------------------------------------------------------------------
      1          6           0        0.430741    0.570041    0.000000
      2          6           0       -0.305104    0.279695    1.300643
      3          6           0       -0.305104    0.279695   -1.300643
      4         17           0        0.726567    2.382023    0.000000
      5         17           0       -0.305104   -1.475215   -1.736081
      6         17           0       -0.305104   -1.475215    1.736081
      7          1           0        1.416453    0.115060   -0.000000
      8          1           0        0.183833    0.788707   -2.122928
      9          1           0        0.183833    0.788707    2.122928
     10          1           0       -1.342701    0.596935   -1.244192
     11          1           0       -1.342701    0.596935    1.244192
 ---------------------------------------------------------------------

 SCF Done:  E(RHF) =  -1495.13608950     A.U. after    2 cycles

 The electronic state is 1-A'.
 Alpha  occ. eigenvalues -- -103.67525-103.66303-103.66303 -11.34997 -11.33079
 Alpha  occ. eigenvalues --  -11.33070 -10.70792 -10.69581 -10.69579  -8.36500
 Alpha  occ. eigenvalues --   -8.36223  -8.36209  -8.35302  -8.35300  -8.35005
 Alpha  occ. eigenvalues --   -8.35003  -8.34996  -8.34992  -1.21521  -1.16774
 Alpha  occ. eigenvalues --   -1.16226  -1.02556  -0.94695  -0.83823  -0.70120
 Alpha  occ. eigenvalues --   -0.65855  -0.63763  -0.59295  -0.58590  -0.57682
 Alpha  occ. eigenvalues --   -0.52498  -0.48575  -0.48189  -0.47352  -0.46206
 Alpha  occ. eigenvalues --   -0.45550  -0.44042
 Alpha virt. eigenvalues --    0.03689   0.04654   0.04667   0.06376   0.07000
 Alpha virt. eigenvalues --    0.07150   0.09667   0.09737   0.12541   0.13202
 Alpha virt. eigenvalues --    0.13461   0.14899   0.15078   0.15661   0.16281

 Mulliken charges:
               1
     1  C   -0.226309
     2  C    0.212454
     3  C    0.212454
     4  Cl  -0.125722
     5  Cl  -0.100538
     6  Cl  -0.100538
     7  H   -0.081242
     8  H    0.028910
     9  H    0.028910
    10  H    0.075811
    11  H    0.075811
 Sum of Mulliken charges =   0.00000

 Dipole moment (field-independent basis, Debye):
    X=             -0.3005    Y=              1.7713    Z=             -0.0000  Tot=              1.7966

 Test job not archived.
 1\1\GINC-SE129\SP\RHF\Aug-CC-pVDZ\C3H5Cl3\OHZDE\05-Apr-2025\0\\#t hf a
 ug-cc-pvdz iop(5/13=1,5/36=2,99/5=2) pseudo=read geom=check guess=(rea
 d,tcheck) scf=(maxcycle=1)\\title\\0,1\C,0,0.430741,0.570041,0.\C,0,-0
 .305104,0.279695,1.300643\C,0,-0.305104,0.279695,-1.300643\Cl,0,0.7265
 67,2.382023,0.\Cl,0,-0.305104,-1.475215,-1.736081\Cl,0,-0.305104,-1.47
 5215,1.736081\H,0,1.416453,0.11506,0.\H,0,0.183833,0.788707,-2.122928\
 H,0,0.183833,0.788707,2.122928\H,0,-1.342701,0.596935,-1.244192\H,0,-1
 .342701,0.596935,1.244192\\Version=ES64L-G16RevC.01\State=1-A'\HF=-149

 Normal termination of Gaussian 16 at Sat Apr  5 22:07:25 2025.
