 Gaussian 16, Revision C.01,

 ----------------------------------------------------------------------
 #t hf aug-cc-pvdz symm=none int=(grid=ultrafine) guess=(read,tcheck) s
 table=(opt,rrhf)
 ----------------------------------------------------------------------
 -----
 title
 -----
 Symbolic Z-matrix:
 Charge =  0 Multiplicity = 1

 SCF Done:  E(RHF) =  -294.609744829     A.U. after   13 cycles
 Normal termination of Gaussian 16 at Sat Apr  5 22:06:11 2025.
 Gaussian 16:  ES64L-G16RevC.01  3-Jul-2019

 ----------------------------------------------------------------------
 #t hf aug-cc-pvdz iop(5/13=1,5/36=2,99/5=2) pseudo=read geom=check gue
 ss=(read,tcheck) scf=(maxcycle=1)
 ----------------------------------------------------------------------
 -----
 title
 -----
 Structure from the checkpoint file:  "1-2-3-4-tetrazine.chk"
 Charge =  0 Multiplicity = 1

                         Standard orientation:
 ---------------------------------------------------------------------
 Center     Atomic      Atomic             Coordinates (Angstroms)
 Number     Number       Type             X           Y           Z
 ---------------------------------------------------------------------
      1          7           0        0.000000    1.355099   -0.047558
      2          7           0        0.000000    0.655407   -1.178699
      3          7           0       -0.000000   -0.655407   -1.178699
      4          7           0       -0.000000   -1.355099   -0.047558
      5          6           0        0.000000   -0.693285    1.096489
      6          6           0        0.000000    0.693285    1.096489
      7          1           0        0.000000   -1.283068    2.004868
      8          1           0        0.000000    1.283068    2.004868
 ---------------------------------------------------------------------

 SCF Done:  E(RHF) =  -294.691226265     A.U. after    2 cycles

 The electronic state is 1-A1.
 Alpha  occ. eigenvalues --  -15.74745 -15.74660 -15.72293 -15.72290 -11.34237
 Alpha  occ. eigenvalues --  -11.34120  -1.41916  -1.26520  -1.18776  -0.97423
 Alpha  occ. eigenvalues --   -0.97340  -0.78676  -0.75361  -0.69079  -0.64792
 Alpha  occ. eigenvalues --   -0.59894  -0.54149  -0.47843  -0.45285  -0.44388
 Alpha  occ. eigenvalues --   -0.42668
 Alpha virt. eigenvalues --    0.02052   0.04040   0.04058   0.05744   0.08780
 Alpha virt. eigenvalues --    0.09319   0.09831   0.11674   0.12471   0.13723
 Alpha virt. eigenvalues --    0.14329   0.14848   0.17118   0.18328   0.20272

 Mulliken charges:
               1
     1  N   -0.347891
     2  N   -0.141775
     3  N   -0.141775
     4  N   -0.347891
     5  C    0.744010
     6  C    0.744010
     7  H   -0.254345
     8  H   -0.254345
 Sum of Mulliken charges =  -0.00000

 Dipole moment (field-independent basis, Debye):
    X=              0.0000    Y=             -0.0000    Z=              4.6463  Tot=              4.6463

 Test job not archived.
 1\1\GINC-SE199\SP\RHF\Aug-CC-pVDZ\C2H2N4\OHZDE\05-Apr-2025\0\\#t hf au
 g-cc-pvdz iop(5/13=1,5/36=2,99/5=2) pseudo=read geom=check guess=(read
 ,tcheck) scf=(maxcycle=1)\\title\\0,1\N,0,0.,1.355099,-0.047558\N,0,0.
 ,0.655407,-1.178699\N,0,0.,-0.655407,-1.178699\N,0,0.,-1.355099,-0.047
 558\C,0,0.,-0.693285,1.096489\C,0,0.,0.693285,1.096489\H,0,0.,-1.28306
 8,2.004868\H,0,0.,1.283068,2.004868\\Version=ES64L-G16RevC.01\State=1-
 A1\HF=-294.6912263\RMSD=5.430e-03\Dipole=0.,0.,1.8279805\Quadrupole=1.
 0325866,-3.2167934,2.1842068,0.,0.,0.\PG=C02V [SGV(C2H2N4)]\\@

 Normal termination of Gaussian 16 at Sat Apr  5 22:06:37 2025.
