 Gaussian 16, Revision C.01,

 ----------------------------------------------------------------------
 #t hf aug-cc-pvdz symm=none int=(grid=ultrafine) guess=(read,tcheck) s
 table=(opt,rrhf)
 ----------------------------------------------------------------------
 -----
 title
 -----
 Symbolic Z-matrix:
 Charge =  0 Multiplicity = 1

 SCF Done:  E(RHF) =  -412.402464511     A.U. after   13 cycles
 Normal termination of Gaussian 16 at Sat Apr  5 22:08:34 2025.
 Gaussian 16:  ES64L-G16RevC.01  3-Jul-2019

 ----------------------------------------------------------------------
 #t hf aug-cc-pvdz iop(5/13=1,5/36=2,99/5=2) pseudo=read geom=check gue
 ss=(read,tcheck) scf=(maxcycle=1)
 ----------------------------------------------------------------------
 -----
 title
 -----
 Structure from the checkpoint file:  "1-2-ethanediyl_dicyanate.chk"
 Charge =  0 Multiplicity = 1

                         Standard orientation:
 ---------------------------------------------------------------------
 Center     Atomic      Atomic             Coordinates (Angstroms)
 Number     Number       Type             X           Y           Z
 ---------------------------------------------------------------------
      1          8           0       -0.194628    1.442226   -0.211553
      2          8           0        0.194628   -1.442226   -0.211553
      3          7           0        0.795033    3.647186   -0.572454
      4          7           0       -0.795033   -3.647186   -0.572454
      5          6           0        0.339745    0.667888    0.903873
      6          6           0       -0.339745   -0.667888    0.903873
      7          6           0        0.339745    2.601889   -0.389104
      8          6           0       -0.339745   -2.601889   -0.389104
      9          1           0        1.417300    0.568273    0.779108
     10          1           0        0.119945    1.195921    1.831875
     11          1           0       -1.417300   -0.568273    0.779108
     12          1           0       -0.119945   -1.195921    1.831875
 ---------------------------------------------------------------------

 SCF Done:  E(RHF) =  -412.532885091     A.U. after    2 cycles

 The electronic state is 1-A.
 Alpha  occ. eigenvalues --  -20.69558 -20.69558 -15.65138 -15.65138 -11.37862
 Alpha  occ. eigenvalues --  -11.37799 -11.36525 -11.36524  -1.47381  -1.46247
 Alpha  occ. eigenvalues --   -1.20842  -1.20390  -1.11728  -0.96051  -0.85274
 Alpha  occ. eigenvalues --   -0.84302  -0.74665  -0.74622  -0.73508  -0.68200
 Alpha  occ. eigenvalues --   -0.61365  -0.61190  -0.59238  -0.56529  -0.56376
 Alpha  occ. eigenvalues --   -0.47619  -0.47543  -0.46137  -0.45770
 Alpha virt. eigenvalues --    0.01563   0.03478   0.04475   0.04495   0.07417
 Alpha virt. eigenvalues --    0.08209   0.08996   0.09032   0.09617   0.11886
 Alpha virt. eigenvalues --    0.12085   0.12778   0.13008   0.13855   0.14133

 Mulliken charges:
               1
     1  O   -0.357675
     2  O   -0.357675
     3  N   -0.115783
     4  N   -0.115783
     5  C    0.846909
     6  C    0.846909
     7  C   -0.144330
     8  C   -0.144330
     9  H   -0.132005
    10  H   -0.097117
    11  H   -0.132005
    12  H   -0.097117
 Sum of Mulliken charges =  -0.00000

 Dipole moment (field-independent basis, Debye):
    X=             -0.0000    Y=             -0.0000    Z=              4.5145  Tot=              4.5145

 Test job not archived.
 1\1\GINC-SE040\SP\RHF\Aug-CC-pVDZ\C4H4N2O2\OHZDE\05-Apr-2025\0\\#t hf
 aug-cc-pvdz iop(5/13=1,5/36=2,99/5=2) pseudo=read geom=check guess=(re
 ad,tcheck) scf=(maxcycle=1)\\title\\0,1\O,0,-0.194628,1.442226,-0.2115
 53\O,0,0.194628,-1.442226,-0.211553\N,0,0.795033,3.647186,-0.572454\N,
 0,-0.795033,-3.647186,-0.572454\C,0,0.339745,0.667888,0.903873\C,0,-0.
 339745,-0.667888,0.903873\C,0,0.339745,2.601889,-0.389104\C,0,-0.33974
 5,-2.601889,-0.389104\H,0,1.4173,0.568273,0.779108\H,0,0.119945,1.1959
 21,1.831875\H,0,-1.4173,-0.568273,0.779108\H,0,-0.119945,-1.195921,1.8

 Normal termination of Gaussian 16 at Sat Apr  5 22:08:39 2025.
