 Gaussian 16, Revision C.01,

 ----------------------------------------------------------------------
 #t hf aug-cc-pvdz symm=none int=(grid=ultrafine) guess=(read,tcheck) s
 table=(opt,rrhf)
 ----------------------------------------------------------------------
 -----
 title
 -----
 Symbolic Z-matrix:
 Charge =  0 Multiplicity = 1

 SCF Done:  E(RHF) =  -276.569142688     A.U. after   15 cycles
 Normal termination of Gaussian 16 at Sat Apr  5 22:06:08 2025.
 Gaussian 16:  ES64L-G16RevC.01  3-Jul-2019

 ----------------------------------------------------------------------
 #t hf aug-cc-pvdz iop(5/13=1,5/36=2,99/5=2) pseudo=read geom=check gue
 ss=(read,tcheck) scf=(maxcycle=1)
 ----------------------------------------------------------------------
 -----
 title
 -----
 Structure from the checkpoint file:  "1-2-3-5-oxatriazole.chk"
 Charge =  0 Multiplicity = 1

                         Standard orientation:
 ---------------------------------------------------------------------
 Center     Atomic      Atomic             Coordinates (Angstroms)
 Number     Number       Type             X           Y           Z
 ---------------------------------------------------------------------
      1          8           0       -0.672368   -0.891320   -0.000000
      2          7           0        0.733709   -0.902550    0.000000
      3          7           0        1.120509    0.284725    0.000000
      4          6           0       -0.000000    1.089677   -0.000000
      5          7           0       -1.090635    0.393352   -0.000000
      6          1           0        0.033864    2.163813   -0.000000
 ---------------------------------------------------------------------

 SCF Done:  E(RHF) =  -276.647559602     A.U. after    2 cycles

 The electronic state is 1-A'.
 Alpha  occ. eigenvalues --  -20.72781 -15.80497 -15.75201 -15.73309 -11.35490
 Alpha  occ. eigenvalues --   -1.54955  -1.32111  -1.20637  -0.93319  -0.90909
 Alpha  occ. eigenvalues --   -0.77807  -0.73646  -0.65591  -0.60448  -0.53208
 Alpha  occ. eigenvalues --   -0.52862  -0.50762  -0.45771
 Alpha virt. eigenvalues --    0.03033   0.05968   0.07817   0.08091   0.08723
 Alpha virt. eigenvalues --    0.13008   0.13800   0.15406   0.16961   0.17246
 Alpha virt. eigenvalues --    0.18554   0.19800   0.20433   0.20949   0.24670

 Mulliken charges:
               1
     1  O   -0.611869
     2  N    0.152165
     3  N   -0.304523
     4  C    0.939427
     5  N   -0.040194
     6  H   -0.135006
 Sum of Mulliken charges =  -0.00000

 Dipole moment (field-independent basis, Debye):
    X=              0.3464    Y=              2.3752    Z=             -0.0000  Tot=              2.4003

 Test job not archived.
 1\1\GINC-SE225\SP\RHF\Aug-CC-pVDZ\C1H1N3O1\OHZDE\05-Apr-2025\0\\#t hf
 aug-cc-pvdz iop(5/13=1,5/36=2,99/5=2) pseudo=read geom=check guess=(re
 ad,tcheck) scf=(maxcycle=1)\\title\\0,1\O,0,-0.672368,-0.89132,0.\N,0,
 0.733709,-0.90255,0.\N,0,1.120509,0.284725,0.\C,0,0.,1.089677,0.\N,0,-
 1.090635,0.393352,0.\H,0,0.033864,2.163813,0.\\Version=ES64L-G16RevC.0
 1\State=1-A'\HF=-276.6475596\RMSD=3.000e-03\Dipole=0.1362726,0.9344704
 ,0.\Quadrupole=-3.3096833,2.6362317,0.6734516,0.2855329,0.,0.\PG=CS [S
 G(C1H1N3O1)]\\@

 Normal termination of Gaussian 16 at Sat Apr  5 22:06:37 2025.
