 Gaussian 16, Revision C.01,

 ----------------------------------------------------------------------
 #t hf aug-cc-pvdz symm=none int=(grid=ultrafine) guess=(read,tcheck) s
 table=(opt,rrhf)
 ----------------------------------------------------------------------
 -----
 title
 -----
 Symbolic Z-matrix:
 Charge =  0 Multiplicity = 1

 SCF Done:  E(RHF) =  -384.506534280     A.U. after   14 cycles
 Normal termination of Gaussian 16 at Sat Apr  5 22:10:27 2025.
 Gaussian 16:  ES64L-G16RevC.01  3-Jul-2019

 ----------------------------------------------------------------------
 #t hf aug-cc-pvdz iop(5/13=1,5/36=2,99/5=2) pseudo=read geom=check gue
 ss=(read,tcheck) scf=(maxcycle=1)
 ----------------------------------------------------------------------
 -----
 title
 -----
 Structure from the checkpoint file:  "1-2-divinylbenzene.chk"
 Charge =  0 Multiplicity = 1

                         Standard orientation:
 ---------------------------------------------------------------------
 Center     Atomic      Atomic             Coordinates (Angstroms)
 Number     Number       Type             X           Y           Z
 ---------------------------------------------------------------------
      1          6           0       -0.002677    0.695637    2.287492
      2          6           0        0.002677   -0.695637    2.287492
      3          6           0       -0.005281    1.380849    1.083628
      4          6           0        0.005281   -1.380849    1.083628
      5          6           0        0.002677    0.706828   -0.143419
      6          6           0       -0.002677   -0.706828   -0.143419
      7          6           0        0.504833    2.671718   -1.602985
      8          6           0       -0.504833   -2.671718   -1.602985
      9          6           0       -0.027936    1.466513   -1.404857
     10          6           0        0.027936   -1.466513   -1.404857
     11          1           0       -0.012494    1.242389    3.220751
     12          1           0        0.012494   -1.242389    3.220751
     13          1           0       -0.044540    2.461435    1.086304
     14          1           0        0.044540   -2.461435    1.086304
     15          1           0        0.415967    3.169418   -2.558579
     16          1           0        1.054385    3.194867   -0.831116
     17          1           0       -0.415967   -3.169418   -2.558579
     18          1           0       -1.054385   -3.194867   -0.831116
     19          1           0       -0.534592    0.991304   -2.236512
     20          1           0        0.534592   -0.991304   -2.236512
 ---------------------------------------------------------------------

 SCF Done:  E(RHF) =  -384.621244676     A.U. after    2 cycles

 The electronic state is 1-A.
 Alpha  occ. eigenvalues --  -11.25555 -11.25456 -11.25023 -11.25021 -11.24514
 Alpha  occ. eigenvalues --  -11.24433 -11.24341 -11.24317 -11.24045 -11.24045
 Alpha  occ. eigenvalues --   -1.15779  -1.06987  -1.06508  -0.99418  -0.98327
 Alpha  occ. eigenvalues --   -0.85715  -0.85065  -0.77511  -0.76422  -0.70303
 Alpha  occ. eigenvalues --   -0.66290  -0.64999  -0.61747  -0.61662  -0.59531
 Alpha  occ. eigenvalues --   -0.58677  -0.54640  -0.52466  -0.51760  -0.49777
 Alpha  occ. eigenvalues --   -0.48262  -0.40860  -0.40725  -0.32718  -0.30547
 Alpha virt. eigenvalues --    0.03468   0.03737   0.03845   0.05128   0.05609
 Alpha virt. eigenvalues --    0.05612   0.06218   0.06933   0.07207   0.07844
 Alpha virt. eigenvalues --    0.08509   0.09589   0.10798   0.11776   0.12321

 Mulliken charges:
               1
     1  C    0.299384
     2  C    0.299384
     3  C    0.308418
     4  C    0.308418
     5  C    0.193185
     6  C    0.193185
     7  C    0.620439
     8  C    0.620439
     9  C    0.691411
    10  C    0.691411
    11  H   -0.456483
    12  H   -0.456483
    13  H   -0.575350
    14  H   -0.575350
    15  H   -0.340070
    16  H   -0.351066
    17  H   -0.340070
    18  H   -0.351066
    19  H   -0.389868
    20  H   -0.389868
 Sum of Mulliken charges =   0.00000

 Dipole moment (field-independent basis, Debye):
    X=              0.0000    Y=             -0.0000    Z=              0.0596  Tot=              0.0596

 Test job not archived.
 1\1\GINC-SE042\SP\RHF\Aug-CC-pVDZ\C10H10\OHZDE\05-Apr-2025\0\\#t hf au
 g-cc-pvdz iop(5/13=1,5/36=2,99/5=2) pseudo=read geom=check guess=(read
 ,tcheck) scf=(maxcycle=1)\\title\\0,1\C,0,-0.002677,0.695637,2.287492\
 C,0,0.002677,-0.695637,2.287492\C,0,-0.005281,1.380849,1.083628\C,0,0.
 005281,-1.380849,1.083628\C,0,0.002677,0.706828,-0.143419\C,0,-0.00267
 7,-0.706828,-0.143419\C,0,0.504833,2.671718,-1.602985\C,0,-0.504833,-2
 .671718,-1.602985\C,0,-0.027936,1.466513,-1.404857\C,0,0.027936,-1.466
 513,-1.404857\H,0,-0.012494,1.242389,3.220751\H,0,0.012494,-1.242389,3

 Normal termination of Gaussian 16 at Sat Apr  5 22:10:46 2025.
