 Gaussian 16, Revision C.01,

 ----------------------------------------------------------------------
 #t hf aug-cc-pvdz symm=none int=(grid=ultrafine) guess=(read,tcheck) s
 table=(opt,rrhf)
 ----------------------------------------------------------------------
 -----
 title
 -----
 Symbolic Z-matrix:
 Charge =  0 Multiplicity = 1

 SCF Done:  E(RHF) =  -601.590745981     A.U. after   15 cycles
 Normal termination of Gaussian 16 at Sat Apr  5 22:06:12 2025.
 Gaussian 16:  ES64L-G16RevC.01  3-Jul-2019

 ----------------------------------------------------------------------
 #t hf aug-cc-pvdz iop(5/13=1,5/36=2,99/5=2) pseudo=read geom=check gue
 ss=(read,tcheck) scf=(maxcycle=1)
 ----------------------------------------------------------------------
 -----
 title
 -----
 Structure from the checkpoint file:  "1-2-3-5-thiatriazolidine.chk"
 Charge =  0 Multiplicity = 1

                         Standard orientation:
 ---------------------------------------------------------------------
 Center     Atomic      Atomic             Coordinates (Angstroms)
 Number     Number       Type             X           Y           Z
 ---------------------------------------------------------------------
      1         16           0        1.269184    0.021996   -0.048659
      2          7           0       -0.119170    1.321785   -0.175767
      3          7           0        0.137738   -1.247091    0.185652
      4          7           0       -1.310756    0.631312    0.167212
      5          6           0       -1.144327   -0.729143   -0.328537
      6          1           0        0.047791    2.004441    0.559957
      7          1           0        0.046505   -1.444294    1.177121
      8          1           0       -1.422605    0.577580    1.179868
      9          1           0       -1.098327   -0.703318   -1.415165
     10          1           0       -1.969029   -1.353521    0.008300
 ---------------------------------------------------------------------

 SCF Done:  E(RHF) =  -601.673648756     A.U. after    2 cycles

 The electronic state is 1-A.
 Alpha  occ. eigenvalues --  -93.57673 -15.68495 -15.66841 -15.65811 -11.31457
 Alpha  occ. eigenvalues --   -8.86845  -6.20944  -6.20749  -6.20286  -1.29432
 Alpha  occ. eigenvalues --   -1.16453  -1.04847  -0.87332  -0.85523  -0.73285
 Alpha  occ. eigenvalues --   -0.66474  -0.64753  -0.58285  -0.54015  -0.52728
 Alpha  occ. eigenvalues --   -0.48747  -0.43349  -0.37550  -0.33107
 Alpha virt. eigenvalues --    0.02571   0.03953   0.04960   0.05435   0.07418
 Alpha virt. eigenvalues --    0.09330   0.10339   0.11233   0.12654   0.13987
 Alpha virt. eigenvalues --    0.15902   0.16328   0.17302   0.18256   0.18909

 Mulliken charges:
               1
     1  S    0.727021
     2  N   -0.429071
     3  N   -0.760797
     4  N   -0.421482
     5  C    1.036376
     6  H    0.089450
     7  H    0.043510
     8  H    0.038928
     9  H   -0.172093
    10  H   -0.151843
 Sum of Mulliken charges =   0.00000

 Dipole moment (field-independent basis, Debye):
    X=             -1.4577    Y=             -0.4091    Z=              2.7789  Tot=              3.1646

 Test job not archived.
 1\1\GINC-SE226\SP\RHF\Aug-CC-pVDZ\C1H5N3S1\OHZDE\05-Apr-2025\0\\#t hf
 aug-cc-pvdz iop(5/13=1,5/36=2,99/5=2) pseudo=read geom=check guess=(re
 ad,tcheck) scf=(maxcycle=1)\\title\\0,1\S,0,1.269184,0.021994,-0.04865
 9\N,0,-0.119168,1.321785,-0.175767\N,0,0.137736,-1.247091,0.185652\N,0
 ,-1.310755,0.631314,0.167212\C,0,-1.144328,-0.729142,-0.328537\H,0,0.0
 47793,2.004441,0.559957\H,0,0.046503,-1.444294,1.177121\H,0,-1.422604,
 0.577582,1.179868\H,0,-1.098328,-0.703317,-1.415165\H,0,-1.969031,-1.3
 53519,0.0083\\Version=ES64L-G16RevC.01\State=1-A\HF=-601.6736488\RMSD=

 Normal termination of Gaussian 16 at Sat Apr  5 22:06:38 2025.
