 Gaussian 16, Revision C.01,

 ----------------------------------------------------------------------
 #t hf aug-cc-pvdz symm=none int=(grid=ultrafine) guess=(read,tcheck) s
 table=(opt,rrhf)
 ----------------------------------------------------------------------
 -----
 title
 -----
 Symbolic Z-matrix:
 Charge =  0 Multiplicity = 1

 SCF Done:  E(RHF) =  -642.111555783     A.U. after   16 cycles
 Normal termination of Gaussian 16 at Sat Apr  5 22:08:43 2025.
 Gaussian 16:  ES64L-G16RevC.01  3-Jul-2019

 ----------------------------------------------------------------------
 #t hf aug-cc-pvdz iop(5/13=1,5/36=2,99/5=2) pseudo=read geom=check gue
 ss=(read,tcheck) scf=(maxcycle=1)
 ----------------------------------------------------------------------
 -----
 title
 -----
 Structure from the checkpoint file:  "1-2-thiazole-1-oxide.chk"
 Charge =  0 Multiplicity = 1

                         Standard orientation:
 ---------------------------------------------------------------------
 Center     Atomic      Atomic             Coordinates (Angstroms)
 Number     Number       Type             X           Y           Z
 ---------------------------------------------------------------------
      1          6           0       -1.612388    0.682359    0.140260
      2          6           0       -1.488887   -0.779323    0.122520
      3          6           0       -0.420753    1.265282   -0.005680
      4          7           0       -0.318061   -1.288315   -0.012961
      5          8           0        1.964766    0.007832    0.533864
      6         16           0        0.794812   -0.007586   -0.382382
      7          1           0       -2.559721    1.190971    0.248025
      8          1           0       -2.350133   -1.435001    0.211100
      9          1           0       -0.166681    2.311049   -0.063797
 ---------------------------------------------------------------------

 SCF Done:  E(RHF) =  -642.229003588     A.U. after    2 cycles

 The electronic state is 1-A.
 Alpha  occ. eigenvalues --  -93.69891 -20.54443 -15.67599 -11.34199 -11.31211
 Alpha  occ. eigenvalues --  -11.30107  -8.97966  -6.32259  -6.32048  -6.31724
 Alpha  occ. eigenvalues --   -1.33862  -1.25088  -1.08964  -0.98155  -0.82285
 Alpha  occ. eigenvalues --   -0.79944  -0.73515  -0.63672  -0.63325  -0.61360
 Alpha  occ. eigenvalues --   -0.59728  -0.51633  -0.50276  -0.45028  -0.40700
 Alpha  occ. eigenvalues --   -0.39355
 Alpha virt. eigenvalues --    0.02172   0.02950   0.03574   0.04968   0.08085
 Alpha virt. eigenvalues --    0.09717   0.09825   0.11709   0.12042   0.12278
 Alpha virt. eigenvalues --    0.13221   0.13632   0.14000   0.14648   0.15244

 Mulliken charges:
               1
     1  C    0.613641
     2  C    0.352075
     3  C   -0.163688
     4  N   -0.806142
     5  O   -0.980530
     6  S    1.753493
     7  H   -0.284602
     8  H   -0.225627
     9  H   -0.258620
 Sum of Mulliken charges =  -0.00000

 Dipole moment (field-independent basis, Debye):
    X=             -5.7267    Y=              2.3114    Z=             -1.2351  Tot=              6.2978

 Test job not archived.
 1\1\GINC-SE158\SP\RHF\Aug-CC-pVDZ\C3H3N1O1S1\OHZDE\05-Apr-2025\0\\#t h
 f aug-cc-pvdz iop(5/13=1,5/36=2,99/5=2) pseudo=read geom=check guess=(
 read,tcheck) scf=(maxcycle=1)\\title\\0,1\C,0,-1.612388,0.682359,0.140
 26\C,0,-1.488887,-0.779323,0.12252\C,0,-0.420753,1.265282,-0.00568\N,0
 ,-0.318061,-1.288315,-0.012961\O,0,1.964766,0.007831,0.533864\S,0,0.79
 4812,-0.007586,-0.382382\H,0,-2.559721,1.190971,0.248025\H,0,-2.350133
 ,-1.435001,0.2111\H,0,-0.166681,2.311049,-0.063797\\Version=ES64L-G16R
 evC.01\State=1-A\HF=-642.2290036\RMSD=7.892e-03\Dipole=-2.2530524,0.90

 Normal termination of Gaussian 16 at Sat Apr  5 22:08:46 2025.
