 Gaussian 16, Revision C.01,

 ----------------------------------------------------------------------
 #t hf aug-cc-pvdz symm=none int=(grid=ultrafine) guess=(read,tcheck) s
 table=(opt,rrhf)
 ----------------------------------------------------------------------
 -----
 title
 -----
 Symbolic Z-matrix:
 Charge =  0 Multiplicity = 1

 SCF Done:  E(RHF) =  -302.566604446     A.U. after   13 cycles
 Normal termination of Gaussian 16 at Sat Apr  5 22:07:06 2025.
 Gaussian 16:  ES64L-G16RevC.01  3-Jul-2019

 ----------------------------------------------------------------------
 #t hf aug-cc-pvdz iop(5/13=1,5/36=2,99/5=2) pseudo=read geom=check gue
 ss=(read,tcheck) scf=(maxcycle=1)
 ----------------------------------------------------------------------
 -----
 title
 -----
 Structure from the checkpoint file:  "1-2-4-trioxolane.chk"
 Charge =  0 Multiplicity = 1

                         Standard orientation:
 ---------------------------------------------------------------------
 Center     Atomic      Atomic             Coordinates (Angstroms)
 Number     Number       Type             X           Y           Z
 ---------------------------------------------------------------------
      1          8           0        0.000000   -0.000000    1.185426
      2          6           0        0.000000    1.126270    0.321884
      3          6           0       -0.000000   -1.126270    0.321884
      4          8           0       -0.368242   -0.630282   -0.948481
      5          8           0        0.368242    0.630282   -0.948481
      6          1           0       -0.997388    1.574227    0.297170
      7          1           0        0.997388   -1.574227    0.297170
      8          1           0        0.765842    1.843110    0.617669
      9          1           0       -0.765842   -1.843110    0.617669
 ---------------------------------------------------------------------

 SCF Done:  E(RHF) =  -302.665267750     A.U. after    2 cycles

 The electronic state is 1-A.
 Alpha  occ. eigenvalues --  -20.66009 -20.65981 -20.60102 -11.36433 -11.36415
 Alpha  occ. eigenvalues --   -1.48685  -1.33844  -1.24210  -0.94285  -0.90106
 Alpha  occ. eigenvalues --   -0.76296  -0.75106  -0.68267  -0.66627  -0.61394
 Alpha  occ. eigenvalues --   -0.59434  -0.56900  -0.56004  -0.48389  -0.46686
 Alpha virt. eigenvalues --    0.03600   0.04695   0.05008   0.06249   0.08789
 Alpha virt. eigenvalues --    0.09738   0.10716   0.14522   0.15760   0.16657
 Alpha virt. eigenvalues --    0.17025   0.18129   0.18162   0.20255   0.22161

 Mulliken charges:
               1
     1  O   -0.694184
     2  C    1.141925
     3  C    1.141925
     4  O   -0.445548
     5  O   -0.445548
     6  H   -0.155528
     7  H   -0.155528
     8  H   -0.193757
     9  H   -0.193757
 Sum of Mulliken charges =  -0.00000

 Dipole moment (field-independent basis, Debye):
    X=              0.0000    Y=             -0.0000    Z=              1.3016  Tot=              1.3016

 Test job not archived.
 1\1\GINC-SE190\SP\RHF\Aug-CC-pVDZ\C2H4O3\OHZDE\05-Apr-2025\0\\#t hf au
 g-cc-pvdz iop(5/13=1,5/36=2,99/5=2) pseudo=read geom=check guess=(read
 ,tcheck) scf=(maxcycle=1)\\title\\0,1\O,0,0.,0.,1.185426\C,0,0.,1.1262
 7,0.321884\C,0,0.,-1.12627,0.321884\O,0,-0.368242,-0.630282,-0.948481\
 O,0,0.368242,0.630282,-0.948481\H,0,-0.997388,1.574227,0.29717\H,0,0.9
 97388,-1.574227,0.29717\H,0,0.765842,1.84311,0.617669\H,0,-0.765842,-1
 .84311,0.617669\\Version=ES64L-G16RevC.01\State=1-A\HF=-302.6652678\RM
 SD=2.662e-03\Dipole=0.,0.,0.5121083\Quadrupole=0.1747205,4.3897765,-4.

 Normal termination of Gaussian 16 at Sat Apr  5 22:07:10 2025.
