 Gaussian 16, Revision C.01,

 ----------------------------------------------------------------------
 #t hf aug-cc-pvdz symm=none int=(grid=ultrafine) guess=(read,tcheck) s
 table=(opt,rrhf)
 ----------------------------------------------------------------------
 -----
 title
 -----
 Symbolic Z-matrix:
 Charge =  0 Multiplicity = 1

 SCF Done:  E(RHF) =  -294.650424409     A.U. after   14 cycles
 Normal termination of Gaussian 16 at Sat Apr  5 22:06:11 2025.
 Gaussian 16:  ES64L-G16RevC.01  3-Jul-2019

 ----------------------------------------------------------------------
 #t hf aug-cc-pvdz iop(5/13=1,5/36=2,99/5=2) pseudo=read geom=check gue
 ss=(read,tcheck) scf=(maxcycle=1)
 ----------------------------------------------------------------------
 -----
 title
 -----
 Structure from the checkpoint file:  "1-2-3-5-tetrazine.chk"
 Charge =  0 Multiplicity = 1

                         Standard orientation:
 ---------------------------------------------------------------------
 Center     Atomic      Atomic             Coordinates (Angstroms)
 Number     Number       Type             X           Y           Z
 ---------------------------------------------------------------------
      1          7           0        0.000000    1.144299   -0.704266
      2          7           0       -0.000000    0.000000   -1.359116
      3          7           0       -0.000000   -1.144299   -0.704266
      4          6           0        0.000000   -1.104612    0.629854
      5          7           0        0.000000   -0.000000    1.362678
      6          6           0        0.000000    1.104612    0.629854
      7          1           0        0.000000   -2.061100    1.138272
      8          1           0        0.000000    2.061100    1.138272
 ---------------------------------------------------------------------

 SCF Done:  E(RHF) =  -294.732110164     A.U. after    2 cycles

 The electronic state is 1-A1.
 Alpha  occ. eigenvalues --  -15.76794 -15.70516 -15.70501 -15.68792 -11.37129
 Alpha  occ. eigenvalues --  -11.37116  -1.41120  -1.25579  -1.21379  -0.99019
 Alpha  occ. eigenvalues --   -0.96137  -0.79103  -0.76942  -0.64904  -0.64270
 Alpha  occ. eigenvalues --   -0.61502  -0.54444  -0.48083  -0.45902  -0.45196
 Alpha  occ. eigenvalues --   -0.42498
 Alpha virt. eigenvalues --    0.03093   0.03452   0.04442   0.06439   0.06934
 Alpha virt. eigenvalues --    0.08420   0.10017   0.10440   0.13853   0.14057
 Alpha virt. eigenvalues --    0.14848   0.16079   0.16943   0.18587   0.19526

 Mulliken charges:
               1
     1  N   -0.283786
     2  N   -0.111631
     3  N   -0.283786
     4  C    0.741205
     5  N   -0.412867
     6  C    0.741205
     7  H   -0.195170
     8  H   -0.195170
 Sum of Mulliken charges =  -0.00000

 Dipole moment (field-independent basis, Debye):
    X=              0.0000    Y=             -0.0000    Z=              2.6184  Tot=              2.6184

 Test job not archived.
 1\1\GINC-SE225\SP\RHF\Aug-CC-pVDZ\C2H2N4\OHZDE\05-Apr-2025\0\\#t hf au
 g-cc-pvdz iop(5/13=1,5/36=2,99/5=2) pseudo=read geom=check guess=(read
 ,tcheck) scf=(maxcycle=1)\\title\\0,1\N,0,0.,1.144299,-0.704266\N,0,0.
 ,0.,-1.359116\N,0,0.,-1.144299,-0.704266\C,0,0.,-1.104612,0.629854\N,0
 ,0.,0.,1.362678\C,0,0.,1.104612,0.629854\H,0,0.,-2.0611,1.138272\H,0,0
 .,2.0611,1.138272\\Version=ES64L-G16RevC.01\State=1-A1\HF=-294.7321102
 \RMSD=2.941e-03\Dipole=0.,0.,1.0301488\Quadrupole=1.2896718,2.582768,-
 3.8724397,0.,0.,0.\PG=C02V [C2(N1N1),SGV(C2H2N2)]\\@

 Normal termination of Gaussian 16 at Sat Apr  5 22:06:37 2025.
