 Gaussian 16, Revision C.01,

 ----------------------------------------------------------------------
 #t hf aug-cc-pvdz symm=none int=(grid=ultrafine) guess=(read,tcheck) s
 table=(opt,rrhf)
 ----------------------------------------------------------------------
 -----
 title
 -----
 Symbolic Z-matrix:
 Charge =  0 Multiplicity = 1

 SCF Done:  E(RHF) =  -260.637861280     A.U. after   15 cycles
 Normal termination of Gaussian 16 at Sat Apr  5 22:07:12 2025.
 Gaussian 16:  ES64L-G16RevC.01  3-Jul-2019

 ----------------------------------------------------------------------
 #t hf aug-cc-pvdz iop(5/13=1,5/36=2,99/5=2) pseudo=read geom=check gue
 ss=(read,tcheck) scf=(maxcycle=1)
 ----------------------------------------------------------------------
 -----
 title
 -----
 Structure from the checkpoint file:  "1-2-4-oxadiazole.chk"
 Charge =  0 Multiplicity = 1

                         Standard orientation:
 ---------------------------------------------------------------------
 Center     Atomic      Atomic             Coordinates (Angstroms)
 Number     Number       Type             X           Y           Z
 ---------------------------------------------------------------------
      1          6           0        0.672289   -0.872864    0.000000
      2          6           0        0.000000    1.080516    0.000000
      3          7           0        1.115151    0.428577    0.000000
      4          7           0       -0.618412   -1.018822    0.000000
      5          8           0       -1.086341    0.307970    0.000000
      6          1           0        1.331150   -1.725351    0.000000
      7          1           0       -0.151329    2.147397    0.000000
 ---------------------------------------------------------------------

 SCF Done:  E(RHF) =  -260.715386216     A.U. after    2 cycles

 The electronic state is 1-A'.
 Alpha  occ. eigenvalues --  -20.68798 -15.70990 -15.65618 -11.38492 -11.33709
 Alpha  occ. eigenvalues --   -1.49250  -1.23924  -1.15415  -0.88082  -0.86915
 Alpha  occ. eigenvalues --   -0.77250  -0.70267  -0.63479  -0.61968  -0.53273
 Alpha  occ. eigenvalues --   -0.48828  -0.47995  -0.41824
 Alpha virt. eigenvalues --    0.03269   0.03815   0.07359   0.08237   0.09171
 Alpha virt. eigenvalues --    0.09960   0.10836   0.14741   0.14943   0.16030
 Alpha virt. eigenvalues --    0.17537   0.18396   0.19123   0.20337   0.20529

 Mulliken charges:
               1
     1  C    0.708693
     2  C    0.731580
     3  N   -0.531176
     4  N   -0.105680
     5  O   -0.549183
     6  H   -0.116479
     7  H   -0.137755
 Sum of Mulliken charges =  -0.00000

 Dipole moment (field-independent basis, Debye):
    X=              0.9507    Y=              1.1107    Z=              0.0000  Tot=              1.4620

 Test job not archived.
 1\1\GINC-SE180\SP\RHF\Aug-CC-pVDZ\C2H2N2O1\OHZDE\05-Apr-2025\0\\#t hf
 aug-cc-pvdz iop(5/13=1,5/36=2,99/5=2) pseudo=read geom=check guess=(re
 ad,tcheck) scf=(maxcycle=1)\\title\\0,1\C,0,0.672289,-0.872864,0.\C,0,
 0.,1.080516,0.\N,0,1.115151,0.428577,0.\N,0,-0.618412,-1.018822,0.\O,0
 ,-1.086341,0.30797,0.\H,0,1.33115,-1.725351,0.\H,0,-0.151329,2.147397,
 0.\\Version=ES64L-G16RevC.01\State=1-A'\HF=-260.7153862\RMSD=2.471e-03
 \Dipole=0.3740457,0.4369893,0.\Quadrupole=-3.3981724,3.6950313,-0.2968
 589,-3.9369777,0.,0.\PG=CS [SG(C2H2N2O1)]\\@

 Normal termination of Gaussian 16 at Sat Apr  5 22:07:14 2025.
