 Gaussian 16, Revision C.01,

 ----------------------------------------------------------------------
 #t hf aug-cc-pvdz symm=none int=(grid=ultrafine) guess=(read,tcheck) s
 table=(opt,rrhf)
 ----------------------------------------------------------------------
 -----
 title
 -----
 Symbolic Z-matrix:
 Charge =  0 Multiplicity = 1

 SCF Done:  E(RHF) =  -398.517017966     A.U. after   15 cycles
 Normal termination of Gaussian 16 at Sat Apr  5 22:10:40 2025.
 Gaussian 16:  ES64L-G16RevC.01  3-Jul-2019

 ----------------------------------------------------------------------
 #t hf aug-cc-pvdz iop(5/13=1,5/36=2,99/5=2) pseudo=read geom=check gue
 ss=(read,tcheck) scf=(maxcycle=1)
 ----------------------------------------------------------------------
 -----
 title
 -----
 Structure from the checkpoint file:  "1-3-pyridinylethanone.chk"
 Charge =  0 Multiplicity = 1

                         Standard orientation:
 ---------------------------------------------------------------------
 Center     Atomic      Atomic             Coordinates (Angstroms)
 Number     Number       Type             X           Y           Z
 ---------------------------------------------------------------------
      1          6           0        1.696862   -1.488657    0.000000
      2          6           0        1.351488   -0.149893    0.000000
      3          6           0        0.678556   -2.438597    0.000000
      4          6           0       -0.937596   -0.833228    0.000000
      5          6           0        0.000000    0.201553    0.000000
      6          6           0       -0.380417    1.650164    0.000000
      7          6           0       -1.846582    2.020735    0.000000
      8          7           0       -0.617070   -2.126889    0.000000
      9          8           0        0.479636    2.507928    0.000000
     10          1           0        2.731892   -1.800786    0.000000
     11          1           0        2.096554    0.633302    0.000000
     12          1           0        0.915031   -3.496491    0.000000
     13          1           0       -1.998650   -0.616442    0.000000
     14          1           0       -2.350642    1.614766    0.878826
     15          1           0       -2.350642    1.614766   -0.878826
     16          1           0       -1.935005    3.103218    0.000000
 ---------------------------------------------------------------------

 SCF Done:  E(RHF) =  -398.635061700     A.U. after    2 cycles

 The electronic state is 1-A'.
 Alpha  occ. eigenvalues --  -20.56752 -15.64298 -11.35613 -11.30498 -11.30328
 Alpha  occ. eigenvalues --  -11.27994 -11.26471 -11.26118 -11.25172  -1.36068
 Alpha  occ. eigenvalues --   -1.24861  -1.09784  -1.06013  -1.00588  -0.89291
 Alpha  occ. eigenvalues --   -0.87084  -0.78115  -0.73403  -0.69239  -0.67722
 Alpha  occ. eigenvalues --   -0.63620  -0.62620  -0.62000  -0.58738  -0.56649
 Alpha  occ. eigenvalues --   -0.55879  -0.54721  -0.52165  -0.44817  -0.42314
 Alpha  occ. eigenvalues --   -0.39541  -0.36617
 Alpha virt. eigenvalues --    0.03152   0.03380   0.04534   0.05155   0.05557
 Alpha virt. eigenvalues --    0.05939   0.06416   0.08186   0.08915   0.08959
 Alpha virt. eigenvalues --    0.09814   0.11235   0.12283   0.12529   0.13606

 Mulliken charges:
               1
     1  C    0.526523
     2  C   -0.089503
     3  C    0.525873
     4  C    0.821307
     5  C    0.865370
     6  C   -0.374372
     7  C    0.444033
     8  N   -0.520954
     9  O   -0.534658
    10  H   -0.374628
    11  H   -0.566014
    12  H   -0.342886
    13  H   -0.476563
    14  H    0.125574
    15  H    0.125574
    16  H   -0.154678
 Sum of Mulliken charges =  -0.00000

 Dipole moment (field-independent basis, Debye):
    X=             -0.5972    Y=             -1.3651    Z=             -0.0000  Tot=              1.4900

 Test job not archived.
 1\1\GINC-SE185\SP\RHF\Aug-CC-pVDZ\C7H7N1O1\OHZDE\05-Apr-2025\0\\#t hf
 aug-cc-pvdz iop(5/13=1,5/36=2,99/5=2) pseudo=read geom=check guess=(re
 ad,tcheck) scf=(maxcycle=1)\\title\\0,1\C,0,1.696861,-1.488658,0.\C,0,
 1.351488,-0.149893,0.\C,0,0.678555,-2.438597,0.\C,0,-0.937596,-0.83322
 8,0.\C,0,0.,0.201553,0.\C,0,-0.380417,1.650164,0.\C,0,-1.846581,2.0207
 36,0.\N,0,-0.617071,-2.126889,0.\O,0,0.479637,2.507928,0.\H,0,2.731891
 ,-1.800787,0.\H,0,2.096554,0.633301,0.\H,0,0.91503,-3.496491,0.\H,0,-1
 .99865,-0.616441,0.\H,0,-2.350642,1.614767,0.878826\H,0,-2.350642,1.61

 Normal termination of Gaussian 16 at Sat Apr  5 22:10:47 2025.
