 Gaussian 16, Revision C.01,

 ----------------------------------------------------------------------
 #t hf aug-cc-pvdz symm=none int=(grid=ultrafine) guess=(read,tcheck) s
 table=(opt,rrhf)
 ----------------------------------------------------------------------
 -----
 title
 -----
 Symbolic Z-matrix:
 Charge =  0 Multiplicity = 1

 SCF Done:  E(RHF) =  -154.940627215     A.U. after   12 cycles
 Normal termination of Gaussian 16 at Sat Apr  5 22:08:39 2025.
 Gaussian 16:  ES64L-G16RevC.01  3-Jul-2019

 ----------------------------------------------------------------------
 #t hf aug-cc-pvdz iop(5/13=1,5/36=2,99/5=2) pseudo=read geom=check gue
 ss=(read,tcheck) scf=(maxcycle=1)
 ----------------------------------------------------------------------
 -----
 title
 -----
 Structure from the checkpoint file:  "1-3-butadiene.chk"
 Charge =  0 Multiplicity = 1

                         Standard orientation:
 ---------------------------------------------------------------------
 Center     Atomic      Atomic             Coordinates (Angstroms)
 Number     Number       Type             X           Y           Z
 ---------------------------------------------------------------------
      1          6           0        0.599705    1.744134    0.000000
      2          6           0       -0.599705   -1.744134    0.000000
      3          6           0        0.599705    0.409791    0.000000
      4          6           0       -0.599705   -0.409791    0.000000
      5          1           0        1.519840    2.311174    0.000000
      6          1           0       -0.324442    2.309081    0.000000
      7          1           0       -1.519840   -2.311174    0.000000
      8          1           0        0.324442   -2.309081    0.000000
      9          1           0        1.546374   -0.121919    0.000000
     10          1           0       -1.546374    0.121919    0.000000
 ---------------------------------------------------------------------

 SCF Done:  E(RHF) =  -154.990816361     A.U. after    2 cycles

 The electronic state is 1-AG.
 Alpha  occ. eigenvalues --  -11.24960 -11.24883 -11.24025 -11.24024  -1.08664
 Alpha  occ. eigenvalues --   -0.99899  -0.82917  -0.75793  -0.65097  -0.64180
 Alpha  occ. eigenvalues --   -0.56443  -0.54827  -0.49735  -0.44928  -0.32796
 Alpha virt. eigenvalues --    0.03726   0.04221   0.04595   0.06358   0.06754
 Alpha virt. eigenvalues --    0.08398   0.08688   0.11168   0.12866   0.12927
 Alpha virt. eigenvalues --    0.13687   0.14794   0.14803   0.16585   0.17046

 Mulliken charges:
               1
     1  C    0.573773
     2  C    0.573773
     3  C    0.511320
     4  C    0.511320
     5  H   -0.303313
     6  H   -0.313160
     7  H   -0.303313
     8  H   -0.313160
     9  H   -0.468621
    10  H   -0.468621
 Sum of Mulliken charges =   0.00000

 Dipole moment (field-independent basis, Debye):
    X=             -0.0000    Y=             -0.0000    Z=              0.0000  Tot=              0.0000

 Test job not archived.
 1\1\GINC-SE145\SP\RHF\Aug-CC-pVDZ\C4H6\OHZDE\05-Apr-2025\0\\#t hf aug-
 cc-pvdz iop(5/13=1,5/36=2,99/5=2) pseudo=read geom=check guess=(read,t
 check) scf=(maxcycle=1)\\title\\0,1\C,0,0.599705,1.744134,0.\C,0,-0.59
 9705,-1.744134,0.\C,0,0.599705,0.409791,0.\C,0,-0.599705,-0.409791,0.\
 H,0,1.51984,2.311174,0.\H,0,-0.324442,2.309081,0.\H,0,-1.51984,-2.3111
 74,0.\H,0,0.324442,-2.309081,0.\H,0,1.546374,-0.121919,0.\H,0,-1.54637
 4,0.121919,0.\\Version=ES64L-G16RevC.01\State=1-AG\HF=-154.9908164\RMS
 D=7.358e-03\Dipole=0.,0.,0.\Quadrupole=1.5947636,1.7186149,-3.3133785,

 Normal termination of Gaussian 16 at Sat Apr  5 22:08:42 2025.
