 Gaussian 16, Revision C.01,

 ----------------------------------------------------------------------
 #t hf aug-cc-pvdz symm=none int=(grid=ultrafine) guess=(read,tcheck) s
 table=(opt,rrhf)
 ----------------------------------------------------------------------
 -----
 title
 -----
 Symbolic Z-matrix:
 Charge =  0 Multiplicity = 1

 SCF Done:  E(RHF) =  -1309.69162598     A.U. after   12 cycles
 Normal termination of Gaussian 16 at Sat Apr  5 22:08:48 2025.
 Gaussian 16:  ES64L-G16RevC.01  3-Jul-2019

 ----------------------------------------------------------------------
 #t hf aug-cc-pvdz iop(5/13=1,5/36=2,99/5=2) pseudo=read geom=check gue
 ss=(read,tcheck) scf=(maxcycle=1)
 ----------------------------------------------------------------------
 -----
 title
 -----
 Structure from the checkpoint file:  "1-3-5-trithiane.chk"
 Charge =  0 Multiplicity = 1

                         Standard orientation:
 ---------------------------------------------------------------------
 Center     Atomic      Atomic             Coordinates (Angstroms)
 Number     Number       Type             X           Y           Z
 ---------------------------------------------------------------------
      1          6           0        0.948694   -1.350269    0.000000
      2          6           0        0.087137    0.890974    1.386296
      3          6           0        0.087137    0.890974   -1.386296
      4         16           0        0.087137   -0.924984    1.549588
      5         16           0        0.087137   -0.924984   -1.549588
      6         16           0       -0.875903    1.580255   -0.000000
      7          1           0        1.943229   -0.904411    0.000000
      8          1           0        1.056441   -2.431888    0.000000
      9          1           0       -0.369306    1.277032    2.294111
     10          1           0        1.113597    1.253782    1.334926
     11          1           0        1.113597    1.253782   -1.334926
     12          1           0       -0.369306    1.277032   -2.294111
 ---------------------------------------------------------------------

 SCF Done:  E(RHF) =  -1309.78850428     A.U. after    2 cycles

 The electronic state is 1-A'.
 Alpha  occ. eigenvalues --  -93.54541 -93.54541 -93.54536 -11.30969 -11.30969
 Alpha  occ. eigenvalues --  -11.30943  -8.84280  -8.84280  -8.84259  -6.18401
 Alpha  occ. eigenvalues --   -6.18393  -6.18393  -6.18221  -6.18221  -6.18155
 Alpha  occ. eigenvalues --   -6.17850  -6.17850  -6.17823  -1.11530  -1.02812
 Alpha  occ. eigenvalues --   -1.02812  -0.85961  -0.85961  -0.76672  -0.66265
 Alpha  occ. eigenvalues --   -0.62133  -0.62133  -0.55315  -0.54036  -0.53152
 Alpha  occ. eigenvalues --   -0.53152  -0.44349  -0.44349  -0.36374  -0.34178
 Alpha  occ. eigenvalues --   -0.34178
 Alpha virt. eigenvalues --    0.03517   0.04499   0.04499   0.05029   0.07109
 Alpha virt. eigenvalues --    0.07109   0.08273   0.08273   0.10086   0.12190
 Alpha virt. eigenvalues --    0.12190   0.13851   0.14049   0.15218   0.15218

 Mulliken charges:
               1
     1  C   -0.361865
     2  C   -0.361865
     3  C   -0.361865
     4  S    0.460969
     5  S    0.460969
     6  S    0.460968
     7  H   -0.024338
     8  H   -0.074766
     9  H   -0.074766
    10  H   -0.024338
    11  H   -0.024338
    12  H   -0.074766
 Sum of Mulliken charges =   0.00000

 Dipole moment (field-independent basis, Debye):
    X=              2.1455    Y=              0.8248    Z=              0.0000  Tot=              2.2986

 Test job not archived.
 1\1\GINC-SE198\SP\RHF\Aug-CC-pVDZ\C3H6S3\OHZDE\05-Apr-2025\0\\#t hf au
 g-cc-pvdz iop(5/13=1,5/36=2,99/5=2) pseudo=read geom=check guess=(read
 ,tcheck) scf=(maxcycle=1)\\title\\0,1\C,0,0.,1.600757,0.401027\C,0,1.3
 86296,-0.800378,0.401027\C,0,-1.386296,-0.800378,0.401027\S,0,1.549588
 ,0.894655,-0.250561\S,0,-1.549588,0.894655,-0.250561\S,0,0.,-1.78931,-
 0.250561\H,0,0.,1.54144,1.489315\H,0,0.,2.649012,0.113501\H,0,2.294111
 ,-1.324506,0.113501\H,0,1.334926,-0.77072,1.489315\H,0,-1.334926,-0.77
 072,1.489315\H,0,-2.294111,-1.324506,0.113501\\Version=ES64L-G16RevC.0

 Normal termination of Gaussian 16 at Sat Apr  5 22:08:53 2025.
