 Gaussian 16, Revision C.01,

 ----------------------------------------------------------------------
 #t hf aug-cc-pvdz symm=none int=(grid=ultrafine) guess=(read,tcheck) s
 table=(opt,rrhf)
 ----------------------------------------------------------------------
 -----
 title
 -----
 Symbolic Z-matrix:
 Charge =  0 Multiplicity = 1

 SCF Done:  E(RHF) =  -341.704239023     A.U. after   11 cycles
 Normal termination of Gaussian 16 at Sat Apr  5 22:08:46 2025.
 Gaussian 16:  ES64L-G16RevC.01  3-Jul-2019

 ----------------------------------------------------------------------
 #t hf aug-cc-pvdz iop(5/13=1,5/36=2,99/5=2) pseudo=read geom=check gue
 ss=(read,tcheck) scf=(maxcycle=1)
 ----------------------------------------------------------------------
 -----
 title
 -----
 Structure from the checkpoint file:  "1-3-5-trioxane.chk"
 Charge =  0 Multiplicity = 1

                         Standard orientation:
 ---------------------------------------------------------------------
 Center     Atomic      Atomic             Coordinates (Angstroms)
 Number     Number       Type             X           Y           Z
 ---------------------------------------------------------------------
      1          6           0       -0.178381    1.334824    0.000000
      2          6           0       -0.178381   -0.667412    1.155992
      3          6           0       -0.178381   -0.667412   -1.155992
      4          8           0        0.261238    0.672604    1.164984
      5          8           0        0.261238    0.672604   -1.164984
      6          8           0        0.261238   -1.345208    0.000000
      7          1           0       -1.278381    1.389553    0.000000
      8          1           0        0.258762    2.328144    0.000000
      9          1           0        0.258762   -1.164072    2.016232
     10          1           0       -1.278381   -0.694777    1.203388
     11          1           0       -1.278381   -0.694777   -1.203388
     12          1           0        0.258762   -1.164072   -2.016232
 ---------------------------------------------------------------------

 SCF Done:  E(RHF) =  -341.816230294     A.U. after    2 cycles

 The electronic state is 1-A'.
 Alpha  occ. eigenvalues --  -20.59311 -20.59311 -20.59307 -11.35488 -11.35488
 Alpha  occ. eigenvalues --  -11.35451  -1.42991  -1.32869  -1.32869  -0.97079
 Alpha  occ. eigenvalues --   -0.97079  -0.84109  -0.74792  -0.72253  -0.68642
 Alpha  occ. eigenvalues --   -0.68642  -0.67007  -0.61748  -0.61748  -0.51364
 Alpha  occ. eigenvalues --   -0.51364  -0.49511  -0.49511  -0.45746
 Alpha virt. eigenvalues --    0.03454   0.04890   0.04890   0.04919   0.06747
 Alpha virt. eigenvalues --    0.06747   0.10042   0.10042   0.11480   0.13813
 Alpha virt. eigenvalues --    0.14975   0.14975   0.16253   0.16855   0.17460

 Mulliken charges:
               1
     1  C    1.021717
     2  C    1.021718
     3  C    1.021718
     4  O   -0.625180
     5  O   -0.625180
     6  O   -0.625181
     7  H   -0.088077
     8  H   -0.308460
     9  H   -0.308461
    10  H   -0.088076
    11  H   -0.088076
    12  H   -0.308461
 Sum of Mulliken charges =  -0.00000

 Dipole moment (field-independent basis, Debye):
    X=             -2.5161    Y=              0.0000    Z=              0.0000  Tot=              2.5161

 Test job not archived.
 1\1\GINC-SE194\SP\RHF\Aug-CC-pVDZ\C3H6O3\OHZDE\05-Apr-2025\0\\#t hf au
 g-cc-pvdz iop(5/13=1,5/36=2,99/5=2) pseudo=read geom=check guess=(read
 ,tcheck) scf=(maxcycle=1)\\title\\0,1\C,0,0.,1.334824,0.178381\C,0,1.1
 55992,-0.667412,0.178381\C,0,-1.155992,-0.667412,0.178381\O,0,1.164984
 ,0.672604,-0.261238\O,0,-1.164984,0.672604,-0.261238\O,0,0.,-1.345208,
 -0.261238\H,0,0.,1.389553,1.278381\H,0,0.,2.328144,-0.258762\H,0,2.016
 232,-1.164072,-0.258762\H,0,1.203388,-0.694777,1.278381\H,0,-1.203388,
 -0.694777,1.278381\H,0,-2.016232,-1.164072,-0.258762\\Version=ES64L-G1

 Normal termination of Gaussian 16 at Sat Apr  5 22:08:50 2025.
