 Gaussian 16, Revision C.01,

 ----------------------------------------------------------------------
 #t hf aug-cc-pvdz symm=none int=(grid=ultrafine) guess=(read,tcheck) s
 table=(opt,rrhf)
 ----------------------------------------------------------------------
 -----
 title
 -----
 Symbolic Z-matrix:
 Charge =  0 Multiplicity = 1

 SCF Done:  E(RHF) =  -1347.56139275     A.U. after   14 cycles
 Normal termination of Gaussian 16 at Sat Apr  5 22:11:13 2025.
 Gaussian 16:  ES64L-G16RevC.01  3-Jul-2019

 ----------------------------------------------------------------------
 #t hf aug-cc-pvdz iop(5/13=1,5/36=2,99/5=2) pseudo=read geom=check gue
 ss=(read,tcheck) scf=(maxcycle=1)
 ----------------------------------------------------------------------
 -----
 title
 -----
 Structure from the checkpoint file:  "1-3-dithiane-2-thione.chk"
 Charge =  0 Multiplicity = 1

                         Standard orientation:
 ---------------------------------------------------------------------
 Center     Atomic      Atomic             Coordinates (Angstroms)
 Number     Number       Type             X           Y           Z
 ---------------------------------------------------------------------
      1         16           0       -0.195948    2.519947    0.000000
      2          6           0       -0.116097    0.874513    0.000000
      3         16           0       -0.033616    0.069956    1.548701
      4          6           0       -0.033616   -1.749646    1.260469
      5          6           0        0.684442   -2.198644   -0.000000
      6          6           0       -0.033616   -1.749646   -1.260469
      7         16           0       -0.033616    0.069956   -1.548701
      8          1           0        0.452909   -2.143490    2.151791
      9          1           0       -1.066908   -2.096687    1.261615
     10          1           0        1.716281   -1.844930   -0.000000
     11          1           0        0.715928   -3.291933   -0.000000
     12          1           0        0.452909   -2.143490   -2.151791
     13          1           0       -1.066908   -2.096687   -1.261615
 ---------------------------------------------------------------------

 SCF Done:  E(RHF) =  -1347.66717990     A.U. after    2 cycles

 The electronic state is 1-A'.
 Alpha  occ. eigenvalues --  -93.57293 -93.57292 -93.50244 -11.38079 -11.30007
 Alpha  occ. eigenvalues --  -11.30003 -11.27802  -8.87068  -8.87053  -8.80167
 Alpha  occ. eigenvalues --   -6.21200  -6.21193  -6.20940  -6.20933  -6.20631
 Alpha  occ. eigenvalues --   -6.20629  -6.14344  -6.13884  -6.13732  -1.15072
 Alpha  occ. eigenvalues --   -1.08263  -1.04194  -0.93686  -0.89357  -0.83639
 Alpha  occ. eigenvalues --   -0.71039  -0.66149  -0.62717  -0.62310  -0.61061
 Alpha  occ. eigenvalues --   -0.54748  -0.54641  -0.52383  -0.49462  -0.45831
 Alpha  occ. eigenvalues --   -0.44155  -0.37476  -0.33149  -0.32668
 Alpha virt. eigenvalues --    0.02309   0.03831   0.03965   0.04748   0.05306
 Alpha virt. eigenvalues --    0.06403   0.06656   0.08328   0.09345   0.10574
 Alpha virt. eigenvalues --    0.11112   0.12437   0.13195   0.13510   0.13756

 Mulliken charges:
               1
     1  S   -0.021116
     2  C   -0.878715
     3  S    0.658261
     4  C   -0.192176
     5  C    0.243681
     6  C   -0.192176
     7  S    0.658261
     8  H    0.003769
     9  H   -0.055010
    10  H   -0.147663
    11  H   -0.025874
    12  H    0.003769
    13  H   -0.055010
 Sum of Mulliken charges =  -0.00000

 Dipole moment (field-independent basis, Debye):
    X=              0.3529    Y=             -6.5010    Z=              0.0000  Tot=              6.5106

 Test job not archived.
 1\1\GINC-SE145\SP\RHF\Aug-CC-pVDZ\C4H6S3\OHZDE\05-Apr-2025\0\\#t hf au
 g-cc-pvdz iop(5/13=1,5/36=2,99/5=2) pseudo=read geom=check guess=(read
 ,tcheck) scf=(maxcycle=1)\\title\\0,1\S,0,-0.195948,2.519947,0.\C,0,-0
 .116097,0.874513,0.\S,0,-0.033616,0.069956,1.548701\C,0,-0.033616,-1.7
 49646,1.260469\C,0,0.684442,-2.198644,0.\C,0,-0.033616,-1.749646,-1.26
 0469\S,0,-0.033616,0.069956,-1.548701\H,0,0.452909,-2.14349,2.151791\H
 ,0,-1.066908,-2.096687,1.261615\H,0,1.716281,-1.84493,0.\H,0,0.715928,
 -3.291933,0.\H,0,0.452909,-2.14349,-2.151791\H,0,-1.066908,-2.096687,-

 Normal termination of Gaussian 16 at Sat Apr  5 22:11:48 2025.
