 Gaussian 16, Revision C.01,

 ----------------------------------------------------------------------
 #t hf aug-cc-pvdz symm=none int=(grid=ultrafine) guess=(read,tcheck) s
 table=(opt,rrhf)
 ----------------------------------------------------------------------
 -----
 title
 -----
 Symbolic Z-matrix:
 Charge =  0 Multiplicity = 1

 SCF Done:  E(RHF) =  -192.814904900     A.U. after   12 cycles
 Normal termination of Gaussian 16 at Sat Apr  5 22:08:41 2025.
 Gaussian 16:  ES64L-G16RevC.01  3-Jul-2019

 ----------------------------------------------------------------------
 #t hf aug-cc-pvdz iop(5/13=1,5/36=2,99/5=2) pseudo=read geom=check gue
 ss=(read,tcheck) scf=(maxcycle=1)
 ----------------------------------------------------------------------
 -----
 title
 -----
 Structure from the checkpoint file:  "1-3-cyclopentadiene.chk"
 Charge =  0 Multiplicity = 1

                         Standard orientation:
 ---------------------------------------------------------------------
 Center     Atomic      Atomic             Coordinates (Angstroms)
 Number     Number       Type             X           Y           Z
 ---------------------------------------------------------------------
      1          6           0        0.000000    0.732496   -0.987747
      2          6           0       -0.000000   -0.732496   -0.987747
      3          6           0        0.000000    1.176401    0.280659
      4          6           0       -0.000000   -1.176401    0.280659
      5          6           0        0.000000    0.000000    1.213319
      6          1           0        0.000000    1.345222   -1.877331
      7          1           0       -0.000000   -1.345222   -1.877331
      8          1           0        0.000000    2.205253    0.605805
      9          1           0       -0.000000   -2.205253    0.605805
     10          1           0        0.874476   -0.000000    1.874095
     11          1           0       -0.874476    0.000000    1.874095
 ---------------------------------------------------------------------

 SCF Done:  E(RHF) =  -192.873613040     A.U. after    2 cycles

 The electronic state is 1-A1.
 Alpha  occ. eigenvalues --  -11.23914 -11.23650 -11.23606 -11.23462 -11.23446
 Alpha  occ. eigenvalues --   -1.14277  -0.96109  -0.95166  -0.75768  -0.72922
 Alpha  occ. eigenvalues --   -0.70083  -0.59497  -0.56579  -0.53287  -0.51160
 Alpha  occ. eigenvalues --   -0.50635  -0.41657  -0.31093
 Alpha virt. eigenvalues --    0.03621   0.04426   0.04494   0.05723   0.06180
 Alpha virt. eigenvalues --    0.06555   0.10099   0.11263   0.12988   0.13779
 Alpha virt. eigenvalues --    0.14034   0.14164   0.15220   0.15592   0.15942

 Mulliken charges:
               1
     1  C    0.221921
     2  C    0.221921
     3  C    0.378159
     4  C    0.378159
     5  C   -0.029584
     6  H   -0.324582
     7  H   -0.324582
     8  H   -0.289529
     9  H   -0.289529
    10  H    0.028822
    11  H    0.028822
 Sum of Mulliken charges =  -0.00000

 Dipole moment (field-independent basis, Debye):
    X=              0.0000    Y=              0.0000    Z=              0.3991  Tot=              0.3991

 Test job not archived.
 1\1\GINC-SE146\SP\RHF\Aug-CC-pVDZ\C5H6\OHZDE\05-Apr-2025\0\\#t hf aug-
 cc-pvdz iop(5/13=1,5/36=2,99/5=2) pseudo=read geom=check guess=(read,t
 check) scf=(maxcycle=1)\\title\\0,1\C,0,-0.987747,-0.732496,0.\C,0,-0.
 987747,0.732496,0.\C,0,0.280659,-1.176401,0.\C,0,0.280659,1.176401,0.\
 C,0,1.213319,0.,0.\H,0,-1.877331,-1.345222,0.\H,0,-1.877331,1.345222,0
 .\H,0,0.605805,-2.205253,0.\H,0,0.605805,2.205253,0.\H,0,1.874095,0.,0
 .874476\H,0,1.874095,0.,-0.874476\\Version=ES64L-G16RevC.01\State=1-A1
 \HF=-192.873613\RMSD=9.236e-03\Dipole=0.1570345,0.,0.\Quadrupole=2.103

 Normal termination of Gaussian 16 at Sat Apr  5 22:08:43 2025.
