 Gaussian 16, Revision C.01,

 ----------------------------------------------------------------------
 #t hf aug-cc-pvdz symm=none int=(grid=ultrafine) guess=(read,tcheck) s
 table=(opt,rrhf)
 ----------------------------------------------------------------------
 -----
 title
 -----
 Symbolic Z-matrix:
 Charge =  0 Multiplicity = 1

 SCF Done:  E(RHF) =  -305.875585784     A.U. after   11 cycles
 Normal termination of Gaussian 16 at Sat Apr  5 22:10:11 2025.
 Gaussian 16:  ES64L-G16RevC.01  3-Jul-2019

 ----------------------------------------------------------------------
 #t hf aug-cc-pvdz iop(5/13=1,5/36=2,99/5=2) pseudo=read geom=check gue
 ss=(read,tcheck) scf=(maxcycle=1)
 ----------------------------------------------------------------------
 -----
 title
 -----
 Structure from the checkpoint file:  "1-3-dioxane.chk"
 Charge =  0 Multiplicity = 1

                         Standard orientation:
 ---------------------------------------------------------------------
 Center     Atomic      Atomic             Coordinates (Angstroms)
 Number     Number       Type             X           Y           Z
 ---------------------------------------------------------------------
      1          1           0        0.551499   -2.301909   -0.000000
      2          1           0        1.666462   -0.888490   -0.000000
      3          6           0        0.613674   -1.217264   -0.000000
      4          8           0       -0.017447   -0.764404    1.171597
      5          8           0       -0.017447   -0.764404   -1.171597
      6          1           0       -0.553642    0.923256   -2.152989
      7          1           0        1.017015    1.020150   -1.338331
      8          6           0       -0.017447    0.661398   -1.242927
      9          1           0        1.017015    1.020150    1.338331
     10          1           0       -0.553642    0.923256    2.152989
     11          6           0       -0.017447    0.661398    1.242927
     12          1           0       -0.568831    2.344294    0.000000
     13          1           0       -1.736457    1.016352    0.000000
     14          6           0       -0.672158    1.256703    0.000000
 ---------------------------------------------------------------------

 SCF Done:  E(RHF) =  -305.973619950     A.U. after    2 cycles

 The electronic state is 1-A'.
 Alpha  occ. eigenvalues --  -20.57570 -20.57568 -11.33787 -11.29198 -11.29193
 Alpha  occ. eigenvalues --  -11.23885  -1.37906  -1.30413  -1.06234  -0.92022
 Alpha  occ. eigenvalues --   -0.91696  -0.80133  -0.71391  -0.68040  -0.66220
 Alpha  occ. eigenvalues --   -0.64163  -0.62569  -0.57870  -0.57450  -0.51685
 Alpha  occ. eigenvalues --   -0.49403  -0.48840  -0.44346  -0.44158
 Alpha virt. eigenvalues --    0.03395   0.04571   0.04715   0.04955   0.06424
 Alpha virt. eigenvalues --    0.06946   0.06961   0.07716   0.10504   0.13175
 Alpha virt. eigenvalues --    0.13538   0.13618   0.14440   0.15226   0.15381

 Mulliken charges:
               1
     1  H   -0.345216
     2  H   -0.056169
     3  C    1.032421
     4  O   -0.650497
     5  O   -0.650497
     6  H   -0.229524
     7  H   -0.101831
     8  C    0.676410
     9  H   -0.101831
    10  H   -0.229524
    11  C    0.676410
    12  H    0.007841
    13  H   -0.098346
    14  C    0.070354
 Sum of Mulliken charges =  -0.00000

 Dipole moment (field-independent basis, Debye):
    X=              0.9544    Y=              2.3001    Z=              0.0000  Tot=              2.4903

 Test job not archived.
 1\1\GINC-SE085\SP\RHF\Aug-CC-pVDZ\C4H8O2\OHZDE\05-Apr-2025\0\\#t hf au
 g-cc-pvdz iop(5/13=1,5/36=2,99/5=2) pseudo=read geom=check guess=(read
 ,tcheck) scf=(maxcycle=1)\\title\\0,1\H,0,0.551499,-2.301909,0.\H,0,1.
 666462,-0.88849,0.\C,0,0.613674,-1.217264,0.\O,0,-0.017447,-0.764404,1
 .171597\O,0,-0.017447,-0.764404,-1.171597\H,0,-0.553642,0.923256,-2.15
 2989\H,0,1.017015,1.02015,-1.338331\C,0,-0.017447,0.661398,-1.242927\H
 ,0,1.017015,1.02015,1.338331\H,0,-0.553642,0.923256,2.152989\C,0,-0.01
 7447,0.661398,1.242927\H,0,-0.568831,2.344294,0.\H,0,-1.736457,1.01635

 Normal termination of Gaussian 16 at Sat Apr  5 22:10:41 2025.
