 Gaussian 16, Revision C.01,

 ----------------------------------------------------------------------
 #t hf aug-cc-pvdz symm=none int=(grid=ultrafine) guess=(read,tcheck) s
 table=(opt,rrhf)
 ----------------------------------------------------------------------
 -----
 title
 -----
 Symbolic Z-matrix:
 Charge =  0 Multiplicity = 1

 SCF Done:  E(RHF) =  -299.746646892     A.U. after   13 cycles
 Normal termination of Gaussian 16 at Sat Apr  5 22:10:38 2025.
 Gaussian 16:  ES64L-G16RevC.01  3-Jul-2019

 ----------------------------------------------------------------------
 #t hf aug-cc-pvdz iop(5/13=1,5/36=2,99/5=2) pseudo=read geom=check gue
 ss=(read,tcheck) scf=(maxcycle=1)
 ----------------------------------------------------------------------
 -----
 title
 -----
 Structure from the checkpoint file:  "1-3-dihydro-2H-imidazol-2-one.chk"
 Charge =  0 Multiplicity = 1

                         Standard orientation:
 ---------------------------------------------------------------------
 Center     Atomic      Atomic             Coordinates (Angstroms)
 Number     Number       Type             X           Y           Z
 ---------------------------------------------------------------------
      1          6           0        0.000000    0.672790   -1.380599
      2          6           0       -0.000000   -0.672790   -1.380599
      3          6           0        0.000000    0.000000    0.812326
      4          7           0        0.000000    1.085426   -0.051191
      5          7           0       -0.000000   -1.085426   -0.051191
      6          8           0        0.000000    0.000000    2.030042
      7          1           0        0.000000    1.365081   -2.201042
      8          1           0       -0.000000   -1.365081   -2.201042
      9          1           0        0.000000    2.030184    0.285825
     10          1           0       -0.000000   -2.030184    0.285825
 ---------------------------------------------------------------------

 SCF Done:  E(RHF) =  -299.839049316     A.U. after    2 cycles

 The electronic state is 1-A1.
 Alpha  occ. eigenvalues --  -20.52422 -15.67216 -15.67208 -11.39220 -11.29119
 Alpha  occ. eigenvalues --  -11.28967  -1.36367  -1.27860  -1.16839  -1.01130
 Alpha  occ. eigenvalues --   -0.86269  -0.83826  -0.73416  -0.67534  -0.64267
 Alpha  occ. eigenvalues --   -0.63347  -0.62089  -0.61905  -0.49730  -0.45507
 Alpha  occ. eigenvalues --   -0.45158  -0.31229
 Alpha virt. eigenvalues --    0.02653   0.03203   0.04842   0.06276   0.08262
 Alpha virt. eigenvalues --    0.10550   0.11048   0.11985   0.12504   0.13399
 Alpha virt. eigenvalues --    0.14342   0.14358   0.15170   0.16443   0.18466

 Mulliken charges:
               1
     1  C    0.706372
     2  C    0.706372
     3  C    0.633330
     4  N   -0.436214
     5  N   -0.436214
     6  O   -0.484424
     7  H   -0.241145
     8  H   -0.241145
     9  H   -0.103466
    10  H   -0.103466
 Sum of Mulliken charges =   0.00000

 Dipole moment (field-independent basis, Debye):
    X=              0.0000    Y=             -0.0000    Z=             -4.6018  Tot=              4.6018

 Test job not archived.
 1\1\GINC-SE158\SP\RHF\Aug-CC-pVDZ\C3H4N2O1\OHZDE\05-Apr-2025\0\\#t hf
 aug-cc-pvdz iop(5/13=1,5/36=2,99/5=2) pseudo=read geom=check guess=(re
 ad,tcheck) scf=(maxcycle=1)\\title\\0,1\C,0,0.,0.67279,-1.380599\C,0,0
 .,-0.67279,-1.380599\C,0,0.,0.,0.812326\N,0,0.,1.085426,-0.051191\N,0,
 0.,-1.085426,-0.051191\O,0,0.,0.,2.030042\H,0,0.,1.365081,-2.201042\H,
 0,0.,-1.365081,-2.201042\H,0,0.,2.030184,0.285825\H,0,0.,-2.030184,0.2
 85825\\Version=ES64L-G16RevC.01\State=1-A1\HF=-299.8390493\RMSD=4.710e
 -03\Dipole=0.,0.,-1.8104847\Quadrupole=-2.0784768,7.9150426,-5.8365658

 Normal termination of Gaussian 16 at Sat Apr  5 22:10:42 2025.
