 Gaussian 16, Revision C.01,

 ----------------------------------------------------------------------
 #t hf aug-cc-pvdz symm=none int=(grid=ultrafine) guess=(read,tcheck) s
 table=(opt,rrhf)
 ----------------------------------------------------------------------
 -----
 title
 -----
 Symbolic Z-matrix:
 Charge =  0 Multiplicity = 1

 SCF Done:  E(RHF) =  -283.729943678     A.U. after   14 cycles
 Normal termination of Gaussian 16 at Sat Apr  5 22:10:38 2025.
 Gaussian 16:  ES64L-G16RevC.01  3-Jul-2019

 ----------------------------------------------------------------------
 #t hf aug-cc-pvdz iop(5/13=1,5/36=2,99/5=2) pseudo=read geom=check gue
 ss=(read,tcheck) scf=(maxcycle=1)
 ----------------------------------------------------------------------
 -----
 title
 -----
 Structure from the checkpoint file:  "1-3-dihydro-2H-pyrrol-2-one.chk"
 Charge =  0 Multiplicity = 1

                         Standard orientation:
 ---------------------------------------------------------------------
 Center     Atomic      Atomic             Coordinates (Angstroms)
 Number     Number       Type             X           Y           Z
 ---------------------------------------------------------------------
      1          6           0        0.607256   -1.472453    0.000000
      2          6           0       -0.720908   -1.347453    0.000000
      3          6           0        0.000000    0.838463    0.000000
      4          6           0        1.215158   -0.096851    0.000000
      5          7           0       -1.101042    0.002861    0.000000
      6          8           0       -0.024582    2.048657    0.000000
      7          1           0        1.152714   -2.400270    0.000000
      8          1           0       -1.477373   -2.115225    0.000000
      9          1           0        1.831991    0.113272    0.876531
     10          1           0        1.831991    0.113272   -0.876531
     11          1           0       -2.044414    0.349438    0.000000
 ---------------------------------------------------------------------

 SCF Done:  E(RHF) =  -283.816844798     A.U. after    2 cycles

 The electronic state is 1-A'.
 Alpha  occ. eigenvalues --  -20.54370 -15.66495 -11.37083 -11.29999 -11.25878
 Alpha  occ. eigenvalues --  -11.24528  -1.35512  -1.24537  -1.05865  -0.97268
 Alpha  occ. eigenvalues --   -0.81685  -0.79940  -0.71382  -0.64413  -0.64023
 Alpha  occ. eigenvalues --   -0.61200  -0.60058  -0.54965  -0.54431  -0.48770
 Alpha  occ. eigenvalues --   -0.43627  -0.33181
 Alpha virt. eigenvalues --    0.02754   0.03733   0.04735   0.05488   0.06446
 Alpha virt. eigenvalues --    0.09578   0.09871   0.11476   0.12219   0.12834
 Alpha virt. eigenvalues --    0.13682   0.13742   0.14654   0.15184   0.15915

 Mulliken charges:
               1
     1  C    0.524267
     2  C    0.638107
     3  C    0.531752
     4  C   -0.127790
     5  N   -0.435782
     6  O   -0.514999
     7  H   -0.294976
     8  H   -0.282690
     9  H    0.037536
    10  H    0.037536
    11  H   -0.112962
 Sum of Mulliken charges =  -0.00000

 Dipole moment (field-independent basis, Debye):
    X=             -0.8244    Y=             -4.0309    Z=              0.0000  Tot=              4.1144

 Test job not archived.
 1\1\GINC-SE190\SP\RHF\Aug-CC-pVDZ\C4H5N1O1\OHZDE\05-Apr-2025\0\\#t hf
 aug-cc-pvdz iop(5/13=1,5/36=2,99/5=2) pseudo=read geom=check guess=(re
 ad,tcheck) scf=(maxcycle=1)\\title\\0,1\C,0,0.607256,-1.472453,0.\C,0,
 -0.720908,-1.347453,0.\C,0,0.,0.838463,0.\C,0,1.215158,-0.096851,0.\N,
 0,-1.101042,0.002861,0.\O,0,-0.024582,2.048657,0.\H,0,1.152714,-2.4002
 7,0.\H,0,-1.477373,-2.115225,0.\H,0,1.831991,0.113272,0.876531\H,0,1.8
 31991,0.113272,-0.876531\H,0,-2.044414,0.349438,0.\\Version=ES64L-G16R
 evC.01\State=1-A'\HF=-283.8168448\RMSD=5.914e-03\Dipole=-0.324337,-1.5

 Normal termination of Gaussian 16 at Sat Apr  5 22:10:43 2025.
