 Gaussian 16, Revision C.01,

 ----------------------------------------------------------------------
 #t hf aug-cc-pvdz symm=none int=(grid=ultrafine) guess=(read,tcheck) s
 table=(opt,rrhf)
 ----------------------------------------------------------------------
 -----
 title
 -----
 Symbolic Z-matrix:
 Charge =  0 Multiplicity = 1

 SCF Done:  E(RHF) =  -1036.13024162     A.U. after   12 cycles

 1\1\GINC-SE050\Stability\RHF\Aug-CC-pVDZ\C3H6Cl2\OHZDE\05-Apr-2025\0\\
 #t hf aug-cc-pvdz symm=none int=(grid=ultrafine) guess=(read,tcheck) s
 table=(opt,rrhf)\\title\\0,1\C,0,0.,0.,1.245285\C,0,0.,1.281625,0.4335
 21\C,0,0.,-1.281625,0.433521\Cl,0,-1.529889,1.4768,-0.530841\Cl,0,1.52
 9889,-1.4768,-0.530841\H,0,0.878901,0.017822,1.895082\H,0,-0.878901,-0
 .017822,1.895082\H,0,0.056209,2.153738,1.07711\H,0,0.813369,1.306239,-
 0.284878\H,0,-0.813369,-1.306239,-0.284878\H,0,-0.056209,-2.153738,1.0
 7711\\Version=ES64L-G16RevC.01\HF=-1036.1302416\RMSD=4.062e-09\Dipole=

 Normal termination of Gaussian 16 at Sat Apr  5 22:10:36 2025.
 Gaussian 16:  ES64L-G16RevC.01  3-Jul-2019

 ----------------------------------------------------------------------
 #t hf aug-cc-pvdz iop(5/13=1,5/36=2,99/5=2) pseudo=read geom=check gue
 ss=(read,tcheck) scf=(maxcycle=1)
 ----------------------------------------------------------------------
 -----
 title
 -----
 Structure from the checkpoint file:  "1-3-dichloropropane.chk"
 Charge =  0 Multiplicity = 1

                         Standard orientation:
 ---------------------------------------------------------------------
 Center     Atomic      Atomic             Coordinates (Angstroms)
 Number     Number       Type             X           Y           Z
 ---------------------------------------------------------------------
      1          6           0        0.000000    0.000000    1.245285
      2          6           0        0.000000    1.281625    0.433521
      3          6           0       -0.000000   -1.281625    0.433521
      4         17           0       -1.529889    1.476800   -0.530841
      5         17           0        1.529889   -1.476800   -0.530841
      6          1           0        0.878901    0.017822    1.895082
      7          1           0       -0.878901   -0.017822    1.895082
      8          1           0        0.056209    2.153738    1.077110
      9          1           0        0.813369    1.306239   -0.284878
     10          1           0       -0.813369   -1.306239   -0.284878
     11          1           0       -0.056209   -2.153738    1.077110
 ---------------------------------------------------------------------

 SCF Done:  E(RHF) =  -1036.20377017     A.U. after    2 cycles

 The electronic state is 1-A.
 Alpha  occ. eigenvalues -- -103.65266-103.65265 -11.31316 -11.31311 -11.27026
 Alpha  occ. eigenvalues --  -10.68550 -10.68549  -8.34265  -8.34264  -8.33989
 Alpha  occ. eigenvalues --   -8.33988  -8.33977  -8.33975  -1.17875  -1.15505
 Alpha  occ. eigenvalues --   -1.04584  -0.92958  -0.82118  -0.67701  -0.66954
 Alpha  occ. eigenvalues --   -0.60669  -0.57768  -0.56642  -0.53044  -0.50944
 Alpha  occ. eigenvalues --   -0.45904  -0.45502  -0.44700  -0.44571
 Alpha virt. eigenvalues --    0.03257   0.04208   0.05345   0.05533   0.07146
 Alpha virt. eigenvalues --    0.07165   0.09141   0.09488   0.12338   0.14131
 Alpha virt. eigenvalues --    0.14557   0.14746   0.15568   0.16009   0.16134

 Mulliken charges:
               1
     1  C    0.195182
     2  C    0.056588
     3  C    0.056588
     4  Cl  -0.166226
     5  Cl  -0.166226
     6  H   -0.034885
     7  H   -0.034885
     8  H    0.021264
     9  H    0.025668
    10  H    0.025668
    11  H    0.021264
 Sum of Mulliken charges =  -0.00000

 Dipole moment (field-independent basis, Debye):
    X=              0.0000    Y=             -0.0000    Z=              2.6367  Tot=              2.6367

 Test job not archived.
 1\1\GINC-SE050\SP\RHF\Aug-CC-pVDZ\C3H6Cl2\OHZDE\05-Apr-2025\0\\#t hf a
 ug-cc-pvdz iop(5/13=1,5/36=2,99/5=2) pseudo=read geom=check guess=(rea
 d,tcheck) scf=(maxcycle=1)\\title\\0,1\C,0,0.,0.,1.245285\C,0,0.,1.281
 625,0.433521\C,0,0.,-1.281625,0.433521\Cl,0,-1.529889,1.4768,-0.530841
 \Cl,0,1.529889,-1.4768,-0.530841\H,0,0.878901,0.017822,1.895082\H,0,-0
 .878901,-0.017822,1.895082\H,0,0.056209,2.153738,1.07711\H,0,0.813369,
 1.306239,-0.284878\H,0,-0.813369,-1.306239,-0.284878\H,0,-0.056209,-2.
 153738,1.07711\\Version=ES64L-G16RevC.01\State=1-A\HF=-1036.2037702\RM

 Normal termination of Gaussian 16 at Sat Apr  5 22:10:42 2025.
