 Gaussian 16, Revision C.01,

 ----------------------------------------------------------------------
 #t hf aug-cc-pvdz symm=none int=(grid=ultrafine) guess=(read,tcheck) s
 table=(opt,rrhf)
 ----------------------------------------------------------------------
 -----
 title
 -----
 Symbolic Z-matrix:
 Charge =  0 Multiplicity = 1

 SCF Done:  E(RHF) =  -775.077274406     A.U. after   15 cycles
 Normal termination of Gaussian 16 at Sat Apr  5 22:11:04 2025.
 Gaussian 16:  ES64L-G16RevC.01  3-Jul-2019

 ----------------------------------------------------------------------
 #t hf aug-cc-pvdz iop(5/13=1,5/36=2,99/5=2) pseudo=read geom=check gue
 ss=(read,tcheck) scf=(maxcycle=1)
 ----------------------------------------------------------------------
 -----
 title
 -----
 Structure from the checkpoint file:  "1-3-dihydro-2H-benzimidazole-2-thione.chk"
 Charge =  0 Multiplicity = 1

                         Standard orientation:
 ---------------------------------------------------------------------
 Center     Atomic      Atomic             Coordinates (Angstroms)
 Number     Number       Type             X           Y           Z
 ---------------------------------------------------------------------
      1          7           0        0.000000    1.086138    0.759003
      2          6           0        0.000000   -0.000000    1.598098
      3         16           0        0.000000   -0.000000    3.259399
      4          6           0        0.000000    0.701967   -0.573500
      5          6           0        0.000000    1.422352   -1.756178
      6          6           0        0.000000    0.697607   -2.946432
      7          6           0       -0.000000   -0.697607   -2.946432
      8          6           0       -0.000000   -1.422352   -1.756178
      9          6           0       -0.000000   -0.701967   -0.573500
     10          7           0       -0.000000   -1.086138    0.759003
     11          1           0        0.000000    2.023318    1.120645
     12          1           0        0.000000    2.503243   -1.758725
     13          1           0        0.000000    1.228712   -3.887766
     14          1           0       -0.000000   -1.228712   -3.887766
     15          1           0       -0.000000   -2.503243   -1.758725
     16          1           0       -0.000000   -2.023318    1.120645
 ---------------------------------------------------------------------

 SCF Done:  E(RHF) =  -775.205322282     A.U. after    2 cycles

 The electronic state is 1-A1.
 Alpha  occ. eigenvalues --  -93.47753 -15.69861 -15.69852 -11.39394 -11.31274
 Alpha  occ. eigenvalues --  -11.31167 -11.27090 -11.27081 -11.26297 -11.26186
 Alpha  occ. eigenvalues --   -8.77660  -6.11945  -6.11334  -6.11286  -1.35376
 Alpha  occ. eigenvalues --   -1.19829  -1.16289  -1.04881  -1.03391  -0.95004
 Alpha  occ. eigenvalues --   -0.89734  -0.85695  -0.83029  -0.75348  -0.73065
 Alpha  occ. eigenvalues --   -0.68584  -0.65548  -0.65334  -0.64011  -0.63236
 Alpha  occ. eigenvalues --   -0.55169  -0.53186  -0.51906  -0.51062  -0.49166
 Alpha  occ. eigenvalues --   -0.37898  -0.35091  -0.32772  -0.29149
 Alpha virt. eigenvalues --    0.02613   0.02873   0.03910   0.05127   0.06203
 Alpha virt. eigenvalues --    0.07689   0.07740   0.09597   0.09698   0.10420
 Alpha virt. eigenvalues --    0.10921   0.12078   0.12496   0.12676   0.13183

 Mulliken charges:
               1
     1  N   -0.606384
     2  C    0.412195
     3  S   -0.050903
     4  C   -0.282223
     5  C    1.149280
     6  C    0.610404
     7  C    0.610404
     8  C    1.149280
     9  C   -0.282223
    10  N   -0.606384
    11  H   -0.092123
    12  H   -0.493890
    13  H   -0.465710
    14  H   -0.465710
    15  H   -0.493890
    16  H   -0.092123
 Sum of Mulliken charges =   0.00000

 Dipole moment (field-independent basis, Debye):
    X=              0.0000    Y=              0.0000    Z=             -5.1021  Tot=              5.1021

 Test job not archived.
 1\1\GINC-SE129\SP\RHF\Aug-CC-pVDZ\C7H6N2S1\OHZDE\05-Apr-2025\0\\#t hf
 aug-cc-pvdz iop(5/13=1,5/36=2,99/5=2) pseudo=read geom=check guess=(re
 ad,tcheck) scf=(maxcycle=1)\\title\\0,1\N,0,0.,1.086138,0.759003\C,0,0
 .,0.,1.598098\S,0,0.,0.,3.259399\C,0,0.,0.701967,-0.5735\C,0,0.,1.4223
 52,-1.756178\C,0,0.,0.697607,-2.946432\C,0,0.,-0.697607,-2.946432\C,0,
 0.,-1.422352,-1.756178\C,0,0.,-0.701967,-0.5735\N,0,0.,-1.086138,0.759
 003\H,0,0.,2.023318,1.120645\H,0,0.,2.503243,-1.758725\H,0,0.,1.228712
 ,-3.887766\H,0,0.,-1.228712,-3.887766\H,0,0.,-2.503243,-1.758725\H,0,0

 Normal termination of Gaussian 16 at Sat Apr  5 22:11:49 2025.
