 Gaussian 16, Revision C.01,

 ----------------------------------------------------------------------
 #t hf aug-cc-pvdz symm=none int=(grid=ultrafine) guess=(read,tcheck) s
 table=(opt,rrhf)
 ----------------------------------------------------------------------
 -----
 title
 -----
 Symbolic Z-matrix:
 Charge =  0 Multiplicity = 1

 SCF Done:  E(RHF) =  -604.230659886     A.U. after   14 cycles
 Normal termination of Gaussian 16 at Sat Apr  5 22:08:41 2025.
 Gaussian 16:  ES64L-G16RevC.01  3-Jul-2019

 ----------------------------------------------------------------------
 #t hf aug-cc-pvdz iop(5/13=1,5/36=2,99/5=2) pseudo=read geom=check gue
 ss=(read,tcheck) scf=(maxcycle=1)
 ----------------------------------------------------------------------
 -----
 title
 -----
 Structure from the checkpoint file:  "1-3-2-oxathiazole.chk"
 Charge =  0 Multiplicity = 1

                         Standard orientation:
 ---------------------------------------------------------------------
 Center     Atomic      Atomic             Coordinates (Angstroms)
 Number     Number       Type             X           Y           Z
 ---------------------------------------------------------------------
      1         16           0       -1.224006    0.049081   -0.107328
      2          8           0        1.242809   -0.702537   -0.222880
      3          7           0       -0.052232   -1.238625    0.159007
      4          6           0        0.065657    1.249525    0.142810
      5          6           0        1.244683    0.655383    0.012729
      6          1           0       -0.124066    2.299324    0.277492
      7          1           0        2.227512    1.098554    0.002818
      8          1           0        0.041759   -1.321948    1.173704
 ---------------------------------------------------------------------

 SCF Done:  E(RHF) =  -604.316773178     A.U. after    2 cycles

 The electronic state is 1-A.
 Alpha  occ. eigenvalues --  -93.58093 -20.64460 -15.72311 -11.32551 -11.28051
 Alpha  occ. eigenvalues --   -8.87591  -6.21716  -6.21528  -6.21072  -1.41280
 Alpha  occ. eigenvalues --   -1.12817  -1.07791  -0.87934  -0.81332  -0.73115
 Alpha  occ. eigenvalues --   -0.70159  -0.62861  -0.59305  -0.54836  -0.49755
 Alpha  occ. eigenvalues --   -0.47430  -0.43157  -0.32401
 Alpha virt. eigenvalues --    0.03217   0.04487   0.04930   0.07893   0.09095
 Alpha virt. eigenvalues --    0.10066   0.11325   0.12160   0.13704   0.14109
 Alpha virt. eigenvalues --    0.14582   0.15758   0.16251   0.17014   0.18797

 Mulliken charges:
               1
     1  S    0.675759
     2  O   -0.574016
     3  N   -0.440591
     4  C   -0.065911
     5  C    0.827960
     6  H   -0.342144
     7  H   -0.246168
     8  H    0.165111
 Sum of Mulliken charges =   0.00000

 Dipole moment (field-independent basis, Debye):
    X=              0.4806    Y=              2.1863    Z=              1.6031  Tot=              2.7533

 Test job not archived.
 1\1\GINC-SE041\SP\RHF\Aug-CC-pVDZ\C2H3N1O1S1\OHZDE\05-Apr-2025\0\\#t h
 f aug-cc-pvdz iop(5/13=1,5/36=2,99/5=2) pseudo=read geom=check guess=(
 read,tcheck) scf=(maxcycle=1)\\title\\0,1\S,0,-1.224006,0.049081,-0.10
 7328\O,0,1.242809,-0.702537,-0.22288\N,0,-0.052232,-1.238625,0.159007\
 C,0,0.065658,1.249525,0.14281\C,0,1.244683,0.655383,0.012729\H,0,-0.12
 4065,2.299324,0.277492\H,0,2.227513,1.098553,0.002818\H,0,0.041759,-1.
 321948,1.173704\\Version=ES64L-G16RevC.01\State=1-A\HF=-604.3167732\RM
 SD=6.136e-03\Dipole=0.1890952,0.8601598,0.6307019\Quadrupole=0.1466609

 Normal termination of Gaussian 16 at Sat Apr  5 22:08:46 2025.
