 Gaussian 16, Revision C.01,

 ----------------------------------------------------------------------
 #t hf aug-cc-pvdz symm=none int=(grid=ultrafine) guess=(read,tcheck) s
 table=(opt,rrhf)
 ----------------------------------------------------------------------
 -----
 title
 -----
 Symbolic Z-matrix:
 Charge =  0 Multiplicity = 1

 SCF Done:  E(RHF) =  -913.340358784     A.U. after   12 cycles
 Normal termination of Gaussian 16 at Sat Apr  5 22:10:13 2025.
 Gaussian 16:  ES64L-G16RevC.01  3-Jul-2019

 ----------------------------------------------------------------------
 #t hf aug-cc-pvdz iop(5/13=1,5/36=2,99/5=2) pseudo=read geom=check gue
 ss=(read,tcheck) scf=(maxcycle=1)
 ----------------------------------------------------------------------
 -----
 title
 -----
 Structure from the checkpoint file:  "1-3-propanedithiol.chk"
 Charge =  0 Multiplicity = 1

                         Standard orientation:
 ---------------------------------------------------------------------
 Center     Atomic      Atomic             Coordinates (Angstroms)
 Number     Number       Type             X           Y           Z
 ---------------------------------------------------------------------
      1          6           0        0.000000   -0.000000    0.156756
      2          6           0        0.000000    1.260347   -0.704215
      3          6           0       -0.000000   -1.260347   -0.704215
      4          1           0        0.877590   -0.000000    0.806673
      5          1           0       -0.877590    0.000000    0.806673
      6         16           0        0.000000    2.743925    0.388305
      7         16           0       -0.000000   -2.743925    0.388305
      8          1           0        0.000000    3.667139   -0.589694
      9          1           0       -0.000000   -3.667139   -0.589694
     10          1           0        0.885217    1.290973   -1.337416
     11          1           0       -0.885217    1.290973   -1.337416
     12          1           0       -0.885217   -1.290973   -1.337416
     13          1           0        0.885217   -1.290973   -1.337416
 ---------------------------------------------------------------------

 SCF Done:  E(RHF) =  -913.417616367     A.U. after    2 cycles

 The electronic state is 1-A1.
 Alpha  occ. eigenvalues --  -93.53702 -93.53702 -11.28070 -11.28065 -11.25551
 Alpha  occ. eigenvalues --   -8.83434  -8.83434  -6.17629  -6.17605  -6.17375
 Alpha  occ. eigenvalues --   -6.17373  -6.17024  -6.17023  -1.09953  -1.02339
 Alpha  occ. eigenvalues --   -0.93551  -0.84608  -0.81373  -0.67281  -0.61732
 Alpha  occ. eigenvalues --   -0.59157  -0.58061  -0.54017  -0.50904  -0.49007
 Alpha  occ. eigenvalues --   -0.45648  -0.44895  -0.36177  -0.35677
 Alpha virt. eigenvalues --    0.03198   0.04071   0.04880   0.05356   0.06168
 Alpha virt. eigenvalues --    0.07558   0.07780   0.07864   0.09983   0.10073
 Alpha virt. eigenvalues --    0.11044   0.13243   0.14922   0.15237   0.15361

 Mulliken charges:
               1
     1  C    0.156927
     2  C   -0.006870
     3  C   -0.006870
     4  H   -0.107981
     5  H   -0.107981
     6  S    0.323518
     7  S    0.323518
     8  H    0.043343
     9  H    0.043343
    10  H   -0.165237
    11  H   -0.165237
    12  H   -0.165237
    13  H   -0.165237
 Sum of Mulliken charges =   0.00000

 Dipole moment (field-independent basis, Debye):
    X=             -0.0000    Y=              0.0000    Z=             -2.8837  Tot=              2.8837

 Test job not archived.
 1\1\GINC-SE185\SP\RHF\Aug-CC-pVDZ\C3H8S2\OHZDE\05-Apr-2025\0\\#t hf au
 g-cc-pvdz iop(5/13=1,5/36=2,99/5=2) pseudo=read geom=check guess=(read
 ,tcheck) scf=(maxcycle=1)\\title\\0,1\C,0,0.,0.,0.156756\C,0,0.,1.2603
 47,-0.704215\C,0,0.,-1.260347,-0.704215\H,0,0.87759,0.,0.806673\H,0,-0
 .87759,0.,0.806673\S,0,0.,2.743925,0.388305\S,0,0.,-2.743925,0.388305\
 H,0,0.,3.667139,-0.589694\H,0,0.,-3.667139,-0.589694\H,0,0.885217,1.29
 0973,-1.337416\H,0,-0.885217,1.290973,-1.337416\H,0,-0.885217,-1.29097
 3,-1.337416\H,0,0.885217,-1.290973,-1.337416\\Version=ES64L-G16RevC.01

 Normal termination of Gaussian 16 at Sat Apr  5 22:10:42 2025.
