 Gaussian 16, Revision C.01,

 ----------------------------------------------------------------------
 #t hf aug-cc-pvdz symm=none int=(grid=ultrafine) guess=(read,tcheck) s
 table=(opt,rrhf)
 ----------------------------------------------------------------------
 -----
 title
 -----
 Symbolic Z-matrix:
 Charge =  0 Multiplicity = 1

 SCF Done:  E(RHF) =  -262.726378766     A.U. after   13 cycles
 Normal termination of Gaussian 16 at Sat Apr  5 22:08:46 2025.
 Gaussian 16:  ES64L-G16RevC.01  3-Jul-2019

 ----------------------------------------------------------------------
 #t hf aug-cc-pvdz iop(5/13=1,5/36=2,99/5=2) pseudo=read geom=check gue
 ss=(read,tcheck) scf=(maxcycle=1)
 ----------------------------------------------------------------------
 -----
 title
 -----
 Structure from the checkpoint file:  "1-3-diazine.chk"
 Charge =  0 Multiplicity = 1

                         Standard orientation:
 ---------------------------------------------------------------------
 Center     Atomic      Atomic             Coordinates (Angstroms)
 Number     Number       Type             X           Y           Z
 ---------------------------------------------------------------------
      1          6           0        0.000000   -0.000000   -1.307744
      2          7           0        0.000000    1.191556   -0.712170
      3          7           0       -0.000000   -1.191556   -0.712170
      4          6           0        0.000000   -1.180628    0.620975
      5          6           0        0.000000    1.180628    0.620975
      6          6           0        0.000000    0.000000    1.349488
      7          1           0        0.000000    0.000000    2.429940
      8          1           0        0.000000   -0.000000   -2.391534
      9          1           0        0.000000   -2.145739    1.114908
     10          1           0        0.000000    2.145739    1.114908
 ---------------------------------------------------------------------

 SCF Done:  E(RHF) =  -262.802141238     A.U. after    2 cycles

 The electronic state is 1-A1.
 Alpha  occ. eigenvalues --  -15.64090 -15.64086 -11.32743 -11.31168 -11.31167
 Alpha  occ. eigenvalues --  -11.26087  -1.28717  -1.16697  -1.07020  -0.89369
 Alpha  occ. eigenvalues --   -0.89110  -0.74380  -0.70693  -0.65382  -0.60018
 Alpha  occ. eigenvalues --   -0.58964  -0.57998  -0.46885  -0.42198  -0.41139
 Alpha  occ. eigenvalues --   -0.38053
 Alpha virt. eigenvalues --    0.02907   0.04055   0.04511   0.05999   0.07904
 Alpha virt. eigenvalues --    0.08043   0.09843   0.10394   0.11652   0.12810
 Alpha virt. eigenvalues --    0.12979   0.13593   0.14523   0.14564   0.14904

 Mulliken charges:
               1
     1  C    0.628336
     2  N   -0.538480
     3  N   -0.538480
     4  C    0.498546
     5  C    0.498546
     6  C    0.633023
     7  H   -0.367312
     8  H   -0.243868
     9  H   -0.285156
    10  H   -0.285156
 Sum of Mulliken charges =  -0.00000

 Dipole moment (field-independent basis, Debye):
    X=              0.0000    Y=             -0.0000    Z=              2.3343  Tot=              2.3343

 Test job not archived.
 1\1\GINC-SE175\SP\RHF\Aug-CC-pVDZ\C4H4N2\OHZDE\05-Apr-2025\0\\#t hf au
 g-cc-pvdz iop(5/13=1,5/36=2,99/5=2) pseudo=read geom=check guess=(read
 ,tcheck) scf=(maxcycle=1)\\title\\0,1\C,0,0.,0.,-1.307744\N,0,0.,1.191
 556,-0.71217\N,0,0.,-1.191556,-0.71217\C,0,0.,-1.180628,0.620975\C,0,0
 .,1.180628,0.620975\C,0,0.,0.,1.349488\H,0,0.,0.,2.42994\H,0,0.,0.,-2.
 391534\H,0,0.,-2.145739,1.114908\H,0,0.,2.145739,1.114908\\Version=ES6
 4L-G16RevC.01\State=1-A1\HF=-262.8021412\RMSD=5.968e-03\Dipole=0.,0.,0
 .9183648\Quadrupole=-1.4068267,-1.73165,3.1384767,0.,0.,0.\PG=C02V [C2

 Normal termination of Gaussian 16 at Sat Apr  5 22:08:49 2025.
