 Gaussian 16, Revision C.01,

 ----------------------------------------------------------------------
 #t hf aug-cc-pvdz symm=none int=(grid=ultrafine) guess=(read,tcheck) s
 table=(opt,rrhf)
 ----------------------------------------------------------------------
 -----
 title
 -----
 Symbolic Z-matrix:
 Charge =  0 Multiplicity = 1

 SCF Done:  E(RHF) =  -1075.17163146     A.U. after   13 cycles

 1\1\GINC-SE177\Stability\RHF\Aug-CC-pVDZ\C4H8Cl2\OHZDE\05-Apr-2025\0\\
 #t hf aug-cc-pvdz symm=none int=(grid=ultrafine) guess=(read,tcheck) s
 table=(opt,rrhf)\\title\\0,1\C,0,-2.173897,1.524699,-0.102751\H,0,-2.2
 10085,1.552101,-1.1915\H,0,-3.180147,1.347902,0.271737\H,0,-1.838899,2
 .500384,0.255787\C,0,-1.216511,0.451803,0.380282\H,0,-1.22285,0.398251
 ,1.467431\Cl,0,-1.855348,-1.193546,-0.136424\C,0,0.204566,0.645728,-0.
 1355\H,0,0.51627,1.656393,0.140769\H,0,0.207952,0.595476,-1.225135\C,0
 ,1.199715,-0.350388,0.431283\H,0,1.239358,-0.310969,1.516948\H,0,0.984

 Normal termination of Gaussian 16 at Sat Apr  5 22:10:09 2025.
 Gaussian 16:  ES64L-G16RevC.01  3-Jul-2019

 ----------------------------------------------------------------------
 #t hf aug-cc-pvdz iop(5/13=1,5/36=2,99/5=2) pseudo=read geom=check gue
 ss=(read,tcheck) scf=(maxcycle=1)
 ----------------------------------------------------------------------
 -----
 title
 -----
 Structure from the checkpoint file:  "1-3-dichlorobutane.chk"
 Charge =  0 Multiplicity = 1

                         Standard orientation:
 ---------------------------------------------------------------------
 Center     Atomic      Atomic             Coordinates (Angstroms)
 Number     Number       Type             X           Y           Z
 ---------------------------------------------------------------------
      1          6           0       -2.173897    1.524699   -0.102751
      2          1           0       -2.210085    1.552101   -1.191500
      3          1           0       -3.180147    1.347902    0.271737
      4          1           0       -1.838899    2.500384    0.255787
      5          6           0       -1.216511    0.451803    0.380282
      6          1           0       -1.222850    0.398251    1.467431
      7         17           0       -1.855348   -1.193546   -0.136424
      8          6           0        0.204566    0.645728   -0.135500
      9          1           0        0.516270    1.656393    0.140769
     10          1           0        0.207952    0.595476   -1.225135
     11          6           0        1.199715   -0.350388    0.431283
     12          1           0        1.239358   -0.310969    1.516948
     13          1           0        0.984119   -1.365316    0.116205
     14         17           0        2.880115    0.016766   -0.145466
 ---------------------------------------------------------------------

 SCF Done:  E(RHF) =  -1075.25674368     A.U. after    2 cycles

 The electronic state is 1-A.
 Alpha  occ. eigenvalues -- -103.65129-103.65071 -11.32529 -11.30983 -11.26526
 Alpha  occ. eigenvalues --  -11.25249 -10.68419 -10.68341  -8.34125  -8.34059
 Alpha  occ. eigenvalues --   -8.33862  -8.33850  -8.33776  -8.33767  -1.18076
 Alpha  occ. eigenvalues --   -1.15771  -1.05582  -0.99497  -0.87681  -0.81510
 Alpha  occ. eigenvalues --   -0.68437  -0.64477  -0.62448  -0.60972  -0.56145
 Alpha  occ. eigenvalues --   -0.54921  -0.53912  -0.51755  -0.50269  -0.46142
 Alpha  occ. eigenvalues --   -0.45161  -0.44763  -0.44025
 Alpha virt. eigenvalues --    0.03123   0.04279   0.04955   0.05277   0.06662
 Alpha virt. eigenvalues --    0.06948   0.07483   0.08515   0.09913   0.10473
 Alpha virt. eigenvalues --    0.11580   0.12840   0.14603   0.15339   0.15700

 Mulliken charges:
               1
     1  C    0.605261
     2  H   -0.014012
     3  H   -0.052258
     4  H   -0.018730
     5  C   -0.372030
     6  H   -0.101426
     7  Cl  -0.226057
     8  C    0.294108
     9  H   -0.055277
    10  H   -0.066259
    11  C    0.164691
    12  H   -0.005003
    13  H   -0.009503
    14  Cl  -0.143504
 Sum of Mulliken charges =  -0.00000

 Dipole moment (field-independent basis, Debye):
    X=             -1.5597    Y=              2.0018    Z=              1.2043  Tot=              2.8089

 Test job not archived.
 1\1\GINC-SE177\SP\RHF\Aug-CC-pVDZ\C4H8Cl2\OHZDE\05-Apr-2025\0\\#t hf a
 ug-cc-pvdz iop(5/13=1,5/36=2,99/5=2) pseudo=read geom=check guess=(rea
 d,tcheck) scf=(maxcycle=1)\\title\\0,1\C,0,-2.173897,1.524699,-0.10275
 1\H,0,-2.210085,1.552101,-1.1915\H,0,-3.180147,1.347902,0.271737\H,0,-
 1.838899,2.500384,0.255787\C,0,-1.216511,0.451803,0.380282\H,0,-1.2228
 5,0.398251,1.467431\Cl,0,-1.855348,-1.193546,-0.136424\C,0,0.204566,0.
 645728,-0.1355\H,0,0.51627,1.656393,0.140769\H,0,0.207952,0.595476,-1.
 225135\C,0,1.199715,-0.350388,0.431283\H,0,1.239358,-0.310969,1.516948

 Normal termination of Gaussian 16 at Sat Apr  5 22:10:45 2025.
