 Gaussian 16, Revision C.01,

 ----------------------------------------------------------------------
 #t hf aug-cc-pvdz symm=none int=(grid=ultrafine) guess=(read,tcheck) s
 table=(opt,rrhf)
 ----------------------------------------------------------------------
 -----
 title
 -----
 Symbolic Z-matrix:
 Charge =  0 Multiplicity = 1

 SCF Done:  E(RHF) =  -266.830653464     A.U. after   12 cycles
 Normal termination of Gaussian 16 at Sat Apr  5 22:10:45 2025.
 Gaussian 16:  ES64L-G16RevC.01  3-Jul-2019

 ----------------------------------------------------------------------
 #t hf aug-cc-pvdz iop(5/13=1,5/36=2,99/5=2) pseudo=read geom=check gue
 ss=(read,tcheck) scf=(maxcycle=1)
 ----------------------------------------------------------------------
 -----
 title
 -----
 Structure from the checkpoint file:  "1-3-dioxolane.chk"
 Charge =  0 Multiplicity = 1

                         Standard orientation:
 ---------------------------------------------------------------------
 Center     Atomic      Atomic             Coordinates (Angstroms)
 Number     Number       Type             X           Y           Z
 ---------------------------------------------------------------------
      1          1           0       -1.638593   -1.153756    0.688314
      2          1           0       -1.454271   -0.881074   -1.060827
      3          6           0       -1.031076   -0.669148   -0.077087
      4          1           0       -0.970288    1.084448    1.225130
      5          1           0       -1.528273    1.455561   -0.426021
      6          6           0       -0.860191    0.833461    0.164191
      7          8           0        0.306808   -1.179852   -0.027728
      8          8           0        0.477289    1.074627   -0.266338
      9          1           0        1.499157    0.001110    1.176675
     10          1           0        2.050598   -0.197573   -0.525731
     11          6           0        1.186084   -0.075466    0.125395
 ---------------------------------------------------------------------

 SCF Done:  E(RHF) =  -266.917244921     A.U. after    2 cycles

 The electronic state is 1-A.
 Alpha  occ. eigenvalues --  -20.58502 -20.57678 -11.34105 -11.29788 -11.29463
 Alpha  occ. eigenvalues --   -1.39780  -1.29292  -1.03145  -0.87168  -0.85909
 Alpha  occ. eigenvalues --   -0.72624  -0.71590  -0.64649  -0.62150  -0.59242
 Alpha  occ. eigenvalues --   -0.57491  -0.53440  -0.50798  -0.45992  -0.43796
 Alpha virt. eigenvalues --    0.03501   0.04763   0.04996   0.05284   0.06607
 Alpha virt. eigenvalues --    0.07198   0.10081   0.10267   0.12044   0.14165
 Alpha virt. eigenvalues --    0.14879   0.15068   0.16304   0.16933   0.17876

 Mulliken charges:
               1
     1  H   -0.140678
     2  H   -0.181589
     3  C    0.756095
     4  H   -0.163948
     5  H   -0.171754
     6  C    0.610370
     7  O   -0.728385
     8  O   -0.705872
     9  H   -0.164312
    10  H   -0.247564
    11  C    1.137637
 Sum of Mulliken charges =   0.00000

 Dipole moment (field-independent basis, Debye):
    X=             -1.3873    Y=              0.3729    Z=              0.8582  Tot=              1.6733

 Test job not archived.
 1\1\GINC-SE115\SP\RHF\Aug-CC-pVDZ\C3H6O2\OHZDE\05-Apr-2025\0\\#t hf au
 g-cc-pvdz iop(5/13=1,5/36=2,99/5=2) pseudo=read geom=check guess=(read
 ,tcheck) scf=(maxcycle=1)\\title\\0,1\H,0,-1.638593,-1.153756,0.688314
 \H,0,-1.454271,-0.881074,-1.060827\C,0,-1.031076,-0.669148,-0.077087\H
 ,0,-0.970288,1.084448,1.22513\H,0,-1.528273,1.455561,-0.426021\C,0,-0.
 860191,0.833461,0.164191\O,0,0.306808,-1.179852,-0.027728\O,0,0.477289
 ,1.074627,-0.266338\H,0,1.499157,0.00111,1.176675\H,0,2.050598,-0.1975
 73,-0.525731\C,0,1.186084,-0.075466,0.125395\\Version=ES64L-G16RevC.01

 Normal termination of Gaussian 16 at Sat Apr  5 22:10:49 2025.
