 Gaussian 16, Revision C.01,

 ----------------------------------------------------------------------
 #t hf aug-cc-pvdz symm=none int=(grid=ultrafine) guess=(read,tcheck) s
 table=(opt,rrhf)
 ----------------------------------------------------------------------
 -----
 title
 -----
 Symbolic Z-matrix:
 Charge =  0 Multiplicity = 1

 SCF Done:  E(RHF) =  -231.858513790     A.U. after   12 cycles
 Normal termination of Gaussian 16 at Sat Apr  5 22:08:55 2025.
 Gaussian 16:  ES64L-G16RevC.01  3-Jul-2019

 ----------------------------------------------------------------------
 #t hf aug-cc-pvdz iop(5/13=1,5/36=2,99/5=2) pseudo=read geom=check gue
 ss=(read,tcheck) scf=(maxcycle=1)
 ----------------------------------------------------------------------
 -----
 title
 -----
 Structure from the checkpoint file:  "1-3-cyclohexadiene.chk"
 Charge =  0 Multiplicity = 1

                         Standard orientation:
 ---------------------------------------------------------------------
 Center     Atomic      Atomic             Coordinates (Angstroms)
 Number     Number       Type             X           Y           Z
 ---------------------------------------------------------------------
      1          1           0        1.227612   -0.261128    2.198784
      2          6           0        0.724797   -0.096543    1.254344
      3          1           0       -1.227612    0.261128    2.198784
      4          6           0       -0.724797    0.096543    1.254344
      5          1           0       -2.497556    0.149519    0.117407
      6          6           0       -1.419944    0.043846    0.113143
      7          1           0        2.497556   -0.149519    0.117407
      8          6           0        1.419944   -0.043846    0.113143
      9          1           0       -1.272086    0.182344   -2.028442
     10          1           0       -0.737591   -1.338573   -1.350141
     11          6           0       -0.724797   -0.251426   -1.190421
     12          1           0        1.272086   -0.182344   -2.028442
     13          1           0        0.737591    1.338573   -1.350141
     14          6           0        0.724797    0.251426   -1.190421
 ---------------------------------------------------------------------

 SCF Done:  E(RHF) =  -231.928826270     A.U. after    2 cycles

 The electronic state is 1-A.
 Alpha  occ. eigenvalues --  -11.23735 -11.23733 -11.23586 -11.23532 -11.23323
 Alpha  occ. eigenvalues --  -11.23251  -1.12105  -1.00385  -1.00004  -0.84688
 Alpha  occ. eigenvalues --   -0.80415  -0.69158  -0.67323  -0.61088  -0.59072
 Alpha  occ. eigenvalues --   -0.58259  -0.54852  -0.51703  -0.47916  -0.45814
 Alpha  occ. eigenvalues --   -0.42557  -0.30373
 Alpha virt. eigenvalues --    0.03557   0.04316   0.04342   0.05329   0.05934
 Alpha virt. eigenvalues --    0.06096   0.07229   0.08444   0.09720   0.12883
 Alpha virt. eigenvalues --    0.13105   0.14341   0.14463   0.14791   0.14977

 Mulliken charges:
               1
     1  H   -0.430622
     2  C    0.267487
     3  H   -0.430622
     4  C    0.267487
     5  H   -0.413559
     6  C    0.303716
     7  H   -0.413559
     8  C    0.303716
     9  H    0.012015
    10  H   -0.007995
    11  C    0.268958
    12  H    0.012015
    13  H   -0.007995
    14  C    0.268958
 Sum of Mulliken charges =  -0.00000

 Dipole moment (field-independent basis, Debye):
    X=              0.0000    Y=              0.0000    Z=             -0.5129  Tot=              0.5129

 Test job not archived.
 1\1\GINC-SE146\SP\RHF\Aug-CC-pVDZ\C6H8\OHZDE\05-Apr-2025\0\\#t hf aug-
 cc-pvdz iop(5/13=1,5/36=2,99/5=2) pseudo=read geom=check guess=(read,t
 check) scf=(maxcycle=1)\\title\\0,1\H,0,1.227612,-0.261128,2.198784\C,
 0,0.724797,-0.096543,1.254344\H,0,-1.227612,0.261128,2.198784\C,0,-0.7
 24797,0.096543,1.254344\H,0,-2.497556,0.149519,0.117407\C,0,-1.419944,
 0.043846,0.113143\H,0,2.497556,-0.149519,0.117407\C,0,1.419944,-0.0438
 46,0.113143\H,0,-1.272086,0.182344,-2.028442\H,0,-0.737591,-1.338573,-
 1.350141\C,0,-0.724797,-0.251426,-1.190421\H,0,1.272086,-0.182344,-2.0

 Normal termination of Gaussian 16 at Sat Apr  5 22:09:43 2025.
