 Gaussian 16, Revision C.01,

 ----------------------------------------------------------------------
 #t hf aug-cc-pvdz symm=none int=(grid=ultrafine) guess=(read,tcheck) s
 table=(opt,rrhf)
 ----------------------------------------------------------------------
 -----
 title
 -----
 Symbolic Z-matrix:
 Charge =  0 Multiplicity = 1

 SCF Done:  E(RHF) =  -1460.02329321     A.U. after   16 cycles
 Normal termination of Gaussian 16 at Sat Apr  5 22:10:15 2025.
 Gaussian 16:  ES64L-G16RevC.01  3-Jul-2019

 ----------------------------------------------------------------------
 #t hf aug-cc-pvdz iop(5/13=1,5/36=2,99/5=2) pseudo=read geom=check gue
 ss=(read,tcheck) scf=(maxcycle=1)
 ----------------------------------------------------------------------
 -----
 title
 -----
 Structure from the checkpoint file:  "1-3-benzodithiole-2-thione.chk"
 Charge =  0 Multiplicity = 1

                         Standard orientation:
 ---------------------------------------------------------------------
 Center     Atomic      Atomic             Coordinates (Angstroms)
 Number     Number       Type             X           Y           Z
 ---------------------------------------------------------------------
      1         16           0       -0.000000    0.000000    3.335105
      2          6           0       -0.000000    0.000000    1.696705
      3         16           0       -0.000000    1.461876    0.723589
      4          6           0        0.000039    0.699784   -0.860302
      5          6           0        0.000068    1.401474   -2.063160
      6          6           0        0.000035    0.696981   -3.258264
      7          6           0       -0.000035   -0.696981   -3.258264
      8          6           0       -0.000068   -1.401474   -2.063160
      9          6           0       -0.000039   -0.699784   -0.860302
     10         16           0       -0.000000   -1.461876    0.723589
     11          1           0        0.000110    2.482729   -2.063133
     12          1           0        0.000064    1.236910   -4.194881
     13          1           0       -0.000064   -1.236910   -4.194881
     14          1           0       -0.000110   -2.482729   -2.063133
 ---------------------------------------------------------------------

 SCF Done:  E(RHF) =  -1460.16027032     A.U. after    2 cycles

 The electronic state is 1-A.
 Alpha  occ. eigenvalues --  -93.59562 -93.59558 -93.51485 -11.39265 -11.31301
 Alpha  occ. eigenvalues --  -11.31190 -11.28111 -11.28103 -11.27463 -11.27352
 Alpha  occ. eigenvalues --   -8.89386  -8.89372  -8.81392  -6.23553  -6.23485
 Alpha  occ. eigenvalues --   -6.23373  -6.23297  -6.22946  -6.22941  -6.15598
 Alpha  occ. eigenvalues --   -6.15106  -6.14955  -1.20996  -1.14147  -1.07148
 Alpha  occ. eigenvalues --   -1.05008  -0.99273  -0.94737  -0.85548  -0.83387
 Alpha  occ. eigenvalues --   -0.75530  -0.69951  -0.67140  -0.66164  -0.63364
 Alpha  occ. eigenvalues --   -0.58514  -0.57917  -0.55315  -0.53284  -0.51206
 Alpha  occ. eigenvalues --   -0.50672  -0.47875  -0.44056  -0.40223  -0.35309
 Alpha  occ. eigenvalues --   -0.34285  -0.30985
 Alpha virt. eigenvalues --    0.02658   0.03510   0.03796   0.04380   0.05844
 Alpha virt. eigenvalues --    0.07212   0.07384   0.08002   0.09014   0.09756
 Alpha virt. eigenvalues --    0.09987   0.10730   0.10743   0.11836   0.12485

 Mulliken charges:
               1
     1  S   -0.002637
     2  C   -0.888795
     3  S    0.629546
     4  C   -0.093927
     5  C    0.346028
     6  C    0.485707
     7  C    0.485707
     8  C    0.346028
     9  C   -0.093927
    10  S    0.629546
    11  H   -0.484611
    12  H   -0.437026
    13  H   -0.437026
    14  H   -0.484611
 Sum of Mulliken charges =  -0.00000

 Dipole moment (field-independent basis, Debye):
    X=             -0.0000    Y=             -0.0000    Z=             -5.3375  Tot=              5.3375

 Test job not archived.
 1\1\GINC-SE199\SP\RHF\Aug-CC-pVDZ\C7H4S3\OHZDE\05-Apr-2025\0\\#t hf au
 g-cc-pvdz iop(5/13=1,5/36=2,99/5=2) pseudo=read geom=check guess=(read
 ,tcheck) scf=(maxcycle=1)\\title\\0,1\S,0,0.,0.,3.335105\C,0,0.,0.,1.6
 96705\S,0,0.,1.461876,0.723589\C,0,0.000039,0.699784,-0.860302\C,0,0.0
 00068,1.401474,-2.06316\C,0,0.000035,0.696981,-3.258264\C,0,-0.000035,
 -0.696981,-3.258264\C,0,-0.000068,-1.401474,-2.06316\C,0,-0.000039,-0.
 699784,-0.860302\S,0,0.,-1.461876,0.723589\H,0,0.00011,2.482729,-2.063
 133\H,0,0.000064,1.23691,-4.194881\H,0,-0.000064,-1.23691,-4.194881\H,

 Normal termination of Gaussian 16 at Sat Apr  5 22:10:44 2025.
