 Gaussian 16, Revision C.01,

 ----------------------------------------------------------------------
 #t hf aug-cc-pvdz symm=none int=(grid=ultrafine) guess=(read,tcheck) s
 table=(opt,rrhf)
 ----------------------------------------------------------------------
 -----
 title
 -----
 Symbolic Z-matrix:
 Charge =  0 Multiplicity = 1

 SCF Done:  E(RHF) =  -966.053602612     A.U. after   15 cycles
 Normal termination of Gaussian 16 at Sat Apr  5 22:10:38 2025.
 Gaussian 16:  ES64L-G16RevC.01  3-Jul-2019

 ----------------------------------------------------------------------
 #t hf aug-cc-pvdz iop(5/13=1,5/36=2,99/5=2) pseudo=read geom=check gue
 ss=(read,tcheck) scf=(maxcycle=1)
 ----------------------------------------------------------------------
 -----
 title
 -----
 Structure from the checkpoint file:  "1-3-thiazolidine-2-thione.chk"
 Charge =  0 Multiplicity = 1

                         Standard orientation:
 ---------------------------------------------------------------------
 Center     Atomic      Atomic             Coordinates (Angstroms)
 Number     Number       Type             X           Y           Z
 ---------------------------------------------------------------------
      1         16           0        2.227257    0.061467    0.015437
      2          6           0        0.580287    0.139250    0.025344
      3          7           0       -0.170607    1.260373    0.108482
      4          6           0       -1.590238    1.151842   -0.196876
      5          6           0       -1.989229   -0.260741    0.225693
      6         16           0       -0.486681   -1.273692   -0.086772
      7          1           0        0.312643    2.142650    0.044203
      8          1           0       -1.765588    1.297506   -1.267875
      9          1           0       -2.152266    1.906954    0.352089
     10          1           0       -2.821611   -0.645528   -0.356536
     11          1           0       -2.233067   -0.310700    1.285146
 ---------------------------------------------------------------------

 SCF Done:  E(RHF) =  -966.143280410     A.U. after    2 cycles

 The electronic state is 1-A.
 Alpha  occ. eigenvalues --  -93.56745 -93.48613 -15.68376 -11.38526 -11.31667
 Alpha  occ. eigenvalues --  -11.30145  -8.86548  -8.78560  -6.20644  -6.20486
 Alpha  occ. eigenvalues --   -6.20107  -6.12804  -6.12258  -6.12146  -1.27668
 Alpha  occ. eigenvalues --   -1.07468  -1.05072  -0.92139  -0.86090  -0.79192
 Alpha  occ. eigenvalues --   -0.70397  -0.67701  -0.59821  -0.58583  -0.57852
 Alpha  occ. eigenvalues --   -0.52195  -0.50511  -0.47578  -0.38135  -0.33027
 Alpha  occ. eigenvalues --   -0.32480
 Alpha virt. eigenvalues --    0.02271   0.03835   0.04068   0.05409   0.06491
 Alpha virt. eigenvalues --    0.08516   0.08618   0.09301   0.10508   0.11488
 Alpha virt. eigenvalues --    0.12294   0.13414   0.13818   0.15019   0.15452

 Mulliken charges:
               1
     1  S    0.016508
     2  C   -0.285863
     3  N   -0.371942
     4  C    0.795684
     5  C   -0.161183
     6  S    0.521984
     7  H   -0.090455
     8  H   -0.171207
     9  H   -0.133068
    10  H   -0.022897
    11  H   -0.097561
 Sum of Mulliken charges =  -0.00000

 Dipole moment (field-independent basis, Debye):
    X=             -5.8342    Y=              2.3963    Z=             -0.0759  Tot=              6.3076

 Test job not archived.
 1\1\GINC-SE041\SP\RHF\Aug-CC-pVDZ\C3H5N1S2\OHZDE\05-Apr-2025\0\\#t hf
 aug-cc-pvdz iop(5/13=1,5/36=2,99/5=2) pseudo=read geom=check guess=(re
 ad,tcheck) scf=(maxcycle=1)\\title\\0,1\S,0,2.227257,0.061467,0.015437
 \C,0,0.580287,0.13925,0.025344\N,0,-0.170607,1.260373,0.108482\C,0,-1.
 590238,1.151842,-0.196876\C,0,-1.989229,-0.260741,0.225693\S,0,-0.4866
 81,-1.273692,-0.086772\H,0,0.312643,2.14265,0.044203\H,0,-1.765588,1.2
 97506,-1.267875\H,0,-2.152266,1.906954,0.352089\H,0,-2.821611,-0.64552
 8,-0.356536\H,0,-2.233067,-0.3107,1.285146\\Version=ES64L-G16RevC.01\S

 Normal termination of Gaussian 16 at Sat Apr  5 22:10:43 2025.
