 Gaussian 16, Revision C.01,

 ----------------------------------------------------------------------
 #t hf aug-cc-pvdz symm=none int=(grid=ultrafine) guess=(read,tcheck) s
 table=(opt,rrhf)
 ----------------------------------------------------------------------
 -----
 title
 -----
 Symbolic Z-matrix:
 Charge =  0 Multiplicity = 1

 SCF Done:  E(RHF) =  -191.563257908     A.U. after   13 cycles
 Normal termination of Gaussian 16 at Sat Apr  5 22:10:11 2025.
 Gaussian 16:  ES64L-G16RevC.01  3-Jul-2019

 ----------------------------------------------------------------------
 #t hf aug-cc-pvdz iop(5/13=1,5/36=2,99/5=2) pseudo=read geom=check gue
 ss=(read,tcheck) scf=(maxcycle=1)
 ----------------------------------------------------------------------
 -----
 title
 -----
 Structure from the checkpoint file:  "1-3-pentadiyne.chk"
 Charge =  0 Multiplicity = 1

                         Standard orientation:
 ---------------------------------------------------------------------
 Center     Atomic      Atomic             Coordinates (Angstroms)
 Number     Number       Type             X           Y           Z
 ---------------------------------------------------------------------
      1          6           0        0.000000    0.150318    0.000000
      2          6           0        0.002169   -1.056593    0.000000
      3          6           0       -0.002595    1.513662    0.000000
      4          6           0        0.004244   -2.507221    0.000000
      5          6           0       -0.005012    2.718859    0.000000
      6          1           0       -0.007164    3.779665    0.000000
      7          1           0        0.514494   -2.897262    0.882841
      8          1           0        0.514494   -2.897262   -0.882841
      9          1           0       -1.014660   -2.899289    0.000000
 ---------------------------------------------------------------------

 SCF Done:  E(RHF) =  -191.626866109     A.U. after    2 cycles

 The electronic state is 1-A'.
 Alpha  occ. eigenvalues --  -11.27085 -11.26958 -11.26796 -11.25788 -11.25703
 Alpha  occ. eigenvalues --   -1.08599  -1.03888  -0.97063  -0.82755  -0.71219
 Alpha  occ. eigenvalues --   -0.64747  -0.60563  -0.60562  -0.48047  -0.48047
 Alpha  occ. eigenvalues --   -0.35527  -0.35527
 Alpha virt. eigenvalues --    0.03115   0.03683   0.05811   0.05811   0.07512
 Alpha virt. eigenvalues --    0.09592   0.09592   0.10950   0.13134   0.13864
 Alpha virt. eigenvalues --    0.13864   0.14439   0.14440   0.15107   0.15107

 Mulliken charges:
               1
     1  C    0.934510
     2  C   -1.606969
     3  C   -0.547047
     4  C    0.427770
     5  C    0.992797
     6  H   -0.696841
     7  H    0.165188
     8  H    0.165188
     9  H    0.165405
 Sum of Mulliken charges =  -0.00000

 Dipole moment (field-independent basis, Debye):
    X=              0.0013    Y=             -1.2460    Z=              0.0000  Tot=              1.2460

 Test job not archived.
 1\1\GINC-SE180\SP\RHF\Aug-CC-pVDZ\C5H4\OHZDE\05-Apr-2025\0\\#t hf aug-
 cc-pvdz iop(5/13=1,5/36=2,99/5=2) pseudo=read geom=check guess=(read,t
 check) scf=(maxcycle=1)\\title\\0,1\C,0,0.,0.150318,0.\C,0,0.002169,-1
 .056593,0.\C,0,-0.002595,1.513662,0.\C,0,0.004244,-2.507221,0.\C,0,-0.
 005012,2.718859,0.\H,0,-0.007164,3.779665,0.\H,0,0.514494,-2.897262,0.
 882841\H,0,0.514494,-2.897262,-0.882841\H,0,-1.01466,-2.899289,0.\\Ver
 sion=ES64L-G16RevC.01\State=1-A'\HF=-191.6268661\RMSD=2.466e-02\Dipole
 =0.0005099,-0.4902189,0.\Quadrupole=-3.5602462,7.1206336,-3.5603874,-0

 Normal termination of Gaussian 16 at Sat Apr  5 22:10:41 2025.
