 Gaussian 16, Revision C.01,

 ----------------------------------------------------------------------
 #t hf aug-cc-pvdz symm=none int=(grid=ultrafine) guess=(read,tcheck) s
 table=(opt,rrhf)
 ----------------------------------------------------------------------
 -----
 title
 -----
 Symbolic Z-matrix:
 Charge =  0 Multiplicity = 1

 SCF Done:  E(RHF) =  -637.732139600     A.U. after   16 cycles
 Normal termination of Gaussian 16 at Sat Apr  5 22:12:10 2025.
 Gaussian 16:  ES64L-G16RevC.01  3-Jul-2019

 ----------------------------------------------------------------------
 #t hf aug-cc-pvdz iop(5/13=1,5/36=2,99/5=2) pseudo=read geom=check gue
 ss=(read,tcheck) scf=(maxcycle=1)
 ----------------------------------------------------------------------
 -----
 title
 -----
 Structure from the checkpoint file:  "1-3-dinitrobenzene.chk"
 Charge =  0 Multiplicity = 1

                         Standard orientation:
 ---------------------------------------------------------------------
 Center     Atomic      Atomic             Coordinates (Angstroms)
 Number     Number       Type             X           Y           Z
 ---------------------------------------------------------------------
      1          8           0        0.000000    3.490824    0.071542
      2          7           0        0.000000    2.463811   -0.588557
      3          8           0        0.000000    2.410623   -1.806860
      4          6           0        0.000000    1.181426    0.151124
      5          6           0       -0.000000    0.000000   -0.570360
      6          6           0       -0.000000   -1.181426    0.151124
      7          7           0       -0.000000   -2.463811   -0.588557
      8          8           0       -0.000000   -3.490824    0.071542
      9          8           0       -0.000000   -2.410623   -1.806860
     10          6           0        0.000000   -1.204752    1.538926
     11          6           0        0.000000   -0.000000    2.229613
     12          6           0        0.000000    1.204752    1.538926
     13          1           0       -0.000000    0.000000   -1.647700
     14          1           0        0.000000   -2.152894    2.053303
     15          1           0        0.000000   -0.000000    3.309868
     16          1           0        0.000000    2.152894    2.053303
 ---------------------------------------------------------------------

 SCF Done:  E(RHF) =  -637.921782648     A.U. after    2 cycles

 The electronic state is 1-A1.
 Alpha  occ. eigenvalues --  -20.63937 -20.63937 -20.63867 -20.63867 -15.94278
 Alpha  occ. eigenvalues --  -15.94278 -11.35066 -11.35065 -11.32378 -11.31994
 Alpha  occ. eigenvalues --  -11.31990 -11.30409  -1.57460  -1.57434  -1.39008
 Alpha  occ. eigenvalues --   -1.38994  -1.23467  -1.13503  -1.10099  -0.99355
 Alpha  occ. eigenvalues --   -0.98264  -0.88473  -0.85051  -0.82653  -0.77485
 Alpha  occ. eigenvalues --   -0.76309  -0.75621  -0.75258  -0.74850  -0.74115
 Alpha  occ. eigenvalues --   -0.70021  -0.67446  -0.60493  -0.59077  -0.57590
 Alpha  occ. eigenvalues --   -0.54063  -0.53762  -0.53534  -0.52901  -0.49532
 Alpha  occ. eigenvalues --   -0.49484  -0.41864  -0.40901
 Alpha virt. eigenvalues --    0.00288   0.02070   0.02083   0.03979   0.04457
 Alpha virt. eigenvalues --    0.05893   0.08894   0.09345   0.09619   0.09963
 Alpha virt. eigenvalues --    0.12097   0.12205   0.12520   0.12538   0.12843

 Mulliken charges:
               1
     1  O   -0.565219
     2  N    0.099274
     3  O   -0.547129
     4  C    1.282883
     5  C   -0.122101
     6  C    1.282883
     7  N    0.099274
     8  O   -0.565219
     9  O   -0.547129
    10  C    0.337420
    11  C    0.657525
    12  C    0.337420
    13  H   -0.419541
    14  H   -0.456169
    15  H   -0.418004
    16  H   -0.456169
 Sum of Mulliken charges =  -0.00000

 Dipole moment (field-independent basis, Debye):
    X=              0.0000    Y=              0.0000    Z=              5.0443  Tot=              5.0443

 Test job not archived.
 1\1\GINC-SE196\SP\RHF\Aug-CC-pVDZ\C6H4N2O4\OHZDE\05-Apr-2025\0\\#t hf
 aug-cc-pvdz iop(5/13=1,5/36=2,99/5=2) pseudo=read geom=check guess=(re
 ad,tcheck) scf=(maxcycle=1)\\title\\0,1\O,0,0.,3.490824,0.071542\N,0,0
 .,2.463811,-0.588557\O,0,0.,2.410623,-1.80686\C,0,0.,1.181426,0.151124
 \C,0,0.,0.,-0.57036\C,0,0.,-1.181426,0.151124\N,0,0.,-2.463811,-0.5885
 57\O,0,0.,-3.490824,0.071542\O,0,0.,-2.410623,-1.80686\C,0,0.,-1.20475
 2,1.538926\C,0,0.,0.,2.229613\C,0,0.,1.204752,1.538926\H,0,0.,0.,-1.64
 77\H,0,0.,-2.152894,2.053303\H,0,0.,0.,3.309868\H,0,0.,2.152894,2.0533

 Normal termination of Gaussian 16 at Sat Apr  5 22:12:54 2025.
