 Gaussian 16, Revision C.01,

 ----------------------------------------------------------------------
 #t hf aug-cc-pvdz symm=none int=(grid=ultrafine) guess=(read,tcheck) s
 table=(opt,rrhf)
 ----------------------------------------------------------------------
 -----
 title
 -----
 Symbolic Z-matrix:
 Charge =  0 Multiplicity = 1

 SCF Done:  E(RHF) =  -240.830209159     A.U. after   13 cycles
 Normal termination of Gaussian 16 at Sat Apr  5 22:08:41 2025.
 Gaussian 16:  ES64L-G16RevC.01  3-Jul-2019

 ----------------------------------------------------------------------
 #t hf aug-cc-pvdz iop(5/13=1,5/36=2,99/5=2) pseudo=read geom=check gue
 ss=(read,tcheck) scf=(maxcycle=1)
 ----------------------------------------------------------------------
 -----
 title
 -----
 Structure from the checkpoint file:  "1-3-4-triazole.chk"
 Charge =  0 Multiplicity = 1

                         Standard orientation:
 ---------------------------------------------------------------------
 Center     Atomic      Atomic             Coordinates (Angstroms)
 Number     Number       Type             X           Y           Z
 ---------------------------------------------------------------------
      1          7           0        0.000000    0.691069   -0.992631
      2          7           0       -0.000000   -0.691069   -0.992631
      3          6           0        0.000000   -1.080094    0.251566
      4          7           0        0.000000   -0.000000    1.085367
      5          6           0        0.000000    1.080094    0.251566
      6          1           0        0.000000   -2.100069    0.594993
      7          1           0        0.000000   -0.000000    2.090477
      8          1           0        0.000000    2.100069    0.594993
 ---------------------------------------------------------------------

 SCF Done:  E(RHF) =  -240.899854659     A.U. after    2 cycles

 The electronic state is 1-A1.
 Alpha  occ. eigenvalues --  -15.70665 -15.65019 -15.64962 -11.32298 -11.32295
 Alpha  occ. eigenvalues --   -1.36759  -1.18232  -1.08231  -0.85164  -0.83758
 Alpha  occ. eigenvalues --   -0.78535  -0.64622  -0.63112  -0.62948  -0.47900
 Alpha  occ. eigenvalues --   -0.42679  -0.42614  -0.36854
 Alpha virt. eigenvalues --    0.01781   0.03204   0.05492   0.07344   0.09588
 Alpha virt. eigenvalues --    0.10987   0.12074   0.12170   0.14759   0.14946
 Alpha virt. eigenvalues --    0.16434   0.17645   0.18176   0.18881   0.20035

 Mulliken charges:
               1
     1  N   -0.409447
     2  N   -0.409447
     3  C    0.771360
     4  N   -0.347971
     5  C    0.771360
     6  H   -0.158585
     7  H   -0.058686
     8  H   -0.158585
 Sum of Mulliken charges =  -0.00000

 Dipole moment (field-independent basis, Debye):
    X=              0.0000    Y=             -0.0000    Z=              5.9113  Tot=              5.9113

 Test job not archived.
 1\1\GINC-SE180\SP\RHF\Aug-CC-pVDZ\C2H3N3\OHZDE\05-Apr-2025\0\\#t hf au
 g-cc-pvdz iop(5/13=1,5/36=2,99/5=2) pseudo=read geom=check guess=(read
 ,tcheck) scf=(maxcycle=1)\\title\\0,1\N,0,0.,0.691069,-0.992631\N,0,0.
 ,-0.691069,-0.992631\C,0,0.,-1.080094,0.251566\N,0,0.,0.,1.085367\C,0,
 0.,1.080094,0.251566\H,0,0.,-2.100069,0.594993\H,0,0.,0.,2.090477\H,0,
 0.,2.100069,0.594993\\Version=ES64L-G16RevC.01\State=1-A1\HF=-240.8998
 547\RMSD=2.206e-03\Dipole=0.,0.,2.3256722\Quadrupole=-1.7463815,2.3163
 506,-0.5699691,0.,0.,0.\PG=C02V [C2(N1H1),SGV(C2H2N2)]\\@

 Normal termination of Gaussian 16 at Sat Apr  5 22:08:43 2025.
