 Gaussian 16, Revision C.01,

 ----------------------------------------------------------------------
 #t hf aug-cc-pvdz symm=none int=(grid=ultrafine) guess=(read,tcheck) s
 table=(opt,rrhf)
 ----------------------------------------------------------------------
 -----
 title
 -----
 Symbolic Z-matrix:
 Charge =  0 Multiplicity = 1

 SCF Done:  E(RHF) =  -926.943628228     A.U. after   14 cycles
 Normal termination of Gaussian 16 at Sat Apr  5 22:08:42 2025.
 Gaussian 16:  ES64L-G16RevC.01  3-Jul-2019

 ----------------------------------------------------------------------
 #t hf aug-cc-pvdz iop(5/13=1,5/36=2,99/5=2) pseudo=read geom=check gue
 ss=(read,tcheck) scf=(maxcycle=1)
 ----------------------------------------------------------------------
 -----
 title
 -----
 Structure from the checkpoint file:  "1-3-2-dithiazole.chk"
 Charge =  0 Multiplicity = 1

                         Standard orientation:
 ---------------------------------------------------------------------
 Center     Atomic      Atomic             Coordinates (Angstroms)
 Number     Number       Type             X           Y           Z
 ---------------------------------------------------------------------
      1         16           0        0.104910   -0.330209    1.416746
      2         16           0        0.104910   -0.330209   -1.416746
      3          7           0       -0.487995   -1.151970   -0.000000
      4          6           0        0.104910    1.282613    0.665107
      5          6           0        0.104910    1.282613   -0.665107
      6          1           0        0.150997    2.157376    1.295596
      7          1           0        0.150997    2.157376   -1.295596
      8          1           0       -1.502056   -1.075624    0.000000
 ---------------------------------------------------------------------

 SCF Done:  E(RHF) =  -927.030011302     A.U. after    2 cycles

 The electronic state is 1-A'.
 Alpha  occ. eigenvalues --  -93.58159 -93.58152 -15.68494 -11.28970 -11.28800
 Alpha  occ. eigenvalues --   -8.87598  -8.87595  -6.21751  -6.21706  -6.21530
 Alpha  occ. eigenvalues --   -6.21486  -6.21099  -6.21094  -1.21903  -1.06972
 Alpha  occ. eigenvalues --   -0.98795  -0.84543  -0.77096  -0.68773  -0.65516
 Alpha  occ. eigenvalues --   -0.55615  -0.54169  -0.50313  -0.46155  -0.43335
 Alpha  occ. eigenvalues --   -0.38624  -0.31224
 Alpha virt. eigenvalues --    0.03313   0.04582   0.04801   0.07656   0.08484
 Alpha virt. eigenvalues --    0.08924   0.09671   0.12542   0.12646   0.13792
 Alpha virt. eigenvalues --    0.14019   0.14549   0.15348   0.16110   0.16997

 Mulliken charges:
               1
     1  S    0.702608
     2  S    0.702608
     3  N   -0.978680
     4  C    0.068516
     5  C    0.068516
     6  H   -0.337225
     7  H   -0.337225
     8  H    0.110882
 Sum of Mulliken charges =  -0.00000

 Dipole moment (field-independent basis, Debye):
    X=             -1.0465    Y=              2.1921    Z=             -0.0000  Tot=              2.4290

 Test job not archived.
 1\1\GINC-SE040\SP\RHF\Aug-CC-pVDZ\C2H3N1S2\OHZDE\05-Apr-2025\0\\#t hf
 aug-cc-pvdz iop(5/13=1,5/36=2,99/5=2) pseudo=read geom=check guess=(re
 ad,tcheck) scf=(maxcycle=1)\\title\\0,1\S,0,0.10491,-0.330209,1.416746
 \S,0,0.10491,-0.330209,-1.416746\N,0,-0.487995,-1.15197,0.\C,0,0.10491
 ,1.282613,0.665107\C,0,0.10491,1.282613,-0.665107\H,0,0.150997,2.15737
 6,1.295596\H,0,0.150997,2.157376,-1.295596\H,0,-1.502056,-1.075624,0.\
 \Version=ES64L-G16RevC.01\State=1-A'\HF=-927.0300113\RMSD=7.261e-03\Di
 pole=-0.4117079,0.8624218,0.\Quadrupole=-1.1965768,1.725791,-0.5292142

 Normal termination of Gaussian 16 at Sat Apr  5 22:08:45 2025.
