 Gaussian 16, Revision C.01,

 ----------------------------------------------------------------------
 #t hf aug-cc-pvdz symm=none int=(grid=ultrafine) guess=(read,tcheck) s
 table=(opt,rrhf)
 ----------------------------------------------------------------------
 -----
 title
 -----
 Symbolic Z-matrix:
 Charge =  0 Multiplicity = 1

 SCF Done:  E(RHF) =  -1378.37372337     A.U. after   14 cycles
 Normal termination of Gaussian 16 at Sat Apr  5 22:08:48 2025.
 Gaussian 16:  ES64L-G16RevC.01  3-Jul-2019

 ----------------------------------------------------------------------
 #t hf aug-cc-pvdz iop(5/13=1,5/36=2,99/5=2) pseudo=read geom=check gue
 ss=(read,tcheck) scf=(maxcycle=1)
 ----------------------------------------------------------------------
 -----
 title
 -----
 Structure from the checkpoint file:  "1-3-4-thiadiazolidine-2-5-dithione.chk"
 Charge =  0 Multiplicity = 1

                         Standard orientation:
 ---------------------------------------------------------------------
 Center     Atomic      Atomic             Coordinates (Angstroms)
 Number     Number       Type             X           Y           Z
 ---------------------------------------------------------------------
      1          6           0        0.000000    1.290037   -0.095700
      2         16           0        0.000000    0.000000    1.123017
      3          6           0       -0.000000   -1.290037   -0.095700
      4         16           0        0.098380   -2.902976    0.183152
      5         16           0       -0.098380    2.902976    0.183152
      6          7           0        0.082142    0.693918   -1.317219
      7          7           0       -0.082142   -0.693918   -1.317219
      8          1           0       -0.281158    1.189103   -2.119842
      9          1           0        0.281158   -1.189103   -2.119842
 ---------------------------------------------------------------------

 SCF Done:  E(RHF) =  -1378.48438848     A.U. after    2 cycles

 The electronic state is 1-A.
 Alpha  occ. eigenvalues --  -93.62013 -93.52167 -93.52165 -15.75685 -15.75643
 Alpha  occ. eigenvalues --  -11.42278 -11.42261  -8.91843  -8.82093  -8.82093
 Alpha  occ. eigenvalues --   -6.25908  -6.25745  -6.25364  -6.16353  -6.16321
 Alpha  occ. eigenvalues --   -6.15782  -6.15781  -6.15665  -6.15663  -1.39396
 Alpha  occ. eigenvalues --   -1.20232  -1.12596  -0.99466  -0.98825  -0.87066
 Alpha  occ. eigenvalues --   -0.81381  -0.77926  -0.70036  -0.65290  -0.58116
 Alpha  occ. eigenvalues --   -0.54650  -0.54091  -0.52068  -0.48046  -0.36905
 Alpha  occ. eigenvalues --   -0.36295  -0.35235  -0.34668
 Alpha virt. eigenvalues --    0.01980   0.04046   0.05247   0.05681   0.06763
 Alpha virt. eigenvalues --    0.07762   0.08874   0.09626   0.09804   0.11454
 Alpha virt. eigenvalues --    0.12834   0.13533   0.14081   0.14227   0.14675

 Mulliken charges:
               1
     1  C   -0.254152
     2  S    0.697975
     3  C   -0.254152
     4  S    0.050987
     5  S    0.050987
     6  N   -0.183564
     7  N   -0.183564
     8  H    0.037742
     9  H    0.037742
 Sum of Mulliken charges =  -0.00000

 Dipole moment (field-independent basis, Debye):
    X=              0.0000    Y=             -0.0000    Z=             -3.6746  Tot=              3.6746

 Test job not archived.
 1\1\GINC-SE165\SP\RHF\Aug-CC-pVDZ\C2H2N2S3\OHZDE\05-Apr-2025\0\\#t hf
 aug-cc-pvdz iop(5/13=1,5/36=2,99/5=2) pseudo=read geom=check guess=(re
 ad,tcheck) scf=(maxcycle=1)\\title\\0,1\C,0,0.,1.290037,-0.0957\S,0,0.
 ,0.,1.123017\C,0,0.,-1.290037,-0.0957\S,0,0.09838,-2.902976,0.183152\S
 ,0,-0.09838,2.902976,0.183152\N,0,0.082142,0.693918,-1.317219\N,0,-0.0
 82142,-0.693918,-1.317219\H,0,-0.281158,1.189103,-2.119842\H,0,0.28115
 8,-1.189103,-2.119842\\Version=ES64L-G16RevC.01\State=1-A\HF=-1378.484
 3885\RMSD=6.434e-03\Dipole=0.,0.,-1.4456997\Quadrupole=0.8647196,-9.81

 Normal termination of Gaussian 16 at Sat Apr  5 22:08:52 2025.
