 Gaussian 16, Revision C.01,

 ----------------------------------------------------------------------
 #t hf aug-cc-pvdz symm=none int=(grid=ultrafine) guess=(read,tcheck) s
 table=(opt,rrhf)
 ----------------------------------------------------------------------
 -----
 title
 -----
 Symbolic Z-matrix:
 Charge =  0 Multiplicity = 1

 SCF Done:  E(RHF) =  -268.012363728     A.U. after   12 cycles
 Normal termination of Gaussian 16 at Sat Apr  5 22:10:11 2025.
 Gaussian 16:  ES64L-G16RevC.01  3-Jul-2019

 ----------------------------------------------------------------------
 #t hf aug-cc-pvdz iop(5/13=1,5/36=2,99/5=2) pseudo=read geom=check gue
 ss=(read,tcheck) scf=(maxcycle=1)
 ----------------------------------------------------------------------
 -----
 title
 -----
 Structure from the checkpoint file:  "1-3-propanediol.chk"
 Charge =  0 Multiplicity = 1

                         Standard orientation:
 ---------------------------------------------------------------------
 Center     Atomic      Atomic             Coordinates (Angstroms)
 Number     Number       Type             X           Y           Z
 ---------------------------------------------------------------------
      1          6           0        0.008318    0.961105   -0.023694
      2          6           0       -1.114125    0.158565    0.611742
      3          6           0        1.116320    0.099589   -0.621439
      4          8           0       -1.812567   -0.530130   -0.430109
      5          8           0        1.810846   -0.677414    0.357585
      6          1           0       -0.412195    1.593028   -0.810995
      7          1           0        0.431966    1.633237    0.729520
      8          1           0       -0.700353   -0.553181    1.331700
      9          1           0       -1.795932    0.830612    1.143845
     10          1           0        1.818672    0.728131   -1.178324
     11          1           0        0.691233   -0.621872   -1.316811
     12          1           0       -2.402771   -1.178879   -0.038359
     13          1           0        2.320068   -0.086283    0.919958
 ---------------------------------------------------------------------

 SCF Done:  E(RHF) =  -268.098662521     A.U. after    2 cycles

 The electronic state is 1-A.
 Alpha  occ. eigenvalues --  -20.56931 -20.56848 -11.28404 -11.28044 -11.23280
 Alpha  occ. eigenvalues --   -1.31888  -1.31278  -1.03852  -0.91380  -0.81189
 Alpha  occ. eigenvalues --   -0.71521  -0.69051  -0.65878  -0.62095  -0.58096
 Alpha  occ. eigenvalues --   -0.57994  -0.53390  -0.50581  -0.48473  -0.46230
 Alpha  occ. eigenvalues --   -0.44327
 Alpha virt. eigenvalues --    0.03309   0.04276   0.04901   0.05061   0.06947
 Alpha virt. eigenvalues --    0.07311   0.07523   0.07597   0.12047   0.13571
 Alpha virt. eigenvalues --    0.14277   0.14835   0.15208   0.15565   0.16760

 Mulliken charges:
               1
     1  C   -0.066615
     2  C    0.791520
     3  C    0.781202
     4  O   -0.565139
     5  O   -0.581837
     6  H   -0.045417
     7  H   -0.099657
     8  H   -0.121475
     9  H   -0.133245
    10  H   -0.110285
    11  H   -0.137802
    12  H    0.136641
    13  H    0.152109
 Sum of Mulliken charges =   0.00000

 Dipole moment (field-independent basis, Debye):
    X=             -0.2211    Y=              1.5603    Z=              1.5266  Tot=              2.1941

 Test job not archived.
 1\1\GINC-SE180\SP\RHF\Aug-CC-pVDZ\C3H8O2\OHZDE\05-Apr-2025\0\\#t hf au
 g-cc-pvdz iop(5/13=1,5/36=2,99/5=2) pseudo=read geom=check guess=(read
 ,tcheck) scf=(maxcycle=1)\\title\\0,1\C,0,0.008318,0.961105,-0.023694\
 C,0,-1.114125,0.158565,0.611742\C,0,1.11632,0.099589,-0.621439\O,0,-1.
 812567,-0.53013,-0.430109\O,0,1.810846,-0.677414,0.357585\H,0,-0.41219
 5,1.593028,-0.810995\H,0,0.431966,1.633237,0.72952\H,0,-0.700353,-0.55
 3181,1.3317\H,0,-1.795932,0.830612,1.143845\H,0,1.818672,0.728131,-1.1
 78324\H,0,0.691233,-0.621872,-1.316811\H,0,-2.402771,-1.178879,-0.0383

 Normal termination of Gaussian 16 at Sat Apr  5 22:10:42 2025.
