 Gaussian 16, Revision C.01,

 ----------------------------------------------------------------------
 #t hf aug-cc-pvdz symm=none int=(grid=ultrafine) guess=(read,tcheck) s
 table=(opt,rrhf)
 ----------------------------------------------------------------------
 -----
 title
 -----
 Symbolic Z-matrix:
 Charge =  0 Multiplicity = 1

 SCF Done:  E(RHF) =  -1308.53120845     A.U. after   15 cycles
 Normal termination of Gaussian 16 at Sat Apr  5 22:10:10 2025.
 Gaussian 16:  ES64L-G16RevC.01  3-Jul-2019

 ----------------------------------------------------------------------
 #t hf aug-cc-pvdz iop(5/13=1,5/36=2,99/5=2) pseudo=read geom=check gue
 ss=(read,tcheck) scf=(maxcycle=1)
 ----------------------------------------------------------------------
 -----
 title
 -----
 Structure from the checkpoint file:  "1-3-dithiolane-2-thione.chk"
 Charge =  0 Multiplicity = 1

                         Standard orientation:
 ---------------------------------------------------------------------
 Center     Atomic      Atomic             Coordinates (Angstroms)
 Number     Number       Type             X           Y           Z
 ---------------------------------------------------------------------
      1          1           0        0.649149    1.161865   -2.677287
      2          1           0       -0.649149   -1.161865   -2.677287
      3         16           0        0.000000    0.000000    2.320077
      4          6           0        0.000000    0.000000    0.684261
      5         16           0       -0.642955   -1.323450   -0.281165
      6         16           0        0.642955    1.323450   -0.281165
      7          1           0        1.004355   -1.158971   -2.032629
      8          6           0        0.000000   -0.759876   -1.900808
      9          1           0       -1.004355    1.158971   -2.032629
     10          6           0       -0.000000    0.759876   -1.900808
 ---------------------------------------------------------------------

 SCF Done:  E(RHF) =  -1308.62494555     A.U. after    2 cycles

 The electronic state is 1-A.
 Alpha  occ. eigenvalues --  -93.57741 -93.57741 -93.51204 -11.38387 -11.30918
 Alpha  occ. eigenvalues --  -11.30861  -8.87543  -8.87529  -8.81125  -6.21646
 Alpha  occ. eigenvalues --   -6.21623  -6.21466  -6.21429  -6.21105  -6.21095
 Alpha  occ. eigenvalues --   -6.15311  -6.14855  -6.14664  -1.16490  -1.06024
 Alpha  occ. eigenvalues --   -1.00798  -0.92175  -0.84045  -0.70091  -0.68571
 Alpha  occ. eigenvalues --   -0.64295  -0.58206  -0.56926  -0.52313  -0.50199
 Alpha  occ. eigenvalues --   -0.50128  -0.45211  -0.37733  -0.34144  -0.33448
 Alpha virt. eigenvalues --    0.02546   0.03829   0.04479   0.04966   0.05820
 Alpha virt. eigenvalues --    0.07255   0.08686   0.09608   0.10610   0.11529
 Alpha virt. eigenvalues --    0.11881   0.13028   0.13610   0.14870   0.15003

 Mulliken charges:
               1
     1  H   -0.006721
     2  H   -0.006721
     3  S    0.103821
     4  C   -0.773052
     5  S    0.544402
     6  S    0.544402
     7  H   -0.055836
     8  C   -0.147229
     9  H   -0.055836
    10  C   -0.147229
 Sum of Mulliken charges =  -0.00000

 Dipole moment (field-independent basis, Debye):
    X=             -0.0000    Y=             -0.0000    Z=             -5.5126  Tot=              5.5126

 Test job not archived.
 1\1\GINC-SE146\SP\RHF\Aug-CC-pVDZ\C3H4S3\OHZDE\05-Apr-2025\0\\#t hf au
 g-cc-pvdz iop(5/13=1,5/36=2,99/5=2) pseudo=read geom=check guess=(read
 ,tcheck) scf=(maxcycle=1)\\title\\0,1\H,0,0.649149,1.161865,-2.677287\
 H,0,-0.649149,-1.161865,-2.677287\S,0,0.,0.,2.320077\C,0,0.,0.,0.68426
 1\S,0,-0.642955,-1.32345,-0.281165\S,0,0.642955,1.32345,-0.281165\H,0,
 1.004355,-1.158971,-2.032629\C,0,0.,-0.759876,-1.900808\H,0,-1.004355,
 1.158971,-2.032629\C,0,0.,0.759876,-1.900808\\Version=ES64L-G16RevC.01
 \State=1-A\HF=-1308.6249455\RMSD=6.990e-03\Dipole=0.,0.,-2.1688294\Qua

 Normal termination of Gaussian 16 at Sat Apr  5 22:10:42 2025.
