 Gaussian 16, Revision C.01,

 ----------------------------------------------------------------------
 #t hf aug-cc-pvdz symm=none int=(grid=ultrafine) guess=(read,tcheck) s
 table=(opt,rrhf)
 ----------------------------------------------------------------------
 -----
 title
 -----
 Symbolic Z-matrix:
 Charge =  0 Multiplicity = 1

 SCF Done:  E(RHF) =  -260.649489093     A.U. after   13 cycles
 Normal termination of Gaussian 16 at Sat Apr  5 22:08:40 2025.
 Gaussian 16:  ES64L-G16RevC.01  3-Jul-2019

 ----------------------------------------------------------------------
 #t hf aug-cc-pvdz iop(5/13=1,5/36=2,99/5=2) pseudo=read geom=check gue
 ss=(read,tcheck) scf=(maxcycle=1)
 ----------------------------------------------------------------------
 -----
 title
 -----
 Structure from the checkpoint file:  "1-3-4-oxadiazole.chk"
 Charge =  0 Multiplicity = 1

                         Standard orientation:
 ---------------------------------------------------------------------
 Center     Atomic      Atomic             Coordinates (Angstroms)
 Number     Number       Type             X           Y           Z
 ---------------------------------------------------------------------
      1          8           0        0.000000   -0.000000    1.123780
      2          6           0        0.000000    1.052759    0.266386
      3          7           0        0.000000    0.701433   -0.967868
      4          7           0       -0.000000   -0.701433   -0.967868
      5          6           0       -0.000000   -1.052759    0.266386
      6          1           0        0.000000    2.044558    0.681643
      7          1           0       -0.000000   -2.044558    0.681643
 ---------------------------------------------------------------------

 SCF Done:  E(RHF) =  -260.728427388     A.U. after    2 cycles

 The electronic state is 1-A1.
 Alpha  occ. eigenvalues --  -20.68390 -15.67742 -15.67691 -11.36674 -11.36657
 Alpha  occ. eigenvalues --   -1.49383  -1.27781  -1.12105  -0.90133  -0.85552
 Alpha  occ. eigenvalues --   -0.77739  -0.70849  -0.66596  -0.63886  -0.50415
 Alpha  occ. eigenvalues --   -0.50063  -0.46435  -0.40230
 Alpha virt. eigenvalues --    0.03038   0.03668   0.07059   0.08725   0.09734
 Alpha virt. eigenvalues --    0.10688   0.11390   0.13784   0.14959   0.15450
 Alpha virt. eigenvalues --    0.17347   0.18388   0.18778   0.21114   0.21722

 Mulliken charges:
               1
     1  O   -0.452532
     2  C    0.730994
     3  N   -0.338906
     4  N   -0.338906
     5  C    0.730994
     6  H   -0.165822
     7  H   -0.165822
 Sum of Mulliken charges =  -0.00000

 Dipole moment (field-independent basis, Debye):
    X=             -0.0000    Y=             -0.0000    Z=              3.0885  Tot=              3.0885

 Test job not archived.
 1\1\GINC-SE164\SP\RHF\Aug-CC-pVDZ\C2H2N2O1\OHZDE\05-Apr-2025\0\\#t hf
 aug-cc-pvdz iop(5/13=1,5/36=2,99/5=2) pseudo=read geom=check guess=(re
 ad,tcheck) scf=(maxcycle=1)\\title\\0,1\O,0,0.,0.,1.12378\C,0,0.,1.052
 759,0.266386\N,0,0.,0.701433,-0.967868\N,0,0.,-0.701433,-0.967868\C,0,
 0.,-1.052759,0.266386\H,0,0.,2.044558,0.681643\H,0,0.,-2.044558,0.6816
 43\\Version=ES64L-G16RevC.01\State=1-A1\HF=-260.7284274\RMSD=2.361e-03
 \Dipole=0.,0.,1.2151267\Quadrupole=-0.2731051,4.3570525,-4.0839474,0.,
 0.,0.\PG=C02V [C2(O1),SGV(C2H2N2)]\\@

 Normal termination of Gaussian 16 at Sat Apr  5 22:08:42 2025.
