 Gaussian 16, Revision C.01,

 ----------------------------------------------------------------------
 #t hf aug-cc-pvdz symm=none int=(grid=ultrafine) guess=(read,tcheck) s
 table=(opt,rrhf)
 ----------------------------------------------------------------------
 -----
 title
 -----
 Symbolic Z-matrix:
 Charge =  0 Multiplicity = 1

 SCF Done:  E(RHF) =  -1039.74696310     A.U. after   14 cycles
 Normal termination of Gaussian 16 at Sat Apr  5 22:10:10 2025.
 Gaussian 16:  ES64L-G16RevC.01  3-Jul-2019

 ----------------------------------------------------------------------
 #t hf aug-cc-pvdz iop(5/13=1,5/36=2,99/5=2) pseudo=read geom=check gue
 ss=(read,tcheck) scf=(maxcycle=1)
 ----------------------------------------------------------------------
 -----
 title
 -----
 Structure from the checkpoint file:  "1-3-oxazolidine-2-5-dithione.chk"
 Charge =  0 Multiplicity = 1

                         Standard orientation:
 ---------------------------------------------------------------------
 Center     Atomic      Atomic             Coordinates (Angstroms)
 Number     Number       Type             X           Y           Z
 ---------------------------------------------------------------------
      1         16           0       -2.641922   -0.576015    0.000004
      2         16           0        2.636269   -0.592371   -0.000006
      3          8           0        0.011190   -0.739778   -0.000001
      4          7           0       -0.727198    1.331855    0.000004
      5          6           0       -1.137706    0.051692    0.000002
      6          6           0        1.141741    0.018753   -0.000002
      7          6           0        0.712543    1.468811    0.000000
      8          1           0       -1.390465    2.086210    0.000006
      9          1           0        1.091158    1.983830    0.885264
     10          1           0        1.091154    1.983833   -0.885262
 ---------------------------------------------------------------------

 SCF Done:  E(RHF) =  -1039.85857261     A.U. after    2 cycles

 The electronic state is 1-A.
 Alpha  occ. eigenvalues --  -93.53780 -93.51045 -20.68859 -15.71204 -11.44569
 Alpha  occ. eigenvalues --  -11.42521 -11.34637  -8.83715  -8.81013  -6.17956
 Alpha  occ. eigenvalues --   -6.17467  -6.17260  -6.15282  -6.14706  -6.14594
 Alpha  occ. eigenvalues --   -1.48437  -1.27400  -1.13070  -1.01720  -0.97398
 Alpha  occ. eigenvalues --   -0.87954  -0.85648  -0.73635  -0.71817  -0.69310
 Alpha  occ. eigenvalues --   -0.64317  -0.63089  -0.56422  -0.54887  -0.53000
 Alpha  occ. eigenvalues --   -0.40033  -0.37560  -0.36030  -0.35608
 Alpha virt. eigenvalues --    0.01942   0.03138   0.04441   0.04788   0.06594
 Alpha virt. eigenvalues --    0.07931   0.08833   0.09546   0.10881   0.12067
 Alpha virt. eigenvalues --    0.12143   0.13032   0.13755   0.14090   0.14678

 Mulliken charges:
               1
     1  S    0.119544
     2  S    0.120190
     3  O   -0.643779
     4  N   -0.287464
     5  C    0.250389
     6  C   -0.097281
     7  C    0.637127
     8  H   -0.080980
     9  H   -0.008870
    10  H   -0.008875
 Sum of Mulliken charges =  -0.00000

 Dipole moment (field-independent basis, Debye):
    X=              1.1265    Y=              5.3471    Z=              0.0000  Tot=              5.4645

 Test job not archived.
 1\1\GINC-SE165\SP\RHF\Aug-CC-pVDZ\C3H3N1O1S2\OHZDE\05-Apr-2025\0\\#t h
 f aug-cc-pvdz iop(5/13=1,5/36=2,99/5=2) pseudo=read geom=check guess=(
 read,tcheck) scf=(maxcycle=1)\\title\\0,1\S,0,-2.641922,-0.576015,0.00
 0004\S,0,2.636269,-0.592371,-0.000006\O,0,0.01119,-0.739778,-0.000001\
 N,0,-0.727198,1.331855,0.000004\C,0,-1.137706,0.051692,0.000002\C,0,1.
 141741,0.018753,-0.000002\C,0,0.712543,1.468811,0.\H,0,-1.390465,2.086
 21,0.000006\H,0,1.091158,1.98383,0.885264\H,0,1.091154,1.983833,-0.885
 262\\Version=ES64L-G16RevC.01\State=1-A\HF=-1039.8585726\RMSD=7.243e-0

 Normal termination of Gaussian 16 at Sat Apr  5 22:10:43 2025.
