 Gaussian 16, Revision C.01,

 ----------------------------------------------------------------------
 #t hf aug-cc-pvdz symm=none int=(grid=ultrafine) guess=(read,tcheck) s
 table=(opt,rrhf)
 ----------------------------------------------------------------------
 -----
 title
 -----
 Symbolic Z-matrix:
 Charge =  0 Multiplicity = 1

 SCF Done:  E(RHF) =  -1056.58362928     A.U. after   16 cycles
 Normal termination of Gaussian 16 at Sat Apr  5 22:10:10 2025.
 Gaussian 16:  ES64L-G16RevC.01  3-Jul-2019

 ----------------------------------------------------------------------
 #t hf aug-cc-pvdz iop(5/13=1,5/36=2,99/5=2) pseudo=read geom=check gue
 ss=(read,tcheck) scf=(maxcycle=1)
 ----------------------------------------------------------------------
 -----
 title
 -----
 Structure from the checkpoint file:  "1-3-thiazol-2-yl_thiocyanate.chk"
 Charge =  0 Multiplicity = 1

                         Standard orientation:
 ---------------------------------------------------------------------
 Center     Atomic      Atomic             Coordinates (Angstroms)
 Number     Number       Type             X           Y           Z
 ---------------------------------------------------------------------
      1         16           0       -0.684744    1.213061   -0.000080
      2         16           0        1.377318   -1.154886    0.000075
      3          7           0       -1.268379   -1.298952    0.000129
      4          7           0        2.990519    1.193133   -0.000175
      5          6           0       -0.269821   -0.479529    0.000045
      6          6           0       -2.349814    0.743056   -0.000014
      7          6           0       -2.455845   -0.611093    0.000096
      8          6           0        2.305403    0.262740   -0.000076
      9          1           0       -3.132667    1.481541   -0.000061
     10          1           0       -3.383034   -1.162635    0.000156
 ---------------------------------------------------------------------

 SCF Done:  E(RHF) =  -1056.70222463     A.U. after    2 cycles

 The electronic state is 1-A.
 Alpha  occ. eigenvalues --  -93.63159 -93.60584 -15.67132 -15.66586 -11.38135
 Alpha  occ. eigenvalues --  -11.32786 -11.30563 -11.29939  -8.92778  -8.90383
 Alpha  occ. eigenvalues --   -6.26990  -6.26714  -6.26289  -6.24473  -6.24348
 Alpha  occ. eigenvalues --   -6.23975  -1.29408  -1.22198  -1.09962  -1.07884
 Alpha  occ. eigenvalues --   -0.99389  -0.83497  -0.78103  -0.72748  -0.66463
 Alpha  occ. eigenvalues --   -0.62046  -0.60771  -0.57905  -0.55634  -0.54254
 Alpha  occ. eigenvalues --   -0.52878  -0.48982  -0.45122  -0.44161  -0.40854
 Alpha  occ. eigenvalues --   -0.34959
 Alpha virt. eigenvalues --    0.02802   0.04285   0.05860   0.06846   0.07957
 Alpha virt. eigenvalues --    0.08197   0.08898   0.09621   0.10753   0.11568
 Alpha virt. eigenvalues --    0.11854   0.12391   0.12769   0.13179   0.13249

 Mulliken charges:
               1
     1  S    0.497489
     2  S    0.836160
     3  N   -0.440168
     4  N   -0.179797
     5  C   -0.532016
     6  C    0.015506
     7  C    0.816610
     8  C   -0.384949
     9  H   -0.380522
    10  H   -0.248314
 Sum of Mulliken charges =  -0.00000

 Dipole moment (field-independent basis, Debye):
    X=             -3.4470    Y=             -0.3221    Z=              0.0001  Tot=              3.4620

 Test job not archived.
 1\1\GINC-SE187\SP\RHF\Aug-CC-pVDZ\C4H2N2S2\OHZDE\05-Apr-2025\0\\#t hf
 aug-cc-pvdz iop(5/13=1,5/36=2,99/5=2) pseudo=read geom=check guess=(re
 ad,tcheck) scf=(maxcycle=1)\\title\\0,1\S,0,-0.684744,1.213061,-0.0000
 8\S,0,1.377318,-1.154886,0.000075\N,0,-1.268379,-1.298952,0.000129\N,0
 ,2.990519,1.193133,-0.000175\C,0,-0.269821,-0.479529,0.000045\C,0,-2.3
 49814,0.743056,-0.000014\C,0,-2.455845,-0.611093,0.000096\C,0,2.305403
 ,0.26274,-0.000076\H,0,-3.132667,1.481541,-0.000061\H,0,-3.383034,-1.1
 62635,0.000156\\Version=ES64L-G16RevC.01\State=1-A\HF=-1056.7022246\RM

 Normal termination of Gaussian 16 at Sat Apr  5 22:10:43 2025.
