 Gaussian 16, Revision C.01,

 ----------------------------------------------------------------------
 #t hf aug-cc-pvdz symm=none int=(grid=ultrafine) guess=(read,tcheck) s
 table=(opt,rrhf)
 ----------------------------------------------------------------------
 -----
 title
 -----
 Symbolic Z-matrix:
 Charge =  0 Multiplicity = 1

 SCF Done:  E(RHF) =  -461.475034271     A.U. after   17 cycles
 Normal termination of Gaussian 16 at Sat Apr  5 22:14:38 2025.
 Gaussian 16:  ES64L-G16RevC.01  3-Jul-2019

 ----------------------------------------------------------------------
 #t hf aug-cc-pvdz iop(5/13=1,5/36=2,99/5=2) pseudo=read geom=check gue
 ss=(read,tcheck) scf=(maxcycle=1)
 ----------------------------------------------------------------------
 -----
 title
 -----
 Structure from the checkpoint file:  "1-3-dimethylnaphthalene.chk"
 Charge =  0 Multiplicity = 1

                         Standard orientation:
 ---------------------------------------------------------------------
 Center     Atomic      Atomic             Coordinates (Angstroms)
 Number     Number       Type             X           Y           Z
 ---------------------------------------------------------------------
      1          6           0        2.773055    1.261111    0.000000
      2          6           0        1.856389    2.329988    0.000000
      3          6           0        2.317617   -0.031831    0.000000
      4          6           0        0.505981    2.084632    0.000000
      5          6           0        0.453695   -1.652390    0.000000
      6          6           0       -1.801003   -0.844292    0.000000
      7          6           0        0.931909   -0.319067    0.000000
      8          6           0        0.000000    0.762178    0.000000
      9          6           0       -0.887961   -1.928786    0.000000
     10          6           0       -1.398841    0.467661    0.000000
     11          6           0       -1.410513   -3.339932    0.000000
     12          6           0       -2.419621    1.574311    0.000000
     13          1           0        3.835851    1.463645    0.000000
     14          1           0        2.220247    3.348890    0.000000
     15          1           0        3.018072   -0.857766    0.000000
     16          1           0       -0.183202    2.916945    0.000000
     17          1           0        1.175542   -2.460565    0.000000
     18          1           0       -2.862447   -1.065376    0.000000
     19          1           0       -2.031880   -3.530639    0.877960
     20          1           0       -2.031880   -3.530639   -0.877960
     21          1           0       -0.598144   -4.065331    0.000000
     22          1           0       -2.318622    2.216328    0.878002
     23          1           0       -2.318622    2.216328   -0.878002
     24          1           0       -3.429158    1.166683    0.000000
 ---------------------------------------------------------------------

 SCF Done:  E(RHF) =  -461.610498087     A.U. after    2 cycles

 The electronic state is 1-A'.
 Alpha  occ. eigenvalues --  -11.25151 -11.24816 -11.24791 -11.24445 -11.24212
 Alpha  occ. eigenvalues --  -11.24156 -11.24038 -11.23981 -11.23431 -11.23366
 Alpha  occ. eigenvalues --  -11.23350 -11.23227  -1.16668  -1.10819  -1.06217
 Alpha  occ. eigenvalues --   -1.02020  -0.99489  -0.94166  -0.92437  -0.84483
 Alpha  occ. eigenvalues --   -0.82027  -0.78606  -0.70571  -0.69746  -0.66659
 Alpha  occ. eigenvalues --   -0.62433  -0.60753  -0.58717  -0.58716  -0.57924
 Alpha  occ. eigenvalues --   -0.57250  -0.55647  -0.54848  -0.53406  -0.51841
 Alpha  occ. eigenvalues --   -0.51451  -0.48301  -0.47041  -0.43762  -0.37767
 Alpha  occ. eigenvalues --   -0.31555  -0.28523
 Alpha virt. eigenvalues --    0.03389   0.03556   0.03720   0.04989   0.05219
 Alpha virt. eigenvalues --    0.05505   0.06605   0.06673   0.06984   0.08116
 Alpha virt. eigenvalues --    0.08221   0.08977   0.10100   0.10138   0.10651

 Mulliken charges:
               1
     1  C    0.095499
     2  C    0.071725
     3  C    0.841718
     4  C    0.259609
     5  C    1.097549
     6  C    0.465455
     7  C    0.097652
     8  C    0.129616
     9  C   -0.827352
    10  C   -0.131014
    11  C    0.495421
    12  C    0.648309
    13  H   -0.460676
    14  H   -0.478400
    15  H   -0.576840
    16  H   -0.728412
    17  H   -0.600070
    18  H   -0.656887
    19  H    0.132228
    20  H    0.132228
    21  H   -0.183105
    22  H    0.212511
    23  H    0.212511
    24  H   -0.249272
 Sum of Mulliken charges =  -0.00000

 Dipole moment (field-independent basis, Debye):
    X=             -0.5492    Y=             -0.1356    Z=             -0.0000  Tot=              0.5657

 Test job not archived.
 1\1\GINC-SE194\SP\RHF\Aug-CC-pVDZ\C12H12\OHZDE\05-Apr-2025\0\\#t hf au
 g-cc-pvdz iop(5/13=1,5/36=2,99/5=2) pseudo=read geom=check guess=(read
 ,tcheck) scf=(maxcycle=1)\\title\\0,1\C,0,2.773055,1.261111,0.\C,0,1.8
 56389,2.329988,0.\C,0,2.317617,-0.031831,0.\C,0,0.505981,2.084632,0.\C
 ,0,0.453695,-1.65239,0.\C,0,-1.801003,-0.844292,0.\C,0,0.931909,-0.319
 067,0.\C,0,0.,0.762178,0.\C,0,-0.887961,-1.928786,0.\C,0,-1.398841,0.4
 67661,0.\C,0,-1.410513,-3.339932,0.\C,0,-2.419621,1.574311,0.\H,0,3.83
 5851,1.463645,0.\H,0,2.220247,3.34889,0.\H,0,3.018072,-0.857766,0.\H,0

 Normal termination of Gaussian 16 at Sat Apr  5 22:16:50 2025.
