 Gaussian 16, Revision C.01,

 ----------------------------------------------------------------------
 #t hf aug-cc-pvdz symm=none int=(grid=ultrafine) guess=(read,tcheck) s
 table=(opt,rrhf)
 ----------------------------------------------------------------------
 -----
 title
 -----
 Symbolic Z-matrix:
 Charge =  0 Multiplicity = 1

 SCF Done:  E(RHF) =  -527.318600291     A.U. after   13 cycles
 Normal termination of Gaussian 16 at Sat Apr  5 22:08:55 2025.
 Gaussian 16:  ES64L-G16RevC.01  3-Jul-2019

 ----------------------------------------------------------------------
 #t hf aug-cc-pvdz iop(5/13=1,5/36=2,99/5=2) pseudo=read geom=check gue
 ss=(read,tcheck) scf=(maxcycle=1)
 ----------------------------------------------------------------------
 -----
 title
 -----
 Structure from the checkpoint file:  "1-3-5-trifluorobenzene.chk"
 Charge =  0 Multiplicity = 1

                         Standard orientation:
 ---------------------------------------------------------------------
 Center     Atomic      Atomic             Coordinates (Angstroms)
 Number     Number       Type             X           Y           Z
 ---------------------------------------------------------------------
      1          6           0       -0.000000    0.000000    1.361787
      2          6           0        0.000000    1.217446    0.702893
      3          6           0       -0.000000   -1.217446    0.702893
      4          6           0        0.000000    1.179342   -0.680894
      5          6           0       -0.000000   -1.179342   -0.680894
      6          6           0        0.000000   -0.000000   -1.405786
      7          9           0        0.000000    2.344663   -1.353692
      8          9           0       -0.000000   -2.344663   -1.353692
      9          1           0        0.000000    2.151626    1.242242
     10          1           0       -0.000000   -2.151626    1.242242
     11          9           0       -0.000000    0.000000    2.707384
     12          1           0        0.000000    0.000000   -2.484484
 ---------------------------------------------------------------------

 SCF Done:  E(RHF) =  -527.494825294     A.U. after    2 cycles

 The electronic state is 1-A1.
 Alpha  occ. eigenvalues --  -26.15867 -26.15864 -26.15864 -11.37560 -11.37560
 Alpha  occ. eigenvalues --  -11.37559 -11.27237 -11.27237 -11.27236  -1.69868
 Alpha  occ. eigenvalues --   -1.69833  -1.69833  -1.19619  -1.06429  -1.06429
 Alpha  occ. eigenvalues --   -0.91948  -0.91948  -0.85659  -0.81866  -0.77747
 Alpha  occ. eigenvalues --   -0.77145  -0.77145  -0.77041  -0.77041  -0.72382
 Alpha  occ. eigenvalues --   -0.70602  -0.70602  -0.62190  -0.58654  -0.58654
 Alpha  occ. eigenvalues --   -0.53998  -0.37655  -0.37655
 Alpha virt. eigenvalues --    0.03543   0.04357   0.04357   0.08775   0.08775
 Alpha virt. eigenvalues --    0.09409   0.09409   0.10300   0.10624   0.13650
 Alpha virt. eigenvalues --    0.13650   0.13926   0.13926   0.14203   0.14559

 Mulliken charges:
               1
     1  C    0.253975
     2  C    0.434834
     3  C    0.434834
     4  C    0.253974
     5  C    0.253974
     6  C    0.434837
     7  F   -0.320346
     8  F   -0.320346
     9  H   -0.368463
    10  H   -0.368463
    11  F   -0.320347
    12  H   -0.368463
 Sum of Mulliken charges =  -0.00000

 Dipole moment (field-independent basis, Debye):
    X=              0.0000    Y=              0.0000    Z=             -0.0000  Tot=              0.0000

 Test job not archived.
 1\1\GINC-SE194\SP\RHF\Aug-CC-pVDZ\C6H3F3\OHZDE\05-Apr-2025\0\\#t hf au
 g-cc-pvdz iop(5/13=1,5/36=2,99/5=2) pseudo=read geom=check guess=(read
 ,tcheck) scf=(maxcycle=1)\\title\\0,1\C,0,0.,1.361787,0.\C,0,-1.217446
 ,0.702893,0.\C,0,1.217446,0.702893,0.\C,0,-1.179342,-0.680894,0.\C,0,1
 .179342,-0.680894,0.\C,0,0.,-1.405786,0.\F,0,-2.344663,-1.353692,0.\F,
 0,2.344663,-1.353692,0.\H,0,-2.151626,1.242242,0.\H,0,2.151626,1.24224
 2,0.\F,0,0.,2.707384,0.\H,0,0.,-2.484484,0.\\Version=ES64L-G16RevC.01\
 State=1-A1\HF=-527.4948253\RMSD=2.252e-02\Dipole=0.,-0.0000023,0.\Quad

 Normal termination of Gaussian 16 at Sat Apr  5 22:09:45 2025.
