 Gaussian 16, Revision C.01,

 ----------------------------------------------------------------------
 #t hf aug-cc-pvdz symm=none int=(grid=ultrafine) guess=(read,tcheck) s
 table=(opt,rrhf)
 ----------------------------------------------------------------------
 -----
 title
 -----
 Symbolic Z-matrix:
 Charge =  0 Multiplicity = 1

 SCF Done:  E(RHF) =  -702.810429407     A.U. after   13 cycles
 Normal termination of Gaussian 16 at Sat Apr  5 22:11:14 2025.
 Gaussian 16:  ES64L-G16RevC.01  3-Jul-2019

 ----------------------------------------------------------------------
 #t hf aug-cc-pvdz iop(5/13=1,5/36=2,99/5=2) pseudo=read geom=check gue
 ss=(read,tcheck) scf=(maxcycle=1)
 ----------------------------------------------------------------------
 -----
 title
 -----
 Structure from the checkpoint file:  "1-3-diethylthiourea.chk"
 Charge =  0 Multiplicity = 1

                         Standard orientation:
 ---------------------------------------------------------------------
 Center     Atomic      Atomic             Coordinates (Angstroms)
 Number     Number       Type             X           Y           Z
 ---------------------------------------------------------------------
      1          6           0       -0.000000   -0.000000   -0.140930
      2         16           0        0.000000    0.000000    1.541614
      3          7           0       -0.517952   -1.016530   -0.880814
      4          7           0        0.517952    1.016530   -0.880814
      5          6           0       -1.052435   -2.261346   -0.344065
      6          6           0        1.052435    2.261346   -0.344065
      7          1           0        1.838995    2.593560   -1.024235
      8          1           0        1.512770    2.026931    0.612762
      9          6           0       -0.000000    3.353187   -0.170351
     10          1           0       -1.838995   -2.593560   -1.024235
     11          1           0       -1.512770   -2.026931    0.612762
     12          6           0       -0.000000   -3.353187   -0.170351
     13          1           0        0.475134   -3.601948   -1.121155
     14          1           0       -0.461950   -4.260562    0.222206
     15          1           0        0.769069   -3.029798    0.529468
     16          1           0        0.461950    4.260562    0.222206
     17          1           0       -0.769069    3.029798    0.529468
     18          1           0       -0.475134    3.601948   -1.121155
     19          1           0       -0.367821   -0.990573   -1.876978
     20          1           0        0.367821    0.990573   -1.876978
 ---------------------------------------------------------------------

 SCF Done:  E(RHF) =  -702.924134905     A.U. after    2 cycles

 The electronic state is 1-A.
 Alpha  occ. eigenvalues --  -93.45976 -15.66004 -15.65998 -11.38085 -11.27502
 Alpha  occ. eigenvalues --  -11.27502 -11.22647 -11.22647  -8.75935  -6.10205
 Alpha  occ. eigenvalues --   -6.09645  -6.09628  -1.27708  -1.18597  -1.03766
 Alpha  occ. eigenvalues --   -0.99175  -0.95741  -0.88024  -0.83970  -0.76216
 Alpha  occ. eigenvalues --   -0.75528  -0.67321  -0.63273  -0.61371  -0.60247
 Alpha  occ. eigenvalues --   -0.59027  -0.57597  -0.53212  -0.52347  -0.51050
 Alpha  occ. eigenvalues --   -0.50064  -0.49645  -0.48572  -0.38188  -0.31436
 Alpha  occ. eigenvalues --   -0.31140
 Alpha virt. eigenvalues --    0.02143   0.03527   0.03965   0.04642   0.05949
 Alpha virt. eigenvalues --    0.05960   0.06581   0.07397   0.07899   0.08792
 Alpha virt. eigenvalues --    0.09127   0.09538   0.10908   0.10964   0.13400

 Mulliken charges:
               1
     1  C    0.386756
     2  S   -0.238733
     3  N   -0.288304
     4  N   -0.288304
     5  C    0.487785
     6  C    0.487785
     7  H   -0.236343
     8  H   -0.157449
     9  C    0.418562
    10  H   -0.236343
    11  H   -0.157449
    12  C    0.418562
    13  H   -0.084733
    14  H   -0.045552
    15  H   -0.056480
    16  H   -0.045552
    17  H   -0.056480
    18  H   -0.084733
    19  H   -0.111497
    20  H   -0.111497
 Sum of Mulliken charges =  -0.00000

 Dipole moment (field-independent basis, Debye):
    X=             -0.0000    Y=             -0.0000    Z=             -5.2698  Tot=              5.2698

 Test job not archived.
 1\1\GINC-SE053\SP\RHF\Aug-CC-pVDZ\C5H12N2S1\OHZDE\05-Apr-2025\0\\#t hf
  aug-cc-pvdz iop(5/13=1,5/36=2,99/5=2) pseudo=read geom=check guess=(r
 ead,tcheck) scf=(maxcycle=1)\\title\\0,1\C,0,0.,0.,-0.14093\S,0,0.,0.,
 1.541614\N,0,-0.517952,-1.01653,-0.880814\N,0,0.517952,1.01653,-0.8808
 14\C,0,-1.052435,-2.261346,-0.344065\C,0,1.052435,2.261346,-0.344065\H
 ,0,1.838995,2.59356,-1.024235\H,0,1.51277,2.026931,0.612762\C,0,0.,3.3
 53187,-0.170351\H,0,-1.838995,-2.59356,-1.024235\H,0,-1.51277,-2.02693
 1,0.612762\C,0,0.,-3.353187,-0.170351\H,0,0.475134,-3.601948,-1.121155

 Normal termination of Gaussian 16 at Sat Apr  5 22:11:50 2025.
