 Gaussian 16, Revision C.01,

 ----------------------------------------------------------------------
 #t hf aug-cc-pvdz symm=none int=(grid=ultrafine) guess=(read,tcheck) s
 table=(opt,rrhf)
 ----------------------------------------------------------------------
 -----
 title
 -----
 Symbolic Z-matrix:
 Charge =  0 Multiplicity = 1

 SCF Done:  E(RHF) =  -406.463809692     A.U. after   15 cycles
 Normal termination of Gaussian 16 at Sat Apr  5 22:10:37 2025.
 Gaussian 16:  ES64L-G16RevC.01  3-Jul-2019

 ----------------------------------------------------------------------
 #t hf aug-cc-pvdz iop(5/13=1,5/36=2,99/5=2) pseudo=read geom=check gue
 ss=(read,tcheck) scf=(maxcycle=1)
 ----------------------------------------------------------------------
 -----
 title
 -----
 Structure from the checkpoint file:  "1-3-difluoropyrrole.chk"
 Charge =  0 Multiplicity = 1

                         Standard orientation:
 ---------------------------------------------------------------------
 Center     Atomic      Atomic             Coordinates (Angstroms)
 Number     Number       Type             X           Y           Z
 ---------------------------------------------------------------------
      1          9           0        2.330214   -0.536042    0.000001
      2          9           0       -2.393334   -0.522974   -0.000003
      3          7           0        1.036400   -0.102187   -0.000000
      4          6           0       -1.116301   -0.113298   -0.000000
      5          6           0       -0.028009   -0.957326   -0.000003
      6          6           0        0.691209    1.205519    0.000003
      7          6           0       -0.693561    1.228172    0.000003
      8          1           0        0.078795   -2.024555   -0.000006
      9          1           0        1.428370    1.986186    0.000006
     10          1           0       -1.313902    2.106420    0.000004
 ---------------------------------------------------------------------

 SCF Done:  E(RHF) =  -406.597754940     A.U. after    2 cycles

 The electronic state is 1-A.
 Alpha  occ. eigenvalues --  -26.19761 -26.13946 -15.78263 -11.33583 -11.30345
 Alpha  occ. eigenvalues --  -11.29343 -11.25158  -1.72012  -1.67757  -1.29896
 Alpha  occ. eigenvalues --   -1.05777  -1.03061  -0.87724  -0.86240  -0.80804
 Alpha  occ. eigenvalues --   -0.79411  -0.77786  -0.75487  -0.74406  -0.69816
 Alpha  occ. eigenvalues --   -0.63396  -0.61726  -0.59552  -0.57046  -0.37295
 Alpha  occ. eigenvalues --   -0.33484
 Alpha virt. eigenvalues --    0.03435   0.04020   0.04688   0.08006   0.08926
 Alpha virt. eigenvalues --    0.09941   0.12101   0.12650   0.13164   0.13861
 Alpha virt. eigenvalues --    0.14099   0.14651   0.15219   0.16114   0.16610

 Mulliken charges:
               1
     1  F   -0.382087
     2  F   -0.268730
     3  N   -0.072950
     4  C    0.071254
     5  C    0.576091
     6  C    0.367967
     7  C    0.511476
     8  H   -0.249947
     9  H   -0.250537
    10  H   -0.302536
 Sum of Mulliken charges =  -0.00000

 Dipole moment (field-independent basis, Debye):
    X=              1.3482    Y=              0.9240    Z=              0.0000  Tot=              1.6345

 Test job not archived.
 1\1\GINC-SE104\SP\RHF\Aug-CC-pVDZ\C4H3F2N1\OHZDE\05-Apr-2025\0\\#t hf
 aug-cc-pvdz iop(5/13=1,5/36=2,99/5=2) pseudo=read geom=check guess=(re
 ad,tcheck) scf=(maxcycle=1)\\title\\0,1\F,0,2.330214,-0.536042,0.00000
 1\F,0,-2.393334,-0.522974,-0.000003\N,0,1.0364,-0.102187,0.\C,0,-1.116
 301,-0.113298,0.\C,0,-0.028009,-0.957326,-0.000003\C,0,0.691209,1.2055
 19,0.000003\C,0,-0.693561,1.228172,0.000003\H,0,0.078795,-2.024555,-0.
 000006\H,0,1.42837,1.986186,0.000006\H,0,-1.313902,2.10642,0.000004\\V
 ersion=ES64L-G16RevC.01\State=1-A\HF=-406.5977549\RMSD=1.124e-02\Dipol

 Normal termination of Gaussian 16 at Sat Apr  5 22:10:42 2025.
