 Gaussian 16, Revision C.01,

 ----------------------------------------------------------------------
 #t hf aug-cc-pvdz symm=none int=(grid=ultrafine) guess=(read,tcheck) s
 table=(opt,rrhf)
 ----------------------------------------------------------------------
 -----
 title
 -----
 Symbolic Z-matrix:
 Charge =  0 Multiplicity = 1

 SCF Done:  E(RHF) =  -227.763681665     A.U. after   10 cycles
 Normal termination of Gaussian 16 at Sat Apr  5 22:10:13 2025.
 Gaussian 16:  ES64L-G16RevC.01  3-Jul-2019

 ----------------------------------------------------------------------
 #t hf aug-cc-pvdz iop(5/13=1,5/36=2,99/5=2) pseudo=read geom=check gue
 ss=(read,tcheck) scf=(maxcycle=1)
 ----------------------------------------------------------------------
 -----
 title
 -----
 Structure from the checkpoint file:  "1-3-dioxetane.chk"
 Charge =  0 Multiplicity = 1

                         Standard orientation:
 ---------------------------------------------------------------------
 Center     Atomic      Atomic             Coordinates (Angstroms)
 Number     Number       Type             X           Y           Z
 ---------------------------------------------------------------------
      1          6           0       -0.985328    0.000000    0.000000
      2          6           0        0.985328   -0.000000    0.000000
      3          8           0        0.000000    1.035861    0.000000
      4          8           0       -0.000000   -1.035861    0.000000
      5          1           0       -1.603663    0.000000    0.903194
      6          1           0        1.603663   -0.000000    0.903194
      7          1           0       -1.603663    0.000000   -0.903194
      8          1           0        1.603663    0.000000   -0.903194
 ---------------------------------------------------------------------

 SCF Done:  E(RHF) =  -227.839321186     A.U. after    2 cycles

 The electronic state is 1-AG.
 Alpha  occ. eigenvalues --  -20.58953 -20.58942 -11.36043 -11.36021  -1.44327
 Alpha  occ. eigenvalues --   -1.26356  -0.97949  -0.82115  -0.74410  -0.72051
 Alpha  occ. eigenvalues --   -0.68709  -0.59886  -0.56711  -0.53270  -0.52094
 Alpha  occ. eigenvalues --   -0.43032
 Alpha virt. eigenvalues --    0.03667   0.04699   0.05132   0.06506   0.08252
 Alpha virt. eigenvalues --    0.10442   0.10902   0.14417   0.16128   0.16944
 Alpha virt. eigenvalues --    0.17925   0.19507   0.19524   0.22338   0.22715

 Mulliken charges:
               1
     1  C    1.066091
     2  C    1.066091
     3  O   -0.714136
     4  O   -0.714136
     5  H   -0.175978
     6  H   -0.175978
     7  H   -0.175978
     8  H   -0.175978
 Sum of Mulliken charges =  -0.00000

 Dipole moment (field-independent basis, Debye):
    X=             -0.0000    Y=             -0.0000    Z=              0.0000  Tot=              0.0000

 Test job not archived.
 1\1\GINC-SE085\SP\RHF\Aug-CC-pVDZ\C2H4O2\OHZDE\05-Apr-2025\0\\#t hf au
 g-cc-pvdz iop(5/13=1,5/36=2,99/5=2) pseudo=read geom=check guess=(read
 ,tcheck) scf=(maxcycle=1)\\title\\0,1\C,0,-0.985328,0.,0.\C,0,0.985328
 ,0.,0.\O,0,0.,1.035861,0.\O,0,0.,-1.035861,0.\H,0,-1.603663,0.,0.90319
 4\H,0,1.603663,0.,0.903194\H,0,-1.603663,0.,-0.903194\H,0,1.603663,0.,
 -0.903194\\Version=ES64L-G16RevC.01\State=1-AG\HF=-227.8393212\RMSD=3.
 271e-03\Dipole=0.,0.,0.\Quadrupole=4.0131028,-4.6147649,0.601662,0.,0.
 ,0.\PG=D02H [C2(C1.C1),C2'(O1.O1),SG'(H4)]\\@

 Normal termination of Gaussian 16 at Sat Apr  5 22:10:40 2025.
