 Gaussian 16, Revision C.01,

 ----------------------------------------------------------------------
 #t hf aug-cc-pvdz symm=none int=(grid=ultrafine) guess=(read,tcheck) s
 table=(opt,rrhf)
 ----------------------------------------------------------------------
 -----
 title
 -----
 Symbolic Z-matrix:
 Charge =  0 Multiplicity = 1

 SCF Done:  E(RHF) =  -1239.62421238     A.U. after   15 cycles
 Normal termination of Gaussian 16 at Sat Apr  5 22:10:23 2025.
 Gaussian 16:  ES64L-G16RevC.01  3-Jul-2019

 ----------------------------------------------------------------------
 #t hf aug-cc-pvdz iop(5/13=1,5/36=2,99/5=2) pseudo=read geom=check gue
 ss=(read,tcheck) scf=(maxcycle=1)
 ----------------------------------------------------------------------
 -----
 title
 -----
 Structure from the checkpoint file:  "1-3-dichloronitropropane.chk"
 Charge =  0 Multiplicity = 1

                         Standard orientation:
 ---------------------------------------------------------------------
 Center     Atomic      Atomic             Coordinates (Angstroms)
 Number     Number       Type             X           Y           Z
 ---------------------------------------------------------------------
      1         17           0        1.969671   -1.392624   -0.227155
      2         17           0       -2.726372   -0.166639   -0.549480
      3          8           0        1.299667    1.497740    1.060977
      4          8           0        1.142038    1.750743   -1.088218
      5          7           0        1.039851    1.108331   -0.061878
      6          6           0        0.528061   -0.332445   -0.214217
      7          6           0       -0.425033   -0.704823    0.900645
      8          6           0       -1.706486    0.113665    0.924971
      9          1           0        0.086211   -0.366790   -1.201970
     10          1           0       -0.662786   -1.761718    0.786146
     11          1           0        0.086276   -0.577124    1.855350
     12          1           0       -2.317628   -0.174091    1.774333
     13          1           0       -1.520016    1.182620    0.971618
 ---------------------------------------------------------------------

 SCF Done:  E(RHF) =  -1239.75819415     A.U. after    2 cycles

 The electronic state is 1-A.
 Alpha  occ. eigenvalues -- -103.69888-103.67198 -20.64331 -20.64005 -15.93534
 Alpha  occ. eigenvalues --  -11.39967 -11.33650 -11.29743 -10.73141 -10.70476
 Alpha  occ. eigenvalues --   -8.38870  -8.38554  -8.38537  -8.36192  -8.35912
 Alpha  occ. eigenvalues --   -8.35897  -1.57514  -1.39334  -1.23021  -1.18654
 Alpha  occ. eigenvalues --   -1.09244  -1.01643  -0.90851  -0.84501  -0.78541
 Alpha  occ. eigenvalues --   -0.75959  -0.75347  -0.69009  -0.66774  -0.62822
 Alpha  occ. eigenvalues --   -0.59664  -0.58079  -0.54307  -0.54042  -0.53277
 Alpha  occ. eigenvalues --   -0.50267  -0.49030  -0.48833  -0.46954  -0.46747
 Alpha virt. eigenvalues --    0.02985   0.04359   0.04578   0.05226   0.05871
 Alpha virt. eigenvalues --    0.06971   0.08351   0.08878   0.11109   0.12383
 Alpha virt. eigenvalues --    0.12945   0.14028   0.14626   0.15081   0.15808

 Mulliken charges:
               1
     1  Cl  -0.079848
     2  Cl  -0.131197
     3  O   -0.592434
     4  O   -0.557187
     5  N    0.392861
     6  C    0.649223
     7  C    0.209142
     8  C    0.110099
     9  H   -0.116980
    10  H   -0.037676
    11  H    0.066301
    12  H    0.051258
    13  H    0.036438
 Sum of Mulliken charges =   0.00000

 Dipole moment (field-independent basis, Debye):
    X=             -1.6742    Y=             -2.5862    Z=              1.8093  Tot=              3.5728

 Test job not archived.
 1\1\GINC-SE036\SP\RHF\Aug-CC-pVDZ\C3H5Cl2N1O2\OHZDE\05-Apr-2025\0\\#t
 hf aug-cc-pvdz iop(5/13=1,5/36=2,99/5=2) pseudo=read geom=check guess=
 (read,tcheck) scf=(maxcycle=1)\\title\\0,1\Cl,0,1.969671,-1.392624,-0.
 227155\Cl,0,-2.726372,-0.166639,-0.54948\O,0,1.299667,1.49774,1.060977
 \O,0,1.142038,1.750743,-1.088218\N,0,1.039851,1.108331,-0.061878\C,0,0
 .528061,-0.332445,-0.214217\C,0,-0.425033,-0.704823,0.900645\C,0,-1.70
 6486,0.113665,0.924971\H,0,0.086211,-0.36679,-1.20197\H,0,-0.662786,-1
 .761718,0.786146\H,0,0.086276,-0.577124,1.85535\H,0,-2.317628,-0.17409

 Normal termination of Gaussian 16 at Sat Apr  5 22:10:44 2025.
