 Gaussian 16, Revision C.01,

 ----------------------------------------------------------------------
 #t hf aug-cc-pvdz symm=none int=(grid=ultrafine) guess=(read,tcheck) s
 table=(opt,rrhf)
 ----------------------------------------------------------------------
 -----
 title
 -----
 Symbolic Z-matrix:
 Charge =  0 Multiplicity = 1

 SCF Done:  E(RHF) =  -1307.34420842     A.U. after   14 cycles
 Normal termination of Gaussian 16 at Sat Apr  5 22:10:38 2025.
 Gaussian 16:  ES64L-G16RevC.01  3-Jul-2019

 ----------------------------------------------------------------------
 #t hf aug-cc-pvdz iop(5/13=1,5/36=2,99/5=2) pseudo=read geom=check gue
 ss=(read,tcheck) scf=(maxcycle=1)
 ----------------------------------------------------------------------
 -----
 title
 -----
 Structure from the checkpoint file:  "1-3-dithiole-2-thione.chk"
 Charge =  0 Multiplicity = 1

                         Standard orientation:
 ---------------------------------------------------------------------
 Center     Atomic      Atomic             Coordinates (Angstroms)
 Number     Number       Type             X           Y           Z
 ---------------------------------------------------------------------
      1         16           0        0.000000    0.000000    2.271299
      2          6           0        0.000000    0.000000    0.630759
      3         16           0        0.000000    1.453602   -0.360432
      4          6           0        0.000000    0.668708   -1.915944
      5          6           0       -0.000000   -0.668708   -1.915944
      6         16           0       -0.000000   -1.453602   -0.360432
      7          1           0        0.000000    1.287666   -2.800087
      8          1           0       -0.000000   -1.287666   -2.800087
 ---------------------------------------------------------------------

 SCF Done:  E(RHF) =  -1307.43945071     A.U. after    2 cycles

 The electronic state is 1-A1.
 Alpha  occ. eigenvalues --  -93.59914 -93.59909 -93.51331 -11.39198 -11.31378
 Alpha  occ. eigenvalues --  -11.31217  -8.89758  -8.89745  -8.81240  -6.23869
 Alpha  occ. eigenvalues --   -6.23831  -6.23688  -6.23627  -6.23315  -6.23312
 Alpha  occ. eigenvalues --   -6.15440  -6.14947  -6.14796  -1.19089  -1.06703
 Alpha  occ. eigenvalues --   -1.02647  -0.93218  -0.79879  -0.73777  -0.69682
 Alpha  occ. eigenvalues --   -0.58696  -0.56466  -0.55228  -0.53144  -0.48064
 Alpha  occ. eigenvalues --   -0.43922  -0.42007  -0.34177  -0.31231
 Alpha virt. eigenvalues --    0.02596   0.03726   0.04042   0.06788   0.08320
 Alpha virt. eigenvalues --    0.08782   0.09245   0.10130   0.10795   0.11488
 Alpha virt. eigenvalues --    0.12123   0.13482   0.14210   0.14592   0.14715

 Mulliken charges:
               1
     1  S    0.062182
     2  C   -0.880378
     3  S    0.752320
     4  C    0.005667
     5  C    0.005667
     6  S    0.752320
     7  H   -0.348890
     8  H   -0.348890
 Sum of Mulliken charges =  -0.00000

 Dipole moment (field-independent basis, Debye):
    X=             -0.0000    Y=              0.0000    Z=             -4.9174  Tot=              4.9174

 Test job not archived.
 1\1\GINC-SE164\SP\RHF\Aug-CC-pVDZ\C3H2S3\OHZDE\05-Apr-2025\0\\#t hf au
 g-cc-pvdz iop(5/13=1,5/36=2,99/5=2) pseudo=read geom=check guess=(read
 ,tcheck) scf=(maxcycle=1)\\title\\0,1\S,0,0.,0.,2.271299\C,0,0.,0.,0.6
 30759\S,0,0.,1.453602,-0.360432\C,0,0.,0.668708,-1.915944\C,0,0.,-0.66
 8708,-1.915944\S,0,0.,-1.453602,-0.360432\H,0,0.,1.287666,-2.800087\H,
 0,0.,-1.287666,-2.800087\\Version=ES64L-G16RevC.01\State=1-A1\HF=-1307
 .4394507\RMSD=9.386e-03\Dipole=0.,0.,-1.9346585\Quadrupole=-2.7965037,
 0.8239315,1.9725721,0.,0.,0.\PG=C02V [C2(C1S1),SGV(C2H2S2)]\\@

 Normal termination of Gaussian 16 at Sat Apr  5 22:10:41 2025.
