 Gaussian 16, Revision C.01,

 ----------------------------------------------------------------------
 #t hf aug-cc-pvdz symm=none int=(grid=ultrafine) guess=(read,tcheck) s
 table=(opt,rrhf)
 ----------------------------------------------------------------------
 -----
 title
 -----
 Symbolic Z-matrix:
 Charge =  0 Multiplicity = 1

 SCF Done:  E(RHF) =  -340.581042747     A.U. after   13 cycles
 Normal termination of Gaussian 16 at Sat Apr  5 22:10:46 2025.
 Gaussian 16:  ES64L-G16RevC.01  3-Jul-2019

 ----------------------------------------------------------------------
 #t hf aug-cc-pvdz iop(5/13=1,5/36=2,99/5=2) pseudo=read geom=check gue
 ss=(read,tcheck) scf=(maxcycle=1)
 ----------------------------------------------------------------------
 -----
 title
 -----
 Structure from the checkpoint file:  "1-3-dioxolan-2-one.chk"
 Charge =  0 Multiplicity = 1

                         Standard orientation:
 ---------------------------------------------------------------------
 Center     Atomic      Atomic             Coordinates (Angstroms)
 Number     Number       Type             X           Y           Z
 ---------------------------------------------------------------------
      1          6           0        0.000000    0.000000    0.851993
      2          6           0       -0.168984    0.745968   -1.301801
      3          6           0        0.168984   -0.745968   -1.301801
      4          8           0        0.000000    0.000000    2.039757
      5          8           0       -0.000000    1.114456    0.074557
      6          8           0       -0.000000   -1.114456    0.074557
      7          1           0        0.504009    1.345920   -1.908473
      8          1           0       -1.201132    0.944052   -1.592185
      9          1           0       -0.504009   -1.345920   -1.908473
     10          1           0        1.201132   -0.944052   -1.592185
 ---------------------------------------------------------------------

 SCF Done:  E(RHF) =  -340.691574137     A.U. after    2 cycles

 The electronic state is 1-A.
 Alpha  occ. eigenvalues --  -20.64060 -20.64056 -20.56467 -11.45331 -11.33645
 Alpha  occ. eigenvalues --  -11.33592  -1.48400  -1.35972  -1.35861  -1.05756
 Alpha  occ. eigenvalues --   -0.92513  -0.84820  -0.76214  -0.73840  -0.70810
 Alpha  occ. eigenvalues --   -0.65590  -0.64505  -0.62876  -0.59152  -0.55615
 Alpha  occ. eigenvalues --   -0.50110  -0.49751  -0.49151
 Alpha virt. eigenvalues --    0.02425   0.03996   0.04244   0.05893   0.07336
 Alpha virt. eigenvalues --    0.10433   0.10898   0.11371   0.11661   0.13692
 Alpha virt. eigenvalues --    0.14189   0.14722   0.15395   0.16963   0.18234

 Mulliken charges:
               1
     1  C    0.743563
     2  C    0.717080
     3  C    0.717080
     4  O   -0.382554
     5  O   -0.582842
     6  O   -0.582842
     7  H   -0.139985
     8  H   -0.174757
     9  H   -0.139985
    10  H   -0.174757
 Sum of Mulliken charges =  -0.00000

 Dipole moment (field-independent basis, Debye):
    X=             -0.0000    Y=             -0.0000    Z=             -6.1972  Tot=              6.1972

 Test job not archived.
 1\1\GINC-SE115\SP\RHF\Aug-CC-pVDZ\C3H4O3\OHZDE\05-Apr-2025\0\\#t hf au
 g-cc-pvdz iop(5/13=1,5/36=2,99/5=2) pseudo=read geom=check guess=(read
 ,tcheck) scf=(maxcycle=1)\\title\\0,1\C,0,0.,0.,0.851993\C,0,-0.168984
 ,0.745968,-1.301801\C,0,0.168984,-0.745968,-1.301801\O,0,0.,0.,2.03975
 7\O,0,0.,1.114456,0.074557\O,0,0.,-1.114456,0.074557\H,0,0.504009,1.34
 592,-1.908473\H,0,-1.201132,0.944052,-1.592185\H,0,-0.504009,-1.34592,
 -1.908473\H,0,1.201132,-0.944052,-1.592185\\Version=ES64L-G16RevC.01\S
 tate=1-A\HF=-340.6915741\RMSD=3.688e-03\Dipole=0.,0.,-2.4381521\Quadru

 Normal termination of Gaussian 16 at Sat Apr  5 22:10:49 2025.
