 Gaussian 16, Revision C.01,

 ----------------------------------------------------------------------
 #t hf aug-cc-pvdz symm=none int=(grid=ultrafine) guess=(read,tcheck) s
 table=(opt,rrhf)
 ----------------------------------------------------------------------
 -----
 title
 -----
 Symbolic Z-matrix:
 Charge =  0 Multiplicity = 1

 SCF Done:  E(RHF) =  -278.733002129     A.U. after   11 cycles
 Normal termination of Gaussian 16 at Sat Apr  5 22:08:42 2025.
 Gaussian 16:  ES64L-G16RevC.01  3-Jul-2019

 ----------------------------------------------------------------------
 #t hf aug-cc-pvdz iop(5/13=1,5/36=2,99/5=2) pseudo=read geom=check gue
 ss=(read,tcheck) scf=(maxcycle=1)
 ----------------------------------------------------------------------
 -----
 title
 -----
 Structure from the checkpoint file:  "1-3-5-triazine.chk"
 Charge =  0 Multiplicity = 1

                         Standard orientation:
 ---------------------------------------------------------------------
 Center     Atomic      Atomic             Coordinates (Angstroms)
 Number     Number       Type             X           Y           Z
 ---------------------------------------------------------------------
      1          6           0        0.000000   -0.000000   -1.292045
      2          7           0        0.000000    1.184015   -0.683592
      3          7           0       -0.000000   -1.184015   -0.683592
      4          6           0        0.000000    1.118944    0.646022
      5          6           0       -0.000000   -1.118944    0.646022
      6          7           0       -0.000000    0.000000    1.367183
      7          1           0        0.000000   -0.000000   -2.376108
      8          1           0        0.000000   -2.057770    1.188054
      9          1           0        0.000000    2.057770    1.188054
 ---------------------------------------------------------------------

 SCF Done:  E(RHF) =  -278.812198603     A.U. after    2 cycles

 The electronic state is 1-A1.
 Alpha  occ. eigenvalues --  -15.65316 -15.65316 -15.65311 -11.35481 -11.35481
 Alpha  occ. eigenvalues --  -11.35462  -1.33696  -1.18759  -1.18759  -0.92942
 Alpha  occ. eigenvalues --   -0.92942  -0.76578  -0.74959  -0.61952  -0.61952
 Alpha  occ. eigenvalues --   -0.61448  -0.56580  -0.43851  -0.43851  -0.43493
 Alpha  occ. eigenvalues --   -0.43493
 Alpha virt. eigenvalues --    0.03605   0.04068   0.04068   0.06705   0.07912
 Alpha virt. eigenvalues --    0.07912   0.09950   0.09950   0.11121   0.12863
 Alpha virt. eigenvalues --    0.14515   0.14515   0.15785   0.15785   0.16444

 Mulliken charges:
               1
     1  C    0.665783
     2  N   -0.472050
     3  N   -0.472050
     4  C    0.665785
     5  C    0.665785
     6  N   -0.472052
     7  H   -0.193734
     8  H   -0.193733
     9  H   -0.193733
 Sum of Mulliken charges =  -0.00000

 Dipole moment (field-independent basis, Debye):
    X=             -0.0000    Y=              0.0000    Z=              0.0000  Tot=              0.0000

 Test job not archived.
 1\1\GINC-SE180\SP\RHF\Aug-CC-pVDZ\C3H3N3\OHZDE\05-Apr-2025\0\\#t hf au
 g-cc-pvdz iop(5/13=1,5/36=2,99/5=2) pseudo=read geom=check guess=(read
 ,tcheck) scf=(maxcycle=1)\\title\\0,1\C,0,0.,1.292045,0.\N,0,1.184015,
 0.683592,0.\N,0,-1.184015,0.683592,0.\C,0,1.118944,-0.646022,0.\C,0,-1
 .118944,-0.646022,0.\N,0,0.,-1.367183,0.\H,0,0.,2.376108,0.\H,0,-2.057
 77,-1.188054,0.\H,0,2.05777,-1.188054,0.\\Version=ES64L-G16RevC.01\Sta
 te=1-A1\HF=-278.8121986\RMSD=1.746e-03\Dipole=0.,0.,0.\Quadrupole=-0.0
 934339,-0.0934448,0.1868787,0.,0.,0.\PG=C02V [C2(H1C1N1),SGV(C2H2N2)]\

 Normal termination of Gaussian 16 at Sat Apr  5 22:08:45 2025.
