 Gaussian 16, Revision C.01,

 ----------------------------------------------------------------------
 #t hf aug-cc-pvdz symm=none int=(grid=ultrafine) guess=(read,tcheck) s
 table=(opt,rrhf)
 ----------------------------------------------------------------------
 -----
 title
 -----
 Symbolic Z-matrix:
 Charge =  0 Multiplicity = 1

 SCF Done:  E(RHF) =  -1040.54558815     A.U. after   16 cycles
 Normal termination of Gaussian 16 at Sat Apr  5 22:10:37 2025.
 Gaussian 16:  ES64L-G16RevC.01  3-Jul-2019

 ----------------------------------------------------------------------
 #t hf aug-cc-pvdz iop(5/13=1,5/36=2,99/5=2) pseudo=read geom=check gue
 ss=(read,tcheck) scf=(maxcycle=1)
 ----------------------------------------------------------------------
 -----
 title
 -----
 Structure from the checkpoint file:  "1-3-thiazol-5-ylacetylenethiol.chk"
 Charge =  0 Multiplicity = 1

                         Standard orientation:
 ---------------------------------------------------------------------
 Center     Atomic      Atomic             Coordinates (Angstroms)
 Number     Number       Type             X           Y           Z
 ---------------------------------------------------------------------
      1         16           0        1.614785   -1.191862    0.001186
      2         16           0       -3.692874   -0.024363   -0.096618
      3          7           0        2.742645    1.118425   -0.006729
      4          6           0        0.591906    0.228939    0.007977
      5          6           0        1.399557    1.341512    0.002099
      6          6           0        3.000380   -0.156035   -0.008147
      7          6           0       -0.807791    0.156773    0.016980
      8          6           0       -2.014959    0.076694    0.041513
      9          1           0        1.022687    2.352845    0.003954
     10          1           0        3.998149   -0.568105   -0.014777
     11          1           0       -3.984497   -0.041414    1.222310
 ---------------------------------------------------------------------

 SCF Done:  E(RHF) =  -1040.66154318     A.U. after    2 cycles

 The electronic state is 1-A.
 Alpha  occ. eigenvalues --  -93.59019 -93.58549 -15.65113 -11.33761 -11.30655
 Alpha  occ. eigenvalues --  -11.30136 -11.28059 -11.26775  -8.88836  -8.88147
 Alpha  occ. eigenvalues --   -6.22920  -6.22819  -6.22455  -6.22395  -6.22127
 Alpha  occ. eigenvalues --   -6.21737  -1.27294  -1.10466  -1.06061  -1.02137
 Alpha  occ. eigenvalues --   -0.97290  -0.84608  -0.79537  -0.73479  -0.66000
 Alpha  occ. eigenvalues --   -0.61941  -0.60801  -0.58313  -0.54279  -0.53115
 Alpha  occ. eigenvalues --   -0.47848  -0.45428  -0.44062  -0.39238  -0.35205
 Alpha  occ. eigenvalues --   -0.33414
 Alpha virt. eigenvalues --    0.03492   0.03670   0.04855   0.05742   0.07165
 Alpha virt. eigenvalues --    0.07510   0.08773   0.09075   0.09962   0.10799
 Alpha virt. eigenvalues --    0.11708   0.12443   0.13130   0.13640   0.14403

 Mulliken charges:
               1
     1  S    0.288928
     2  S    0.273721
     3  N   -0.571556
     4  C   -0.504952
     5  C    0.792071
     6  C    0.217485
     7  C    0.527170
     8  C   -0.534912
     9  H   -0.283867
    10  H   -0.277070
    11  H    0.072982
 Sum of Mulliken charges =  -0.00000

 Dipole moment (field-independent basis, Debye):
    X=             -0.2099    Y=             -0.8877    Z=              0.8156  Tot=              1.2236

 Test job not archived.
 1\1\GINC-SE188\SP\RHF\Aug-CC-pVDZ\C5H3N1S2\OHZDE\05-Apr-2025\0\\#t hf
 aug-cc-pvdz iop(5/13=1,5/36=2,99/5=2) pseudo=read geom=check guess=(re
 ad,tcheck) scf=(maxcycle=1)\\title\\0,1\S,0,1.614785,-1.191862,0.00118
 6\S,0,-3.692874,-0.024363,-0.096618\N,0,2.742645,1.118425,-0.006729\C,
 0,0.591906,0.228939,0.007977\C,0,1.399557,1.341512,0.002099\C,0,3.0003
 8,-0.156035,-0.008147\C,0,-0.807791,0.156773,0.01698\C,0,-2.014959,0.0
 76694,0.041513\H,0,1.022687,2.352845,0.003954\H,0,3.998149,-0.568105,-
 0.014777\H,0,-3.984497,-0.041414,1.22231\\Version=ES64L-G16RevC.01\Sta

 Normal termination of Gaussian 16 at Sat Apr  5 22:10:43 2025.
