 Gaussian 16, Revision C.01,

 ----------------------------------------------------------------------
 #t hf aug-cc-pvdz symm=none int=(grid=ultrafine) guess=(read,tcheck) s
 table=(opt,rrhf)
 ----------------------------------------------------------------------
 -----
 title
 -----
 Symbolic Z-matrix:
 Charge =  0 Multiplicity = 1

 SCF Done:  E(RHF) =  -307.055797670     A.U. after   12 cycles

 1\1\GINC-SE145\Stability\RHF\Aug-CC-pVDZ\C4H10O2\OHZDE\05-Apr-2025\0\\
 #t hf aug-cc-pvdz symm=none int=(grid=ultrafine) guess=(read,tcheck) s
 table=(opt,rrhf)\\title\\0,1\O,0,1.184971,1.32915,-0.264204\H,0,2.0363
 45,1.691201,-0.001541\O,0,-2.681176,-0.346785,-0.16665\H,0,-3.437773,0
 .227118,-0.020588\C,0,2.195242,-0.882182,-0.037797\H,0,2.250223,-1.017
 985,-1.118621\H,0,3.142448,-0.457668,0.302556\H,0,2.084428,-1.861246,0
 .43082\C,0,1.029926,0.029059,0.326369\H,0,0.993181,0.139993,1.41855\C,
 0,-0.30585,-0.521316,-0.15342\H,0,-0.443749,-1.5233,0.259028\H,0,-0.28

 Normal termination of Gaussian 16 at Sat Apr  5 22:10:38 2025.
 Gaussian 16:  ES64L-G16RevC.01  3-Jul-2019

 ----------------------------------------------------------------------
 #t hf aug-cc-pvdz iop(5/13=1,5/36=2,99/5=2) pseudo=read geom=check gue
 ss=(read,tcheck) scf=(maxcycle=1)
 ----------------------------------------------------------------------
 -----
 title
 -----
 Structure from the checkpoint file:  "1-3-butanediol.chk"
 Charge =  0 Multiplicity = 1

                         Standard orientation:
 ---------------------------------------------------------------------
 Center     Atomic      Atomic             Coordinates (Angstroms)
 Number     Number       Type             X           Y           Z
 ---------------------------------------------------------------------
      1          8           0        1.184971    1.329150   -0.264204
      2          1           0        2.036345    1.691201   -0.001541
      3          8           0       -2.681176   -0.346785   -0.166650
      4          1           0       -3.437773    0.227118   -0.020588
      5          6           0        2.195242   -0.882182   -0.037797
      6          1           0        2.250223   -1.017985   -1.118621
      7          1           0        3.142448   -0.457668    0.302556
      8          1           0        2.084428   -1.861246    0.430820
      9          6           0        1.029926    0.029059    0.326369
     10          1           0        0.993181    0.139993    1.418550
     11          6           0       -0.305850   -0.521316   -0.153420
     12          1           0       -0.443749   -1.523300    0.259028
     13          1           0       -0.284509   -0.618015   -1.241427
     14          6           0       -1.493637    0.335082    0.248850
     15          1           0       -1.499349    0.479259    1.336354
     16          1           0       -1.425692    1.317864   -0.222316
 ---------------------------------------------------------------------

 SCF Done:  E(RHF) =  -307.153919984     A.U. after    2 cycles

 The electronic state is 1-A.
 Alpha  occ. eigenvalues --  -20.57058 -20.56490 -11.29304 -11.27819 -11.23018
 Alpha  occ. eigenvalues --  -11.22478  -1.32055  -1.31090  -1.05445  -0.97737
 Alpha  occ. eigenvalues --   -0.86279  -0.79691  -0.71535  -0.69764  -0.64130
 Alpha  occ. eigenvalues --   -0.63046  -0.60608  -0.56683  -0.55128  -0.53097
 Alpha  occ. eigenvalues --   -0.52227  -0.49938  -0.47343  -0.45081  -0.44814
 Alpha virt. eigenvalues --    0.03283   0.04133   0.04855   0.04942   0.06239
 Alpha virt. eigenvalues --    0.06818   0.07062   0.07394   0.09043   0.09788
 Alpha virt. eigenvalues --    0.11793   0.12808   0.14393   0.15246   0.16226

 Mulliken charges:
               1
     1  O   -0.632427
     2  H    0.134062
     3  O   -0.584453
     4  H    0.147491
     5  C    0.439233
     6  H    0.010531
     7  H   -0.089793
     8  H   -0.032055
     9  C    0.260458
    10  H   -0.172323
    11  C   -0.013776
    12  H   -0.050886
    13  H   -0.074930
    14  C    0.947817
    15  H   -0.175988
    16  H   -0.112961
 Sum of Mulliken charges =  -0.00000

 Dipole moment (field-independent basis, Debye):
    X=              1.4212    Y=              0.7004    Z=              1.6505  Tot=              2.2879

 Test job not archived.
 1\1\GINC-SE145\SP\RHF\Aug-CC-pVDZ\C4H10O2\OHZDE\05-Apr-2025\0\\#t hf a
 ug-cc-pvdz iop(5/13=1,5/36=2,99/5=2) pseudo=read geom=check guess=(rea
 d,tcheck) scf=(maxcycle=1)\\title\\0,1\O,0,1.184971,1.32915,-0.264204\
 H,0,2.036345,1.691201,-0.001541\O,0,-2.681176,-0.346785,-0.16665\H,0,-
 3.437773,0.227118,-0.020588\C,0,2.195242,-0.882182,-0.037797\H,0,2.250
 223,-1.017985,-1.118621\H,0,3.142448,-0.457668,0.302556\H,0,2.084428,-
 1.861246,0.43082\C,0,1.029926,0.029059,0.326369\H,0,0.993181,0.139993,
 1.41855\C,0,-0.30585,-0.521316,-0.15342\H,0,-0.443749,-1.5233,0.259028

 Normal termination of Gaussian 16 at Sat Apr  5 22:10:44 2025.
