 Gaussian 16, Revision C.01,

 ----------------------------------------------------------------------
 #t hf aug-cc-pvdz symm=none int=(grid=ultrafine) guess=(read,tcheck) s
 table=(opt,rrhf)
 ----------------------------------------------------------------------
 -----
 title
 -----
 Symbolic Z-matrix:
 Charge =  0 Multiplicity = 1

 SCF Done:  E(RHF) =  -1095.65802709     A.U. after   16 cycles
 Normal termination of Gaussian 16 at Sat Apr  5 22:11:44 2025.
 Gaussian 16:  ES64L-G16RevC.01  3-Jul-2019

 ----------------------------------------------------------------------
 #t hf aug-cc-pvdz iop(5/13=1,5/36=2,99/5=2) pseudo=read geom=check gue
 ss=(read,tcheck) scf=(maxcycle=1)
 ----------------------------------------------------------------------
 -----
 title
 -----
 Structure from the checkpoint file:  "1-3dithiolo4-5-dpyrimidine.chk"
 Charge =  0 Multiplicity = 1

                         Standard orientation:
 ---------------------------------------------------------------------
 Center     Atomic      Atomic             Coordinates (Angstroms)
 Number     Number       Type             X           Y           Z
 ---------------------------------------------------------------------
      1          6           0       -1.485210    1.351731    0.043199
      2          6           0       -2.539465   -0.658119    0.027515
      3          6           0       -0.256809    0.716701   -0.007150
      4          6           0       -0.286056   -0.686804   -0.018776
      5          6           0        2.255116   -0.024472    0.324269
      6          7           0       -2.633772    0.663231    0.061234
      7          7           0       -1.410366   -1.376466   -0.006097
      8         16           0        1.321934    1.487763   -0.135275
      9         16           0        1.275421   -1.509988   -0.105022
     10          1           0       -1.560649    2.432329    0.064669
     11          1           0       -3.465024   -1.219916    0.032889
     12          1           0        3.180774   -0.038599   -0.242667
     13          1           0        2.470711   -0.019780    1.389566
 ---------------------------------------------------------------------

 SCF Done:  E(RHF) =  -1095.78371549     A.U. after    2 cycles

 The electronic state is 1-A.
 Alpha  occ. eigenvalues --  -93.57210 -93.57040 -15.65149 -15.64598 -11.35235
 Alpha  occ. eigenvalues --  -11.33506 -11.32758 -11.32018 -11.29892  -8.87000
 Alpha  occ. eigenvalues --   -8.86801  -6.21147  -6.20981  -6.20952  -6.20783
 Alpha  occ. eigenvalues --   -6.20562  -6.20363  -1.30096  -1.18507  -1.14258
 Alpha  occ. eigenvalues --   -1.04748  -0.99482  -0.91445  -0.85903  -0.83559
 Alpha  occ. eigenvalues --   -0.73465  -0.70632  -0.65430  -0.61349  -0.60076
 Alpha  occ. eigenvalues --   -0.59333  -0.56036  -0.54681  -0.47936  -0.46513
 Alpha  occ. eigenvalues --   -0.45881  -0.44158  -0.41799  -0.37688  -0.32144
 Alpha virt. eigenvalues --    0.03369   0.03990   0.04520   0.05010   0.07074
 Alpha virt. eigenvalues --    0.07429   0.08060   0.08323   0.09129   0.09868
 Alpha virt. eigenvalues --    0.10441   0.11222   0.11754   0.13197   0.13859

 Mulliken charges:
               1
     1  C    0.457626
     2  C    0.622817
     3  C    0.072748
     4  C   -0.132097
     5  C   -0.241509
     6  N   -0.557853
     7  N   -0.646176
     8  S    0.427817
     9  S    0.638401
    10  H   -0.295874
    11  H   -0.272820
    12  H   -0.028783
    13  H   -0.044297
 Sum of Mulliken charges =  -0.00000

 Dipole moment (field-independent basis, Debye):
    X=              2.1616    Y=              0.9138    Z=              0.5869  Tot=              2.4191

 Test job not archived.
 1\1\GINC-SE040\SP\RHF\Aug-CC-pVDZ\C5H4N2S2\OHZDE\05-Apr-2025\0\\#t hf
 aug-cc-pvdz iop(5/13=1,5/36=2,99/5=2) pseudo=read geom=check guess=(re
 ad,tcheck) scf=(maxcycle=1)\\title\\0,1\C,0,-1.485209,1.351731,0.04319
 9\C,0,-2.539465,-0.658118,0.027515\C,0,-0.256809,0.716701,-0.00715\C,0
 ,-0.286056,-0.686804,-0.018776\C,0,2.255116,-0.024473,0.324269\N,0,-2.
 633772,0.663232,0.061234\N,0,-1.410366,-1.376466,-0.006097\S,0,1.32193
 5,1.487762,-0.135275\S,0,1.275421,-1.509989,-0.105022\H,0,-1.560648,2.
 432329,0.064669\H,0,-3.465024,-1.219915,0.032889\H,0,3.180774,-0.0386,

 Normal termination of Gaussian 16 at Sat Apr  5 22:12:54 2025.
