 Gaussian 16, Revision C.01,

 ----------------------------------------------------------------------
 #t hf aug-cc-pvdz symm=none int=(grid=ultrafine) guess=(read,tcheck) s
 table=(opt,rrhf)
 ----------------------------------------------------------------------
 -----
 title
 -----
 Symbolic Z-matrix:
 Charge =  0 Multiplicity = 1

 SCF Done:  E(RHF) =  -450.324303471     A.U. after   14 cycles
 Normal termination of Gaussian 16 at Sat Apr  5 22:11:18 2025.
 Gaussian 16:  ES64L-G16RevC.01  3-Jul-2019

 ----------------------------------------------------------------------
 #t hf aug-cc-pvdz iop(5/13=1,5/36=2,99/5=2) pseudo=read geom=check gue
 ss=(read,tcheck) scf=(maxcycle=1)
 ----------------------------------------------------------------------
 -----
 title
 -----
 Structure from the checkpoint file:  "1-3dioxolo4-5-dpyrimidine.chk"
 Charge =  0 Multiplicity = 1

                         Standard orientation:
 ---------------------------------------------------------------------
 Center     Atomic      Atomic             Coordinates (Angstroms)
 Number     Number       Type             X           Y           Z
 ---------------------------------------------------------------------
      1          6           0       -0.718665   -1.555127    0.000000
      2          6           0       -2.163694    0.226359    0.000000
      3          6           0        0.315607   -0.659942    0.000000
      4          6           0        0.000000    0.695721    0.000000
      5          6           0        2.228992    0.497352    0.000000
      6          7           0       -1.985417   -1.080489    0.000000
      7          7           0       -1.205174    1.183491    0.000000
      8          8           0        1.668909   -0.830309    0.000000
      9          8           0        1.140201    1.432865    0.000000
     10          1           0       -0.576225   -2.627468    0.000000
     11          1           0       -3.184942    0.584348    0.000000
     12          1           0        2.824495    0.637741    0.902050
     13          1           0        2.824495    0.637741   -0.902050
 ---------------------------------------------------------------------

 SCF Done:  E(RHF) =  -450.460192119     A.U. after    2 cycles

 The electronic state is 1-A'.
 Alpha  occ. eigenvalues --  -20.64453 -20.63720 -15.64903 -15.64080 -11.39147
 Alpha  occ. eigenvalues --  -11.37732 -11.33105 -11.32642 -11.31276  -1.46701
 Alpha  occ. eigenvalues --   -1.36604  -1.29154  -1.17321  -1.07936  -0.96166
 Alpha  occ. eigenvalues --   -0.90752  -0.89702  -0.77321  -0.75721  -0.75309
 Alpha  occ. eigenvalues --   -0.71057  -0.65570  -0.62239  -0.61550  -0.60461
 Alpha  occ. eigenvalues --   -0.60221  -0.59582  -0.51985  -0.48409  -0.42242
 Alpha  occ. eigenvalues --   -0.42121  -0.34952
 Alpha virt. eigenvalues --    0.03034   0.04178   0.04521   0.04814   0.07698
 Alpha virt. eigenvalues --    0.08085   0.08385   0.09115   0.10195   0.11850
 Alpha virt. eigenvalues --    0.12080   0.12963   0.13498   0.13506   0.14463

 Mulliken charges:
               1
     1  C    0.924553
     2  C    0.609473
     3  C    0.266211
     4  C    0.592170
     5  C    1.119381
     6  N   -0.579804
     7  N   -0.527096
     8  O   -0.780658
     9  O   -0.672533
    10  H   -0.282822
    11  H   -0.280627
    12  H   -0.194125
    13  H   -0.194125
 Sum of Mulliken charges =   0.00000

 Dipole moment (field-independent basis, Debye):
    X=              2.5258    Y=             -0.6732    Z=              0.0000  Tot=              2.6140

 Test job not archived.
 1\1\GINC-SE040\SP\RHF\Aug-CC-pVDZ\C5H4N2O2\OHZDE\05-Apr-2025\0\\#t hf
 aug-cc-pvdz iop(5/13=1,5/36=2,99/5=2) pseudo=read geom=check guess=(re
 ad,tcheck) scf=(maxcycle=1)\\title\\0,1\C,0,-0.718665,-1.555127,0.\C,0
 ,-2.163694,0.226359,0.\C,0,0.315607,-0.659942,0.\C,0,0.,0.695721,0.\C,
 0,2.228992,0.497352,0.\N,0,-1.985417,-1.080489,0.\N,0,-1.205174,1.1834
 91,0.\O,0,1.668909,-0.830309,0.\O,0,1.140201,1.432865,0.\H,0,-0.576224
 ,-2.627468,0.\H,0,-3.184942,0.584348,0.\H,0,2.824495,0.637742,0.90205\
 H,0,2.824495,0.637742,-0.90205\\Version=ES64L-G16RevC.01\State=1-A'\HF

 Normal termination of Gaussian 16 at Sat Apr  5 22:11:49 2025.
