 Gaussian 16, Revision C.01,

 ----------------------------------------------------------------------
 #t hf aug-cc-pvdz symm=none int=(grid=ultrafine) guess=(read,tcheck) s
 table=(opt,rrhf)
 ----------------------------------------------------------------------
 -----
 title
 -----
 Symbolic Z-matrix:
 Charge =  0 Multiplicity = 1

 SCF Done:  E(RHF) =  -343.092356964     A.U. after   11 cycles

 1\1\GINC-SE052\Stability\RHF\Aug-CC-pVDZ\C6H12N2\OHZDE\05-Apr-2025\0\\
 #t hf aug-cc-pvdz symm=none int=(grid=ultrafine) guess=(read,tcheck) s
 table=(opt,rrhf)\\title\\0,1\N,0,0.000164,1.282141,0.000519\N,0,-0.000
 164,-1.282141,0.000519\C,0,0.000164,0.780285,1.382256\C,0,-1.196693,0.
 781006,-0.691218\C,0,1.196818,0.780687,-0.691334\C,0,-0.000164,-0.7802
 85,1.382256\C,0,1.196693,-0.781006,-0.691218\C,0,-1.196818,-0.780687,-
 0.691334\H,0,-0.879522,1.179699,1.890037\H,0,0.880122,1.179356,1.88983
 \H,0,-1.194813,1.179661,-1.707165\H,0,-2.076388,1.180253,-0.183417\H,0

 Normal termination of Gaussian 16 at Sat Apr  5 22:11:47 2025.
 Gaussian 16:  ES64L-G16RevC.01  3-Jul-2019

 ----------------------------------------------------------------------
 #t hf aug-cc-pvdz iop(5/13=1,5/36=2,99/5=2) pseudo=read geom=check gue
 ss=(read,tcheck) scf=(maxcycle=1)
 ----------------------------------------------------------------------
 -----
 title
 -----
 Structure from the checkpoint file:  "1-4-diazabicyclo2-2-2octane.chk"
 Charge =  0 Multiplicity = 1

                         Standard orientation:
 ---------------------------------------------------------------------
 Center     Atomic      Atomic             Coordinates (Angstroms)
 Number     Number       Type             X           Y           Z
 ---------------------------------------------------------------------
      1          7           0        0.000164    1.282141    0.000519
      2          7           0       -0.000164   -1.282141    0.000519
      3          6           0        0.000164    0.780285    1.382256
      4          6           0       -1.196693    0.781006   -0.691218
      5          6           0        1.196818    0.780687   -0.691334
      6          6           0       -0.000164   -0.780285    1.382256
      7          6           0        1.196693   -0.781006   -0.691218
      8          6           0       -1.196818   -0.780687   -0.691334
      9          1           0       -0.879522    1.179699    1.890037
     10          1           0        0.880122    1.179356    1.889830
     11          1           0       -1.194813    1.179661   -1.707165
     12          1           0       -2.076388    1.180253   -0.183417
     13          1           0        2.076725    1.179835   -0.183814
     14          1           0        1.194755    1.179230   -1.707324
     15          1           0        0.879522   -1.179699    1.890037
     16          1           0       -0.880122   -1.179356    1.889830
     17          1           0        1.194813   -1.179661   -1.707165
     18          1           0        2.076388   -1.180253   -0.183417
     19          1           0       -2.076725   -1.179835   -0.183814
     20          1           0       -1.194755   -1.179230   -1.707324
 ---------------------------------------------------------------------

 SCF Done:  E(RHF) =  -343.193819076     A.U. after    2 cycles

 The electronic state is 1-A.
 Alpha  occ. eigenvalues --  -15.60834 -15.60830 -11.25313 -11.25310 -11.25302
 Alpha  occ. eigenvalues --  -11.25273 -11.25271 -11.25262  -1.24252  -1.14180
 Alpha  occ. eigenvalues --   -1.01159  -1.01133  -0.86038  -0.86024  -0.84747
 Alpha  occ. eigenvalues --   -0.70742  -0.67461  -0.67451  -0.66945  -0.57020
 Alpha  occ. eigenvalues --   -0.56824  -0.56809  -0.54097  -0.54072  -0.52566
 Alpha  occ. eigenvalues --   -0.52533  -0.46976  -0.45427  -0.45404  -0.41101
 Alpha  occ. eigenvalues --   -0.30962
 Alpha virt. eigenvalues --    0.03648   0.04012   0.04012   0.04759   0.06391
 Alpha virt. eigenvalues --    0.06392   0.06853   0.06854   0.08498   0.08810
 Alpha virt. eigenvalues --    0.08812   0.10606   0.11111   0.12874   0.13079

 Mulliken charges:
               1
     1  N   -0.740197
     2  N   -0.740197
     3  C    0.618614
     4  C    0.618168
     5  C    0.618130
     6  C    0.618614
     7  C    0.618168
     8  C    0.618130
     9  H   -0.186005
    10  H   -0.185808
    11  H   -0.185256
    12  H   -0.186200
    13  H   -0.186410
    14  H   -0.185036
    15  H   -0.186005
    16  H   -0.185808
    17  H   -0.185256
    18  H   -0.186200
    19  H   -0.186410
    20  H   -0.185036
 Sum of Mulliken charges =   0.00000

 Dipole moment (field-independent basis, Debye):
    X=              0.0000    Y=              0.0000    Z=             -0.0019  Tot=              0.0019

 Test job not archived.
 1\1\GINC-SE052\SP\RHF\Aug-CC-pVDZ\C6H12N2\OHZDE\05-Apr-2025\0\\#t hf a
 ug-cc-pvdz iop(5/13=1,5/36=2,99/5=2) pseudo=read geom=check guess=(rea
 d,tcheck) scf=(maxcycle=1)\\title\\0,1\N,0,0.000164,1.282141,0.000519\
 N,0,-0.000164,-1.282141,0.000519\C,0,0.000164,0.780285,1.382256\C,0,-1
 .196693,0.781006,-0.691218\C,0,1.196818,0.780687,-0.691334\C,0,-0.0001
 64,-0.780285,1.382256\C,0,1.196693,-0.781006,-0.691218\C,0,-1.196818,-
 0.780687,-0.691334\H,0,-0.879522,1.179699,1.890037\H,0,0.880122,1.1793
 56,1.88983\H,0,-1.194813,1.179661,-1.707165\H,0,-2.076388,1.180253,-0.

 Normal termination of Gaussian 16 at Sat Apr  5 22:12:54 2025.
