 Gaussian 16, Revision C.01,

 ----------------------------------------------------------------------
 #t hf aug-cc-pvdz symm=none int=(grid=ultrafine) guess=(read,tcheck) s
 table=(opt,rrhf)
 ----------------------------------------------------------------------
 -----
 title
 -----
 Symbolic Z-matrix:
 Charge =  0 Multiplicity = 1

 SCF Done:  E(RHF) =  -398.513978898     A.U. after   15 cycles
 Normal termination of Gaussian 16 at Sat Apr  5 22:11:07 2025.
 Gaussian 16:  ES64L-G16RevC.01  3-Jul-2019

 ----------------------------------------------------------------------
 #t hf aug-cc-pvdz iop(5/13=1,5/36=2,99/5=2) pseudo=read geom=check gue
 ss=(read,tcheck) scf=(maxcycle=1)
 ----------------------------------------------------------------------
 -----
 title
 -----
 Structure from the checkpoint file:  "1-4-pyridylethanone.chk"
 Charge =  0 Multiplicity = 1

                         Standard orientation:
 ---------------------------------------------------------------------
 Center     Atomic      Atomic             Coordinates (Angstroms)
 Number     Number       Type             X           Y           Z
 ---------------------------------------------------------------------
      1          6           0       -1.004320   -0.762666    0.000000
      2          6           0        1.322736   -0.237244    0.000000
      3          6           0       -0.645499   -2.106337    0.000000
      4          6           0        1.576679   -1.600518    0.000000
      5          6           0        0.000000    0.203071    0.000000
      6          6           0       -0.278823    1.682041    0.000000
      7          6           0       -1.715872    2.149965    0.000000
      8          7           0        0.617006   -2.529678    0.000000
      9          8           0        0.639001    2.474708    0.000000
     10          1           0       -2.050239   -0.492383    0.000000
     11          1           0        2.126827    0.484056    0.000000
     12          1           0       -1.409957   -2.874662    0.000000
     13          1           0        2.596288   -1.967380    0.000000
     14          1           0       -2.245005    1.777377    0.878947
     15          1           0       -2.245005    1.777377   -0.878947
     16          1           0       -1.733367    3.235824    0.000000
 ---------------------------------------------------------------------

 SCF Done:  E(RHF) =  -398.632126754     A.U. after    2 cycles

 The electronic state is 1-A'.
 Alpha  occ. eigenvalues --  -20.57687 -15.64568 -11.36170 -11.29628 -11.29331
 Alpha  occ. eigenvalues --  -11.28199 -11.26971 -11.26136 -11.25648  -1.36904
 Alpha  occ. eigenvalues --   -1.24572  -1.10552  -1.04383  -1.01648  -0.89706
 Alpha  occ. eigenvalues --   -0.87017  -0.78644  -0.72294  -0.69215  -0.66468
 Alpha  occ. eigenvalues --   -0.64124  -0.63124  -0.62432  -0.61557  -0.56545
 Alpha  occ. eigenvalues --   -0.55795  -0.53207  -0.52621  -0.45482  -0.42438
 Alpha  occ. eigenvalues --   -0.39610  -0.36131
 Alpha virt. eigenvalues --    0.02773   0.03980   0.04026   0.04205   0.05724
 Alpha virt. eigenvalues --    0.05941   0.06326   0.08259   0.08825   0.09470
 Alpha virt. eigenvalues --    0.09939   0.11584   0.11767   0.12493   0.13401

 Mulliken charges:
               1
     1  C    0.961361
     2  C    0.760827
     3  C    0.328266
     4  C    0.367810
     5  C    0.010607
     6  C   -0.260940
     7  C    0.518123
     8  N   -0.452502
     9  O   -0.520877
    10  H   -0.587423
    11  H   -0.530362
    12  H   -0.323163
    13  H   -0.321266
    14  H    0.100956
    15  H    0.100956
    16  H   -0.152372
 Sum of Mulliken charges =  -0.00000

 Dipole moment (field-independent basis, Debye):
    X=             -2.8724    Y=             -0.2899    Z=             -0.0000  Tot=              2.8870

 Test job not archived.
 1\1\GINC-SE226\SP\RHF\Aug-CC-pVDZ\C7H7N1O1\OHZDE\05-Apr-2025\0\\#t hf
 aug-cc-pvdz iop(5/13=1,5/36=2,99/5=2) pseudo=read geom=check guess=(re
 ad,tcheck) scf=(maxcycle=1)\\title\\0,1\C,0,-1.00432,-0.762666,0.\C,0,
 1.322736,-0.237243,0.\C,0,-0.645498,-2.106337,0.\C,0,1.57668,-1.600517
 ,0.\C,0,0.,0.203071,0.\C,0,-0.278823,1.682041,0.\C,0,-1.715873,2.14996
 5,0.\N,0,0.617007,-2.529678,0.\O,0,0.639,2.474708,0.\H,0,-2.050239,-0.
 492383,0.\H,0,2.126827,0.484057,0.\H,0,-1.409956,-2.874662,0.\H,0,2.59
 6289,-1.967379,0.\H,0,-2.245005,1.777376,0.878947\H,0,-2.245005,1.7773

 Normal termination of Gaussian 16 at Sat Apr  5 22:11:51 2025.
