 Gaussian 16, Revision C.01,

 ----------------------------------------------------------------------
 #t hf aug-cc-pvdz symm=none int=(grid=ultrafine) guess=(read,tcheck) s
 table=(opt,rrhf)
 ----------------------------------------------------------------------
 -----
 title
 -----
 Symbolic Z-matrix:
 Charge =  0 Multiplicity = 1

 SCF Done:  E(RHF) =  -951.212378677     A.U. after   12 cycles
 Normal termination of Gaussian 16 at Sat Apr  5 22:10:25 2025.
 Gaussian 16:  ES64L-G16RevC.01  3-Jul-2019

 ----------------------------------------------------------------------
 #t hf aug-cc-pvdz iop(5/13=1,5/36=2,99/5=2) pseudo=read geom=check gue
 ss=(read,tcheck) scf=(maxcycle=1)
 ----------------------------------------------------------------------
 -----
 title
 -----
 Structure from the checkpoint file:  "1-4-dithiane.chk"
 Charge =  0 Multiplicity = 1

                         Standard orientation:
 ---------------------------------------------------------------------
 Center     Atomic      Atomic             Coordinates (Angstroms)
 Number     Number       Type             X           Y           Z
 ---------------------------------------------------------------------
      1          6           0        0.285090    0.705076    1.402750
      2          6           0       -0.285090   -0.705076    1.402750
      3          6           0        0.285090    0.705076   -1.402750
      4          6           0       -0.285090   -0.705076   -1.402750
      5         16           0       -0.285090    1.732970    0.000000
      6         16           0        0.285090   -1.732970    0.000000
      7          1           0       -0.049188    1.244965    2.289919
      8          1           0        1.374611    0.679803    1.411268
      9          1           0        0.049188   -1.244965    2.289919
     10          1           0       -1.374611   -0.679803    1.411268
     11          1           0        1.374611    0.679803   -1.411268
     12          1           0       -0.049188    1.244965   -2.289919
     13          1           0       -1.374611   -0.679803   -1.411268
     14          1           0        0.049188   -1.244965   -2.289919
 ---------------------------------------------------------------------

 SCF Done:  E(RHF) =  -951.300483397     A.U. after    2 cycles

 The electronic state is 1-AG.
 Alpha  occ. eigenvalues --  -93.52904 -93.52903 -11.27572 -11.27563 -11.27516
 Alpha  occ. eigenvalues --  -11.27506  -8.82645  -8.82645  -6.16811  -6.16782
 Alpha  occ. eigenvalues --   -6.16588  -6.16587  -6.16266  -6.16240  -1.11130
 Alpha  occ. eigenvalues --   -1.03513  -0.99837  -0.86047  -0.84073  -0.75818
 Alpha  occ. eigenvalues --   -0.63861  -0.63672  -0.62321  -0.57712  -0.56898
 Alpha  occ. eigenvalues --   -0.54665  -0.51763  -0.44854  -0.44475  -0.42057
 Alpha  occ. eigenvalues --   -0.35080  -0.33622
 Alpha virt. eigenvalues --    0.03655   0.04047   0.04910   0.05713   0.06036
 Alpha virt. eigenvalues --    0.06693   0.06706   0.08809   0.08989   0.11181
 Alpha virt. eigenvalues --    0.13203   0.13712   0.13745   0.13801   0.14283

 Mulliken charges:
               1
     1  C   -0.101223
     2  C   -0.101223
     3  C   -0.101223
     4  C   -0.101223
     5  S    0.451857
     6  S    0.451857
     7  H   -0.044184
     8  H   -0.080521
     9  H   -0.044184
    10  H   -0.080521
    11  H   -0.080521
    12  H   -0.044184
    13  H   -0.080521
    14  H   -0.044184
 Sum of Mulliken charges =  -0.00000

 Dipole moment (field-independent basis, Debye):
    X=             -0.0000    Y=              0.0000    Z=              0.0000  Tot=              0.0000

 Test job not archived.
 1\1\GINC-SE225\SP\RHF\Aug-CC-pVDZ\C4H8S2\OHZDE\05-Apr-2025\0\\#t hf au
 g-cc-pvdz iop(5/13=1,5/36=2,99/5=2) pseudo=read geom=check guess=(read
 ,tcheck) scf=(maxcycle=1)\\title\\0,1\C,0,0.28509,0.705076,1.40275\C,0
 ,-0.28509,-0.705076,1.40275\C,0,0.28509,0.705076,-1.40275\C,0,-0.28509
 ,-0.705076,-1.40275\S,0,-0.28509,1.73297,0.\S,0,0.28509,-1.73297,0.\H,
 0,-0.049188,1.244965,2.289919\H,0,1.374611,0.679803,1.411268\H,0,0.049
 188,-1.244965,2.289919\H,0,-1.374611,-0.679803,1.411268\H,0,1.374611,0
 .679803,-1.411268\H,0,-0.049188,1.244965,-2.289919\H,0,-1.374611,-0.67

 Normal termination of Gaussian 16 at Sat Apr  5 22:10:42 2025.
