 Gaussian 16, Revision C.01,

 ----------------------------------------------------------------------
 #t hf aug-cc-pvdz symm=none int=(grid=ultrafine) guess=(read,tcheck) s
 table=(opt,rrhf)
 ----------------------------------------------------------------------
 -----
 title
 -----
 Symbolic Z-matrix:
 Charge =  0 Multiplicity = 1

 SCF Done:  E(RHF) =  -312.312087385     A.U. after   11 cycles
 Normal termination of Gaussian 16 at Sat Apr  5 22:12:13 2025.
 Gaussian 16:  ES64L-G16RevC.01  3-Jul-2019

 ----------------------------------------------------------------------
 #t hf aug-cc-pvdz iop(5/13=1,5/36=2,99/5=2) pseudo=read geom=check gue
 ss=(read,tcheck) scf=(maxcycle=1)
 ----------------------------------------------------------------------
 -----
 title
 -----
 Structure from the checkpoint file:  "1-4-dimethylcyclohexane.chk"
 Charge =  0 Multiplicity = 1

                         Standard orientation:
 ---------------------------------------------------------------------
 Center     Atomic      Atomic             Coordinates (Angstroms)
 Number     Number       Type             X           Y           Z
 ---------------------------------------------------------------------
      1          6           0       -0.128603    0.754635    1.257237
      2          6           0        0.128603   -0.754635    1.257237
      3          6           0       -0.128603    0.754635   -1.257237
      4          6           0        0.128603   -0.754635   -1.257237
      5          6           0        0.420511    1.441390    0.000000
      6          6           0       -0.420511   -1.441390    0.000000
      7          6           0        0.128603    2.941424    0.000000
      8          6           0       -0.128603   -2.941424    0.000000
      9          1           0       -1.207697    0.938689    1.316247
     10          1           0        0.309333    1.209266    2.149736
     11          1           0        1.207697   -0.938689    1.316247
     12          1           0       -0.309333   -1.209266    2.149736
     13          1           0        0.309333    1.209266   -2.149736
     14          1           0       -1.207697    0.938689   -1.316247
     15          1           0       -0.309333   -1.209266   -2.149736
     16          1           0        1.207697   -0.938689   -1.316247
     17          1           0        1.509662    1.308301    0.000000
     18          1           0       -1.509662   -1.308301    0.000000
     19          1           0        0.549005    3.428483   -0.881999
     20          1           0       -0.948008    3.128721    0.000000
     21          1           0        0.549005    3.428483    0.881999
     22          1           0        0.948008   -3.128721    0.000000
     23          1           0       -0.549005   -3.428483    0.881999
     24          1           0       -0.549005   -3.428483   -0.881999
 ---------------------------------------------------------------------

 SCF Done:  E(RHF) =  -312.408412822     A.U. after    2 cycles

 The electronic state is 1-AG.
 Alpha  occ. eigenvalues --  -11.22613 -11.22613 -11.21950 -11.21941 -11.21898
 Alpha  occ. eigenvalues --  -11.21885 -11.21671 -11.21671  -1.11227  -1.04105
 Alpha  occ. eigenvalues --   -0.99261  -0.95002  -0.87481  -0.83122  -0.78042
 Alpha  occ. eigenvalues --   -0.74946  -0.63924  -0.60611  -0.60221  -0.60168
 Alpha  occ. eigenvalues --   -0.58602  -0.55281  -0.54007  -0.52244  -0.51384
 Alpha  occ. eigenvalues --   -0.50002  -0.48273  -0.47021  -0.45911  -0.44746
 Alpha  occ. eigenvalues --   -0.42572  -0.41899
 Alpha virt. eigenvalues --    0.03683   0.04061   0.04322   0.04409   0.05776
 Alpha virt. eigenvalues --    0.06117   0.06324   0.06549   0.06837   0.08209
 Alpha virt. eigenvalues --    0.08538   0.08553   0.08896   0.09134   0.10697

 Mulliken charges:
               1
     1  C    0.627519
     2  C    0.627519
     3  C    0.627519
     4  C    0.627519
     5  C   -1.318326
     6  C   -1.318326
     7  C    0.884600
     8  C    0.884600
     9  H   -0.076095
    10  H   -0.144521
    11  H   -0.076095
    12  H   -0.144521
    13  H   -0.144521
    14  H   -0.076095
    15  H   -0.144521
    16  H   -0.076095
    17  H   -0.235466
    18  H   -0.235466
    19  H   -0.050357
    20  H   -0.043901
    21  H   -0.050357
    22  H   -0.043901
    23  H   -0.050357
    24  H   -0.050357
 Sum of Mulliken charges =  -0.00000

 Dipole moment (field-independent basis, Debye):
    X=             -0.0000    Y=             -0.0000    Z=             -0.0000  Tot=              0.0000

 Test job not archived.
 1\1\GINC-SE187\SP\RHF\Aug-CC-pVDZ\C8H16\OHZDE\05-Apr-2025\0\\#t hf aug
 -cc-pvdz iop(5/13=1,5/36=2,99/5=2) pseudo=read geom=check guess=(read,
 tcheck) scf=(maxcycle=1)\\title\\0,1\C,0,-0.128603,0.754635,1.257237\C
 ,0,0.128603,-0.754635,1.257237\C,0,-0.128603,0.754635,-1.257237\C,0,0.
 128603,-0.754635,-1.257237\C,0,0.420511,1.44139,0.\C,0,-0.420511,-1.44
 139,0.\C,0,0.128603,2.941424,0.\C,0,-0.128603,-2.941424,0.\H,0,-1.2076
 97,0.938689,1.316247\H,0,0.309333,1.209266,2.149736\H,0,1.207697,-0.93
 8689,1.316247\H,0,-0.309333,-1.209266,2.149736\H,0,0.309333,1.209266,-

 Normal termination of Gaussian 16 at Sat Apr  5 22:12:57 2025.
