 Gaussian 16, Revision C.01,

 ----------------------------------------------------------------------
 #t hf aug-cc-pvdz symm=none int=(grid=ultrafine) guess=(read,tcheck) s
 table=(opt,rrhf)
 ----------------------------------------------------------------------
 -----
 title
 -----
 Symbolic Z-matrix:
 Charge =  0 Multiplicity = 1

 SCF Done:  E(RHF) =  -1075.16860273     A.U. after   12 cycles

 1\1\GINC-SE146\Stability\RHF\Aug-CC-pVDZ\C4H8Cl2\OHZDE\05-Apr-2025\0\\
 #t hf aug-cc-pvdz symm=none int=(grid=ultrafine) guess=(read,tcheck) s
 table=(opt,rrhf)\\title\\0,1\C,0,-0.72187,0.24903,0.685981\C,0,0.72187
 ,-0.24903,0.685981\C,0,-1.761587,-0.853628,0.754122\C,0,1.761587,0.853
 628,0.754122\Cl,0,-1.761587,-1.906934,-0.730679\Cl,0,1.761587,1.906934
 ,-0.730679\H,0,-0.904673,0.868385,-0.192246\H,0,-0.885885,0.888194,1.5
 61267\H,0,0.904673,-0.868385,-0.192246\H,0,0.885885,-0.888194,1.561267
 \H,0,-1.591489,-1.52711,1.590678\H,0,-2.766336,-0.447769,0.82123\H,0,1

 Normal termination of Gaussian 16 at Sat Apr  5 22:10:24 2025.
 Gaussian 16:  ES64L-G16RevC.01  3-Jul-2019

 ----------------------------------------------------------------------
 #t hf aug-cc-pvdz iop(5/13=1,5/36=2,99/5=2) pseudo=read geom=check gue
 ss=(read,tcheck) scf=(maxcycle=1)
 ----------------------------------------------------------------------
 -----
 title
 -----
 Structure from the checkpoint file:  "1-4-dichlorobutane.chk"
 Charge =  0 Multiplicity = 1

                         Standard orientation:
 ---------------------------------------------------------------------
 Center     Atomic      Atomic             Coordinates (Angstroms)
 Number     Number       Type             X           Y           Z
 ---------------------------------------------------------------------
      1          6           0       -0.721870    0.249030    0.685981
      2          6           0        0.721870   -0.249030    0.685981
      3          6           0       -1.761587   -0.853628    0.754122
      4          6           0        1.761587    0.853628    0.754122
      5         17           0       -1.761587   -1.906934   -0.730679
      6         17           0        1.761587    1.906934   -0.730679
      7          1           0       -0.904673    0.868385   -0.192246
      8          1           0       -0.885885    0.888194    1.561267
      9          1           0        0.904673   -0.868385   -0.192246
     10          1           0        0.885885   -0.888194    1.561267
     11          1           0       -1.591489   -1.527110    1.590678
     12          1           0       -2.766336   -0.447769    0.821230
     13          1           0        1.591489    1.527110    1.590678
     14          1           0        2.766336    0.447769    0.821230
 ---------------------------------------------------------------------

 SCF Done:  E(RHF) =  -1075.25404670     A.U. after    2 cycles

 The electronic state is 1-A.
 Alpha  occ. eigenvalues -- -103.64800-103.64800 -11.31069 -11.31069 -11.25595
 Alpha  occ. eigenvalues --  -11.25541 -10.68081 -10.68080  -8.33796  -8.33795
 Alpha  occ. eigenvalues --   -8.33519  -8.33518  -8.33509  -8.33508  -1.16842
 Alpha  occ. eigenvalues --   -1.15769  -1.06542  -0.97899  -0.87264  -0.81048
 Alpha  occ. eigenvalues --   -0.67522  -0.64920  -0.63551  -0.61181  -0.56008
 Alpha  occ. eigenvalues --   -0.54419  -0.53316  -0.50559  -0.49454  -0.44972
 Alpha  occ. eigenvalues --   -0.44713  -0.44563  -0.44108
 Alpha virt. eigenvalues --    0.02969   0.03908   0.04748   0.05284   0.06861
 Alpha virt. eigenvalues --    0.07117   0.07232   0.07866   0.10073   0.11114
 Alpha virt. eigenvalues --    0.12008   0.12864   0.14158   0.15379   0.15701

 Mulliken charges:
               1
     1  C    0.148062
     2  C    0.148062
     3  C    0.181658
     4  C    0.181658
     5  Cl  -0.155675
     6  Cl  -0.155675
     7  H   -0.115449
     8  H   -0.063206
     9  H   -0.115449
    10  H   -0.063206
    11  H   -0.007860
    12  H    0.012471
    13  H   -0.007860
    14  H    0.012471
 Sum of Mulliken charges =  -0.00000

 Dipole moment (field-independent basis, Debye):
    X=             -0.0000    Y=             -0.0000    Z=              3.6982  Tot=              3.6982

 Test job not archived.
 1\1\GINC-SE146\SP\RHF\Aug-CC-pVDZ\C4H8Cl2\OHZDE\05-Apr-2025\0\\#t hf a
 ug-cc-pvdz iop(5/13=1,5/36=2,99/5=2) pseudo=read geom=check guess=(rea
 d,tcheck) scf=(maxcycle=1)\\title\\0,1\C,0,-0.72187,0.24903,0.685981\C
 ,0,0.72187,-0.24903,0.685981\C,0,-1.761587,-0.853628,0.754122\C,0,1.76
 1587,0.853628,0.754122\Cl,0,-1.761587,-1.906934,-0.730679\Cl,0,1.76158
 7,1.906934,-0.730679\H,0,-0.904673,0.868385,-0.192246\H,0,-0.885885,0.
 888194,1.561267\H,0,0.904673,-0.868385,-0.192246\H,0,0.885885,-0.88819
 4,1.561267\H,0,-1.591489,-1.52711,1.590678\H,0,-2.766336,-0.447769,0.8

 Normal termination of Gaussian 16 at Sat Apr  5 22:10:42 2025.
