 Gaussian 16, Revision C.01,

 ----------------------------------------------------------------------
 #t hf aug-cc-pvdz symm=none int=(grid=ultrafine) guess=(read,tcheck) s
 table=(opt,rrhf)
 ----------------------------------------------------------------------
 -----
 title
 -----
 Symbolic Z-matrix:
 Charge =  0 Multiplicity = 1

 SCF Done:  E(RHF) =  -344.273036740     A.U. after   12 cycles

 1\1\GINC-SE198\Stability\RHF\Aug-CC-pVDZ\C6H14N2\OHZDE\05-Apr-2025\0\\
 #t hf aug-cc-pvdz symm=none int=(grid=ultrafine) guess=(read,tcheck) s
 table=(opt,rrhf)\\title\\0,1\C,0,-0.156412,0.744515,1.19888\C,0,0.1564
 12,-0.744515,1.19888\C,0,-0.156412,0.744515,-1.19888\C,0,0.156412,-0.7
 44515,-1.19888\C,0,0.156412,2.817089,0.\C,0,-0.156412,-2.817089,0.\N,0
 ,0.372203,1.382577,0.\N,0,-0.372203,-1.382577,0.\H,0,-1.249175,0.88253
 5,1.278396\H,0,0.300386,1.211676,2.073396\H,0,1.249175,-0.882535,1.278
 396\H,0,-0.300386,-1.211676,2.073396\H,0,0.300386,1.211676,-2.073396\H

 Normal termination of Gaussian 16 at Sat Apr  5 22:12:02 2025.
 Gaussian 16:  ES64L-G16RevC.01  3-Jul-2019

 ----------------------------------------------------------------------
 #t hf aug-cc-pvdz iop(5/13=1,5/36=2,99/5=2) pseudo=read geom=check gue
 ss=(read,tcheck) scf=(maxcycle=1)
 ----------------------------------------------------------------------
 -----
 title
 -----
 Structure from the checkpoint file:  "1-4-dimethylpiperazine.chk"
 Charge =  0 Multiplicity = 1

                         Standard orientation:
 ---------------------------------------------------------------------
 Center     Atomic      Atomic             Coordinates (Angstroms)
 Number     Number       Type             X           Y           Z
 ---------------------------------------------------------------------
      1          6           0       -0.156412    0.744515    1.198880
      2          6           0        0.156412   -0.744515    1.198880
      3          6           0       -0.156412    0.744515   -1.198880
      4          6           0        0.156412   -0.744515   -1.198880
      5          6           0        0.156412    2.817089   -0.000000
      6          6           0       -0.156412   -2.817089   -0.000000
      7          7           0        0.372203    1.382577   -0.000000
      8          7           0       -0.372203   -1.382577   -0.000000
      9          1           0       -1.249175    0.882535    1.278396
     10          1           0        0.300386    1.211676    2.073396
     11          1           0        1.249175   -0.882535    1.278396
     12          1           0       -0.300386   -1.211676    2.073396
     13          1           0        0.300386    1.211676   -2.073396
     14          1           0       -1.249175    0.882535   -1.278396
     15          1           0       -0.300386   -1.211676   -2.073396
     16          1           0        1.249175   -0.882535   -1.278396
     17          1           0        0.618271    3.260208    0.882966
     18          1           0       -0.912825    3.090807   -0.000000
     19          1           0        0.618271    3.260208   -0.882966
     20          1           0        0.912825   -3.090807   -0.000000
     21          1           0       -0.618271   -3.260208   -0.882966
     22          1           0       -0.618271   -3.260208    0.882966
 ---------------------------------------------------------------------

 SCF Done:  E(RHF) =  -344.379262674     A.U. after    2 cycles

 The electronic state is 1-AG.
 Alpha  occ. eigenvalues --  -15.60638 -15.60637 -11.25227 -11.25227 -11.25178
 Alpha  occ. eigenvalues --  -11.25172 -11.25012 -11.25012  -1.22218  -1.17053
 Alpha  occ. eigenvalues --   -1.01836  -0.98635  -0.90404  -0.86364  -0.82629
 Alpha  occ. eigenvalues --   -0.75110  -0.66499  -0.63744  -0.63088  -0.62593
 Alpha  occ. eigenvalues --   -0.62083  -0.58038  -0.55121  -0.54576  -0.54451
 Alpha  occ. eigenvalues --   -0.51783  -0.49764  -0.49253  -0.46579  -0.45950
 Alpha  occ. eigenvalues --   -0.34925  -0.34486
 Alpha virt. eigenvalues --    0.03679   0.03905   0.04056   0.04436   0.06146
 Alpha virt. eigenvalues --    0.06349   0.06751   0.07378   0.07931   0.08285
 Alpha virt. eigenvalues --    0.08649   0.08721   0.09486   0.10702   0.12447

 Mulliken charges:
               1
     1  C    0.652922
     2  C    0.652922
     3  C    0.652922
     4  C    0.652922
     5  C    0.711774
     6  C    0.711774
     7  N   -0.889526
     8  N   -0.889526
     9  H   -0.103298
    10  H   -0.241214
    11  H   -0.103298
    12  H   -0.241214
    13  H   -0.241214
    14  H   -0.103298
    15  H   -0.241214
    16  H   -0.103298
    17  H   -0.203580
    18  H   -0.031910
    19  H   -0.203580
    20  H   -0.031910
    21  H   -0.203580
    22  H   -0.203580
 Sum of Mulliken charges =   0.00000

 Dipole moment (field-independent basis, Debye):
    X=              0.0000    Y=              0.0000    Z=             -0.0000  Tot=              0.0000

 Test job not archived.
 1\1\GINC-SE198\SP\RHF\Aug-CC-pVDZ\C6H14N2\OHZDE\05-Apr-2025\0\\#t hf a
 ug-cc-pvdz iop(5/13=1,5/36=2,99/5=2) pseudo=read geom=check guess=(rea
 d,tcheck) scf=(maxcycle=1)\\title\\0,1\C,0,-0.156412,0.744515,1.19888\
 C,0,0.156412,-0.744515,1.19888\C,0,-0.156412,0.744515,-1.19888\C,0,0.1
 56412,-0.744515,-1.19888\C,0,0.156412,2.817089,0.\C,0,-0.156412,-2.817
 089,0.\N,0,0.372203,1.382577,0.\N,0,-0.372203,-1.382577,0.\H,0,-1.2491
 75,0.882535,1.278396\H,0,0.300386,1.211676,2.073396\H,0,1.249175,-0.88
 2535,1.278396\H,0,-0.300386,-1.211676,2.073396\H,0,0.300386,1.211676,-

 Normal termination of Gaussian 16 at Sat Apr  5 22:12:56 2025.
