 Gaussian 16, Revision C.01,

 ----------------------------------------------------------------------
 #t hf aug-cc-pvdz symm=none int=(grid=ultrafine) guess=(read,tcheck) s
 table=(opt,rrhf)
 ----------------------------------------------------------------------
 -----
 title
 -----
 Symbolic Z-matrix:
 Charge =  0 Multiplicity = 1

 SCF Done:  E(RHF) =  -305.867684309     A.U. after   11 cycles
 Normal termination of Gaussian 16 at Sat Apr  5 22:10:16 2025.
 Gaussian 16:  ES64L-G16RevC.01  3-Jul-2019

 ----------------------------------------------------------------------
 #t hf aug-cc-pvdz iop(5/13=1,5/36=2,99/5=2) pseudo=read geom=check gue
 ss=(read,tcheck) scf=(maxcycle=1)
 ----------------------------------------------------------------------
 -----
 title
 -----
 Structure from the checkpoint file:  "1-4-dioxane.chk"
 Charge =  0 Multiplicity = 1

                         Standard orientation:
 ---------------------------------------------------------------------
 Center     Atomic      Atomic             Coordinates (Angstroms)
 Number     Number       Type             X           Y           Z
 ---------------------------------------------------------------------
      1          6           0        0.225402    0.725379    1.173820
      2          6           0       -0.225402   -0.725379    1.173820
      3          6           0        0.225402    0.725379   -1.173820
      4          6           0       -0.225402   -0.725379   -1.173820
      5          8           0       -0.225402    1.393629    0.000000
      6          8           0        0.225402   -1.393629    0.000000
      7          1           0       -0.194991    1.264433    2.022632
      8          1           0        1.320586    0.773781    1.230887
      9          1           0        0.194991   -1.264433    2.022632
     10          1           0       -1.320586   -0.773781    1.230887
     11          1           0        1.320586    0.773781   -1.230887
     12          1           0       -0.194991    1.264433   -2.022632
     13          1           0       -1.320586   -0.773781   -1.230887
     14          1           0        0.194991   -1.264433   -2.022632
 ---------------------------------------------------------------------

 SCF Done:  E(RHF) =  -305.965013537     A.U. after    2 cycles

 The electronic state is 1-AG.
 Alpha  occ. eigenvalues --  -20.57416 -20.57415 -11.28804 -11.28781 -11.28755
 Alpha  occ. eigenvalues --  -11.28723  -1.35780  -1.31534  -1.04533  -0.94770
 Alpha  occ. eigenvalues --   -0.89867  -0.79831  -0.70602  -0.65945  -0.65545
 Alpha  occ. eigenvalues --   -0.65499  -0.64484  -0.57203  -0.55753  -0.52513
 Alpha  occ. eigenvalues --   -0.51571  -0.47444  -0.46508  -0.41041
 Alpha virt. eigenvalues --    0.03662   0.04399   0.04744   0.05450   0.06292
 Alpha virt. eigenvalues --    0.06500   0.06543   0.09463   0.10540   0.11532
 Alpha virt. eigenvalues --    0.13183   0.13392   0.14481   0.15502   0.16162

 Mulliken charges:
               1
     1  C    0.615374
     2  C    0.615374
     3  C    0.615374
     4  C    0.615374
     5  O   -0.677654
     6  O   -0.677654
     7  H   -0.197799
     8  H   -0.078748
     9  H   -0.197799
    10  H   -0.078748
    11  H   -0.078748
    12  H   -0.197799
    13  H   -0.078748
    14  H   -0.197799
 Sum of Mulliken charges =  -0.00000

 Dipole moment (field-independent basis, Debye):
    X=             -0.0000    Y=              0.0000    Z=             -0.0000  Tot=              0.0000

 Test job not archived.
 1\1\GINC-SE198\SP\RHF\Aug-CC-pVDZ\C4H8O2\OHZDE\05-Apr-2025\0\\#t hf au
 g-cc-pvdz iop(5/13=1,5/36=2,99/5=2) pseudo=read geom=check guess=(read
 ,tcheck) scf=(maxcycle=1)\\title\\0,1\C,0,0.225402,0.725379,1.17382\C,
 0,-0.225402,-0.725379,1.17382\C,0,0.225402,0.725379,-1.17382\C,0,-0.22
 5402,-0.725379,-1.17382\O,0,-0.225402,1.393629,0.\O,0,0.225402,-1.3936
 29,0.\H,0,-0.194991,1.264433,2.022632\H,0,1.320586,0.773781,1.230887\H
 ,0,0.194991,-1.264433,2.022632\H,0,-1.320586,-0.773781,1.230887\H,0,1.
 320586,0.773781,-1.230887\H,0,-0.194991,1.264433,-2.022632\H,0,-1.3205

 Normal termination of Gaussian 16 at Sat Apr  5 22:10:42 2025.
