 Gaussian 16, Revision C.01,

 ----------------------------------------------------------------------
 #t hf aug-cc-pvdz symm=none int=(grid=ultrafine) guess=(read,tcheck) s
 table=(opt,rrhf)
 ----------------------------------------------------------------------
 -----
 title
 -----
 Symbolic Z-matrix:
 Charge =  0 Multiplicity = 1

 SCF Done:  E(RHF) =  -350.171457365     A.U. after   11 cycles
 Normal termination of Gaussian 16 at Sat Apr  5 22:12:49 2025.
 Gaussian 16:  ES64L-G16RevC.01  3-Jul-2019

 ----------------------------------------------------------------------
 #t hf aug-cc-pvdz iop(5/13=1,5/36=2,99/5=2) pseudo=read geom=check gue
 ss=(read,tcheck) scf=(maxcycle=1)
 ----------------------------------------------------------------------
 -----
 title
 -----
 Structure from the checkpoint file:  "1-4-dimethylnorborane.chk"
 Charge =  0 Multiplicity = 1

                         Standard orientation:
 ---------------------------------------------------------------------
 Center     Atomic      Atomic             Coordinates (Angstroms)
 Number     Number       Type             X           Y           Z
 ---------------------------------------------------------------------
      1          6           0        0.000000    0.000000    1.162215
      2          6           0        0.000000    1.146150    0.130119
      3          6           0       -0.000000   -1.146150    0.130119
      4          6           0        1.246419    0.777460   -0.711377
      5          6           0       -1.246419    0.777460   -0.711377
      6          6           0       -1.246419   -0.777460   -0.711377
      7          6           0        1.246419   -0.777460   -0.711377
      8          1           0       -0.887511    0.000000    1.799660
      9          1           0        0.887511   -0.000000    1.799660
     10          6           0        0.000000    2.567261    0.662990
     11          6           0       -0.000000   -2.567261    0.662990
     12          1           0        2.149630    1.169313   -0.239900
     13          1           0       -2.149630   -1.169313   -0.239900
     14          1           0        2.149630   -1.169313   -0.239900
     15          1           0       -2.149630    1.169313   -0.239900
     16          1           0        1.195920   -1.204338   -1.714197
     17          1           0       -1.195920    1.204338   -1.714197
     18          1           0        1.195920    1.204338   -1.714197
     19          1           0       -1.195920   -1.204338   -1.714197
     20          1           0        0.882939   -2.760591    1.276063
     21          1           0        0.000000   -3.294790   -0.152370
     22          1           0       -0.882939   -2.760591    1.276063
     23          1           0       -0.882939    2.760591    1.276063
     24          1           0        0.000000    3.294790   -0.152370
     25          1           0        0.882939    2.760591    1.276063
 ---------------------------------------------------------------------

 SCF Done:  E(RHF) =  -350.275065702     A.U. after    2 cycles

 The electronic state is 1-A1.
 Alpha  occ. eigenvalues --  -11.23061 -11.23050 -11.21865 -11.21858 -11.21827
 Alpha  occ. eigenvalues --  -11.21816 -11.21674 -11.21674 -11.21524  -1.15584
 Alpha  occ. eigenvalues --   -1.02816  -0.99027  -0.95632  -0.92226  -0.87251
 Alpha  occ. eigenvalues --   -0.82447  -0.74106  -0.70510  -0.64697  -0.63133
 Alpha  occ. eigenvalues --   -0.62794  -0.57934  -0.56365  -0.55599  -0.54887
 Alpha  occ. eigenvalues --   -0.54620  -0.51905  -0.49942  -0.47662  -0.46755
 Alpha  occ. eigenvalues --   -0.46258  -0.44984  -0.43768  -0.41645  -0.41025
 Alpha virt. eigenvalues --    0.03494   0.03897   0.04466   0.04541   0.06050
 Alpha virt. eigenvalues --    0.06078   0.06089   0.06421   0.06596   0.08414
 Alpha virt. eigenvalues --    0.08467   0.08801   0.08812   0.08843   0.09266

 Mulliken charges:
               1
     1  C    1.214318
     2  C   -2.822127
     3  C   -2.822127
     4  C    0.685685
     5  C    0.685685
     6  C    0.685685
     7  C    0.685685
     8  H   -0.138469
     9  H   -0.138469
    10  C    1.610281
    11  C    1.610281
    12  H   -0.169254
    13  H   -0.169254
    14  H   -0.169254
    15  H   -0.169254
    16  H   -0.142748
    17  H   -0.142748
    18  H   -0.142748
    19  H   -0.142748
    20  H   -0.020769
    21  H    0.037325
    22  H   -0.020769
    23  H   -0.020769
    24  H    0.037325
    25  H   -0.020769
 Sum of Mulliken charges =   0.00000

 Dipole moment (field-independent basis, Debye):
    X=              0.0000    Y=              0.0000    Z=              0.0230  Tot=              0.0230

 Test job not archived.
 1\1\GINC-SE199\SP\RHF\Aug-CC-pVDZ\C9H16\OHZDE\05-Apr-2025\0\\#t hf aug
 -cc-pvdz iop(5/13=1,5/36=2,99/5=2) pseudo=read geom=check guess=(read,
 tcheck) scf=(maxcycle=1)\\title\\0,1\C,0,0.,0.,1.162215\C,0,0.,1.14615
 ,0.130119\C,0,0.,-1.14615,0.130119\C,0,1.246419,0.77746,-0.711377\C,0,
 -1.246419,0.77746,-0.711377\C,0,-1.246419,-0.77746,-0.711377\C,0,1.246
 419,-0.77746,-0.711377\H,0,-0.887511,0.,1.79966\H,0,0.887511,0.,1.7996
 6\C,0,0.,2.567261,0.66299\C,0,0.,-2.567261,0.66299\H,0,2.14963,1.16931
 3,-0.2399\H,0,-2.14963,-1.169313,-0.2399\H,0,2.14963,-1.169313,-0.2399

 Normal termination of Gaussian 16 at Sat Apr  5 22:13:02 2025.
