 Gaussian 16, Revision C.01,

 ----------------------------------------------------------------------
 #t hf aug-cc-pvdz symm=none int=(grid=ultrafine) guess=(read,tcheck) s
 table=(opt,rrhf)
 ----------------------------------------------------------------------
 -----
 title
 -----
 Symbolic Z-matrix:
 Charge =  0 Multiplicity = 1

 SCF Done:  E(RHF) =  -531.969158878     A.U. after   15 cycles

 1\1\GINC-SE225\Stability\RHF\Aug-CC-pVDZ\C10H6O2\OHZDE\05-Apr-2025\0\\
 #t hf aug-cc-pvdz symm=none int=(grid=ultrafine) guess=(read,tcheck) s
 table=(opt,rrhf)\\title\\0,1\O,0,-1.061346,-2.675415,0.000027\C,0,-1.0
 22143,-1.45709,0.000009\C,0,0.261151,-0.70165,-0.000016\C,0,0.261151,0
 .70165,0.000016\C,0,-1.022143,1.45709,-0.000009\O,0,-1.061346,2.675415
 ,-0.000027\C,0,-2.274483,0.66794,-0.000007\C,0,-2.274483,-0.66794,0.00
 0007\C,0,1.470163,1.394082,0.000035\C,0,2.669385,0.69678,0.00002\C,0,2
 .669385,-0.69678,-0.00002\C,0,1.470163,-1.394082,-0.000035\H,0,-3.1893

 Normal termination of Gaussian 16 at Sat Apr  5 22:12:10 2025.
 Gaussian 16:  ES64L-G16RevC.01  3-Jul-2019

 ----------------------------------------------------------------------
 #t hf aug-cc-pvdz iop(5/13=1,5/36=2,99/5=2) pseudo=read geom=check gue
 ss=(read,tcheck) scf=(maxcycle=1)
 ----------------------------------------------------------------------
 -----
 title
 -----
 Structure from the checkpoint file:  "1-4-naphthalenedione.chk"
 Charge =  0 Multiplicity = 1

                         Standard orientation:
 ---------------------------------------------------------------------
 Center     Atomic      Atomic             Coordinates (Angstroms)
 Number     Number       Type             X           Y           Z
 ---------------------------------------------------------------------
      1          8           0       -1.061346   -2.675415    0.000027
      2          6           0       -1.022143   -1.457090    0.000009
      3          6           0        0.261151   -0.701650   -0.000016
      4          6           0        0.261151    0.701650    0.000016
      5          6           0       -1.022143    1.457090   -0.000009
      6          8           0       -1.061346    2.675415   -0.000027
      7          6           0       -2.274483    0.667940   -0.000007
      8          6           0       -2.274483   -0.667940    0.000007
      9          6           0        1.470163    1.394082    0.000035
     10          6           0        2.669385    0.696780    0.000020
     11          6           0        2.669385   -0.696780   -0.000020
     12          6           0        1.470163   -1.394082   -0.000035
     13          1           0       -3.189344    1.246182    0.000000
     14          1           0       -3.189344   -1.246182   -0.000001
     15          1           0        1.449164    2.474559    0.000078
     16          1           0        3.606515    1.236642    0.000045
     17          1           0        3.606515   -1.236642   -0.000045
     18          1           0        1.449163   -2.474559   -0.000077
 ---------------------------------------------------------------------

 SCF Done:  E(RHF) =  -532.124380772     A.U. after    2 cycles

 The electronic state is 1-A.
 Alpha  occ. eigenvalues --  -20.58524 -20.58523 -11.36830 -11.36823 -11.28891
 Alpha  occ. eigenvalues --  -11.28729 -11.28071 -11.27965 -11.27396 -11.27290
 Alpha  occ. eigenvalues --  -11.27086 -11.27083  -1.37439  -1.37156  -1.18395
 Alpha  occ. eigenvalues --   -1.12333  -1.04826  -1.04720  -0.94878  -0.88512
 Alpha  occ. eigenvalues --   -0.87568  -0.80977  -0.74740  -0.74405  -0.70949
 Alpha  occ. eigenvalues --   -0.67638  -0.66924  -0.63730  -0.63156  -0.61477
 Alpha  occ. eigenvalues --   -0.60989  -0.60903  -0.56844  -0.55677  -0.53027
 Alpha  occ. eigenvalues --   -0.51981  -0.47358  -0.44867  -0.41910  -0.37092
 Alpha  occ. eigenvalues --   -0.36592
 Alpha virt. eigenvalues --    0.00130   0.02951   0.03488   0.04215   0.05460
 Alpha virt. eigenvalues --    0.05550   0.06940   0.07140   0.09142   0.09463
 Alpha virt. eigenvalues --    0.09686   0.10647   0.11304   0.11499   0.12049

 Mulliken charges:
               1
     1  O   -0.509461
     2  C   -0.640980
     3  C    1.022436
     4  C    1.022437
     5  C   -0.640980
     6  O   -0.509461
     7  C    0.773249
     8  C    0.773249
     9  C    0.383483
    10  C    0.510651
    11  C    0.510652
    12  C    0.383482
    13  H   -0.491669
    14  H   -0.491669
    15  H   -0.610628
    16  H   -0.437082
    17  H   -0.437082
    18  H   -0.610628
 Sum of Mulliken charges =  -0.00000

 Dipole moment (field-independent basis, Debye):
    X=              1.4839    Y=              0.0000    Z=             -0.0000  Tot=              1.4839

 Test job not archived.
 1\1\GINC-SE225\SP\RHF\Aug-CC-pVDZ\C10H6O2\OHZDE\05-Apr-2025\0\\#t hf a
 ug-cc-pvdz iop(5/13=1,5/36=2,99/5=2) pseudo=read geom=check guess=(rea
 d,tcheck) scf=(maxcycle=1)\\title\\0,1\O,0,-1.061346,-2.675415,0.00002
 7\C,0,-1.022143,-1.45709,0.000009\C,0,0.261151,-0.70165,-0.000016\C,0,
 0.261151,0.70165,0.000016\C,0,-1.022143,1.45709,-0.000009\O,0,-1.06134
 6,2.675415,-0.000027\C,0,-2.274483,0.66794,-0.000007\C,0,-2.274483,-0.
 66794,0.000007\C,0,1.470163,1.394082,0.000035\C,0,2.669385,0.69678,0.0
 0002\C,0,2.669385,-0.69678,-0.00002\C,0,1.470163,-1.394082,-0.000035\H

 Normal termination of Gaussian 16 at Sat Apr  5 22:13:00 2025.
