 Gaussian 16, Revision C.01,

 ----------------------------------------------------------------------
 #t hf aug-cc-pvdz symm=none int=(grid=ultrafine) guess=(read,tcheck) s
 table=(opt,rrhf)
 ----------------------------------------------------------------------
 -----
 title
 -----
 Symbolic Z-matrix:
 Charge =  0 Multiplicity = 1

 SCF Done:  E(RHF) =  -231.861152032     A.U. after   11 cycles
 Normal termination of Gaussian 16 at Sat Apr  5 22:10:10 2025.
 Gaussian 16:  ES64L-G16RevC.01  3-Jul-2019

 ----------------------------------------------------------------------
 #t hf aug-cc-pvdz iop(5/13=1,5/36=2,99/5=2) pseudo=read geom=check gue
 ss=(read,tcheck) scf=(maxcycle=1)
 ----------------------------------------------------------------------
 -----
 title
 -----
 Structure from the checkpoint file:  "1-4-cyclohexadiene.chk"
 Charge =  0 Multiplicity = 1

                         Standard orientation:
 ---------------------------------------------------------------------
 Center     Atomic      Atomic             Coordinates (Angstroms)
 Number     Number       Type             X           Y           Z
 ---------------------------------------------------------------------
      1          6           0        1.494187   -0.000000   -0.000000
      2          6           0       -1.494187    0.000000   -0.000000
      3          6           0       -0.664224    1.251037    0.000000
      4          6           0        0.664224    1.251037    0.000000
      5          6           0       -0.664224   -1.251037   -0.000000
      6          6           0        0.664224   -1.251037    0.000000
      7          1           0        1.198840   -2.194197    0.000000
      8          1           0       -1.198840   -2.194197   -0.000000
      9          1           0        1.198840    2.194197    0.000000
     10          1           0       -1.198840    2.194197    0.000000
     11          1           0        2.167593   -0.000000    0.866807
     12          1           0       -2.167593    0.000000    0.866807
     13          1           0        2.167593   -0.000000   -0.866807
     14          1           0       -2.167593   -0.000000   -0.866807
 ---------------------------------------------------------------------

 SCF Done:  E(RHF) =  -231.931596046     A.U. after    2 cycles

 The electronic state is 1-AG.
 Alpha  occ. eigenvalues --  -11.23820 -11.23812 -11.23380 -11.23369 -11.23208
 Alpha  occ. eigenvalues --  -11.23207  -1.11687  -1.00700  -1.00035  -0.86551
 Alpha  occ. eigenvalues --   -0.78777  -0.68731  -0.65748  -0.60812  -0.59971
 Alpha  occ. eigenvalues --   -0.57032  -0.56485  -0.53765  -0.49920  -0.45075
 Alpha  occ. eigenvalues --   -0.36610  -0.33574
 Alpha virt. eigenvalues --    0.03524   0.04359   0.04385   0.05486   0.05835
 Alpha virt. eigenvalues --    0.06580   0.06799   0.08314   0.10749   0.12467
 Alpha virt. eigenvalues --    0.13706   0.14187   0.14227   0.15281   0.15590

 Mulliken charges:
               1
     1  C   -0.083913
     2  C   -0.083913
     3  C    0.365262
     4  C    0.365262
     5  C    0.365262
     6  C    0.365262
     7  H   -0.419827
     8  H   -0.419827
     9  H   -0.419827
    10  H   -0.419827
    11  H    0.096522
    12  H    0.096522
    13  H    0.096522
    14  H    0.096522
 Sum of Mulliken charges =  -0.00000

 Dipole moment (field-independent basis, Debye):
    X=             -0.0000    Y=              0.0000    Z=             -0.0000  Tot=              0.0000

 Test job not archived.
 1\1\GINC-SE176\SP\RHF\Aug-CC-pVDZ\C6H8\OHZDE\05-Apr-2025\0\\#t hf aug-
 cc-pvdz iop(5/13=1,5/36=2,99/5=2) pseudo=read geom=check guess=(read,t
 check) scf=(maxcycle=1)\\title\\0,1\C,0,1.494187,0.,0.\C,0,-1.494187,0
 .,0.\C,0,-0.664224,1.251037,0.\C,0,0.664224,1.251037,0.\C,0,-0.664224,
 -1.251037,0.\C,0,0.664224,-1.251037,0.\H,0,1.19884,-2.194197,0.\H,0,-1
 .19884,-2.194197,0.\H,0,1.19884,2.194197,0.\H,0,-1.19884,2.194197,0.\H
 ,0,2.167593,0.,0.866807\H,0,-2.167593,0.,0.866807\H,0,2.167593,0.,-0.8
 66807\H,0,-2.167593,0.,-0.866807\\Version=ES64L-G16RevC.01\State=1-AG\

 Normal termination of Gaussian 16 at Sat Apr  5 22:10:41 2025.
