 Gaussian 16, Revision C.01,

 ----------------------------------------------------------------------
 #t hf aug-cc-pvdz symm=none int=(grid=ultrafine) guess=(read,tcheck) s
 table=(opt,rrhf)
 ----------------------------------------------------------------------
 -----
 title
 -----
 Symbolic Z-matrix:
 Charge =  0 Multiplicity = 1

 SCF Done:  E(RHF) =  -307.051746329     A.U. after   12 cycles

 1\1\GINC-SE175\Stability\RHF\Aug-CC-pVDZ\C4H10O2\OHZDE\05-Apr-2025\0\\
 #t hf aug-cc-pvdz symm=none int=(grid=ultrafine) guess=(read,tcheck) s
 table=(opt,rrhf)\\title\\0,1\O,0,1.498061,2.666221,0.\O,0,-1.498061,-2
 .666221,0.\C,0,1.498061,1.237514,0.\C,0,-1.498061,-1.237514,0.\C,0,0.0
 56538,0.762057,0.\C,0,-0.056538,-0.762057,0.\H,0,2.406126,2.980641,0.\
 H,0,-2.406126,-2.980641,0.\H,0,-0.445072,1.179692,0.876807\H,0,-0.4450
 72,1.179692,-0.876807\H,0,0.445072,-1.179692,0.876807\H,0,0.445072,-1.
 179692,-0.876807\H,0,-2.018661,-0.854825,-0.885586\H,0,-2.018661,-0.85

 Normal termination of Gaussian 16 at Sat Apr  5 22:10:10 2025.
 Gaussian 16:  ES64L-G16RevC.01  3-Jul-2019

 ----------------------------------------------------------------------
 #t hf aug-cc-pvdz iop(5/13=1,5/36=2,99/5=2) pseudo=read geom=check gue
 ss=(read,tcheck) scf=(maxcycle=1)
 ----------------------------------------------------------------------
 -----
 title
 -----
 Structure from the checkpoint file:  "1-4-butanediol.chk"
 Charge =  0 Multiplicity = 1

                         Standard orientation:
 ---------------------------------------------------------------------
 Center     Atomic      Atomic             Coordinates (Angstroms)
 Number     Number       Type             X           Y           Z
 ---------------------------------------------------------------------
      1          8           0        1.498061    2.666221    0.000000
      2          8           0       -1.498061   -2.666221    0.000000
      3          6           0        1.498061    1.237514    0.000000
      4          6           0       -1.498061   -1.237514    0.000000
      5          6           0        0.056538    0.762057    0.000000
      6          6           0       -0.056538   -0.762057    0.000000
      7          1           0        2.406126    2.980641    0.000000
      8          1           0       -2.406126   -2.980641    0.000000
      9          1           0       -0.445072    1.179692    0.876807
     10          1           0       -0.445072    1.179692   -0.876807
     11          1           0        0.445072   -1.179692    0.876807
     12          1           0        0.445072   -1.179692   -0.876807
     13          1           0       -2.018661   -0.854825   -0.885586
     14          1           0       -2.018661   -0.854825    0.885586
     15          1           0        2.018661    0.854825   -0.885586
     16          1           0        2.018661    0.854825    0.885586
 ---------------------------------------------------------------------

 SCF Done:  E(RHF) =  -307.150294011     A.U. after    2 cycles

 The electronic state is 1-AG.
 Alpha  occ. eigenvalues --  -20.57024 -20.57023 -11.28584 -11.28584 -11.22973
 Alpha  occ. eigenvalues --  -11.22918  -1.31759  -1.31709  -1.06522  -0.96733
 Alpha  occ. eigenvalues --   -0.85113  -0.80280  -0.71382  -0.69165  -0.67586
 Alpha  occ. eigenvalues --   -0.64121  -0.60847  -0.56537  -0.56500  -0.50920
 Alpha  occ. eigenvalues --   -0.50614  -0.49222  -0.47342  -0.45660  -0.45299
 Alpha virt. eigenvalues --    0.03457   0.03770   0.04931   0.05093   0.05935
 Alpha virt. eigenvalues --    0.06520   0.07551   0.07886   0.08740   0.09862
 Alpha virt. eigenvalues --    0.11214   0.12518   0.14403   0.15511   0.16062

 Mulliken charges:
               1
     1  O   -0.586098
     2  O   -0.586098
     3  C    0.932266
     4  C    0.932266
     5  C    0.057196
     6  C    0.057196
     7  H    0.149738
     8  H    0.149738
     9  H   -0.104005
    10  H   -0.104005
    11  H   -0.104005
    12  H   -0.104005
    13  H   -0.172546
    14  H   -0.172546
    15  H   -0.172546
    16  H   -0.172546
 Sum of Mulliken charges =   0.00000

 Dipole moment (field-independent basis, Debye):
    X=              0.0000    Y=              0.0000    Z=             -0.0000  Tot=              0.0000

 Test job not archived.
 1\1\GINC-SE175\SP\RHF\Aug-CC-pVDZ\C4H10O2\OHZDE\05-Apr-2025\0\\#t hf a
 ug-cc-pvdz iop(5/13=1,5/36=2,99/5=2) pseudo=read geom=check guess=(rea
 d,tcheck) scf=(maxcycle=1)\\title\\0,1\O,0,1.498061,2.666221,0.\O,0,-1
 .498061,-2.666221,0.\C,0,1.498061,1.237514,0.\C,0,-1.498061,-1.237514,
 0.\C,0,0.056538,0.762057,0.\C,0,-0.056538,-0.762057,0.\H,0,2.406126,2.
 980641,0.\H,0,-2.406126,-2.980641,0.\H,0,-0.445072,1.179692,0.876807\H
 ,0,-0.445072,1.179692,-0.876807\H,0,0.445072,-1.179692,0.876807\H,0,0.
 445072,-1.179692,-0.876807\H,0,-2.018661,-0.854825,-0.885586\H,0,-2.01

 Normal termination of Gaussian 16 at Sat Apr  5 22:10:43 2025.
