 Gaussian 16, Revision C.01,

 ----------------------------------------------------------------------
 #t hf aug-cc-pvdz symm=none int=(grid=ultrafine) guess=(read,tcheck) s
 table=(opt,rrhf)
 ----------------------------------------------------------------------
 -----
 title
 -----
 Symbolic Z-matrix:
 Charge =  0 Multiplicity = 1

 SCF Done:  E(RHF) =  -193.973105702     A.U. after   12 cycles
 Normal termination of Gaussian 16 at Sat Apr  5 22:10:10 2025.
 Gaussian 16:  ES64L-G16RevC.01  3-Jul-2019

 ----------------------------------------------------------------------
 #t hf aug-cc-pvdz iop(5/13=1,5/36=2,99/5=2) pseudo=read geom=check gue
 ss=(read,tcheck) scf=(maxcycle=1)
 ----------------------------------------------------------------------
 -----
 title
 -----
 Structure from the checkpoint file:  "1-4-pentadiene.chk"
 Charge =  0 Multiplicity = 1

                         Standard orientation:
 ---------------------------------------------------------------------
 Center     Atomic      Atomic             Coordinates (Angstroms)
 Number     Number       Type             X           Y           Z
 ---------------------------------------------------------------------
      1          6           0       -0.175224    0.514096    2.220039
      2          6           0       -0.175224    0.514096   -2.220039
      3          6           0       -0.175224   -0.393919    1.253232
      4          6           0       -0.175224   -0.393919   -1.253232
      5          6           0        0.654344   -0.322824    0.000000
      6          1           0       -0.793280    0.403263    3.100778
      7          1           0        0.443638    1.401787    2.165483
      8          1           0       -0.793280    0.403263   -3.100778
      9          1           0        0.443638    1.401787   -2.165483
     10          1           0       -0.815578   -1.266462    1.348079
     11          1           0       -0.815578   -1.266462   -1.348079
     12          1           0        1.352792   -1.169518    0.000000
     13          1           0        1.256964    0.587167    0.000000
 ---------------------------------------------------------------------

 SCF Done:  E(RHF) =  -194.035479866     A.U. after    2 cycles

 The electronic state is 1-A'.
 Alpha  occ. eigenvalues --  -11.24625 -11.24622 -11.24366 -11.23145 -11.23144
 Alpha  occ. eigenvalues --   -1.08889  -1.02649  -0.92771  -0.77362  -0.76046
 Alpha  occ. eigenvalues --   -0.64671  -0.64317  -0.59859  -0.56962  -0.54847
 Alpha  occ. eigenvalues --   -0.49608  -0.49534  -0.36971  -0.36494
 Alpha virt. eigenvalues --    0.03665   0.04475   0.04506   0.05124   0.06529
 Alpha virt. eigenvalues --    0.06549   0.07778   0.08005   0.10471   0.12153
 Alpha virt. eigenvalues --    0.12793   0.13350   0.13860   0.15302   0.15551

 Mulliken charges:
               1
     1  C    0.473343
     2  C    0.473343
     3  C    0.523066
     4  C    0.523066
     5  C    0.038808
     6  H   -0.299021
     7  H   -0.294908
     8  H   -0.299021
     9  H   -0.294908
    10  H   -0.416712
    11  H   -0.416712
    12  H    0.113157
    13  H   -0.123502
 Sum of Mulliken charges =   0.00000

 Dipole moment (field-independent basis, Debye):
    X=              0.1471    Y=             -0.2474    Z=             -0.0000  Tot=              0.2878

 Test job not archived.
 1\1\GINC-SE226\SP\RHF\Aug-CC-pVDZ\C5H8\OHZDE\05-Apr-2025\0\\#t hf aug-
 cc-pvdz iop(5/13=1,5/36=2,99/5=2) pseudo=read geom=check guess=(read,t
 check) scf=(maxcycle=1)\\title\\0,1\C,0,-0.175224,0.514096,2.220039\C,
 0,-0.175224,0.514096,-2.220039\C,0,-0.175224,-0.393919,1.253232\C,0,-0
 .175224,-0.393919,-1.253232\C,0,0.654344,-0.322824,0.\H,0,-0.79328,0.4
 03263,3.100778\H,0,0.443638,1.401787,2.165483\H,0,-0.79328,0.403263,-3
 .100778\H,0,0.443638,1.401787,-2.165483\H,0,-0.815578,-1.266462,1.3480
 79\H,0,-0.815578,-1.266462,-1.348079\H,0,1.352792,-1.169518,0.\H,0,1.2

 Normal termination of Gaussian 16 at Sat Apr  5 22:10:41 2025.
