 Gaussian 16, Revision C.01,

 ----------------------------------------------------------------------
 #t hf aug-cc-pvdz symm=none int=(grid=ultrafine) guess=(read,tcheck) s
 table=(opt,rrhf)
 ----------------------------------------------------------------------
 -----
 title
 -----
 Symbolic Z-matrix:
 Charge =  0 Multiplicity = 1

 SCF Done:  E(RHF) =  -952.380153463     A.U. after   12 cycles

 1\1\GINC-SE176\Stability\RHF\Aug-CC-pVDZ\C4H10S2\OHZDE\05-Apr-2025\0\\
 #t hf aug-cc-pvdz symm=none int=(grid=ultrafine) guess=(read,tcheck) s
 table=(opt,rrhf)\\title\\0,1\S,0,1.472597,3.116152,0.\S,0,-1.472597,-3
 .116152,0.\C,0,1.472597,1.273536,0.\C,0,-1.472597,-1.273536,0.\C,0,0.0
 34763,0.765028,0.\C,0,-0.034763,-0.765028,0.\H,0,2.807152,3.283532,0.\
 H,0,-2.807152,-3.283532,0.\H,0,-0.487695,1.15642,0.876726\H,0,-0.48769
 5,1.15642,-0.876726\H,0,0.487695,-1.15642,0.876726\H,0,0.487695,-1.156
 42,-0.876726\H,0,-2.001588,-0.922653,-0.88465\H,0,-2.001588,-0.922653,

 Normal termination of Gaussian 16 at Sat Apr  5 22:10:15 2025.
 Gaussian 16:  ES64L-G16RevC.01  3-Jul-2019

 ----------------------------------------------------------------------
 #t hf aug-cc-pvdz iop(5/13=1,5/36=2,99/5=2) pseudo=read geom=check gue
 ss=(read,tcheck) scf=(maxcycle=1)
 ----------------------------------------------------------------------
 -----
 title
 -----
 Structure from the checkpoint file:  "1-4-butanedithiol.chk"
 Charge =  0 Multiplicity = 1

                         Standard orientation:
 ---------------------------------------------------------------------
 Center     Atomic      Atomic             Coordinates (Angstroms)
 Number     Number       Type             X           Y           Z
 ---------------------------------------------------------------------
      1         16           0        1.472597    3.116152    0.000000
      2         16           0       -1.472597   -3.116152    0.000000
      3          6           0        1.472597    1.273536    0.000000
      4          6           0       -1.472597   -1.273536    0.000000
      5          6           0        0.034763    0.765028    0.000000
      6          6           0       -0.034763   -0.765028    0.000000
      7          1           0        2.807152    3.283532    0.000000
      8          1           0       -2.807152   -3.283532    0.000000
      9          1           0       -0.487695    1.156420    0.876726
     10          1           0       -0.487695    1.156420   -0.876726
     11          1           0        0.487695   -1.156420    0.876726
     12          1           0        0.487695   -1.156420   -0.876726
     13          1           0       -2.001588   -0.922653   -0.884650
     14          1           0       -2.001588   -0.922653    0.884650
     15          1           0        2.001588    0.922653   -0.884650
     16          1           0        2.001588    0.922653    0.884650
 ---------------------------------------------------------------------

 SCF Done:  E(RHF) =  -952.469392130     A.U. after    2 cycles

 The electronic state is 1-AG.
 Alpha  occ. eigenvalues --  -93.53456 -93.53456 -11.27656 -11.27656 -11.25012
 Alpha  occ. eigenvalues --  -11.24959  -8.83189  -8.83189  -6.17384  -6.17371
 Alpha  occ. eigenvalues --   -6.17134  -6.17130  -6.16785  -6.16783  -1.10202
 Alpha  occ. eigenvalues --   -1.04682  -0.97028  -0.89266  -0.82055  -0.81092
 Alpha  occ. eigenvalues --   -0.67636  -0.61931  -0.61927  -0.58227  -0.55575
 Alpha  occ. eigenvalues --   -0.54041  -0.51289  -0.49309  -0.48040  -0.45257
 Alpha  occ. eigenvalues --   -0.44488  -0.35708  -0.35680
 Alpha virt. eigenvalues --    0.03461   0.03795   0.04816   0.04997   0.05678
 Alpha virt. eigenvalues --    0.06444   0.07520   0.08141   0.08307   0.09488
 Alpha virt. eigenvalues --    0.10057   0.10433   0.11527   0.12933   0.14191

 Mulliken charges:
               1
     1  S    0.366606
     2  S    0.366606
     3  C    0.067364
     4  C    0.067364
     5  C    0.169760
     6  C    0.169760
     7  H    0.032387
     8  H    0.032387
     9  H   -0.152463
    10  H   -0.152463
    11  H   -0.152463
    12  H   -0.152463
    13  H   -0.165595
    14  H   -0.165595
    15  H   -0.165595
    16  H   -0.165595
 Sum of Mulliken charges =  -0.00000

 Dipole moment (field-independent basis, Debye):
    X=             -0.0000    Y=             -0.0000    Z=              0.0000  Tot=              0.0000

 Test job not archived.
 1\1\GINC-SE176\SP\RHF\Aug-CC-pVDZ\C4H10S2\OHZDE\05-Apr-2025\0\\#t hf a
 ug-cc-pvdz iop(5/13=1,5/36=2,99/5=2) pseudo=read geom=check guess=(rea
 d,tcheck) scf=(maxcycle=1)\\title\\0,1\S,0,1.472597,3.116152,0.\S,0,-1
 .472597,-3.116152,0.\C,0,1.472597,1.273536,0.\C,0,-1.472597,-1.273536,
 0.\C,0,0.034763,0.765028,0.\C,0,-0.034763,-0.765028,0.\H,0,2.807152,3.
 283532,0.\H,0,-2.807152,-3.283532,0.\H,0,-0.487695,1.15642,0.876726\H,
 0,-0.487695,1.15642,-0.876726\H,0,0.487695,-1.15642,0.876726\H,0,0.487
 695,-1.15642,-0.876726\H,0,-2.001588,-0.922653,-0.88465\H,0,-2.001588,

 Normal termination of Gaussian 16 at Sat Apr  5 22:10:43 2025.
