 Gaussian 16, Revision C.01,

 ----------------------------------------------------------------------
 #t hf aug-cc-pvdz symm=none int=(grid=ultrafine) guess=(read,tcheck) s
 table=(opt,rrhf)
 ----------------------------------------------------------------------
 -----
 title
 -----
 Symbolic Z-matrix:
 Charge =  0 Multiplicity = 1

 SCF Done:  E(RHF) =  -269.641728422     A.U. after   13 cycles
 Normal termination of Gaussian 16 at Sat Apr  5 22:11:15 2025.
 Gaussian 16:  ES64L-G16RevC.01  3-Jul-2019

 ----------------------------------------------------------------------
 #t hf aug-cc-pvdz iop(5/13=1,5/36=2,99/5=2) pseudo=read geom=check gue
 ss=(read,tcheck) scf=(maxcycle=1)
 ----------------------------------------------------------------------
 -----
 title
 -----
 Structure from the checkpoint file:  "1-5-heptadiyne.chk"
 Charge =  0 Multiplicity = 1

                         Standard orientation:
 ---------------------------------------------------------------------
 Center     Atomic      Atomic             Coordinates (Angstroms)
 Number     Number       Type             X           Y           Z
 ---------------------------------------------------------------------
      1          6           0       -2.375167    1.623271   -0.199143
      2          6           0       -2.007050    0.527064    0.118833
      3          6           0        1.874986   -0.008026   -0.044601
      4          6           0        0.850272   -0.614152   -0.202794
      5          6           0        3.114009    0.734257    0.139370
      6          6           0       -1.564604   -0.810976    0.487974
      7          6           0       -0.398446   -1.345731   -0.378509
      8          1           0       -2.697409    2.595513   -0.476233
      9          1           0        3.585287    0.955741   -0.819838
     10          1           0        2.929194    1.683095    0.646012
     11          1           0        3.828780    0.168899    0.739903
     12          1           0       -2.406200   -1.502168    0.396639
     13          1           0       -1.262452   -0.817791    1.537388
     14          1           0       -0.697428   -1.320675   -1.428857
     15          1           0       -0.243770   -2.396855   -0.121794
 ---------------------------------------------------------------------

 SCF Done:  E(RHF) =  -269.728906627     A.U. after    2 cycles

 The electronic state is 1-A.
 Alpha  occ. eigenvalues --  -11.26892 -11.26709 -11.25367 -11.24351 -11.23203
 Alpha  occ. eigenvalues --  -11.23084 -11.22627  -1.09478  -1.04338  -1.00463
 Alpha  occ. eigenvalues --   -0.94906  -0.88602  -0.72228  -0.67693  -0.65555
 Alpha  occ. eigenvalues --   -0.62549  -0.59145  -0.58765  -0.57581  -0.56233
 Alpha  occ. eigenvalues --   -0.54474  -0.39331  -0.38825  -0.36779  -0.36658
 Alpha virt. eigenvalues --    0.03398   0.03757   0.04146   0.05127   0.05946
 Alpha virt. eigenvalues --    0.06620   0.06891   0.06970   0.10148   0.10770
 Alpha virt. eigenvalues --    0.11759   0.12240   0.12972   0.13532   0.14276

 Mulliken charges:
               1
     1  C    1.140485
     2  C   -0.613332
     3  C   -0.829900
     4  C   -0.087532
     5  C    0.145701
     6  C   -0.006156
     7  C   -0.024455
     8  H   -0.542549
     9  H    0.147756
    10  H    0.145609
    11  H    0.144364
    12  H    0.055049
    13  H    0.031823
    14  H    0.132902
    15  H    0.160234
 Sum of Mulliken charges =  -0.00000

 Dipole moment (field-independent basis, Debye):
    X=              0.4410    Y=             -0.4590    Z=              0.1610  Tot=              0.6565

 Test job not archived.
 1\1\GINC-SE231\SP\RHF\Aug-CC-pVDZ\C7H8\OHZDE\05-Apr-2025\0\\#t hf aug-
 cc-pvdz iop(5/13=1,5/36=2,99/5=2) pseudo=read geom=check guess=(read,t
 check) scf=(maxcycle=1)\\title\\0,1\C,0,-2.375167,1.623271,-0.199143\C
 ,0,-2.00705,0.527064,0.118833\C,0,1.874986,-0.008026,-0.044601\C,0,0.8
 50272,-0.614152,-0.202794\C,0,3.114009,0.734257,0.13937\C,0,-1.564604,
 -0.810976,0.487974\C,0,-0.398446,-1.345731,-0.378509\H,0,-2.697409,2.5
 95513,-0.476233\H,0,3.585287,0.955741,-0.819838\H,0,2.929194,1.683095,
 0.646012\H,0,3.82878,0.168899,0.739903\H,0,-2.4062,-1.502168,0.396639\

 Normal termination of Gaussian 16 at Sat Apr  5 22:11:49 2025.
