 Gaussian 16, Revision C.01,

 ----------------------------------------------------------------------
 #t hf aug-cc-pvdz symm=none int=(grid=ultrafine) guess=(read,tcheck) s
 table=(opt,rrhf)
 ----------------------------------------------------------------------
 -----
 title
 -----
 Symbolic Z-matrix:
 Charge =  0 Multiplicity = 1

 SCF Done:  E(RHF) =  -233.011801707     A.U. after   12 cycles
 Normal termination of Gaussian 16 at Sat Apr  5 22:10:25 2025.
 Gaussian 16:  ES64L-G16RevC.01  3-Jul-2019

 ----------------------------------------------------------------------
 #t hf aug-cc-pvdz iop(5/13=1,5/36=2,99/5=2) pseudo=read geom=check gue
 ss=(read,tcheck) scf=(maxcycle=1)
 ----------------------------------------------------------------------
 -----
 title
 -----
 Structure from the checkpoint file:  "1-5-hexadiene.chk"
 Charge =  0 Multiplicity = 1

                         Standard orientation:
 ---------------------------------------------------------------------
 Center     Atomic      Atomic             Coordinates (Angstroms)
 Number     Number       Type             X           Y           Z
 ---------------------------------------------------------------------
      1          6           0        0.143509    2.259213   -0.972760
      2          6           0       -0.143509   -2.259213   -0.972760
      3          6           0       -0.493542    1.494787   -0.095250
      4          6           0        0.493542   -1.494787   -0.095250
      5          6           0        0.143509    0.758656    1.044302
      6          6           0       -0.143509   -0.758656    1.044302
      7          1           0       -0.382876    2.769274   -1.768280
      8          1           0        1.216623    2.403065   -0.926974
      9          1           0        0.382876   -2.769274   -1.768280
     10          1           0       -1.216623   -2.403065   -0.926974
     11          1           0       -1.570475    1.377799   -0.187498
     12          1           0        1.570475   -1.377799   -0.187498
     13          1           0       -0.232692    1.168727    1.987200
     14          1           0        1.222919    0.929600    1.037802
     15          1           0       -1.222919   -0.929600    1.037802
     16          1           0        0.232692   -1.168727    1.987200
 ---------------------------------------------------------------------

 SCF Done:  E(RHF) =  -233.086143017     A.U. after    2 cycles

 The electronic state is 1-A.
 Alpha  occ. eigenvalues --  -11.24042 -11.24041 -11.23890 -11.23841 -11.22746
 Alpha  occ. eigenvalues --  -11.22746  -1.09026  -1.04081  -0.97143  -0.86578
 Alpha  occ. eigenvalues --   -0.76239  -0.75618  -0.64849  -0.63634  -0.60249
 Alpha  occ. eigenvalues --   -0.60122  -0.55866  -0.52548  -0.50973  -0.48178
 Alpha  occ. eigenvalues --   -0.47852  -0.36344  -0.36140
 Alpha virt. eigenvalues --    0.03603   0.04279   0.04426   0.04700   0.06362
 Alpha virt. eigenvalues --    0.06430   0.06539   0.06940   0.08699   0.09162
 Alpha virt. eigenvalues --    0.11005   0.11684   0.12633   0.13493   0.14479

 Mulliken charges:
               1
     1  C    0.379554
     2  C    0.379554
     3  C    0.776416
     4  C    0.776416
     5  C    0.127863
     6  C    0.127863
     7  H   -0.324855
     8  H   -0.301340
     9  H   -0.324855
    10  H   -0.301340
    11  H   -0.438686
    12  H   -0.438686
    13  H   -0.003501
    14  H   -0.215451
    15  H   -0.215451
    16  H   -0.003501
 Sum of Mulliken charges =  -0.00000

 Dipole moment (field-independent basis, Debye):
    X=             -0.0000    Y=             -0.0000    Z=              0.5164  Tot=              0.5164

 Test job not archived.
 1\1\GINC-SE231\SP\RHF\Aug-CC-pVDZ\C6H10\OHZDE\05-Apr-2025\0\\#t hf aug
 -cc-pvdz iop(5/13=1,5/36=2,99/5=2) pseudo=read geom=check guess=(read,
 tcheck) scf=(maxcycle=1)\\title\\0,1\C,0,0.143509,2.259213,-0.97276\C,
 0,-0.143509,-2.259213,-0.97276\C,0,-0.493542,1.494787,-0.09525\C,0,0.4
 93542,-1.494787,-0.09525\C,0,0.143509,0.758656,1.044302\C,0,-0.143509,
 -0.758656,1.044302\H,0,-0.382876,2.769274,-1.76828\H,0,1.216623,2.4030
 65,-0.926974\H,0,0.382876,-2.769274,-1.76828\H,0,-1.216623,-2.403065,-
 0.926974\H,0,-1.570475,1.377799,-0.187498\H,0,1.570475,-1.377799,-0.18

 Normal termination of Gaussian 16 at Sat Apr  5 22:10:42 2025.
