 Gaussian 16, Revision C.01,

 ----------------------------------------------------------------------
 #t hf aug-cc-pvdz symm=none int=(grid=ultrafine) guess=(read,tcheck) s
 table=(opt,rrhf)
 ----------------------------------------------------------------------
 -----
 title
 -----
 Symbolic Z-matrix:
 Charge =  0 Multiplicity = 1

 SCF Done:  E(RHF) =  -461.476556854     A.U. after   15 cycles
 Normal termination of Gaussian 16 at Sat Apr  5 22:14:51 2025.
 Gaussian 16:  ES64L-G16RevC.01  3-Jul-2019

 ----------------------------------------------------------------------
 #t hf aug-cc-pvdz iop(5/13=1,5/36=2,99/5=2) pseudo=read geom=check gue
 ss=(read,tcheck) scf=(maxcycle=1)
 ----------------------------------------------------------------------
 -----
 title
 -----
 Structure from the checkpoint file:  "1-6-dimethylnaphthalene.chk"
 Charge =  0 Multiplicity = 1

                         Standard orientation:
 ---------------------------------------------------------------------
 Center     Atomic      Atomic             Coordinates (Angstroms)
 Number     Number       Type             X           Y           Z
 ---------------------------------------------------------------------
      1          6           0       -0.072264    1.827345   -0.349034
      2          6           0        0.072264   -1.827345    0.349034
      3          6           0       -1.374617    2.108960   -0.034074
      4          6           0        1.374617   -2.108960    0.034074
      5          6           0        1.779072    0.182743   -0.544682
      6          6           0       -1.779072   -0.182743    0.544682
      7          6           0        0.438570    0.512106   -0.228855
      8          6           0       -0.438570   -0.512106    0.228855
      9          6           0       -2.259063    1.098577    0.422509
     10          6           0        2.259063   -1.098577   -0.422509
     11          6           0       -3.684425    1.447260    0.756865
     12          6           0        3.684425   -1.447260   -0.756865
     13          1           0        0.585539    2.614560   -0.696015
     14          1           0       -0.585539   -2.614560    0.696015
     15          1           0       -1.742638    3.122803   -0.134031
     16          1           0        1.742638   -3.122803    0.134031
     17          1           0        2.435555    0.972293   -0.891642
     18          1           0       -2.435555   -0.972293    0.891642
     19          1           0       -4.237087    0.574737    1.102510
     20          1           0       -3.731712    2.207391    1.539862
     21          1           0       -4.206005    1.852269   -0.113324
     22          1           0        4.206005   -1.852269    0.113324
     23          1           0        3.731712   -2.207391   -1.539862
     24          1           0        4.237087   -0.574737   -1.102510
 ---------------------------------------------------------------------

 SCF Done:  E(RHF) =  -461.612081931     A.U. after    2 cycles

 The electronic state is 1-AG.
 Alpha  occ. eigenvalues --  -11.24762 -11.24762 -11.24563 -11.24467 -11.24199
 Alpha  occ. eigenvalues --  -11.24195 -11.23870 -11.23870 -11.23604 -11.23604
 Alpha  occ. eigenvalues --  -11.23320 -11.23319  -1.16566  -1.11185  -1.04416
 Alpha  occ. eigenvalues --   -1.03888  -0.98206  -0.96262  -0.90467  -0.84897
 Alpha  occ. eigenvalues --   -0.81309  -0.80000  -0.69892  -0.69210  -0.66640
 Alpha  occ. eigenvalues --   -0.62225  -0.60333  -0.60208  -0.58189  -0.58127
 Alpha  occ. eigenvalues --   -0.57649  -0.55464  -0.54072  -0.53478  -0.51991
 Alpha  occ. eigenvalues --   -0.50953  -0.48447  -0.47274  -0.43338  -0.38319
 Alpha  occ. eigenvalues --   -0.31089  -0.28598
 Alpha virt. eigenvalues --    0.03477   0.03483   0.03786   0.04844   0.05280
 Alpha virt. eigenvalues --    0.05811   0.06138   0.06599   0.07124   0.08149
 Alpha virt. eigenvalues --    0.08306   0.08952   0.09752   0.10711   0.10810

 Mulliken charges:
               1
     1  C    0.577717
     2  C    0.577717
     3  C    0.510408
     4  C    0.510408
     5  C    0.787272
     6  C    0.787272
     7  C   -0.225029
     8  C   -0.225029
     9  C   -0.446002
    10  C   -0.446002
    11  C    0.596077
    12  C    0.596077
    13  H   -0.641748
    14  H   -0.641748
    15  H   -0.625118
    16  H   -0.625118
    17  H   -0.583421
    18  H   -0.583421
    19  H   -0.193149
    20  H    0.119343
    21  H    0.123650
    22  H    0.123650
    23  H    0.119343
    24  H   -0.193149
 Sum of Mulliken charges =   0.00000

 Dipole moment (field-independent basis, Debye):
    X=             -0.0000    Y=              0.0000    Z=              0.0000  Tot=              0.0000

 Test job not archived.
 1\1\GINC-SE232\SP\RHF\Aug-CC-pVDZ\C12H12\OHZDE\05-Apr-2025\0\\#t hf au
 g-cc-pvdz iop(5/13=1,5/36=2,99/5=2) pseudo=read geom=check guess=(read
 ,tcheck) scf=(maxcycle=1)\\title\\0,1\C,0,-0.072264,1.827345,-0.349034
 \C,0,0.072264,-1.827345,0.349034\C,0,-1.374617,2.10896,-0.034074\C,0,1
 .374617,-2.10896,0.034074\C,0,1.779072,0.182743,-0.544682\C,0,-1.77907
 2,-0.182743,0.544682\C,0,0.43857,0.512106,-0.228855\C,0,-0.43857,-0.51
 2106,0.228855\C,0,-2.259063,1.098577,0.422509\C,0,2.259063,-1.098577,-
 0.422509\C,0,-3.684425,1.44726,0.756865\C,0,3.684425,-1.44726,-0.75686

 Normal termination of Gaussian 16 at Sat Apr  5 22:15:54 2025.
