 Gaussian 16, Revision C.01,

 ----------------------------------------------------------------------
 #t hf aug-cc-pvdz symm=none int=(grid=ultrafine) guess=(read,tcheck) s
 table=(opt,rrhf)
 ----------------------------------------------------------------------
 -----
 title
 -----
 Symbolic Z-matrix:
 Charge =  0 Multiplicity = 1

 SCF Done:  E(RHF) =  -316.573701508     A.U. after   16 cycles
 Normal termination of Gaussian 16 at Sat Apr  5 22:11:03 2025.
 Gaussian 16:  ES64L-G16RevC.01  3-Jul-2019

 ----------------------------------------------------------------------
 #t hf aug-cc-pvdz iop(5/13=1,5/36=2,99/5=2) pseudo=read geom=check gue
 ss=(read,tcheck) scf=(maxcycle=1)
 ----------------------------------------------------------------------
 -----
 title
 -----
 Structure from the checkpoint file:  "1-amino-1-2-dicyanoethene.chk"
 Charge =  0 Multiplicity = 1

                         Standard orientation:
 ---------------------------------------------------------------------
 Center     Atomic      Atomic             Coordinates (Angstroms)
 Number     Number       Type             X           Y           Z
 ---------------------------------------------------------------------
      1          7           0       -0.215113    1.497969   -0.037148
      2          7           0       -2.925719   -0.543036    0.011247
      3          7           0        2.995579   -0.108089    0.011842
      4          6           0       -0.435847    0.155615   -0.006082
      5          6           0        0.526381   -0.803968   -0.007016
      6          6           0       -1.814276   -0.244776   -0.000475
      7          6           0        1.891978   -0.450754    0.001475
      8          1           0        0.725085    1.844501    0.057268
      9          1           0       -0.969933    2.136882    0.130733
     10          1           0        0.252209   -1.846001   -0.016996
 ---------------------------------------------------------------------

 SCF Done:  E(RHF) =  -316.667161750     A.U. after    2 cycles

 The electronic state is 1-A.
 Alpha  occ. eigenvalues --  -15.69531 -15.68657 -15.65604 -11.39388 -11.32782
 Alpha  occ. eigenvalues --  -11.30647 -11.30221  -1.27808  -1.22678  -1.20766
 Alpha  occ. eigenvalues --   -1.09001  -0.95387  -0.80357  -0.77521  -0.69631
 Alpha  occ. eigenvalues --   -0.66423  -0.60835  -0.58770  -0.56263  -0.51740
 Alpha  occ. eigenvalues --   -0.51320  -0.49402  -0.48270  -0.36272
 Alpha virt. eigenvalues --    0.02316   0.03521   0.04369   0.05438   0.07981
 Alpha virt. eigenvalues --    0.08619   0.09744   0.10721   0.11834   0.12297
 Alpha virt. eigenvalues --    0.12774   0.13351   0.13462   0.14448   0.15285

 Mulliken charges:
               1
     1  N   -0.336721
     2  N   -0.071367
     3  N   -0.093745
     4  C    1.204050
     5  C    1.582053
     6  C   -0.767078
     7  C   -1.080830
     8  H    0.019059
     9  H   -0.041837
    10  H   -0.413584
 Sum of Mulliken charges =   0.00000

 Dipole moment (field-independent basis, Debye):
    X=             -1.2099    Y=              1.9121    Z=              0.3388  Tot=              2.2880

 Test job not archived.
 1\1\GINC-SE009\SP\RHF\Aug-CC-pVDZ\C4H3N3\OHZDE\05-Apr-2025\0\\#t hf au
 g-cc-pvdz iop(5/13=1,5/36=2,99/5=2) pseudo=read geom=check guess=(read
 ,tcheck) scf=(maxcycle=1)\\title\\0,1\N,0,-0.215113,1.497969,-0.037148
 \N,0,-2.925719,-0.543036,0.011247\N,0,2.995579,-0.108089,0.011842\C,0,
 -0.435847,0.155615,-0.006082\C,0,0.526381,-0.803968,-0.007016\C,0,-1.8
 14276,-0.244776,-0.000475\C,0,1.891978,-0.450754,0.001475\H,0,0.725085
 ,1.844501,0.057268\H,0,-0.969933,2.136882,0.130733\H,0,0.252209,-1.846
 001,-0.016996\\Version=ES64L-G16RevC.01\State=1-A\HF=-316.6671618\RMSD

 Normal termination of Gaussian 16 at Sat Apr  5 22:11:48 2025.
