 Gaussian 16, Revision C.01,

 ----------------------------------------------------------------------
 #t hf aug-cc-pvdz symm=none int=(grid=ultrafine) guess=(read,tcheck) s
 table=(opt,rrhf)
 ----------------------------------------------------------------------
 -----
 title
 -----
 Symbolic Z-matrix:
 Charge =  0 Multiplicity = 1

 SCF Done:  E(RHF) =  -814.774738763     A.U. after   16 cycles
 Normal termination of Gaussian 16 at Sat Apr  5 22:12:07 2025.
 Gaussian 16:  ES64L-G16RevC.01  3-Jul-2019

 ----------------------------------------------------------------------
 #t hf aug-cc-pvdz iop(5/13=1,5/36=2,99/5=2) pseudo=read geom=check gue
 ss=(read,tcheck) scf=(maxcycle=1)
 ----------------------------------------------------------------------
 -----
 title
 -----
 Structure from the checkpoint file:  "1-azido-3-chloro-2-propanol.chk"
 Charge =  0 Multiplicity = 1

                         Standard orientation:
 ---------------------------------------------------------------------
 Center     Atomic      Atomic             Coordinates (Angstroms)
 Number     Number       Type             X           Y           Z
 ---------------------------------------------------------------------
      1         17           0        2.984399   -0.417879   -0.152987
      2          8           0        0.545008    1.604346   -0.451726
      3          7           0       -1.674474   -0.203357   -0.321610
      4          7           0       -2.891489   -0.320120   -0.222649
      5          7           0       -4.011018   -0.462784   -0.239944
      6          6           0        0.486114    0.564884    0.505089
      7          6           0       -0.961721    0.258054    0.891001
      8          6           0        1.212507   -0.698086    0.052682
      9          1           0        0.985966    0.954778    1.392928
     10          1           0       -1.421537    1.170797    1.275391
     11          1           0       -0.999608   -0.510498    1.668236
     12          1           0        1.110587   -1.489064    0.791667
     13          1           0        0.836499   -1.050422   -0.903648
     14          1           0        0.010714    1.348290   -1.213192
 ---------------------------------------------------------------------

 SCF Done:  E(RHF) =  -814.900361266     A.U. after    2 cycles

 The electronic state is 1-A.
 Alpha  occ. eigenvalues -- -103.64958 -20.58616 -15.86990 -15.75326 -15.69041
 Alpha  occ. eigenvalues --  -11.32226 -11.31115 -11.30989 -10.68225  -8.33948
 Alpha  occ. eigenvalues --   -8.33657  -8.33649  -1.47340  -1.34519  -1.28195
 Alpha  occ. eigenvalues --   -1.16224  -1.06425  -0.95411  -0.85955  -0.75574
 Alpha  occ. eigenvalues --   -0.72669  -0.72594  -0.68709  -0.67858  -0.65705
 Alpha  occ. eigenvalues --   -0.64858  -0.60794  -0.58438  -0.54930  -0.51894
 Alpha  occ. eigenvalues --   -0.49055  -0.45912  -0.44667  -0.43882  -0.39189
 Alpha virt. eigenvalues --    0.02967   0.03978   0.04339   0.05463   0.06963
 Alpha virt. eigenvalues --    0.07288   0.08574   0.08839   0.10603   0.11146
 Alpha virt. eigenvalues --    0.12392   0.13141   0.13537   0.14307   0.15633

 Mulliken charges:
               1
     1  Cl  -0.138244
     2  O   -0.574191
     3  N   -0.815922
     4  N    0.516308
     5  N   -0.292595
     6  C    0.350938
     7  C    0.910345
     8  C    0.129812
     9  H   -0.139904
    10  H   -0.081517
    11  H   -0.118805
    12  H    0.030303
    13  H    0.051376
    14  H    0.172096
 Sum of Mulliken charges =  -0.00000

 Dipole moment (field-independent basis, Debye):
    X=             -2.4835    Y=             -1.1346    Z=              1.6315  Tot=              3.1808

 Test job not archived.
 1\1\GINC-SE011\SP\RHF\Aug-CC-pVDZ\C3H6Cl1N3O1\OHZDE\05-Apr-2025\0\\#t
 hf aug-cc-pvdz iop(5/13=1,5/36=2,99/5=2) pseudo=read geom=check guess=
 (read,tcheck) scf=(maxcycle=1)\\title\\0,1\Cl,0,2.984399,-0.417879,-0.
 152987\O,0,0.545008,1.604346,-0.451726\N,0,-1.674474,-0.203357,-0.3216
 1\N,0,-2.891489,-0.32012,-0.222649\N,0,-4.011018,-0.462784,-0.239944\C
 ,0,0.486114,0.564884,0.505089\C,0,-0.961721,0.258054,0.891001\C,0,1.21
 2507,-0.698086,0.052682\H,0,0.985966,0.954778,1.392928\H,0,-1.421537,1
 .170797,1.275391\H,0,-0.999608,-0.510498,1.668236\H,0,1.110587,-1.4890

 Normal termination of Gaussian 16 at Sat Apr  5 22:12:53 2025.
