 Gaussian 16, Revision C.01,

 ----------------------------------------------------------------------
 #t hf aug-cc-pvdz symm=none int=(grid=ultrafine) guess=(read,tcheck) s
 table=(opt,rrhf)
 ----------------------------------------------------------------------
 -----
 title
 -----
 Symbolic Z-matrix:
 Charge =  0 Multiplicity = 1

 SCF Done:  E(RHF) =  -700.864344222     A.U. after   15 cycles
 Normal termination of Gaussian 16 at Sat Apr  5 22:10:47 2025.
 Gaussian 16:  ES64L-G16RevC.01  3-Jul-2019

 ----------------------------------------------------------------------
 #t hf aug-cc-pvdz iop(5/13=1,5/36=2,99/5=2) pseudo=read geom=check gue
 ss=(read,tcheck) scf=(maxcycle=1)
 ----------------------------------------------------------------------
 -----
 title
 -----
 Structure from the checkpoint file:  "1-azido-2-chloroethane.chk"
 Charge =  0 Multiplicity = 1

                         Standard orientation:
 ---------------------------------------------------------------------
 Center     Atomic      Atomic             Coordinates (Angstroms)
 Number     Number       Type             X           Y           Z
 ---------------------------------------------------------------------
      1         17           0        1.571721   -0.909942    0.008496
      2          7           0       -1.173896    0.820814   -0.448314
      3          7           0       -1.762173   -0.193172   -0.081847
      4          7           0       -2.396372   -1.096686    0.152096
      5          6           0       -0.060470    1.285982    0.393333
      6          6           0        1.295650    0.872078   -0.145488
      7          1           0       -0.103030    2.376437    0.375286
      8          1           0       -0.177806    0.958752    1.427891
      9          1           0        2.090432    1.359964    0.413029
     10          1           0        1.387147    1.108808   -1.201250
 ---------------------------------------------------------------------

 SCF Done:  E(RHF) =  -700.955627946     A.U. after    2 cycles

 The electronic state is 1-A.
 Alpha  occ. eigenvalues -- -103.65808 -15.85520 -15.73770 -15.67736 -11.31947
 Alpha  occ. eigenvalues --  -11.31183 -10.69095  -8.34812  -8.34528  -8.34516
 Alpha  occ. eigenvalues --   -1.45837  -1.27111  -1.17179  -1.04096  -0.88839
 Alpha  occ. eigenvalues --   -0.74859  -0.71254  -0.70126  -0.66501  -0.63105
 Alpha  occ. eigenvalues --   -0.62095  -0.58633  -0.53283  -0.46366  -0.45673
 Alpha  occ. eigenvalues --   -0.43717  -0.37844
 Alpha virt. eigenvalues --    0.02915   0.04302   0.05105   0.06137   0.08592
 Alpha virt. eigenvalues --    0.09388   0.10376   0.11187   0.12445   0.13733
 Alpha virt. eigenvalues --    0.14426   0.14839   0.15902   0.16479   0.17354

 Mulliken charges:
               1
     1  Cl  -0.147258
     2  N   -0.724856
     3  N    0.569305
     4  N   -0.318925
     5  C    0.669903
     6  C   -0.049368
     7  H   -0.090368
     8  H   -0.013805
     9  H    0.041549
    10  H    0.063824
 Sum of Mulliken charges =  -0.00000

 Dipole moment (field-independent basis, Debye):
    X=              1.0419    Y=              2.7132    Z=              0.9354  Tot=              3.0532

 Test job not archived.
 1\1\GINC-SE010\SP\RHF\Aug-CC-pVDZ\C2H4Cl1N3\OHZDE\05-Apr-2025\0\\#t hf
  aug-cc-pvdz iop(5/13=1,5/36=2,99/5=2) pseudo=read geom=check guess=(r
 ead,tcheck) scf=(maxcycle=1)\\title\\0,1\Cl,0,1.571721,-0.909942,0.008
 496\N,0,-1.173896,0.820814,-0.448314\N,0,-1.762173,-0.193172,-0.081847
 \N,0,-2.396372,-1.096686,0.152096\C,0,-0.06047,1.285982,0.393333\C,0,1
 .29565,0.872078,-0.145488\H,0,-0.10303,2.376437,0.375286\H,0,-0.177806
 ,0.958752,1.427891\H,0,2.090432,1.359964,0.413029\H,0,1.387147,1.10880
 8,-1.20125\\Version=ES64L-G16RevC.01\State=1-A\HF=-700.9556279\RMSD=4.

 Normal termination of Gaussian 16 at Sat Apr  5 22:10:51 2025.
