 Gaussian 16, Revision C.01,

 ----------------------------------------------------------------------
 #t hf aug-cc-pvdz symm=none int=(grid=ultrafine) guess=(read,tcheck) s
 table=(opt,rrhf)
 ----------------------------------------------------------------------
 -----
 title
 -----
 Symbolic Z-matrix:
 Charge =  0 Multiplicity = 1

 SCF Done:  E(RHF) =  -154.917114444     A.U. after   13 cycles
 Normal termination of Gaussian 16 at Sat Apr  5 22:10:42 2025.
 Gaussian 16:  ES64L-G16RevC.01  3-Jul-2019

 ----------------------------------------------------------------------
 #t hf aug-cc-pvdz iop(5/13=1,5/36=2,99/5=2) pseudo=read geom=check gue
 ss=(read,tcheck) scf=(maxcycle=1)
 ----------------------------------------------------------------------
 -----
 title
 -----
 Structure from the checkpoint file:  "1-butyne.chk"
 Charge =  0 Multiplicity = 1

                         Standard orientation:
 ---------------------------------------------------------------------
 Center     Atomic      Atomic             Coordinates (Angstroms)
 Number     Number       Type             X           Y           Z
 ---------------------------------------------------------------------
      1          6           0        1.328755   -1.459271    0.000000
      2          6           0        0.738939   -0.414592    0.000000
      3          6           0       -1.523500    0.649784    0.000000
      4          6           0        0.000000    0.843190    0.000000
      5          1           0        1.855677   -2.379937    0.000000
      6          1           0       -1.844031    0.095387    0.881353
      7          1           0       -1.844031    0.095387   -0.881353
      8          1           0       -2.027340    1.616676    0.000000
      9          1           0        0.297280    1.428911    0.873961
     10          1           0        0.297280    1.428911   -0.873961
 ---------------------------------------------------------------------

 SCF Done:  E(RHF) =  -154.969046086     A.U. after    2 cycles

 The electronic state is 1-A'.
 Alpha  occ. eigenvalues --  -11.26272 -11.24342 -11.23608 -11.23014  -1.07282
 Alpha  occ. eigenvalues --   -0.99157  -0.87575  -0.71872  -0.64574  -0.63099
 Alpha  occ. eigenvalues --   -0.55549  -0.52749  -0.51736  -0.38756  -0.38675
 Alpha virt. eigenvalues --    0.03548   0.04064   0.05145   0.05313   0.06521
 Alpha virt. eigenvalues --    0.07744   0.10790   0.11743   0.12031   0.12362
 Alpha virt. eigenvalues --    0.13999   0.14743   0.15306   0.16191   0.17020

 Mulliken charges:
               1
     1  C    1.074613
     2  C   -0.690322
     3  C    0.374720
     4  C   -0.134668
     5  H   -0.522173
     6  H   -0.053456
     7  H   -0.053456
     8  H   -0.073427
     9  H    0.039084
    10  H    0.039084
 Sum of Mulliken charges =  -0.00000

 Dipole moment (field-independent basis, Debye):
    X=             -0.5069    Y=              0.6571    Z=             -0.0000  Tot=              0.8299

 Test job not archived.
 1\1\GINC-SE046\SP\RHF\Aug-CC-pVDZ\C4H6\OHZDE\05-Apr-2025\0\\#t hf aug-
 cc-pvdz iop(5/13=1,5/36=2,99/5=2) pseudo=read geom=check guess=(read,t
 check) scf=(maxcycle=1)\\title\\0,1\C,0,1.328756,-1.459271,0.\C,0,0.73
 8939,-0.414592,0.\C,0,-1.5235,0.649784,0.\C,0,0.,0.84319,0.\H,0,1.8556
 78,-2.379936,0.\H,0,-1.844031,0.095387,0.881353\H,0,-1.844031,0.095387
 ,-0.881353\H,0,-2.02734,1.616676,0.\H,0,0.29728,1.428911,0.873961\H,0,
 0.29728,1.428911,-0.873961\\Version=ES64L-G16RevC.01\State=1-A'\HF=-15
 4.9690461\RMSD=7.831e-03\Dipole=-0.1994446,0.2585213,0.\Quadrupole=-0.

 Normal termination of Gaussian 16 at Sat Apr  5 22:10:45 2025.
