 Gaussian 16, Revision C.01,

 ----------------------------------------------------------------------
 #t hf aug-cc-pvdz symm=none int=(grid=ultrafine) guess=(read,tcheck) s
 table=(opt,rrhf)
 ----------------------------------------------------------------------
 -----
 title
 -----
 Symbolic Z-matrix:
 Charge =  0 Multiplicity = 1

 SCF Done:  E(RHF) =  -232.183029835     A.U. after   12 cycles

 1\1\GINC-SE013\Stability\RHF\Aug-CC-pVDZ\C4H10O1\OHZDE\05-Apr-2025\0\\
 #t hf aug-cc-pvdz symm=none int=(grid=ultrafine) guess=(read,tcheck) s
 table=(opt,rrhf)\\title\\0,1\C,0,2.514552,-0.302534,-0.010159\C,0,1.22
 8558,0.521535,0.028293\C,0,-0.036512,-0.336644,-0.027812\C,0,-1.316665
 ,0.487981,0.016814\O,0,-2.500646,-0.301127,-0.09206\H,0,2.565348,-0.99
 3371,0.833797\H,0,2.57528,-0.895054,-0.925011\H,0,3.397647,0.336304,0.
 030805\H,0,1.214362,1.13096,0.936793\H,0,1.223025,1.225237,-0.809202\H
 ,0,-0.039872,-0.939383,-0.939874\H,0,-0.034575,-1.041035,0.812011\H,0,

 Normal termination of Gaussian 16 at Sat Apr  5 22:11:02 2025.
 Gaussian 16:  ES64L-G16RevC.01  3-Jul-2019

 ----------------------------------------------------------------------
 #t hf aug-cc-pvdz iop(5/13=1,5/36=2,99/5=2) pseudo=read geom=check gue
 ss=(read,tcheck) scf=(maxcycle=1)
 ----------------------------------------------------------------------
 -----
 title
 -----
 Structure from the checkpoint file:  "1-butanol.chk"
 Charge =  0 Multiplicity = 1

                         Standard orientation:
 ---------------------------------------------------------------------
 Center     Atomic      Atomic             Coordinates (Angstroms)
 Number     Number       Type             X           Y           Z
 ---------------------------------------------------------------------
      1          6           0        2.514552   -0.302534   -0.010159
      2          6           0        1.228558    0.521535    0.028293
      3          6           0       -0.036512   -0.336644   -0.027812
      4          6           0       -1.316665    0.487981    0.016814
      5          8           0       -2.500646   -0.301127   -0.092060
      6          1           0        2.565348   -0.993371    0.833797
      7          1           0        2.575280   -0.895054   -0.925011
      8          1           0        3.397647    0.336304    0.030805
      9          1           0        1.214362    1.130960    0.936793
     10          1           0        1.223025    1.225237   -0.809202
     11          1           0       -0.039872   -0.939383   -0.939874
     12          1           0       -0.034575   -1.041035    0.812011
     13          1           0       -1.343796    1.095071    0.929885
     14          1           0       -1.352146    1.175054   -0.829661
     15          1           0       -2.539703   -0.906796    0.654122
 ---------------------------------------------------------------------

 SCF Done:  E(RHF) =  -232.258917324     A.U. after    2 cycles

 The electronic state is 1-A.
 Alpha  occ. eigenvalues --  -20.56784 -11.28242 -11.23366 -11.22974 -11.22596
 Alpha  occ. eigenvalues --   -1.31496  -1.06586  -0.97205  -0.86302  -0.80391
 Alpha  occ. eigenvalues --   -0.69903  -0.64572  -0.61840  -0.60565  -0.56069
 Alpha  occ. eigenvalues --   -0.54728  -0.52198  -0.48724  -0.48122  -0.47107
 Alpha  occ. eigenvalues --   -0.44514
 Alpha virt. eigenvalues --    0.03447   0.04218   0.04651   0.05008   0.06440
 Alpha virt. eigenvalues --    0.06766   0.07128   0.07555   0.09315   0.10023
 Alpha virt. eigenvalues --    0.11008   0.12935   0.14935   0.15289   0.16155

 Mulliken charges:
               1
     1  C    0.395182
     2  C    0.152112
     3  C   -0.014384
     4  C    0.954555
     5  O   -0.559952
     6  H   -0.077671
     7  H   -0.072371
     8  H   -0.069974
     9  H   -0.124368
    10  H   -0.128004
    11  H   -0.099027
    12  H   -0.162490
    13  H   -0.136212
    14  H   -0.195156
    15  H    0.137760
 Sum of Mulliken charges =  -0.00000

 Dipole moment (field-independent basis, Debye):
    X=              1.5403    Y=             -0.0655    Z=              1.2595  Tot=              1.9908

 Test job not archived.
 1\1\GINC-SE013\SP\RHF\Aug-CC-pVDZ\C4H10O1\OHZDE\05-Apr-2025\0\\#t hf a
 ug-cc-pvdz iop(5/13=1,5/36=2,99/5=2) pseudo=read geom=check guess=(rea
 d,tcheck) scf=(maxcycle=1)\\title\\0,1\C,0,2.514552,-0.302534,-0.01015
 9\C,0,1.228558,0.521535,0.028293\C,0,-0.036512,-0.336644,-0.027812\C,0
 ,-1.316665,0.487981,0.016814\O,0,-2.500646,-0.301127,-0.09206\H,0,2.56
 5348,-0.993371,0.833797\H,0,2.57528,-0.895054,-0.925011\H,0,3.397647,0
 .336304,0.030805\H,0,1.214362,1.13096,0.936793\H,0,1.223025,1.225237,-
 0.809202\H,0,-0.039872,-0.939383,-0.939874\H,0,-0.034575,-1.041035,0.8

 Normal termination of Gaussian 16 at Sat Apr  5 22:11:48 2025.
