 Gaussian 16, Revision C.01,

 ----------------------------------------------------------------------
 #t hf aug-cc-pvdz symm=none int=(grid=ultrafine) guess=(read,tcheck) s
 table=(opt,rrhf)
 ----------------------------------------------------------------------
 -----
 title
 -----
 Symbolic Z-matrix:
 Charge =  0 Multiplicity = 1

 SCF Done:  E(RHF) =  -153.726467764     A.U. after   14 cycles
 Normal termination of Gaussian 16 at Sat Apr  5 22:10:48 2025.
 Gaussian 16:  ES64L-G16RevC.01  3-Jul-2019

 ----------------------------------------------------------------------
 #t hf aug-cc-pvdz iop(5/13=1,5/36=2,99/5=2) pseudo=read geom=check gue
 ss=(read,tcheck) scf=(maxcycle=1)
 ----------------------------------------------------------------------
 -----
 title
 -----
 Structure from the checkpoint file:  "1-buten-3-yne.chk"
 Charge =  0 Multiplicity = 1

                         Standard orientation:
 ---------------------------------------------------------------------
 Center     Atomic      Atomic             Coordinates (Angstroms)
 Number     Number       Type             X           Y           Z
 ---------------------------------------------------------------------
      1          6           0        0.575831   -0.555754    0.000000
      2          6           0       -0.000000    0.742606   -0.000000
      3          6           0       -0.120645   -1.693322    0.000000
      4          6           0       -0.451906    1.856856   -0.000000
      5          1           0        1.660286   -0.592176    0.000000
      6          1           0        0.382293   -2.649906    0.000000
      7          1           0       -1.201790   -1.696289   -0.000000
      8          1           0       -0.860469    2.836051   -0.000000
 ---------------------------------------------------------------------

 SCF Done:  E(RHF) =  -153.776899007     A.U. after    2 cycles

 The electronic state is 1-A'.
 Alpha  occ. eigenvalues --  -11.27299 -11.25885 -11.25295 -11.24402  -1.08716
 Alpha  occ. eigenvalues --   -1.00483  -0.84601  -0.72657  -0.68043  -0.63037
 Alpha  occ. eigenvalues --   -0.54584  -0.47109  -0.40192  -0.34956
 Alpha virt. eigenvalues --    0.03583   0.04033   0.05023   0.06230   0.07792
 Alpha virt. eigenvalues --    0.10873   0.11483   0.11609   0.12516   0.13224
 Alpha virt. eigenvalues --    0.13266   0.16316   0.16499   0.16740   0.17538

 Mulliken charges:
               1
     1  C    0.659509
     2  C   -0.541182
     3  C    0.551767
     4  C    0.702409
     5  H   -0.363683
     6  H   -0.272563
     7  H   -0.280722
     8  H   -0.455534
 Sum of Mulliken charges =  -0.00000

 Dipole moment (field-independent basis, Debye):
    X=              0.0351    Y=             -0.5291    Z=              0.0000  Tot=              0.5303

 Test job not archived.
 1\1\GINC-SE014\SP\RHF\Aug-CC-pVDZ\C4H4\OHZDE\05-Apr-2025\0\\#t hf aug-
 cc-pvdz iop(5/13=1,5/36=2,99/5=2) pseudo=read geom=check guess=(read,t
 check) scf=(maxcycle=1)\\title\\0,1\C,0,0.575831,-0.555754,0.\C,0,0.,0
 .742606,0.\C,0,-0.120645,-1.693322,0.\C,0,-0.451906,1.856856,0.\H,0,1.
 660286,-0.592176,0.\H,0,0.382293,-2.649906,0.\H,0,-1.20179,-1.696289,0
 .\H,0,-0.860469,2.836051,0.\\Version=ES64L-G16RevC.01\State=1-A'\HF=-1
 53.776899\RMSD=8.765e-03\Dipole=0.0137926,-0.2081637,0.\Quadrupole=0.0
 706511,3.338386,-3.4090371,-1.3702995,0.,0.\PG=CS [SG(C4H4)]\\@

 Normal termination of Gaussian 16 at Sat Apr  5 22:10:51 2025.
