 Gaussian 16, Revision C.01,

 ----------------------------------------------------------------------
 #t hf aug-cc-pvdz symm=none int=(grid=ultrafine) guess=(read,tcheck) s
 table=(opt,rrhf)
 ----------------------------------------------------------------------
 -----
 title
 -----
 Symbolic Z-matrix:
 Charge =  0 Multiplicity = 1

 SCF Done:  E(RHF) =  -860.673041534     A.U. after   13 cycles
 Normal termination of Gaussian 16 at Sat Apr  5 22:16:05 2025.
 Gaussian 16:  ES64L-G16RevC.01  3-Jul-2019

 ----------------------------------------------------------------------
 #t hf aug-cc-pvdz iop(5/13=1,5/36=2,99/5=2) pseudo=read geom=check gue
 ss=(read,tcheck) scf=(maxcycle=1)
 ----------------------------------------------------------------------
 -----
 title
 -----
 Structure from the checkpoint file:  "1-butylsulfonylbutane.chk"
 Charge =  0 Multiplicity = 1

                         Standard orientation:
 ---------------------------------------------------------------------
 Center     Atomic      Atomic             Coordinates (Angstroms)
 Number     Number       Type             X           Y           Z
 ---------------------------------------------------------------------
      1          6           0       -4.547650   -1.705638    0.272597
      2          6           0       -3.795689   -0.553081   -0.390005
      3          6           0       -2.349515   -0.430093    0.100464
      4          6           0       -1.615268    0.722413   -0.573309
      5         16           0        0.037748    1.077404    0.089018
      6          8           0        0.541910    2.249760   -0.624888
      7          6           0        1.055947   -0.348493   -0.390800
      8          6           0        2.496572   -0.170036    0.080449
      9          6           0        3.378082   -1.358055   -0.315035
     10          6           0        4.824517   -1.194420    0.147764
     11          8           0       -0.048573    1.105880    1.548995
     12          1           0       -4.067320   -2.663473    0.063479
     13          1           0       -4.581440   -1.582093    1.356437
     14          1           0       -5.575090   -1.764796   -0.087565
     15          1           0       -4.320256    0.386228   -0.194738
     16          1           0       -3.803321   -0.687023   -1.475548
     17          1           0       -1.826735   -1.371038   -0.089908
     18          1           0       -2.336575   -0.275264    1.180431
     19          1           0       -2.130655    1.672755   -0.422484
     20          1           0       -1.487390    0.579358   -1.646641
     21          1           0        0.990394   -0.416247   -1.477160
     22          1           0        0.591980   -1.227121    0.056620
     23          1           0        2.505188   -0.047615    1.164989
     24          1           0        2.901550    0.749170   -0.346134
     25          1           0        3.354143   -1.481736   -1.401693
     26          1           0        2.960814   -2.276931    0.107216
     27          1           0        5.277008   -0.300011   -0.284003
     28          1           0        4.882665   -1.102883    1.233779
     29          1           0        5.432396   -2.050455   -0.146968
 ---------------------------------------------------------------------

 SCF Done:  E(RHF) =  -860.889443740     A.U. after    2 cycles

 The electronic state is 1-A.
 Alpha  occ. eigenvalues --  -93.76543 -20.54563 -20.54501 -11.28423 -11.28361
 Alpha  occ. eigenvalues --  -11.25520 -11.24799 -11.24721 -11.24311 -11.23569
 Alpha  occ. eigenvalues --  -11.23015  -9.03348  -6.37966  -6.37762  -6.37711
 Alpha  occ. eigenvalues --   -1.39844  -1.28478  -1.10257  -1.09127  -1.03211
 Alpha  occ. eigenvalues --   -1.00770  -0.92564  -0.89102  -0.82224  -0.81475
 Alpha  occ. eigenvalues --   -0.78932  -0.69285  -0.67851  -0.67127  -0.66081
 Alpha  occ. eigenvalues --   -0.64295  -0.61043  -0.60912  -0.60093  -0.59547
 Alpha  occ. eigenvalues --   -0.56032  -0.55860  -0.53269  -0.52828  -0.52479
 Alpha  occ. eigenvalues --   -0.50720  -0.50306  -0.49883  -0.49572  -0.48969
 Alpha  occ. eigenvalues --   -0.48318  -0.47928  -0.47351  -0.42611
 Alpha virt. eigenvalues --    0.02721   0.03387   0.03947   0.04142   0.05136
 Alpha virt. eigenvalues --    0.05187   0.05397   0.06509   0.06606   0.07288
 Alpha virt. eigenvalues --    0.07573   0.07870   0.08933   0.09027   0.09409

 Mulliken charges:
               1
     1  C    0.638383
     2  C    0.337251
     3  C    0.223310
     4  C   -0.172566
     5  S    2.842903
     6  O   -1.200287
     7  C   -0.333697
     8  C    0.199617
     9  C    0.372975
    10  C    0.654231
    11  O   -1.254329
    12  H   -0.093580
    13  H   -0.068103
    14  H   -0.063957
    15  H   -0.166861
    16  H   -0.139338
    17  H   -0.252091
    18  H   -0.163427
    19  H   -0.021602
    20  H   -0.164364
    21  H   -0.167959
    22  H   -0.184293
    23  H   -0.135286
    24  H   -0.149478
    25  H   -0.151508
    26  H   -0.153405
    27  H   -0.086687
    28  H   -0.084151
    29  H   -0.061698
 Sum of Mulliken charges =  -0.00000

 Dipole moment (field-independent basis, Debye):
    X=             -1.5227    Y=             -4.7664    Z=             -2.4739  Tot=              5.5819

 Test job not archived.
 1\1\GINC-SE046\SP\RHF\Aug-CC-pVDZ\C8H18O2S1\OHZDE\05-Apr-2025\0\\#t hf
  aug-cc-pvdz iop(5/13=1,5/36=2,99/5=2) pseudo=read geom=check guess=(r
 ead,tcheck) scf=(maxcycle=1)\\title\\0,1\C,0,-4.54765,-1.705638,0.2725
 97\C,0,-3.795689,-0.553081,-0.390005\C,0,-2.349515,-0.430093,0.100464\
 C,0,-1.615268,0.722413,-0.573309\S,0,0.037748,1.077404,0.089018\O,0,0.
 54191,2.24976,-0.624888\C,0,1.055947,-0.348493,-0.3908\C,0,2.496572,-0
 .170036,0.080449\C,0,3.378082,-1.358055,-0.315035\C,0,4.824517,-1.1944
 2,0.147764\O,0,-0.048573,1.10588,1.548995\H,0,-4.06732,-2.663473,0.063

 Normal termination of Gaussian 16 at Sat Apr  5 22:17:13 2025.
