 Gaussian 16, Revision C.01,

 ----------------------------------------------------------------------
 #t hf aug-cc-pvdz symm=none int=(grid=ultrafine) guess=(read,tcheck) s
 table=(opt,rrhf)
 ----------------------------------------------------------------------
 -----
 title
 -----
 Symbolic Z-matrix:
 Charge =  0 Multiplicity = 1

 SCF Done:  E(RHF) =  -212.350192265     A.U. after   12 cycles

 1\1\GINC-SE012\Stability\RHF\Aug-CC-pVDZ\C4H11N1\OHZDE\05-Apr-2025\0\\
 #t hf aug-cc-pvdz symm=none int=(grid=ultrafine) guess=(read,tcheck) s
 table=(opt,rrhf)\\title\\0,1\C,0,2.533757,-0.30622,-0.014186\C,0,1.251
 222,0.522342,0.039823\C,0,-0.016716,-0.327791,-0.039403\C,0,-1.300133,
 0.493422,0.01585\N,0,-2.480785,-0.370083,-0.090337\H,0,3.420315,0.3265
 93,0.045198\H,0,2.57819,-1.017755,0.812928\H,0,2.5949,-0.87728,-0.9426
 85\H,0,1.237543,1.111057,0.961985\H,0,1.251521,1.245452,-0.781337\H,0,
 -0.017096,-0.915524,-0.961024\H,0,-0.0189,-1.049862,0.78514\H,0,-1.293

 Normal termination of Gaussian 16 at Sat Apr  5 22:11:02 2025.
 Gaussian 16:  ES64L-G16RevC.01  3-Jul-2019

 ----------------------------------------------------------------------
 #t hf aug-cc-pvdz iop(5/13=1,5/36=2,99/5=2) pseudo=read geom=check gue
 ss=(read,tcheck) scf=(maxcycle=1)
 ----------------------------------------------------------------------
 -----
 title
 -----
 Structure from the checkpoint file:  "1-butanamine.chk"
 Charge =  0 Multiplicity = 1

                         Standard orientation:
 ---------------------------------------------------------------------
 Center     Atomic      Atomic             Coordinates (Angstroms)
 Number     Number       Type             X           Y           Z
 ---------------------------------------------------------------------
      1          6           0        2.533757   -0.306220   -0.014186
      2          6           0        1.251222    0.522342    0.039823
      3          6           0       -0.016716   -0.327791   -0.039403
      4          6           0       -1.300133    0.493422    0.015850
      5          7           0       -2.480785   -0.370083   -0.090337
      6          1           0        3.420315    0.326593    0.045198
      7          1           0        2.578190   -1.017755    0.812928
      8          1           0        2.594900   -0.877280   -0.942685
      9          1           0        1.237543    1.111057    0.961985
     10          1           0        1.251521    1.245452   -0.781337
     11          1           0       -0.017096   -0.915524   -0.961024
     12          1           0       -0.018900   -1.049862    0.785140
     13          1           0       -1.293033    1.109193    0.926922
     14          1           0       -1.321845    1.185998   -0.829220
     15          1           0       -3.332664    0.176428   -0.103509
     16          1           0       -2.542214   -0.994236    0.705456
 ---------------------------------------------------------------------

 SCF Done:  E(RHF) =  -212.418670703     A.U. after    2 cycles

 The electronic state is 1-A.
 Alpha  occ. eigenvalues --  -15.60123 -11.25361 -11.22595 -11.22133 -11.22019
 Alpha  occ. eigenvalues --   -1.14436  -1.04996  -0.95250  -0.84047  -0.79102
 Alpha  occ. eigenvalues --   -0.66293  -0.63745  -0.60567  -0.57739  -0.56576
 Alpha  occ. eigenvalues --   -0.52696  -0.50125  -0.47275  -0.46769  -0.46492
 Alpha  occ. eigenvalues --   -0.38082
 Alpha virt. eigenvalues --    0.03544   0.04132   0.04440   0.05029   0.06234
 Alpha virt. eigenvalues --    0.06572   0.06936   0.07605   0.09236   0.09828
 Alpha virt. eigenvalues --    0.10257   0.11434   0.13597   0.15337   0.15555

 Mulliken charges:
               1
     1  C    0.365099
     2  C    0.196363
     3  C    0.029841
     4  C    0.892692
     5  N   -0.351120
     6  H   -0.068416
     7  H   -0.077915
     8  H   -0.073799
     9  H   -0.132641
    10  H   -0.132142
    11  H   -0.111548
    12  H   -0.168422
    13  H   -0.148713
    14  H   -0.199901
    15  H   -0.029287
    16  H    0.009909
 Sum of Mulliken charges =  -0.00000

 Dipole moment (field-independent basis, Debye):
    X=             -0.0981    Y=              0.7217    Z=              1.0773  Tot=              1.3004

 Test job not archived.
 1\1\GINC-SE012\SP\RHF\Aug-CC-pVDZ\C4H11N1\OHZDE\05-Apr-2025\0\\#t hf a
 ug-cc-pvdz iop(5/13=1,5/36=2,99/5=2) pseudo=read geom=check guess=(rea
 d,tcheck) scf=(maxcycle=1)\\title\\0,1\C,0,2.533757,-0.30622,-0.014186
 \C,0,1.251222,0.522342,0.039823\C,0,-0.016716,-0.327791,-0.039403\C,0,
 -1.300133,0.493422,0.01585\N,0,-2.480785,-0.370083,-0.090337\H,0,3.420
 315,0.326593,0.045198\H,0,2.57819,-1.017755,0.812928\H,0,2.5949,-0.877
 28,-0.942685\H,0,1.237543,1.111057,0.961985\H,0,1.251521,1.245452,-0.7
 81337\H,0,-0.017096,-0.915524,-0.961024\H,0,-0.0189,-1.049862,0.78514\

 Normal termination of Gaussian 16 at Sat Apr  5 22:11:48 2025.
