 Gaussian 16, Revision C.01,

 ----------------------------------------------------------------------
 #t hf aug-cc-pvdz symm=none int=(grid=ultrafine) guess=(read,tcheck) s
 table=(opt,rrhf)
 ----------------------------------------------------------------------
 -----
 title
 -----
 Symbolic Z-matrix:
 Charge =  0 Multiplicity = 1

 SCF Done:  E(RHF) =  -388.329746749     A.U. after   11 cycles

 1\1\GINC-SE045\Stability\RHF\Aug-CC-pVDZ\C8H18O1\OHZDE\05-Apr-2025\0\\
 #t hf aug-cc-pvdz symm=none int=(grid=ultrafine) guess=(read,tcheck) s
 table=(opt,rrhf)\\title\\0,1\C,0,0.,4.931161,0.525769\C,0,0.,-4.931161
 ,0.525769\C,0,0.,3.71796,-0.402856\C,0,0.,-3.71796,-0.402856\C,0,0.,2.
 388987,0.353309\C,0,0.,-2.388987,0.353309\C,0,0.,1.184688,-0.571073\C,
 0,0.,-1.184688,-0.571073\O,0,0.,0.,0.205597\H,0,-0.880623,4.932775,1.1
 71072\H,0,0.880623,4.932775,1.171072\H,0,0.,5.864641,-0.038469\H,0,0.8
 80623,-4.932775,1.171072\H,0,-0.880623,-4.932775,1.171072\H,0,0.,-5.86

 Normal termination of Gaussian 16 at Sat Apr  5 22:13:46 2025.
 Gaussian 16:  ES64L-G16RevC.01  3-Jul-2019

 ----------------------------------------------------------------------
 #t hf aug-cc-pvdz iop(5/13=1,5/36=2,99/5=2) pseudo=read geom=check gue
 ss=(read,tcheck) scf=(maxcycle=1)
 ----------------------------------------------------------------------
 -----
 title
 -----
 Structure from the checkpoint file:  "1-butoxybutane.chk"
 Charge =  0 Multiplicity = 1

                         Standard orientation:
 ---------------------------------------------------------------------
 Center     Atomic      Atomic             Coordinates (Angstroms)
 Number     Number       Type             X           Y           Z
 ---------------------------------------------------------------------
      1          6           0        0.000000    4.931161    0.525769
      2          6           0       -0.000000   -4.931161    0.525769
      3          6           0        0.000000    3.717960   -0.402856
      4          6           0       -0.000000   -3.717960   -0.402856
      5          6           0        0.000000    2.388987    0.353309
      6          6           0       -0.000000   -2.388987    0.353309
      7          6           0        0.000000    1.184688   -0.571073
      8          6           0       -0.000000   -1.184688   -0.571073
      9          8           0       -0.000000   -0.000000    0.205597
     10          1           0       -0.880623    4.932775    1.171072
     11          1           0        0.880623    4.932775    1.171072
     12          1           0        0.000000    5.864641   -0.038469
     13          1           0        0.880623   -4.932775    1.171072
     14          1           0       -0.880623   -4.932775    1.171072
     15          1           0       -0.000000   -5.864641   -0.038469
     16          1           0       -0.874418    3.763393   -1.058921
     17          1           0        0.874418    3.763393   -1.058921
     18          1           0        0.874418   -3.763393   -1.058921
     19          1           0       -0.874418   -3.763393   -1.058921
     20          1           0        0.876326    2.331130    1.004232
     21          1           0       -0.876326    2.331130    1.004232
     22          1           0       -0.876326   -2.331130    1.004232
     23          1           0        0.876326   -2.331130    1.004232
     24          1           0       -0.884669    1.203511   -1.223789
     25          1           0        0.884669    1.203511   -1.223789
     26          1           0        0.884669   -1.203511   -1.223789
     27          1           0       -0.884669   -1.203511   -1.223789
 ---------------------------------------------------------------------

 SCF Done:  E(RHF) =  -388.455695544     A.U. after    2 cycles

 The electronic state is 1-A1.
 Alpha  occ. eigenvalues --  -20.56183 -11.27819 -11.27791 -11.22843 -11.22843
 Alpha  occ. eigenvalues --  -11.22216 -11.22213 -11.22136 -11.22136  -1.32662
 Alpha  occ. eigenvalues --   -1.07233  -1.05545  -0.99072  -0.94774  -0.86460
 Alpha  occ. eigenvalues --   -0.83402  -0.80185  -0.78774  -0.68641  -0.65870
 Alpha  occ. eigenvalues --   -0.64488  -0.62374  -0.61653  -0.57887  -0.57334
 Alpha  occ. eigenvalues --   -0.56381  -0.53412  -0.52725  -0.51247  -0.49710
 Alpha  occ. eigenvalues --   -0.48111  -0.47555  -0.47050  -0.46771  -0.46476
 Alpha  occ. eigenvalues --   -0.45878  -0.42764
 Alpha virt. eigenvalues --    0.03587   0.03793   0.04466   0.04647   0.05102
 Alpha virt. eigenvalues --    0.05345   0.05524   0.06671   0.06778   0.07403
 Alpha virt. eigenvalues --    0.07772   0.07954   0.08962   0.09715   0.10386

 Mulliken charges:
               1
     1  C    0.464372
     2  C    0.464372
     3  C    0.411810
     4  C    0.411810
     5  C    0.317270
     6  C    0.317270
     7  C    0.364736
     8  C    0.364736
     9  O   -0.574248
    10  H   -0.084331
    11  H   -0.084331
    12  H   -0.060736
    13  H   -0.084331
    14  H   -0.084331
    15  H   -0.060736
    16  H   -0.155450
    17  H   -0.155450
    18  H   -0.155450
    19  H   -0.155450
    20  H   -0.178075
    21  H   -0.178075
    22  H   -0.178075
    23  H   -0.178075
    24  H   -0.187308
    25  H   -0.187308
    26  H   -0.187308
    27  H   -0.187308
 Sum of Mulliken charges =  -0.00000

 Dipole moment (field-independent basis, Debye):
    X=              0.0000    Y=              0.0000    Z=             -1.3211  Tot=              1.3211

 Test job not archived.
 1\1\GINC-SE045\SP\RHF\Aug-CC-pVDZ\C8H18O1\OHZDE\05-Apr-2025\0\\#t hf a
 ug-cc-pvdz iop(5/13=1,5/36=2,99/5=2) pseudo=read geom=check guess=(rea
 d,tcheck) scf=(maxcycle=1)\\title\\0,1\C,0,0.,4.931161,0.525769\C,0,0.
 ,-4.931161,0.525769\C,0,0.,3.71796,-0.402856\C,0,0.,-3.71796,-0.402856
 \C,0,0.,2.388987,0.353309\C,0,0.,-2.388987,0.353309\C,0,0.,1.184688,-0
 .571073\C,0,0.,-1.184688,-0.571073\O,0,0.,0.,0.205597\H,0,-0.880623,4.
 932775,1.171072\H,0,0.880623,4.932775,1.171072\H,0,0.,5.864641,-0.0384
 69\H,0,0.880623,-4.932775,1.171072\H,0,-0.880623,-4.932775,1.171072\H,

 Normal termination of Gaussian 16 at Sat Apr  5 22:14:00 2025.
