 Gaussian 16, Revision C.01,

 ----------------------------------------------------------------------
 #t hf aug-cc-pvdz symm=none int=(grid=ultrafine) guess=(read,tcheck) s
 table=(opt,rrhf)
 ----------------------------------------------------------------------
 -----
 title
 -----
 Symbolic Z-matrix:
 Charge =  0 Multiplicity = 1

 SCF Done:  E(RHF) =  -156.125337973     A.U. after   12 cycles
 Normal termination of Gaussian 16 at Sat Apr  5 22:10:44 2025.
 Gaussian 16:  ES64L-G16RevC.01  3-Jul-2019

 ----------------------------------------------------------------------
 #t hf aug-cc-pvdz iop(5/13=1,5/36=2,99/5=2) pseudo=read geom=check gue
 ss=(read,tcheck) scf=(maxcycle=1)
 ----------------------------------------------------------------------
 -----
 title
 -----
 Structure from the checkpoint file:  "1-butene.chk"
 Charge =  0 Multiplicity = 1

                         Standard orientation:
 ---------------------------------------------------------------------
 Center     Atomic      Atomic             Coordinates (Angstroms)
 Number     Number       Type             X           Y           Z
 ---------------------------------------------------------------------
      1          6           0       -1.857174    0.019065   -0.276434
      2          6           0       -0.721381   -0.297100    0.333323
      3          6           0        1.726840   -0.243467   -0.291830
      4          6           0        0.536972    0.517277    0.306749
      5          1           0       -2.729067   -0.618792   -0.220189
      6          1           0       -1.956005    0.931088   -0.853592
      7          1           0       -0.671041   -1.224905    0.898141
      8          1           0        2.633033    0.362779   -0.261767
      9          1           0        1.534052   -0.514731   -1.330436
     10          1           0        1.923869   -1.164107    0.260591
     11          1           0        0.363340    1.438791   -0.253243
     12          1           0        0.790277    0.815231    1.329652
 ---------------------------------------------------------------------

 SCF Done:  E(RHF) =  -156.177182728     A.U. after    2 cycles

 The electronic state is 1-A.
 Alpha  occ. eigenvalues --  -11.24048 -11.23507 -11.22770 -11.22597  -1.07222
 Alpha  occ. eigenvalues --   -0.98502  -0.85589  -0.75645  -0.64622  -0.61055
 Alpha  occ. eigenvalues --   -0.58848  -0.53815  -0.52057  -0.48922  -0.47773
 Alpha  occ. eigenvalues --   -0.36248
 Alpha virt. eigenvalues --    0.03697   0.04489   0.04809   0.05270   0.06530
 Alpha virt. eigenvalues --    0.07056   0.07639   0.08920   0.10973   0.12607
 Alpha virt. eigenvalues --    0.13515   0.14545   0.15418   0.15948   0.16893

 Mulliken charges:
               1
     1  C    0.419087
     2  C    0.584700
     3  C    0.297357
     4  C    0.027983
     5  H   -0.295091
     6  H   -0.285180
     7  H   -0.409880
     8  H   -0.090100
     9  H   -0.069448
    10  H   -0.067345
    11  H   -0.116019
    12  H    0.003934
 Sum of Mulliken charges =  -0.00000

 Dipole moment (field-independent basis, Debye):
    X=              0.4105    Y=              0.0608    Z=              0.1013  Tot=              0.4272

 Test job not archived.
 1\1\GINC-SE045\SP\RHF\Aug-CC-pVDZ\C4H8\OHZDE\05-Apr-2025\0\\#t hf aug-
 cc-pvdz iop(5/13=1,5/36=2,99/5=2) pseudo=read geom=check guess=(read,t
 check) scf=(maxcycle=1)\\title\\0,1\C,0,-1.857174,0.019065,-0.276434\C
 ,0,-0.721381,-0.2971,0.333323\C,0,1.72684,-0.243467,-0.29183\C,0,0.536
 972,0.517277,0.306749\H,0,-2.729067,-0.618792,-0.220189\H,0,-1.956005,
 0.931088,-0.853592\H,0,-0.671041,-1.224905,0.898141\H,0,2.633033,0.362
 779,-0.261767\H,0,1.534052,-0.514731,-1.330436\H,0,1.923869,-1.164107,
 0.260591\H,0,0.36334,1.438791,-0.253243\H,0,0.790277,0.815231,1.329652

 Normal termination of Gaussian 16 at Sat Apr  5 22:10:47 2025.
