 Gaussian 16, Revision C.01,

 ----------------------------------------------------------------------
 #t hf aug-cc-pvdz symm=none int=(grid=ultrafine) guess=(read,tcheck) s
 table=(opt,rrhf)
 ----------------------------------------------------------------------
 -----
 title
 -----
 Symbolic Z-matrix:
 Charge =  0 Multiplicity = 1

 SCF Done:  E(RHF) =  -542.368336614     A.U. after   16 cycles
 Normal termination of Gaussian 16 at Sat Apr  5 22:11:59 2025.
 Gaussian 16:  ES64L-G16RevC.01  3-Jul-2019

 ----------------------------------------------------------------------
 #t hf aug-cc-pvdz iop(5/13=1,5/36=2,99/5=2) pseudo=read geom=check gue
 ss=(read,tcheck) scf=(maxcycle=1)
 ----------------------------------------------------------------------
 -----
 title
 -----
 Structure from the checkpoint file:  "1-carboxymethylamino-2-diazonioethenolate.chk"
 Charge =  0 Multiplicity = 1

                         Standard orientation:
 ---------------------------------------------------------------------
 Center     Atomic      Atomic             Coordinates (Angstroms)
 Number     Number       Type             X           Y           Z
 ---------------------------------------------------------------------
      1          8           0        2.042882    1.386061   -0.306059
      2          8           0       -0.918032   -1.066477   -0.827288
      3          8           0        3.605054   -0.221660   -0.468251
      4          7           0        0.250255   -0.222810    0.941283
      5          7           0       -3.135574    0.325904   -0.031872
      6          7           0       -4.076826    0.233940   -0.637842
      7          6           0        1.503935   -0.802214    0.535266
      8          6           0       -0.876835   -0.354541    0.164605
      9          6           0        2.504443    0.128212   -0.134773
     10          6           0       -2.026017    0.411410    0.648141
     11          1           0        2.017669   -1.255971    1.383817
     12          1           0        1.288572   -1.598028   -0.176598
     13          1           0        0.261728    0.487240    1.652644
     14          1           0       -2.050184    1.041177    1.521965
     15          1           0        2.744845    1.885755   -0.749461
 ---------------------------------------------------------------------

 SCF Done:  E(RHF) =  -542.537058567     A.U. after    2 cycles

 The electronic state is 1-A.
 Alpha  occ. eigenvalues --  -20.63939 -20.57414 -20.54373 -15.83675 -15.76898
 Alpha  occ. eigenvalues --  -15.66632 -11.41154 -11.38827 -11.30517 -11.29941
 Alpha  occ. eigenvalues --   -1.45340  -1.43905  -1.36027  -1.34031  -1.21952
 Alpha  occ. eigenvalues --   -1.14640  -1.01837  -0.87930  -0.83917  -0.78559
 Alpha  occ. eigenvalues --   -0.75024  -0.73035  -0.71656  -0.69229  -0.67997
 Alpha  occ. eigenvalues --   -0.67284  -0.65288  -0.63345  -0.61787  -0.58607
 Alpha  occ. eigenvalues --   -0.57999  -0.57323  -0.50915  -0.49613  -0.46339
 Alpha  occ. eigenvalues --   -0.41658  -0.35323
 Alpha virt. eigenvalues --    0.02092   0.03704   0.04162   0.05646   0.07252
 Alpha virt. eigenvalues --    0.07643   0.08627   0.08898   0.09597   0.11064
 Alpha virt. eigenvalues --    0.11558   0.12139   0.12351   0.13340   0.13883

 Mulliken charges:
               1
     1  O   -0.538465
     2  O   -0.598539
     3  O   -0.514203
     4  N   -0.224777
     5  N    0.166344
     6  N   -0.330326
     7  C    0.525493
     8  C    0.438598
     9  C    0.527500
    10  C    0.789892
    11  H   -0.014259
    12  H    0.028798
    13  H   -0.064750
    14  H   -0.391973
    15  H    0.200665
 Sum of Mulliken charges =   0.00000

 Dipole moment (field-independent basis, Debye):
    X=             -1.1492    Y=              3.3642    Z=              3.9800  Tot=              5.3366

 Test job not archived.
 1\1\GINC-SE047\SP\RHF\Aug-CC-pVDZ\C4H5N3O3\OHZDE\05-Apr-2025\0\\#t hf
 aug-cc-pvdz iop(5/13=1,5/36=2,99/5=2) pseudo=read geom=check guess=(re
 ad,tcheck) scf=(maxcycle=1)\\title\\0,1\O,0,2.042882,1.386061,-0.30605
 9\O,0,-0.918032,-1.066477,-0.827288\O,0,3.605054,-0.22166,-0.468251\N,
 0,0.250255,-0.22281,0.941283\N,0,-3.135574,0.325904,-0.031872\N,0,-4.0
 76826,0.23394,-0.637842\C,0,1.503935,-0.802214,0.535266\C,0,-0.876835,
 -0.354541,0.164605\C,0,2.504443,0.128212,-0.134773\C,0,-2.026017,0.411
 41,0.648141\H,0,2.017669,-1.255971,1.383817\H,0,1.288572,-1.598028,-0.

 Normal termination of Gaussian 16 at Sat Apr  5 22:12:55 2025.
