 Gaussian 16, Revision C.01,

 ----------------------------------------------------------------------
 #t hf aug-cc-pvdz symm=none int=(grid=ultrafine) guess=(read,tcheck) s
 table=(opt,rrhf)
 ----------------------------------------------------------------------
 -----
 title
 -----
 Symbolic Z-matrix:
 Charge =  0 Multiplicity = 1

 SCF Done:  E(RHF) =  -615.054845393     A.U. after   14 cycles

 1\1\GINC-SE014\Stability\RHF\Aug-CC-pVDZ\C4H7Cl1\OHZDE\05-Apr-2025\0\\
 #t hf aug-cc-pvdz symm=none int=(grid=ultrafine) guess=(read,tcheck) s
 table=(opt,rrhf)\\title\\0,1\C,0,2.920911,-0.389382,0.000288\H,0,2.911
 727,-0.857297,0.984172\H,0,3.71282,0.363693,-0.014052\H,0,3.197836,-1.
 147075,-0.737175\C,0,0.524673,0.206787,0.450874\H,0,1.523663,0.702405,
 -1.30571\C,0,1.597085,0.217659,-0.335522\H,0,-1.130829,1.516651,0.8568
 98\H,0,-0.71593,1.36214,-0.864008\C,0,-0.765272,0.84204,0.087533\Cl,0,
 -2.101674,-0.407151,-0.091662\H,0,0.564791,-0.281572,1.419098\\Version

 Normal termination of Gaussian 16 at Sat Apr  5 22:11:58 2025.
 Gaussian 16:  ES64L-G16RevC.01  3-Jul-2019

 ----------------------------------------------------------------------
 #t hf aug-cc-pvdz iop(5/13=1,5/36=2,99/5=2) pseudo=read geom=check gue
 ss=(read,tcheck) scf=(maxcycle=1)
 ----------------------------------------------------------------------
 -----
 title
 -----
 Structure from the checkpoint file:  "1-chloro-2-butene.chk"
 Charge =  0 Multiplicity = 1

                         Standard orientation:
 ---------------------------------------------------------------------
 Center     Atomic      Atomic             Coordinates (Angstroms)
 Number     Number       Type             X           Y           Z
 ---------------------------------------------------------------------
      1          6           0        2.920911   -0.389382    0.000288
      2          1           0        2.911727   -0.857297    0.984172
      3          1           0        3.712820    0.363693   -0.014052
      4          1           0        3.197836   -1.147075   -0.737175
      5          6           0        0.524673    0.206787    0.450874
      6          1           0        1.523663    0.702405   -1.305710
      7          6           0        1.597085    0.217659   -0.335522
      8          1           0       -1.130829    1.516651    0.856898
      9          1           0       -0.715930    1.362140   -0.864008
     10          6           0       -0.765272    0.842040    0.087533
     11         17           0       -2.101674   -0.407151   -0.091662
     12          1           0        0.564791   -0.281572    1.419098
 ---------------------------------------------------------------------

 SCF Done:  E(RHF) =  -615.123116408     A.U. after    2 cycles

 The electronic state is 1-A.
 Alpha  occ. eigenvalues -- -103.64174 -11.30884 -11.25801 -11.24962 -11.24229
 Alpha  occ. eigenvalues --  -10.67432  -8.33143  -8.32862  -8.32854  -1.15466
 Alpha  occ. eigenvalues --   -1.07984  -0.98173  -0.88161  -0.77169  -0.64983
 Alpha  occ. eigenvalues --   -0.64615  -0.58625  -0.57472  -0.55395  -0.53454
 Alpha  occ. eigenvalues --   -0.51339  -0.44512  -0.44082  -0.36875
 Alpha virt. eigenvalues --    0.03352   0.04331   0.04549   0.05596   0.06512
 Alpha virt. eigenvalues --    0.06818   0.08167   0.09477   0.10706   0.12077
 Alpha virt. eigenvalues --    0.13170   0.14201   0.15137   0.15915   0.16144

 Mulliken charges:
               1
     1  C    0.152862
     2  H   -0.117531
     3  H    0.053306
     4  H    0.056637
     5  C    0.632007
     6  H   -0.395567
     7  C    0.193495
     8  H    0.021707
     9  H   -0.084014
    10  C    0.026683
    11  Cl  -0.175926
    12  H   -0.363660
 Sum of Mulliken charges =  -0.00000

 Dipole moment (field-independent basis, Debye):
    X=              2.5352    Y=              1.4070    Z=              0.0957  Tot=              2.9011

 Test job not archived.
 1\1\GINC-SE014\SP\RHF\Aug-CC-pVDZ\C4H7Cl1\OHZDE\05-Apr-2025\0\\#t hf a
 ug-cc-pvdz iop(5/13=1,5/36=2,99/5=2) pseudo=read geom=check guess=(rea
 d,tcheck) scf=(maxcycle=1)\\title\\0,1\C,0,2.920911,-0.389382,0.000288
 \H,0,2.911727,-0.857297,0.984172\H,0,3.71282,0.363693,-0.014052\H,0,3.
 197836,-1.147075,-0.737175\C,0,0.524673,0.206787,0.450874\H,0,1.523663
 ,0.702405,-1.30571\C,0,1.597085,0.217659,-0.335522\H,0,-1.130829,1.516
 651,0.856898\H,0,-0.71593,1.36214,-0.864008\C,0,-0.765272,0.84204,0.08
 7533\Cl,0,-2.101674,-0.407151,-0.091662\H,0,0.564791,-0.281572,1.41909

 Normal termination of Gaussian 16 at Sat Apr  5 22:12:52 2025.
