 Gaussian 16, Revision C.01,

 ----------------------------------------------------------------------
 #t hf aug-cc-pvdz symm=none int=(grid=ultrafine) guess=(read,tcheck) s
 table=(opt,rrhf)
 ----------------------------------------------------------------------
 -----
 title
 -----
 Symbolic Z-matrix:
 Charge =  0 Multiplicity = 1

 SCF Done:  E(RHF) =  -691.101346237     A.U. after   12 cycles
 Normal termination of Gaussian 16 at Sat Apr  5 22:12:07 2025.
 Gaussian 16:  ES64L-G16RevC.01  3-Jul-2019

 ----------------------------------------------------------------------
 #t hf aug-cc-pvdz iop(5/13=1,5/36=2,99/5=2) pseudo=read geom=check gue
 ss=(read,tcheck) scf=(maxcycle=1)
 ----------------------------------------------------------------------
 -----
 title
 -----
 Structure from the checkpoint file:  "1-chloro-2-ethoxyethane.chk"
 Charge =  0 Multiplicity = 1

                         Standard orientation:
 ---------------------------------------------------------------------
 Center     Atomic      Atomic             Coordinates (Angstroms)
 Number     Number       Type             X           Y           Z
 ---------------------------------------------------------------------
      1          6           0       -1.364294   -0.257422    0.000000
      2         17           0       -2.663967    1.000357    0.000000
      3          6           0        0.000000    0.402791    0.000000
      4          6           0        3.235965   -1.355048    0.000000
      5          6           0        2.301786   -0.163749    0.000000
      6          8           0        0.959835   -0.634578    0.000000
      7          1           0        4.273451   -1.018738    0.000000
      8          1           0       -1.508982   -0.865324    0.887556
      9          1           0       -1.508982   -0.865324   -0.887556
     10          1           0        0.111166    1.038659   -0.886420
     11          1           0        0.111166    1.038659    0.886420
     12          1           0        3.073565   -1.971524   -0.883887
     13          1           0        3.073565   -1.971524    0.883887
     14          1           0        2.471534    0.463118    0.884863
     15          1           0        2.471534    0.463118   -0.884863
 ---------------------------------------------------------------------

 SCF Done:  E(RHF) =  -691.195648654     A.U. after    2 cycles

 The electronic state is 1-A'.
 Alpha  occ. eigenvalues -- -103.65017 -20.58109 -11.30398 -11.30184 -11.29468
 Alpha  occ. eigenvalues --  -11.23142 -10.68286  -8.34007  -8.33724  -8.33712
 Alpha  occ. eigenvalues --   -1.34639  -1.16260  -1.04243  -0.97269  -0.85030
 Alpha  occ. eigenvalues --   -0.84397  -0.70429  -0.68639  -0.64105  -0.63202
 Alpha  occ. eigenvalues --   -0.57201  -0.55973  -0.54537  -0.52498  -0.51127
 Alpha  occ. eigenvalues --   -0.49857  -0.44804  -0.44741  -0.44598
 Alpha virt. eigenvalues --    0.03398   0.04547   0.04687   0.04893   0.06386
 Alpha virt. eigenvalues --    0.06635   0.07231   0.07498   0.09640   0.09965
 Alpha virt. eigenvalues --    0.11183   0.13136   0.14057   0.15308   0.15390

 Mulliken charges:
               1
     1  C    0.144100
     2  Cl  -0.136696
     3  C    0.533628
     4  C    0.289617
     5  C    0.474637
     6  O   -0.641884
     7  H   -0.043213
     8  H   -0.015549
     9  H   -0.015549
    10  H   -0.105969
    11  H   -0.105969
    12  H   -0.051098
    13  H   -0.051098
    14  H   -0.137478
    15  H   -0.137478
 Sum of Mulliken charges =  -0.00000

 Dipole moment (field-independent basis, Debye):
    X=              2.4172    Y=             -0.2356    Z=              0.0000  Tot=              2.4287

 Test job not archived.
 1\1\GINC-SE028\SP\RHF\Aug-CC-pVDZ\C4H9Cl1O1\OHZDE\05-Apr-2025\0\\#t hf
  aug-cc-pvdz iop(5/13=1,5/36=2,99/5=2) pseudo=read geom=check guess=(r
 ead,tcheck) scf=(maxcycle=1)\\title\\0,1\C,0,-1.364294,-0.257422,0.\Cl
 ,0,-2.663967,1.000357,0.\C,0,0.,0.402791,0.\C,0,3.235965,-1.355048,0.\
 C,0,2.301786,-0.163749,0.\O,0,0.959835,-0.634578,0.\H,0,4.273451,-1.01
 8738,0.\H,0,-1.508982,-0.865324,0.887556\H,0,-1.508982,-0.865324,-0.88
 7556\H,0,0.111166,1.038659,-0.88642\H,0,0.111166,1.038659,0.88642\H,0,
 3.073565,-1.971524,-0.883887\H,0,3.073565,-1.971524,0.883887\H,0,2.471

 Normal termination of Gaussian 16 at Sat Apr  5 22:12:52 2025.
