 Gaussian 16, Revision C.01,

 ----------------------------------------------------------------------
 #t hf aug-cc-pvdz symm=none int=(grid=ultrafine) guess=(read,tcheck) s
 table=(opt,rrhf)
 ----------------------------------------------------------------------
 -----
 title
 -----
 Symbolic Z-matrix:
 Charge =  0 Multiplicity = 1

 SCF Done:  E(RHF) =  -683.692880731     A.U. after   14 cycles
 Normal termination of Gaussian 16 at Sat Apr  5 22:11:54 2025.
 Gaussian 16:  ES64L-G16RevC.01  3-Jul-2019

 ----------------------------------------------------------------------
 #t hf aug-cc-pvdz iop(5/13=1,5/36=2,99/5=2) pseudo=read geom=check gue
 ss=(read,tcheck) scf=(maxcycle=1)
 ----------------------------------------------------------------------
 -----
 title
 -----
 Structure from the checkpoint file:  "1-chloropyrazole.chk"
 Charge =  0 Multiplicity = 1

                         Standard orientation:
 ---------------------------------------------------------------------
 Center     Atomic      Atomic             Coordinates (Angstroms)
 Number     Number       Type             X           Y           Z
 ---------------------------------------------------------------------
      1         17           0       -1.906509   -0.012464   -0.000003
      2          7           0       -0.208360    0.009411   -0.000000
      3          7           0        0.477354   -1.136970   -0.000000
      4          6           0        0.568717    1.122667    0.000002
      5          6           0        1.748562   -0.743730    0.000002
      6          6           0        1.865057    0.659271    0.000004
      7          1           0        0.143298    2.109292    0.000002
      8          1           0        2.528586   -1.486330    0.000002
      9          1           0        2.761801    1.252584    0.000006
 ---------------------------------------------------------------------

 SCF Done:  E(RHF) =  -683.778941603     A.U. after    2 cycles

 The electronic state is 1-A.
 Alpha  occ. eigenvalues -- -103.72412 -15.76241 -15.67128 -11.30663 -11.27963
 Alpha  occ. eigenvalues --  -11.24813 -10.75330  -8.41113  -8.40688  -8.40651
 Alpha  occ. eigenvalues --   -1.37962  -1.21045  -1.07819  -1.02311  -0.82973
 Alpha  occ. eigenvalues --   -0.79442  -0.74491  -0.65662  -0.62118  -0.60703
 Alpha  occ. eigenvalues --   -0.58787  -0.51202  -0.50380  -0.47355  -0.36766
 Alpha  occ. eigenvalues --   -0.36301
 Alpha virt. eigenvalues --    0.03140   0.03808   0.05505   0.07306   0.08671
 Alpha virt. eigenvalues --    0.10508   0.11084   0.11220   0.12591   0.13414
 Alpha virt. eigenvalues --    0.13716   0.14759   0.15432   0.16110   0.16618

 Mulliken charges:
               1
     1  Cl   0.408942
     2  N   -0.427711
     3  N   -0.524400
     4  C    0.451787
     5  C    0.528119
     6  C    0.433305
     7  H   -0.331757
     8  H   -0.250253
     9  H   -0.288032
 Sum of Mulliken charges =  -0.00000

 Dipole moment (field-independent basis, Debye):
    X=              0.7849    Y=              2.2012    Z=              0.0000  Tot=              2.3370

 Test job not archived.
 1\1\GINC-SE115\SP\RHF\Aug-CC-pVDZ\C3H3Cl1N2\OHZDE\05-Apr-2025\0\\#t hf
  aug-cc-pvdz iop(5/13=1,5/36=2,99/5=2) pseudo=read geom=check guess=(r
 ead,tcheck) scf=(maxcycle=1)\\title\\0,1\Cl,0,-1.906509,-0.012464,-0.0
 00003\N,0,-0.20836,0.009411,0.\N,0,0.477354,-1.13697,0.\C,0,0.568717,1
 .122667,0.000002\C,0,1.748562,-0.74373,0.000002\C,0,1.865057,0.659271,
 0.000004\H,0,0.143298,2.109292,0.000002\H,0,2.528586,-1.48633,0.000002
 \H,0,2.761801,1.252584,0.000006\\Version=ES64L-G16RevC.01\State=1-A\HF
 =-683.7789416\RMSD=6.541e-03\Dipole=0.3088089,0.8660238,0.0000009\Quad

 Normal termination of Gaussian 16 at Sat Apr  5 22:12:51 2025.
