 Gaussian 16, Revision C.01,

 ----------------------------------------------------------------------
 #t hf aug-cc-pvdz symm=none int=(grid=ultrafine) guess=(read,tcheck) s
 table=(opt,rrhf)
 ----------------------------------------------------------------------
 -----
 title
 -----
 Symbolic Z-matrix:
 Charge =  0 Multiplicity = 1

 SCF Done:  E(RHF) =  -700.832559443     A.U. after   16 cycles
 Normal termination of Gaussian 16 at Sat Apr  5 22:11:55 2025.
 Gaussian 16:  ES64L-G16RevC.01  3-Jul-2019

 ----------------------------------------------------------------------
 #t hf aug-cc-pvdz iop(5/13=1,5/36=2,99/5=2) pseudo=read geom=check gue
 ss=(read,tcheck) scf=(maxcycle=1)
 ----------------------------------------------------------------------
 -----
 title
 -----
 Structure from the checkpoint file:  "1-chloro-4-5-dihydro-1H-1-2-3-triazole.chk"
 Charge =  0 Multiplicity = 1

                         Standard orientation:
 ---------------------------------------------------------------------
 Center     Atomic      Atomic             Coordinates (Angstroms)
 Number     Number       Type             X           Y           Z
 ---------------------------------------------------------------------
      1         17           0       -1.920947    0.002248    0.086589
      2          7           0       -0.262504    0.015809   -0.439109
      3          7           0        0.411868   -1.174015   -0.049153
      4          7           0        1.602483   -0.955892    0.169301
      5          6           0        0.539461    1.153832    0.050933
      6          6           0        1.913135    0.495408    0.023525
      7          1           0        0.436411    1.995512   -0.626647
      8          1           0        0.234666    1.446107    1.058692
      9          1           0        2.588289    0.800194    0.817850
     10          1           0        2.418220    0.623228   -0.935934
 ---------------------------------------------------------------------

 SCF Done:  E(RHF) =  -700.920099696     A.U. after    2 cycles

 The electronic state is 1-A.
 Alpha  occ. eigenvalues -- -103.69799 -15.74800 -15.73183 -15.70286 -11.30437
 Alpha  occ. eigenvalues --  -11.29932 -10.72786  -8.38541  -8.38160  -8.38132
 Alpha  occ. eigenvalues --   -1.40243  -1.23763  -1.09716  -1.05306  -0.88332
 Alpha  occ. eigenvalues --   -0.79969  -0.71418  -0.70644  -0.63920  -0.59290
 Alpha  occ. eigenvalues --   -0.56965  -0.56696  -0.53806  -0.48921  -0.48511
 Alpha  occ. eigenvalues --   -0.42387  -0.38932
 Alpha virt. eigenvalues --    0.02746   0.04048   0.04590   0.06835   0.08053
 Alpha virt. eigenvalues --    0.09027   0.10988   0.11903   0.12416   0.13760
 Alpha virt. eigenvalues --    0.14265   0.15280   0.15661   0.16062   0.16947

 Mulliken charges:
               1
     1  Cl   0.246356
     2  N   -0.685905
     3  N   -0.141811
     4  N   -0.389209
     5  C    0.858433
     6  C    0.694349
     7  H   -0.144878
     8  H   -0.205543
     9  H   -0.126646
    10  H   -0.105147
 Sum of Mulliken charges =  -0.00000

 Dipole moment (field-independent basis, Debye):
    X=              1.5793    Y=              3.4264    Z=              0.2550  Tot=              3.7815

 Test job not archived.
 1\1\GINC-SE055\SP\RHF\Aug-CC-pVDZ\C2H4Cl1N3\OHZDE\05-Apr-2025\0\\#t hf
  aug-cc-pvdz iop(5/13=1,5/36=2,99/5=2) pseudo=read geom=check guess=(r
 ead,tcheck) scf=(maxcycle=1)\\title\\0,1\Cl,0,-1.920947,0.002248,0.086
 589\N,0,-0.262504,0.015809,-0.439109\N,0,0.411868,-1.174015,-0.049153\
 N,0,1.602483,-0.955892,0.169301\C,0,0.539461,1.153832,0.050933\C,0,1.9
 13135,0.495408,0.023525\H,0,0.436411,1.995512,-0.626647\H,0,0.234666,1
 .446107,1.058692\H,0,2.588289,0.800194,0.81785\H,0,2.41822,0.623228,-0
 .935934\\Version=ES64L-G16RevC.01\State=1-A\HF=-700.9200997\RMSD=4.073

 Normal termination of Gaussian 16 at Sat Apr  5 22:12:51 2025.
