 Gaussian 16, Revision C.01,

 ----------------------------------------------------------------------
 #t hf aug-cc-pvdz symm=none int=(grid=ultrafine) guess=(read,tcheck) s
 table=(opt,rrhf)
 ----------------------------------------------------------------------
 -----
 title
 -----
 Symbolic Z-matrix:
 Charge =  0 Multiplicity = 1

 SCF Done:  E(RHF) =  -758.586739173     A.U. after   16 cycles
 Normal termination of Gaussian 16 at Sat Apr  5 22:11:13 2025.
 Gaussian 16:  ES64L-G16RevC.01  3-Jul-2019

 ----------------------------------------------------------------------
 #t hf aug-cc-pvdz iop(5/13=1,5/36=2,99/5=2) pseudo=read geom=check gue
 ss=(read,tcheck) scf=(maxcycle=1)
 ----------------------------------------------------------------------
 -----
 title
 -----
 Structure from the checkpoint file:  "1-chloro-3-diazo-2-propanone.chk"
 Charge =  0 Multiplicity = 1

                         Standard orientation:
 ---------------------------------------------------------------------
 Center     Atomic      Atomic             Coordinates (Angstroms)
 Number     Number       Type             X           Y           Z
 ---------------------------------------------------------------------
      1         17           0        2.615902   -0.172641   -0.000080
      2          8           0       -0.165508   -1.237912    0.000142
      3          7           0       -2.509366    0.187022   -0.000312
      4          7           0       -3.469270   -0.391475   -0.000476
      5          6           0       -0.149899   -0.026948    0.000164
      6          6           0       -1.350968    0.797979   -0.000120
      7          6           0        1.130742    0.811941    0.000604
      8          1           0       -1.378265    1.874748   -0.000193
      9          1           0        1.151566    1.448971   -0.881951
     10          1           0        1.151625    1.447808    0.884002
 ---------------------------------------------------------------------

 SCF Done:  E(RHF) =  -758.697422210     A.U. after    2 cycles

 The electronic state is 1-A.
 Alpha  occ. eigenvalues -- -103.65970 -20.56914 -15.84847 -15.78384 -11.37376
 Alpha  occ. eigenvalues --  -11.32650 -11.30550 -10.69229  -8.34962  -8.34645
 Alpha  occ. eigenvalues --   -8.34644  -1.46725  -1.36766  -1.17445  -1.15519
 Alpha  occ. eigenvalues --   -1.00146  -0.84783  -0.75821  -0.72465  -0.70394
 Alpha  occ. eigenvalues --   -0.69123  -0.66052  -0.65106  -0.60484  -0.56674
 Alpha  occ. eigenvalues --   -0.54919  -0.47147  -0.45632  -0.44708  -0.36411
 Alpha virt. eigenvalues --    0.02298   0.04740   0.04762   0.07219   0.07380
 Alpha virt. eigenvalues --    0.08219   0.08982   0.09839   0.10773   0.11264
 Alpha virt. eigenvalues --    0.13047   0.13197   0.14718   0.15596   0.16039

 Mulliken charges:
               1
     1  Cl  -0.048644
     2  O   -0.543275
     3  N    0.172090
     4  N   -0.326267
     5  C    0.099067
     6  C    0.907748
     7  C   -0.207142
     8  H   -0.391491
     9  H    0.168882
    10  H    0.169033
 Sum of Mulliken charges =  -0.00000

 Dipole moment (field-independent basis, Debye):
    X=             -2.2589    Y=              4.7780    Z=              0.0008  Tot=              5.2851

 Test job not archived.
 1\1\GINC-SE050\SP\RHF\Aug-CC-pVDZ\C3H3Cl1N2O1\OHZDE\05-Apr-2025\0\\#t
 hf aug-cc-pvdz iop(5/13=1,5/36=2,99/5=2) pseudo=read geom=check guess=
 (read,tcheck) scf=(maxcycle=1)\\title\\0,1\Cl,0,2.615902,-0.172641,-0.
 00008\O,0,-0.165508,-1.237912,0.000142\N,0,-2.509366,0.187022,-0.00031
 2\N,0,-3.46927,-0.391475,-0.000476\C,0,-0.149899,-0.026948,0.000164\C,
 0,-1.350968,0.797979,-0.00012\C,0,1.130742,0.811941,0.000604\H,0,-1.37
 8265,1.874748,-0.000193\H,0,1.151566,1.448971,-0.881951\H,0,1.151625,1
 .447808,0.884002\\Version=ES64L-G16RevC.01\State=1-A\HF=-758.6974222\R

 Normal termination of Gaussian 16 at Sat Apr  5 22:12:08 2025.
