 Gaussian 16, Revision C.01,

 ----------------------------------------------------------------------
 #t hf aug-cc-pvdz symm=none int=(grid=ultrafine) guess=(read,tcheck) s
 table=(opt,rrhf)
 ----------------------------------------------------------------------
 -----
 title
 -----
 Symbolic Z-matrix:
 Charge =  0 Multiplicity = 1

 SCF Done:  E(RHF) =  -577.203689264     A.U. after   12 cycles

 1\1\GINC-SE115\Stability\RHF\Aug-CC-pVDZ\C3H7Cl1\OHZDE\05-Apr-2025\0\\
 #t hf aug-cc-pvdz symm=none int=(grid=ultrafine) guess=(read,tcheck) s
 table=(opt,rrhf)\\title\\0,1\C,0,-1.818641,-0.717279,0.144096\C,0,-1.1
 50092,0.559242,-0.35835\C,0,0.172758,0.883165,0.310034\Cl,0,1.464599,-
 0.345613,-0.067396\H,0,-2.003786,-0.667711,1.219027\H,0,-2.776988,-0.8
 72261,-0.351812\H,0,-1.195361,-1.589705,-0.048379\H,0,-1.001591,0.5096
 88,-1.438752\H,0,-1.806916,1.416179,-0.174399\H,0,0.089223,0.894421,1.
 394122\H,0,0.57309,1.83404,-0.028754\\Version=ES64L-G16RevC.01\HF=-577

 Normal termination of Gaussian 16 at Sat Apr  5 22:11:05 2025.
 Gaussian 16:  ES64L-G16RevC.01  3-Jul-2019

 ----------------------------------------------------------------------
 #t hf aug-cc-pvdz iop(5/13=1,5/36=2,99/5=2) pseudo=read geom=check gue
 ss=(read,tcheck) scf=(maxcycle=1)
 ----------------------------------------------------------------------
 -----
 title
 -----
 Structure from the checkpoint file:  "1-chloropropane.chk"
 Charge =  0 Multiplicity = 1

                         Standard orientation:
 ---------------------------------------------------------------------
 Center     Atomic      Atomic             Coordinates (Angstroms)
 Number     Number       Type             X           Y           Z
 ---------------------------------------------------------------------
      1          6           0       -1.818641   -0.717279    0.144096
      2          6           0       -1.150092    0.559242   -0.358350
      3          6           0        0.172758    0.883165    0.310034
      4         17           0        1.464599   -0.345613   -0.067396
      5          1           0       -2.003786   -0.667711    1.219027
      6          1           0       -2.776988   -0.872261   -0.351812
      7          1           0       -1.195361   -1.589705   -0.048379
      8          1           0       -1.001591    0.509688   -1.438752
      9          1           0       -1.806916    1.416179   -0.174399
     10          1           0        0.089223    0.894421    1.394122
     11          1           0        0.573090    1.834040   -0.028754
 ---------------------------------------------------------------------

 SCF Done:  E(RHF) =  -577.261150713     A.U. after    2 cycles

 The electronic state is 1-A.
 Alpha  occ. eigenvalues -- -103.64247 -11.30372 -11.24907 -11.23017 -10.67532
 Alpha  occ. eigenvalues --   -8.33246  -8.32970  -8.32962  -1.15661  -1.04588
 Alpha  occ. eigenvalues --   -0.92669  -0.81228  -0.65164  -0.63818  -0.59092
 Alpha  occ. eigenvalues --   -0.54725  -0.52020  -0.50694  -0.48882  -0.44100
 Alpha  occ. eigenvalues --   -0.43986
 Alpha virt. eigenvalues --    0.03354   0.04527   0.04796   0.05637   0.07129
 Alpha virt. eigenvalues --    0.07381   0.07799   0.09679   0.12280   0.14246
 Alpha virt. eigenvalues --    0.14676   0.15218   0.16188   0.16466   0.16889

 Mulliken charges:
               1
     1  C    0.380036
     2  C    0.066744
     3  C    0.031395
     4  Cl  -0.178124
     5  H   -0.066196
     6  H   -0.074049
     7  H   -0.058622
     8  H   -0.083010
     9  H   -0.034684
    10  H    0.010472
    11  H    0.006037
 Sum of Mulliken charges =  -0.00000

 Dipole moment (field-independent basis, Debye):
    X=             -1.9947    Y=              1.5013    Z=              0.3564  Tot=              2.5218

 Test job not archived.
 1\1\GINC-SE115\SP\RHF\Aug-CC-pVDZ\C3H7Cl1\OHZDE\05-Apr-2025\0\\#t hf a
 ug-cc-pvdz iop(5/13=1,5/36=2,99/5=2) pseudo=read geom=check guess=(rea
 d,tcheck) scf=(maxcycle=1)\\title\\0,1\C,0,-1.818641,-0.717279,0.14409
 6\C,0,-1.150092,0.559242,-0.35835\C,0,0.172758,0.883165,0.310034\Cl,0,
 1.464599,-0.345613,-0.067396\H,0,-2.003786,-0.667711,1.219027\H,0,-2.7
 76988,-0.872261,-0.351812\H,0,-1.195361,-1.589705,-0.048379\H,0,-1.001
 591,0.509688,-1.438752\H,0,-1.806916,1.416179,-0.174399\H,0,0.089223,0
 .894421,1.394122\H,0,0.57309,1.83404,-0.028754\\Version=ES64L-G16RevC.

 Normal termination of Gaussian 16 at Sat Apr  5 22:11:47 2025.
