 Gaussian 16, Revision C.01,

 ----------------------------------------------------------------------
 #t hf aug-cc-pvdz symm=none int=(grid=ultrafine) guess=(read,tcheck) s
 table=(opt,rrhf)
 ----------------------------------------------------------------------
 -----
 title
 -----
 Symbolic Z-matrix:
 Charge =  0 Multiplicity = 1

 SCF Done:  E(RHF) =  -616.243060960     A.U. after   12 cycles

 1\1\GINC-SE231\Stability\RHF\Aug-CC-pVDZ\C4H9Cl1\OHZDE\05-Apr-2025\0\\
 #t hf aug-cc-pvdz symm=none int=(grid=ultrafine) guess=(read,tcheck) s
 table=(opt,rrhf)\\title\\0,1\C,0,1.161089,2.783469,0.\C,0,1.336413,1.2
 65667,0.\C,0,0.,0.516511,0.\C,0,0.195757,-0.9872,0.\Cl,0,-1.389892,-1.
 875231,0.\H,0,0.609343,3.116554,0.880936\H,0,2.125518,3.29244,0.\H,0,0
 .609343,3.116554,-0.880936\H,0,1.921195,0.966651,0.874698\H,0,1.921195
 ,0.966651,-0.874698\H,0,-0.585899,0.802883,0.876235\H,0,-0.585899,0.80
 2883,-0.876235\H,0,0.72691,-1.328188,0.885109\H,0,0.72691,-1.328188,-0

 Normal termination of Gaussian 16 at Sat Apr  5 22:12:02 2025.
 Gaussian 16:  ES64L-G16RevC.01  3-Jul-2019

 ----------------------------------------------------------------------
 #t hf aug-cc-pvdz iop(5/13=1,5/36=2,99/5=2) pseudo=read geom=check gue
 ss=(read,tcheck) scf=(maxcycle=1)
 ----------------------------------------------------------------------
 -----
 title
 -----
 Structure from the checkpoint file:  "1-chlorobutane.chk"
 Charge =  0 Multiplicity = 1

                         Standard orientation:
 ---------------------------------------------------------------------
 Center     Atomic      Atomic             Coordinates (Angstroms)
 Number     Number       Type             X           Y           Z
 ---------------------------------------------------------------------
      1          6           0        1.161090    2.783469    0.000000
      2          6           0        1.336413    1.265667    0.000000
      3          6           0        0.000000    0.516511    0.000000
      4          6           0        0.195757   -0.987200    0.000000
      5         17           0       -1.389893   -1.875231    0.000000
      6          1           0        0.609344    3.116554    0.880936
      7          1           0        2.125519    3.292440    0.000000
      8          1           0        0.609344    3.116554   -0.880936
      9          1           0        1.921195    0.966651    0.874698
     10          1           0        1.921195    0.966651   -0.874698
     11          1           0       -0.585899    0.802883    0.876235
     12          1           0       -0.585899    0.802883   -0.876235
     13          1           0        0.726910   -1.328188    0.885109
     14          1           0        0.726910   -1.328188   -0.885109
 ---------------------------------------------------------------------

 SCF Done:  E(RHF) =  -616.312633718     A.U. after    2 cycles

 The electronic state is 1-A'.
 Alpha  occ. eigenvalues -- -103.64278 -11.30219 -11.24447 -11.24251 -11.23189
 Alpha  occ. eigenvalues --  -10.67551  -8.33268  -8.32988  -8.32980  -1.15679
 Alpha  occ. eigenvalues --   -1.06973  -0.97615  -0.86218  -0.81091  -0.67285
 Alpha  occ. eigenvalues --   -0.61311  -0.60916  -0.58224  -0.54547  -0.52963
 Alpha  occ. eigenvalues --   -0.50214  -0.48415  -0.48411  -0.44056  -0.43742
 Alpha virt. eigenvalues --    0.03325   0.04406   0.04622   0.05021   0.06670
 Alpha virt. eigenvalues --    0.06967   0.07471   0.07698   0.09975   0.10375
 Alpha virt. eigenvalues --    0.10932   0.13292   0.14956   0.15480   0.16165

 Mulliken charges:
               1
     1  C    0.380145
     2  C    0.223719
     3  C    0.128909
     4  C    0.150370
     5  Cl  -0.164251
     6  H   -0.072143
     7  H   -0.061731
     8  H   -0.072143
     9  H   -0.137620
    10  H   -0.137620
    11  H   -0.101218
    12  H   -0.101218
    13  H   -0.017598
    14  H   -0.017598
 Sum of Mulliken charges =  -0.00000

 Dipole moment (field-independent basis, Debye):
    X=              2.1822    Y=              1.6124    Z=             -0.0000  Tot=              2.7133

 Test job not archived.
 1\1\GINC-SE231\SP\RHF\Aug-CC-pVDZ\C4H9Cl1\OHZDE\05-Apr-2025\0\\#t hf a
 ug-cc-pvdz iop(5/13=1,5/36=2,99/5=2) pseudo=read geom=check guess=(rea
 d,tcheck) scf=(maxcycle=1)\\title\\0,1\C,0,1.161089,2.783469,0.\C,0,1.
 336413,1.265667,0.\C,0,0.,0.516511,0.\C,0,0.195757,-0.9872,0.\Cl,0,-1.
 389892,-1.875231,0.\H,0,0.609343,3.116554,0.880936\H,0,2.125518,3.2924
 4,0.\H,0,0.609343,3.116554,-0.880936\H,0,1.921195,0.966651,0.874698\H,
 0,1.921195,0.966651,-0.874698\H,0,-0.585899,0.802883,0.876235\H,0,-0.5
 85899,0.802883,-0.876235\H,0,0.72691,-1.328188,0.885109\H,0,0.72691,-1

 Normal termination of Gaussian 16 at Sat Apr  5 22:12:51 2025.
