 Gaussian 16, Revision C.01,

 ----------------------------------------------------------------------
 #t hf aug-cc-pvdz symm=none int=(grid=ultrafine) guess=(read,tcheck) s
 table=(opt,rrhf)
 ----------------------------------------------------------------------
 -----
 title
 -----
 Symbolic Z-matrix:
 Charge =  0 Multiplicity = 1

 SCF Done:  E(RHF) =  -842.314408286     A.U. after   18 cycles
 Normal termination of Gaussian 16 at Sat Apr  5 22:13:42 2025.
 Gaussian 16:  ES64L-G16RevC.01  3-Jul-2019

 ----------------------------------------------------------------------
 #t hf aug-cc-pvdz iop(5/13=1,5/36=2,99/5=2) pseudo=read geom=check gue
 ss=(read,tcheck) scf=(maxcycle=1)
 ----------------------------------------------------------------------
 -----
 title
 -----
 Structure from the checkpoint file:  "1-chloronaphthalene.chk"
 Charge =  0 Multiplicity = 1

                         Standard orientation:
 ---------------------------------------------------------------------
 Center     Atomic      Atomic             Coordinates (Angstroms)
 Number     Number       Type             X           Y           Z
 ---------------------------------------------------------------------
      1          6           0        1.134283   -0.569029    0.000000
      2          6           0        1.016492   -1.932922    0.000000
      3          6           0       -0.261594   -2.526193    0.000000
      4          6           0       -1.387179   -1.747660    0.000000
      5          6           0       -2.441560    0.487066    0.000000
      6          6           0       -2.335638    1.852213    0.000000
      7          6           0       -1.064302    2.461445    0.000000
      8          6           0        0.074645    1.699051    0.000000
      9          6           0        0.000000    0.285851    0.000000
     10          6           0       -1.289332   -0.336021    0.000000
     11         17           0        2.747884    0.124724    0.000000
     12          1           0        1.904173   -2.548108    0.000000
     13          1           0       -0.340512   -3.604770    0.000000
     14          1           0       -2.369483   -2.201792    0.000000
     15          1           0       -3.414600    0.012616    0.000000
     16          1           0       -3.225734    2.466898    0.000000
     17          1           0       -0.988024    3.540457    0.000000
     18          1           0        1.045261    2.171590    0.000000
 ---------------------------------------------------------------------

 SCF Done:  E(RHF) =  -842.443188442     A.U. after    2 cycles

 The electronic state is 1-A'.
 Alpha  occ. eigenvalues -- -103.66663 -11.31523 -11.26892 -11.26550 -11.26037
 Alpha  occ. eigenvalues --  -11.25810 -11.25601 -11.25487 -11.25379 -11.25304
 Alpha  occ. eigenvalues --  -11.25176 -10.69945  -8.35680  -8.35388  -8.35360
 Alpha  occ. eigenvalues --   -1.20597  -1.15766  -1.11148  -1.04281  -1.01966
 Alpha  occ. eigenvalues --   -0.98356  -0.86675  -0.85757  -0.81203  -0.72553
 Alpha  occ. eigenvalues --   -0.71131  -0.69821  -0.63531  -0.62662  -0.60906
 Alpha  occ. eigenvalues --   -0.59693  -0.58188  -0.56593  -0.54250  -0.51256
 Alpha  occ. eigenvalues --   -0.50274  -0.49481  -0.46710  -0.45678  -0.39018
 Alpha  occ. eigenvalues --   -0.33625  -0.30170
 Alpha virt. eigenvalues --    0.03224   0.03501   0.04222   0.05173   0.05585
 Alpha virt. eigenvalues --    0.06130   0.07016   0.07924   0.08817   0.09982
 Alpha virt. eigenvalues --    0.10237   0.11422   0.12031   0.12183   0.12705

 Mulliken charges:
               1
     1  C   -0.837523
     2  C    0.566176
     3  C    0.618731
     4  C    0.686851
     5  C    0.321770
     6  C    0.595264
     7  C    0.543641
     8  C    0.313553
     9  C    1.180186
    10  C   -0.030537
    11  Cl  -0.462523
    12  H   -0.442588
    13  H   -0.454929
    14  H   -0.572254
    15  H   -0.585456
    16  H   -0.446500
    17  H   -0.436387
    18  H   -0.557477
 Sum of Mulliken charges =  -0.00000

 Dipole moment (field-independent basis, Debye):
    X=             -1.9857    Y=             -0.5400    Z=              0.0000  Tot=              2.0578

 Test job not archived.
 1\1\GINC-SE085\SP\RHF\Aug-CC-pVDZ\C10H7Cl1\OHZDE\05-Apr-2025\0\\#t hf
 aug-cc-pvdz iop(5/13=1,5/36=2,99/5=2) pseudo=read geom=check guess=(re
 ad,tcheck) scf=(maxcycle=1)\\title\\0,1\C,0,1.134283,-0.569029,0.\C,0,
 1.016492,-1.932922,0.\C,0,-0.261594,-2.526193,0.\C,0,-1.387179,-1.7476
 6,0.\C,0,-2.44156,0.487066,0.\C,0,-2.335638,1.852213,0.\C,0,-1.064302,
 2.461445,0.\C,0,0.074645,1.699051,0.\C,0,0.,0.285851,0.\C,0,-1.289332,
 -0.336021,0.\Cl,0,2.747884,0.124724,0.\H,0,1.904173,-2.548108,0.\H,0,-
 0.340512,-3.60477,0.\H,0,-2.369483,-2.201792,0.\H,0,-3.4146,0.012616,0

 Normal termination of Gaussian 16 at Sat Apr  5 22:13:59 2025.
