 Gaussian 16, Revision C.01,

 ----------------------------------------------------------------------
 #t hf aug-cc-pvdz symm=none int=(grid=ultrafine) guess=(read,tcheck) s
 table=(opt,rrhf)
 ----------------------------------------------------------------------
 -----
 title
 -----
 Symbolic Z-matrix:
 Charge =  0 Multiplicity = 1

 SCF Done:  E(RHF) =  -613.863491435     A.U. after   14 cycles

 1\1\GINC-SE106\Stability\RHF\Aug-CC-pVDZ\C4H5Cl1\OHZDE\05-Apr-2025\0\\
 #t hf aug-cc-pvdz symm=none int=(grid=ultrafine) guess=(read,tcheck) s
 table=(opt,rrhf)\\title\\0,1\C,0,0.,1.019263,0.\C,0,1.348969,0.492686,
 0.\C,0,-1.138067,0.325279,0.\C,0,2.440288,1.261794,0.\H,0,-0.108466,2.
 099001,0.\H,0,1.454409,-0.585078,0.\H,0,-2.111345,0.788809,0.\Cl,0,-1.
 232208,-1.416011,0.\H,0,3.43203,0.832553,0.\H,0,2.373763,2.34277,0.\\V
 ersion=ES64L-G16RevC.01\HF=-613.8634914\RMSD=5.957e-09\Dipole=0.204703
 5,0.6745358,0.\Quadrupole=2.0813126,1.2460746,-3.3273873,-1.1382457,0.

 Normal termination of Gaussian 16 at Sat Apr  5 22:10:45 2025.
 Gaussian 16:  ES64L-G16RevC.01  3-Jul-2019

 ----------------------------------------------------------------------
 #t hf aug-cc-pvdz iop(5/13=1,5/36=2,99/5=2) pseudo=read geom=check gue
 ss=(read,tcheck) scf=(maxcycle=1)
 ----------------------------------------------------------------------
 -----
 title
 -----
 Structure from the checkpoint file:  "1-chloro-1-3-butadiene.chk"
 Charge =  0 Multiplicity = 1

                         Standard orientation:
 ---------------------------------------------------------------------
 Center     Atomic      Atomic             Coordinates (Angstroms)
 Number     Number       Type             X           Y           Z
 ---------------------------------------------------------------------
      1          6           0        0.000000    1.019263    0.000000
      2          6           0        1.348969    0.492686    0.000000
      3          6           0       -1.138067    0.325279    0.000000
      4          6           0        2.440288    1.261794    0.000000
      5          1           0       -0.108466    2.099001    0.000000
      6          1           0        1.454409   -0.585078    0.000000
      7          1           0       -2.111345    0.788809    0.000000
      8         17           0       -1.232208   -1.416011    0.000000
      9          1           0        3.432030    0.832553    0.000000
     10          1           0        2.373763    2.342770    0.000000
 ---------------------------------------------------------------------

 SCF Done:  E(RHF) =  -613.931537270     A.U. after    2 cycles

 The electronic state is 1-A'.
 Alpha  occ. eigenvalues -- -103.66773 -11.30987 -11.26634 -11.25775 -11.25213
 Alpha  occ. eigenvalues --  -10.70065  -8.35797  -8.35496  -8.35482  -1.18720
 Alpha  occ. eigenvalues --   -1.08726  -1.00035  -0.83867  -0.75649  -0.68765
 Alpha  occ. eigenvalues --   -0.64578  -0.58930  -0.56156  -0.52641  -0.51609
 Alpha  occ. eigenvalues --   -0.46557  -0.44298  -0.33451
 Alpha virt. eigenvalues --    0.03484   0.04037   0.04966   0.06467   0.07082
 Alpha virt. eigenvalues --    0.07590   0.10393   0.11397   0.12670   0.12685
 Alpha virt. eigenvalues --    0.13258   0.14192   0.14457   0.15879   0.16739

 Mulliken charges:
               1
     1  C    1.042487
     2  C    0.703221
     3  C   -0.066940
     4  C    0.503384
     5  H   -0.455626
     6  H   -0.456908
     7  H   -0.385381
     8  Cl  -0.302642
     9  H   -0.281698
    10  H   -0.299897
 Sum of Mulliken charges =  -0.00000

 Dipole moment (field-independent basis, Debye):
    X=              0.5540    Y=              1.7889    Z=              0.0000  Tot=              1.8727

 Test job not archived.
 1\1\GINC-SE106\SP\RHF\Aug-CC-pVDZ\C4H5Cl1\OHZDE\05-Apr-2025\0\\#t hf a
 ug-cc-pvdz iop(5/13=1,5/36=2,99/5=2) pseudo=read geom=check guess=(rea
 d,tcheck) scf=(maxcycle=1)\\title\\0,1\C,0,0.,1.019263,0.\C,0,1.348969
 ,0.492686,0.\C,0,-1.138067,0.325279,0.\C,0,2.440288,1.261794,0.\H,0,-0
 .108466,2.099001,0.\H,0,1.454409,-0.585078,0.\H,0,-2.111345,0.788809,0
 .\Cl,0,-1.232208,-1.416011,0.\H,0,3.43203,0.832553,0.\H,0,2.373763,2.3
 4277,0.\\Version=ES64L-G16RevC.01\State=1-A'\HF=-613.9315373\RMSD=8.16
 4e-03\Dipole=0.2179647,0.7038073,0.\Quadrupole=2.0820485,1.2615395,-3.

 Normal termination of Gaussian 16 at Sat Apr  5 22:10:48 2025.
