 Gaussian 16, Revision C.01,

 ----------------------------------------------------------------------
 #t hf aug-cc-pvdz symm=none int=(grid=ultrafine) guess=(read,tcheck) s
 table=(opt,rrhf)
 ----------------------------------------------------------------------
 -----
 title
 -----
 Symbolic Z-matrix:
 Charge =  0 Multiplicity = 1

 SCF Done:  E(RHF) =  -1065.27174283     A.U. after   15 cycles
 Normal termination of Gaussian 16 at Sat Apr  5 22:11:13 2025.
 Gaussian 16:  ES64L-G16RevC.01  3-Jul-2019

 ----------------------------------------------------------------------
 #t hf aug-cc-pvdz iop(5/13=1,5/36=2,99/5=2) pseudo=read geom=check gue
 ss=(read,tcheck) scf=(maxcycle=1)
 ----------------------------------------------------------------------
 -----
 title
 -----
 Structure from the checkpoint file:  "1-chloroallyl_isothiocyanate.chk"
 Charge =  0 Multiplicity = 1

                         Standard orientation:
 ---------------------------------------------------------------------
 Center     Atomic      Atomic             Coordinates (Angstroms)
 Number     Number       Type             X           Y           Z
 ---------------------------------------------------------------------
      1         17           0        1.206649    1.711643   -0.227494
      2         16           0       -3.019563   -0.139639   -0.082460
      3          7           0       -0.291654   -0.495146    0.196818
      4          6           0        0.951475    0.047369    0.568780
      5          6           0        2.117266   -0.819228    0.224719
      6          6           0        2.032356   -1.986494   -0.395802
      7          6           0       -1.463636   -0.293893    0.095615
      8          1           0        0.943371    0.294738    1.629473
      9          1           0        3.072452   -0.416382    0.534896
     10          1           0        2.918954   -2.568416   -0.603567
     11          1           0        1.082018   -2.394155   -0.711641
 ---------------------------------------------------------------------

 SCF Done:  E(RHF) =  -1065.37273338     A.U. after    2 cycles

 The electronic state is 1-A.
 Alpha  occ. eigenvalues -- -103.66587 -93.54810 -15.68868 -11.40834 -11.39632
 Alpha  occ. eigenvalues --  -11.27632 -11.26555 -10.69833  -8.84741  -8.35537
 Alpha  occ. eigenvalues --   -8.35250  -8.35237  -6.19055  -6.18373  -6.18326
 Alpha  occ. eigenvalues --   -1.29215  -1.17215  -1.08841  -1.04198  -0.96956
 Alpha  occ. eigenvalues --   -0.83649  -0.74504  -0.69134  -0.64988  -0.62473
 Alpha  occ. eigenvalues --   -0.60444  -0.56416  -0.54930  -0.53146  -0.47819
 Alpha  occ. eigenvalues --   -0.46739  -0.40084  -0.37972  -0.36993
 Alpha virt. eigenvalues --    0.03012   0.04111   0.04613   0.06089   0.06399
 Alpha virt. eigenvalues --    0.07348   0.08725   0.09114   0.10248   0.10889
 Alpha virt. eigenvalues --    0.11764   0.12871   0.13604   0.13974   0.14467

 Mulliken charges:
               1
     1  Cl  -0.116405
     2  S    0.215347
     3  N   -0.085912
     4  C    0.302004
     5  C    0.773712
     6  C    0.535833
     7  C   -0.670451
     8  H   -0.040826
     9  H   -0.349956
    10  H   -0.273000
    11  H   -0.290346
 Sum of Mulliken charges =  -0.00000

 Dipole moment (field-independent basis, Debye):
    X=              2.0912    Y=             -1.7174    Z=              1.2111  Tot=              2.9647

 Test job not archived.
 1\1\GINC-SE158\SP\RHF\Aug-CC-pVDZ\C4H4Cl1N1S1\OHZDE\05-Apr-2025\0\\#t
 hf aug-cc-pvdz iop(5/13=1,5/36=2,99/5=2) pseudo=read geom=check guess=
 (read,tcheck) scf=(maxcycle=1)\\title\\0,1\Cl,0,1.206649,1.711643,-0.2
 27494\S,0,-3.019563,-0.139639,-0.08246\N,0,-0.291654,-0.495146,0.19681
 8\C,0,0.951475,0.047369,0.56878\C,0,2.117266,-0.819228,0.224719\C,0,2.
 032356,-1.986494,-0.395802\C,0,-1.463636,-0.293893,0.095615\H,0,0.9433
 71,0.294738,1.629473\H,0,3.072452,-0.416382,0.534896\H,0,2.918954,-2.5
 68416,-0.603567\H,0,1.082018,-2.394155,-0.711641\\Version=ES64L-G16Rev

 Normal termination of Gaussian 16 at Sat Apr  5 22:12:08 2025.
