 Gaussian 16, Revision C.01,

 ----------------------------------------------------------------------
 #t hf aug-cc-pvdz symm=none int=(grid=ultrafine) guess=(read,tcheck) s
 table=(opt,rrhf)
 ----------------------------------------------------------------------
 -----
 title
 -----
 Symbolic Z-matrix:
 Charge =  0 Multiplicity = 1

 SCF Done:  E(RHF) =  -1103.10342604     A.U. after   16 cycles
 Normal termination of Gaussian 16 at Sat Apr  5 22:12:17 2025.
 Gaussian 16:  ES64L-G16RevC.01  3-Jul-2019

 ----------------------------------------------------------------------
 #t hf aug-cc-pvdz iop(5/13=1,5/36=2,99/5=2) pseudo=read geom=check gue
 ss=(read,tcheck) scf=(maxcycle=1)
 ----------------------------------------------------------------------
 -----
 title
 -----
 Structure from the checkpoint file:  "1-chloro-4-isothiocyanato-2-butyne.chk"
 Charge =  0 Multiplicity = 1

                         Standard orientation:
 ---------------------------------------------------------------------
 Center     Atomic      Atomic             Coordinates (Angstroms)
 Number     Number       Type             X           Y           Z
 ---------------------------------------------------------------------
      1         17           0       -3.572987   -0.567278   -0.510317
      2         16           0        3.299035   -1.317260   -0.006901
      3          7           0        2.079494    1.156701   -0.250864
      4          6           0        0.857173    1.910593   -0.125215
      5          6           0       -2.394964   -0.380030    0.871471
      6          6           0       -0.304421    1.103913    0.230165
      7          6           0       -1.256817    0.432000    0.515067
      8          6           0        2.559311    0.073133   -0.131631
      9          1           0        0.675175    2.422451   -1.072973
     10          1           0        1.016661    2.691477    0.622020
     11          1           0       -2.961711    0.058649    1.688357
     12          1           0       -2.092050   -1.387238    1.145296
 ---------------------------------------------------------------------

 SCF Done:  E(RHF) =  -1103.21727395     A.U. after    2 cycles

 The electronic state is 1-A.
 Alpha  occ. eigenvalues -- -103.66587 -93.53700 -15.68121 -11.39523 -11.35331
 Alpha  occ. eigenvalues --  -11.34645 -11.27713 -11.27292 -10.69814  -8.83627
 Alpha  occ. eigenvalues --   -8.35533  -8.35231  -8.35221  -6.17937  -6.17267
 Alpha  occ. eigenvalues --   -6.17209  -1.27339  -1.17916  -1.09975  -1.04783
 Alpha  occ. eigenvalues --   -1.00427  -0.95072  -0.77657  -0.70951  -0.68177
 Alpha  occ. eigenvalues --   -0.67735  -0.66225  -0.59724  -0.58788  -0.55181
 Alpha  occ. eigenvalues --   -0.54262  -0.47104  -0.46760  -0.42138  -0.41405
 Alpha  occ. eigenvalues --   -0.37108  -0.35869
 Alpha virt. eigenvalues --    0.02748   0.03507   0.04774   0.05306   0.07374
 Alpha virt. eigenvalues --    0.07633   0.08031   0.09004   0.09551   0.11353
 Alpha virt. eigenvalues --    0.11684   0.11976   0.12502   0.13014   0.13486

 Mulliken charges:
               1
     1  Cl  -0.100399
     2  S    0.204953
     3  N   -0.229885
     4  C    0.715450
     5  C   -0.051304
     6  C   -0.305868
     7  C   -0.209710
     8  C   -0.547558
     9  H    0.068427
    10  H    0.078852
    11  H    0.183777
    12  H    0.193266
 Sum of Mulliken charges =  -0.00000

 Dipole moment (field-independent basis, Debye):
    X=             -0.9964    Y=              2.3333    Z=              1.6360  Tot=              3.0189

 Test job not archived.
 1\1\GINC-SE104\SP\RHF\Aug-CC-pVDZ\C5H4Cl1N1S1\OHZDE\05-Apr-2025\0\\#t
 hf aug-cc-pvdz iop(5/13=1,5/36=2,99/5=2) pseudo=read geom=check guess=
 (read,tcheck) scf=(maxcycle=1)\\title\\0,1\Cl,0,-3.572987,-0.567278,-0
 .510317\S,0,3.299035,-1.31726,-0.006901\N,0,2.079494,1.156701,-0.25086
 4\C,0,0.857173,1.910593,-0.125215\C,0,-2.394964,-0.38003,0.871471\C,0,
 -0.304421,1.103913,0.230165\C,0,-1.256817,0.432,0.515067\C,0,2.559311,
 0.073133,-0.131631\H,0,0.675175,2.422451,-1.072973\H,0,1.016661,2.6914
 77,0.62202\H,0,-2.961711,0.058649,1.688357\H,0,-2.09205,-1.387238,1.14

 Normal termination of Gaussian 16 at Sat Apr  5 22:12:54 2025.
