 Gaussian 16, Revision C.01,

 ----------------------------------------------------------------------
 #t hf aug-cc-pvdz symm=none int=(grid=ultrafine) guess=(read,tcheck) s
 table=(opt,rrhf)
 ----------------------------------------------------------------------
 -----
 title
 -----
 Symbolic Z-matrix:
 Charge =  0 Multiplicity = 1

 SCF Done:  E(RHF) =  -889.607750589     A.U. after   17 cycles
 Normal termination of Gaussian 16 at Sat Apr  5 22:12:08 2025.
 Gaussian 16:  ES64L-G16RevC.01  3-Jul-2019

 ----------------------------------------------------------------------
 #t hf aug-cc-pvdz iop(5/13=1,5/36=2,99/5=2) pseudo=read geom=check gue
 ss=(read,tcheck) scf=(maxcycle=1)
 ----------------------------------------------------------------------
 -----
 title
 -----
 Structure from the checkpoint file:  "1-chloro-1-ethyl-3-nitrosourea.chk"
 Charge =  0 Multiplicity = 1

                         Standard orientation:
 ---------------------------------------------------------------------
 Center     Atomic      Atomic             Coordinates (Angstroms)
 Number     Number       Type             X           Y           Z
 ---------------------------------------------------------------------
      1         17           0        2.286656   -0.909638   -0.094329
      2          8           0       -0.348592   -1.741340    0.570157
      3          8           0       -3.591259    0.368778   -0.156789
      4          7           0        0.834131   -0.041900   -0.440896
      5          7           0       -1.480456    0.074394   -0.263918
      6          7           0       -2.680962   -0.317585    0.233515
      7          6           0        1.034960    1.411899   -0.556362
      8          6           0        1.208429    2.133260    0.774373
      9          6           0       -0.314225   -0.670944    0.029846
     10          1           0        0.193913    1.822214   -1.115508
     11          1           0        1.908061    1.546450   -1.191269
     12          1           0        1.383554    3.194973    0.597832
     13          1           0        0.320409    2.034185    1.398486
     14          1           0        2.061221    1.735025    1.322072
     15          1           0       -1.505481    0.861831   -0.903010
 ---------------------------------------------------------------------

 SCF Done:  E(RHF) =  -889.759911017     A.U. after    2 cycles

 The electronic state is 1-A.
 Alpha  occ. eigenvalues -- -103.71211 -20.64629 -20.57309 -15.83097 -15.72921
 Alpha  occ. eigenvalues --  -15.72714 -11.44219 -11.32313 -11.25913 -10.74156
 Alpha  occ. eigenvalues --   -8.39922  -8.39527  -8.39491  -1.51038  -1.40892
 Alpha  occ. eigenvalues --   -1.28970  -1.25436  -1.12229  -1.04741  -0.95300
 Alpha  occ. eigenvalues --   -0.90557  -0.84454  -0.77258  -0.74163  -0.70473
 Alpha  occ. eigenvalues --   -0.68957  -0.66814  -0.65122  -0.64809  -0.61171
 Alpha  occ. eigenvalues --   -0.59021  -0.56341  -0.54182  -0.52827  -0.50573
 Alpha  occ. eigenvalues --   -0.49001  -0.46052  -0.45543  -0.41130
 Alpha virt. eigenvalues --    0.02205   0.03628   0.04366   0.05551   0.06812
 Alpha virt. eigenvalues --    0.07307   0.07703   0.08036   0.09367   0.10146
 Alpha virt. eigenvalues --    0.12121   0.12241   0.13293   0.13511   0.14178

 Mulliken charges:
               1
     1  Cl   0.235536
     2  O   -0.381401
     3  O   -0.453131
     4  N   -0.705729
     5  N    0.031688
     6  N    0.187280
     7  C    0.672320
     8  C    0.311157
     9  C    0.681813
    10  H   -0.167087
    11  H   -0.230478
    12  H   -0.045152
    13  H   -0.088210
    14  H   -0.034340
    15  H   -0.014265
 Sum of Mulliken charges =  -0.00000

 Dipole moment (field-independent basis, Debye):
    X=              2.9707    Y=              4.8243    Z=             -1.8489  Tot=              5.9596

 Test job not archived.
 1\1\GINC-SE107\SP\RHF\Aug-CC-pVDZ\C3H6Cl1N3O2\OHZDE\05-Apr-2025\0\\#t
 hf aug-cc-pvdz iop(5/13=1,5/36=2,99/5=2) pseudo=read geom=check guess=
 (read,tcheck) scf=(maxcycle=1)\\title\\0,1\Cl,0,2.286656,-0.909638,-0.
 094329\O,0,-0.348592,-1.74134,0.570157\O,0,-3.591259,0.368778,-0.15678
 9\N,0,0.834131,-0.0419,-0.440896\N,0,-1.480456,0.074394,-0.263918\N,0,
 -2.680962,-0.317585,0.233515\C,0,1.03496,1.411899,-0.556362\C,0,1.2084
 29,2.13326,0.774373\C,0,-0.314225,-0.670944,0.029846\H,0,0.193913,1.82
 2214,-1.115508\H,0,1.908061,1.54645,-1.191269\H,0,1.383554,3.194973,0.

 Normal termination of Gaussian 16 at Sat Apr  5 22:12:55 2025.
