 Gaussian 16, Revision C.01,

 ----------------------------------------------------------------------
 #t hf aug-cc-pvdz symm=none int=(grid=ultrafine) guess=(read,tcheck) s
 table=(opt,rrhf)
 ----------------------------------------------------------------------
 -----
 title
 -----
 Symbolic Z-matrix:
 Charge =  0 Multiplicity = 1

 SCF Done:  E(RHF) =  -728.691425957     A.U. after   15 cycles

 1\1\GINC-SE036\Stability\RHF\Aug-CC-pVDZ\C7H7Cl1\OHZDE\05-Apr-2025\0\\
 #t hf aug-cc-pvdz symm=none int=(grid=ultrafine) guess=(read,tcheck) s
 table=(opt,rrhf)\\title\\0,1\C,0,1.683448,-1.663575,0.\C,0,2.220125,-0
 .382943,0.\C,0,0.305726,-1.835687,0.\C,0,1.373807,0.717619,0.\C,0,-0.5
 7387,-0.75119,0.\C,0,0.,0.522425,0.\C,0,-2.061411,-0.96093,0.\Cl,0,-1.
 036566,1.943162,0.\H,0,2.334268,-2.527315,0.\H,0,3.291363,-0.235053,0.
 \H,0,-0.108141,-2.835976,0.\H,0,1.769429,1.722783,0.\H,0,-2.526446,-0.
 504646,0.875379\H,0,-2.526446,-0.504646,-0.875379\H,0,-2.299351,-2.023

 Normal termination of Gaussian 16 at Sat Apr  5 22:12:49 2025.
 Gaussian 16:  ES64L-G16RevC.01  3-Jul-2019

 ----------------------------------------------------------------------
 #t hf aug-cc-pvdz iop(5/13=1,5/36=2,99/5=2) pseudo=read geom=check gue
 ss=(read,tcheck) scf=(maxcycle=1)
 ----------------------------------------------------------------------
 -----
 title
 -----
 Structure from the checkpoint file:  "1-chloro-2-methylbenzene.chk"
 Charge =  0 Multiplicity = 1

                         Standard orientation:
 ---------------------------------------------------------------------
 Center     Atomic      Atomic             Coordinates (Angstroms)
 Number     Number       Type             X           Y           Z
 ---------------------------------------------------------------------
      1          6           0        1.683448   -1.663575    0.000000
      2          6           0        2.220125   -0.382944    0.000000
      3          6           0        0.305726   -1.835687    0.000000
      4          6           0        1.373807    0.717619    0.000000
      5          6           0       -0.573870   -0.751190    0.000000
      6          6           0        0.000000    0.522425    0.000000
      7          6           0       -2.061411   -0.960930    0.000000
      8         17           0       -1.036566    1.943162    0.000000
      9          1           0        2.334268   -2.527316    0.000000
     10          1           0        3.291363   -0.235054    0.000000
     11          1           0       -0.108141   -2.835976    0.000000
     12          1           0        1.769429    1.722783    0.000000
     13          1           0       -2.526446   -0.504646    0.875379
     14          1           0       -2.526446   -0.504646   -0.875379
     15          1           0       -2.299351   -2.023197    0.000000
 ---------------------------------------------------------------------

 SCF Done:  E(RHF) =  -728.790495350     A.U. after    2 cycles

 The electronic state is 1-A'.
 Alpha  occ. eigenvalues -- -103.66329 -11.30824 -11.26682 -11.25773 -11.25361
 Alpha  occ. eigenvalues --  -11.25266 -11.25176 -11.23979 -10.69615  -8.35347
 Alpha  occ. eigenvalues --   -8.35055  -8.35033  -1.19900  -1.13353  -1.05329
 Alpha  occ. eigenvalues --   -1.00526  -0.94150  -0.83881  -0.81111  -0.70215
 Alpha  occ. eigenvalues --   -0.66688  -0.64047  -0.59690  -0.59251  -0.58465
 Alpha  occ. eigenvalues --   -0.55485  -0.52839  -0.51631  -0.50626  -0.47633
 Alpha  occ. eigenvalues --   -0.46423  -0.34795  -0.33777
 Alpha virt. eigenvalues --    0.03293   0.03873   0.04445   0.05732   0.06174
 Alpha virt. eigenvalues --    0.06335   0.07998   0.09631   0.10273   0.10397
 Alpha virt. eigenvalues --    0.10573   0.12393   0.13111   0.13388   0.13785

 Mulliken charges:
               1
     1  C    0.173001
     2  C    0.610606
     3  C    0.753840
     4  C    0.549763
     5  C    0.343272
     6  C   -0.613191
     7  C    0.591598
     8  Cl  -0.471460
     9  H   -0.450435
    10  H   -0.428530
    11  H   -0.565276
    12  H   -0.436538
    13  H    0.070886
    14  H    0.070886
    15  H   -0.198423
 Sum of Mulliken charges =  -0.00000

 Dipole moment (field-independent basis, Debye):
    X=              0.7481    Y=             -1.7309    Z=             -0.0000  Tot=              1.8857

 Test job not archived.
 1\1\GINC-SE036\SP\RHF\Aug-CC-pVDZ\C7H7Cl1\OHZDE\05-Apr-2025\0\\#t hf a
 ug-cc-pvdz iop(5/13=1,5/36=2,99/5=2) pseudo=read geom=check guess=(rea
 d,tcheck) scf=(maxcycle=1)\\title\\0,1\C,0,1.683448,-1.663575,0.\C,0,2
 .220125,-0.382943,0.\C,0,0.305726,-1.835687,0.\C,0,1.373807,0.717619,0
 .\C,0,-0.57387,-0.75119,0.\C,0,0.,0.522425,0.\C,0,-2.061411,-0.96093,0
 .\Cl,0,-1.036566,1.943162,0.\H,0,2.334268,-2.527315,0.\H,0,3.291363,-0
 .235053,0.\H,0,-0.108141,-2.835976,0.\H,0,1.769429,1.722783,0.\H,0,-2.
 526446,-0.504646,0.875379\H,0,-2.526446,-0.504646,-0.875379\H,0,-2.299

 Normal termination of Gaussian 16 at Sat Apr  5 22:12:55 2025.
