 Gaussian 16, Revision C.01,

 ----------------------------------------------------------------------
 #t hf aug-cc-pvdz symm=none int=(grid=ultrafine) guess=(read,tcheck) s
 table=(opt,rrhf)
 ----------------------------------------------------------------------
 -----
 title
 -----
 Symbolic Z-matrix:
 Charge =  0 Multiplicity = 1

 SCF Done:  E(RHF) =  -655.281363046     A.U. after   12 cycles
 Normal termination of Gaussian 16 at Sat Apr  5 22:11:47 2025.
 Gaussian 16:  ES64L-G16RevC.01  3-Jul-2019

 ----------------------------------------------------------------------
 #t hf aug-cc-pvdz iop(5/13=1,5/36=2,99/5=2) pseudo=read geom=check gue
 ss=(read,tcheck) scf=(maxcycle=1)
 ----------------------------------------------------------------------
 -----
 title
 -----
 Structure from the checkpoint file:  "1-chloropentane.chk"
 Charge =  0 Multiplicity = 1

                         Standard orientation:
 ---------------------------------------------------------------------
 Center     Atomic      Atomic             Coordinates (Angstroms)
 Number     Number       Type             X           Y           Z
 ---------------------------------------------------------------------
      1          6           0        3.289623   -0.683161    0.151762
      2          6           0        2.227943    0.295481   -0.346814
      3          6           0        0.848628    0.047344    0.264611
      4          6           0       -0.212368    1.027510   -0.233040
      5          6           0       -1.589905    0.838545    0.373045
      6         17           0       -2.363950   -0.734686   -0.125608
      7          1           0        3.018596   -1.713424   -0.086887
      8          1           0        3.409472   -0.616939    1.235067
      9          1           0        4.260930   -0.481964   -0.301814
     10          1           0        2.544221    1.319704   -0.126280
     11          1           0        2.154297    0.228978   -1.436338
     12          1           0        0.918418    0.115557    1.355563
     13          1           0        0.530695   -0.973458    0.040898
     14          1           0       -0.289842    0.977813   -1.321766
     15          1           0        0.095882    2.051249    0.008963
     16          1           0       -1.558172    0.815998    1.459589
     17          1           0       -2.280876    1.611830    0.050962
 ---------------------------------------------------------------------

 SCF Done:  E(RHF) =  -655.362713633     A.U. after    2 cycles

 The electronic state is 1-A.
 Alpha  occ. eigenvalues -- -103.64183 -11.30315 -11.24566 -11.23170 -11.23099
 Alpha  occ. eigenvalues --  -11.22401 -10.67464  -8.33178  -8.32905  -8.32895
 Alpha  occ. eigenvalues --   -1.15611  -1.07398  -1.00956  -0.91981  -0.82800
 Alpha  occ. eigenvalues --   -0.79626  -0.66149  -0.63894  -0.60865  -0.58542
 Alpha  occ. eigenvalues --   -0.57583  -0.54174  -0.52051  -0.49444  -0.48015
 Alpha  occ. eigenvalues --   -0.47629  -0.47137  -0.43961  -0.43679
 Alpha virt. eigenvalues --    0.03368   0.03985   0.04469   0.05126   0.06171
 Alpha virt. eigenvalues --    0.06361   0.06797   0.07689   0.08984   0.09302
 Alpha virt. eigenvalues --    0.09827   0.10995   0.11230   0.13748   0.14281

 Mulliken charges:
               1
     1  C    0.505103
     2  C    0.209203
     3  C    0.072757
     4  C    0.162964
     5  C    0.332666
     6  Cl  -0.167008
     7  H   -0.080850
     8  H   -0.078530
     9  H   -0.059287
    10  H   -0.164270
    11  H   -0.144573
    12  H   -0.170378
    13  H   -0.168051
    14  H   -0.154505
    15  H   -0.094088
    16  H   -0.012453
    17  H    0.011301
 Sum of Mulliken charges =  -0.00000

 Dipole moment (field-independent basis, Debye):
    X=              1.4153    Y=              2.0198    Z=              0.5103  Tot=              2.5185

 Test job not archived.
 1\1\GINC-SE085\SP\RHF\Aug-CC-pVDZ\C5H11Cl1\OHZDE\05-Apr-2025\0\\#t hf
 aug-cc-pvdz iop(5/13=1,5/36=2,99/5=2) pseudo=read geom=check guess=(re
 ad,tcheck) scf=(maxcycle=1)\\title\\0,1\C,0,3.289623,-0.683161,0.15176
 2\C,0,2.227943,0.295481,-0.346814\C,0,0.848628,0.047344,0.264611\C,0,-
 0.212368,1.02751,-0.23304\C,0,-1.589905,0.838545,0.373045\Cl,0,-2.3639
 5,-0.734686,-0.125608\H,0,3.018596,-1.713424,-0.086887\H,0,3.409472,-0
 .616939,1.235067\H,0,4.26093,-0.481964,-0.301814\H,0,2.544221,1.319704
 ,-0.12628\H,0,2.154297,0.228978,-1.436338\H,0,0.918418,0.115557,1.3555

 Normal termination of Gaussian 16 at Sat Apr  5 22:12:54 2025.
