 Gaussian 16, Revision C.01,

 ----------------------------------------------------------------------
 #t hf aug-cc-pvdz symm=none int=(grid=ultrafine) guess=(read,tcheck) s
 table=(opt,rrhf)
 ----------------------------------------------------------------------
 -----
 title
 -----
 Symbolic Z-matrix:
 Charge =  0 Multiplicity = 1

 SCF Done:  E(RHF) =  -694.320199346     A.U. after   12 cycles
 Normal termination of Gaussian 16 at Sat Apr  5 22:12:08 2025.
 Gaussian 16:  ES64L-G16RevC.01  3-Jul-2019

 ----------------------------------------------------------------------
 #t hf aug-cc-pvdz iop(5/13=1,5/36=2,99/5=2) pseudo=read geom=check gue
 ss=(read,tcheck) scf=(maxcycle=1)
 ----------------------------------------------------------------------
 -----
 title
 -----
 Structure from the checkpoint file:  "1-chlorohexane.chk"
 Charge =  0 Multiplicity = 1

                         Standard orientation:
 ---------------------------------------------------------------------
 Center     Atomic      Atomic             Coordinates (Angstroms)
 Number     Number       Type             X           Y           Z
 ---------------------------------------------------------------------
      1          6           0        4.107657   -0.250205   -0.215211
      2          6           0        2.717325   -0.521399    0.356513
      3          6           0        1.636426    0.390420   -0.225173
      4          6           0        0.242168    0.120079    0.340479
      5          6           0       -0.829692    1.038232   -0.244879
      6          6           0       -2.225201    0.823188    0.309411
      7         17           0       -2.919780   -0.797045   -0.154599
      8          1           0        4.124179   -0.394646   -1.297420
      9          1           0        4.854124   -0.916596    0.218969
     10          1           0        4.423588    0.775876   -0.015423
     11          1           0        2.443823   -1.564425    0.172169
     12          1           0        2.740755   -0.402685    1.443977
     13          1           0        1.613418    0.271434   -1.313552
     14          1           0        1.909906    1.435111   -0.040928
     15          1           0        0.262024    0.239696    1.428936
     16          1           0       -0.032215   -0.919987    0.150936
     17          1           0       -0.857119    0.939470   -1.332660
     18          1           0       -0.568928    2.082139   -0.035424
     19          1           0       -2.240983    0.846311    1.396326
     20          1           0       -2.928401    1.556175   -0.074565
 ---------------------------------------------------------------------

 SCF Done:  E(RHF) =  -694.413519662     A.U. after    2 cycles

 The electronic state is 1-A.
 Alpha  occ. eigenvalues -- -103.64170 -11.30299 -11.24547 -11.23095 -11.22892
 Alpha  occ. eigenvalues --  -11.22817 -11.22258 -10.67451  -8.33165  -8.32892
 Alpha  occ. eigenvalues --   -8.32882  -1.15597  -1.07970  -1.03058  -0.95929
 Alpha  occ. eigenvalues --   -0.87499  -0.80695  -0.79401  -0.66410  -0.63966
 Alpha  occ. eigenvalues --   -0.62187  -0.59866  -0.56875  -0.56014  -0.54748
 Alpha  occ. eigenvalues --   -0.51654  -0.50092  -0.48215  -0.47251  -0.46890
 Alpha  occ. eigenvalues --   -0.46498  -0.43931  -0.43561
 Alpha virt. eigenvalues --    0.03361   0.03795   0.04340   0.04919   0.05685
 Alpha virt. eigenvalues --    0.06117   0.06602   0.07142   0.08065   0.08778
 Alpha virt. eigenvalues --    0.09400   0.09541   0.10720   0.11259   0.12526

 Mulliken charges:
               1
     1  C    0.551489
     2  C    0.348580
     3  C    0.043892
     4  C    0.150972
     5  C    0.244378
     6  C    0.397314
     7  Cl  -0.167434
     8  H   -0.088934
     9  H   -0.065201
    10  H   -0.090224
    11  H   -0.151626
    12  H   -0.155378
    13  H   -0.184022
    14  H   -0.199693
    15  H   -0.178220
    16  H   -0.180290
    17  H   -0.161373
    18  H   -0.096321
    19  H   -0.021835
    20  H    0.003925
 Sum of Mulliken charges =  -0.00000

 Dipole moment (field-independent basis, Debye):
    X=              1.3216    Y=              2.0249    Z=              0.5361  Tot=              2.4767

 Test job not archived.
 1\1\GINC-SE042\SP\RHF\Aug-CC-pVDZ\C6H13Cl1\OHZDE\05-Apr-2025\0\\#t hf
 aug-cc-pvdz iop(5/13=1,5/36=2,99/5=2) pseudo=read geom=check guess=(re
 ad,tcheck) scf=(maxcycle=1)\\title\\0,1\C,0,4.107657,-0.250205,-0.2152
 11\C,0,2.717325,-0.521399,0.356513\C,0,1.636426,0.39042,-0.225173\C,0,
 0.242168,0.120079,0.340479\C,0,-0.829692,1.038232,-0.244879\C,0,-2.225
 201,0.823188,0.309411\Cl,0,-2.91978,-0.797045,-0.154599\H,0,4.124179,-
 0.394646,-1.29742\H,0,4.854124,-0.916596,0.218969\H,0,4.423588,0.77587
 6,-0.015423\H,0,2.443823,-1.564425,0.172169\H,0,2.740755,-0.402685,1.4

 Normal termination of Gaussian 16 at Sat Apr  5 22:12:57 2025.
