 Gaussian 16, Revision C.01,

 ----------------------------------------------------------------------
 #t hf aug-cc-pvdz symm=none int=(grid=ultrafine) guess=(read,tcheck) s
 table=(opt,rrhf)
 ----------------------------------------------------------------------
 -----
 title
 -----
 Symbolic Z-matrix:
 Charge =  0 Multiplicity = 1

 SCF Done:  E(RHF) =  -635.827201760     A.U. after   13 cycles
 Normal termination of Gaussian 16 at Sat Apr  5 22:11:02 2025.
 Gaussian 16:  ES64L-G16RevC.01  3-Jul-2019

 ----------------------------------------------------------------------
 #t hf aug-cc-pvdz iop(5/13=1,5/36=2,99/5=2) pseudo=read geom=check gue
 ss=(read,tcheck) scf=(maxcycle=1)
 ----------------------------------------------------------------------
 -----
 title
 -----
 Structure from the checkpoint file:  "1-chloro-1-fluoroethene.chk"
 Charge =  0 Multiplicity = 1

                         Standard orientation:
 ---------------------------------------------------------------------
 Center     Atomic      Atomic             Coordinates (Angstroms)
 Number     Number       Type             X           Y           Z
 ---------------------------------------------------------------------
      1         17           0        1.271311   -0.098836   -0.000000
      2          9           0       -0.891538    1.237651   -0.000000
      3          6           0       -0.455870   -0.024081   -0.000000
      4          6           0       -1.271817   -1.059180    0.000002
      5          1           0       -0.883624   -2.063138    0.000003
      6          1           0       -2.338704   -0.895954    0.000003
 ---------------------------------------------------------------------

 SCF Done:  E(RHF) =  -635.909170697     A.U. after    2 cycles

 The electronic state is 1-A.
 Alpha  occ. eigenvalues -- -103.69233 -26.16460 -11.41074 -11.26493 -10.72543
 Alpha  occ. eigenvalues --   -8.38282  -8.37947  -8.37936  -1.70872  -1.21029
 Alpha  occ. eigenvalues --   -1.05564  -0.88469  -0.78806  -0.78124  -0.72298
 Alpha  occ. eigenvalues --   -0.62696  -0.58663  -0.53481  -0.49896  -0.39403
 Alpha virt. eigenvalues --    0.03724   0.05233   0.07509   0.09109   0.09607
 Alpha virt. eigenvalues --    0.13088   0.13135   0.14355   0.16020   0.16416
 Alpha virt. eigenvalues --    0.17450   0.18120   0.18156   0.20834   0.22771

 Mulliken charges:
               1
     1  Cl  -0.141181
     2  F   -0.316060
     3  C    0.196170
     4  C    0.697062
     5  H   -0.201657
     6  H   -0.234335
 Sum of Mulliken charges =  -0.00000

 Dipole moment (field-independent basis, Debye):
    X=             -0.7545    Y=             -1.7356    Z=              0.0000  Tot=              1.8925

 Test job not archived.
 1\1\GINC-SE010\SP\RHF\Aug-CC-pVDZ\C2H2Cl1F1\OHZDE\05-Apr-2025\0\\#t hf
  aug-cc-pvdz iop(5/13=1,5/36=2,99/5=2) pseudo=read geom=check guess=(r
 ead,tcheck) scf=(maxcycle=1)\\title\\0,1\Cl,0,1.271311,-0.098836,0.\F,
 0,-0.891537,1.237652,0.\C,0,-0.45587,-0.024081,0.\C,0,-1.271818,-1.059
 179,0.000002\H,0,-0.883625,-2.063137,0.000003\H,0,-2.338704,-0.895953,
 0.000003\\Version=ES64L-G16RevC.01\State=1-A\HF=-635.9091707\RMSD=6.93
 2e-03\Dipole=-0.2968442,-0.6828255,0.0000009\Quadrupole=1.4605932,-0.1
 449092,-1.315684,1.5858549,-0.0000035,-0.0000039\PG=C01 [X(C2H2Cl1F1)]

 Normal termination of Gaussian 16 at Sat Apr  5 22:11:45 2025.
