 Gaussian 16, Revision C.01,

 ----------------------------------------------------------------------
 #t hf aug-cc-pvdz symm=none int=(grid=ultrafine) guess=(read,tcheck) s
 table=(opt,rrhf)
 ----------------------------------------------------------------------
 -----
 title
 -----
 Symbolic Z-matrix:
 Charge =  0 Multiplicity = 1

 SCF Done:  E(RHF) =  -637.030990587     A.U. after   12 cycles
 Normal termination of Gaussian 16 at Sat Apr  5 22:10:42 2025.
 Gaussian 16:  ES64L-G16RevC.01  3-Jul-2019

 ----------------------------------------------------------------------
 #t hf aug-cc-pvdz iop(5/13=1,5/36=2,99/5=2) pseudo=read geom=check gue
 ss=(read,tcheck) scf=(maxcycle=1)
 ----------------------------------------------------------------------
 -----
 title
 -----
 Structure from the checkpoint file:  "1-chloro-1-fluoroethane.chk"
 Charge =  0 Multiplicity = 1

                         Standard orientation:
 ---------------------------------------------------------------------
 Center     Atomic      Atomic             Coordinates (Angstroms)
 Number     Number       Type             X           Y           Z
 ---------------------------------------------------------------------
      1          6           0        0.416411    0.100268    0.386308
      2          6           0        1.263415   -1.037984   -0.112361
      3          1           0        0.427859    0.216469    1.466770
      4          9           0        0.842920    1.284656   -0.164507
      5         17           0       -1.324878   -0.129863   -0.054942
      6          1           0        1.189287   -1.116293   -1.195399
      7          1           0        2.302538   -0.853754    0.163176
      8          1           0        0.938014   -1.974348    0.336348
 ---------------------------------------------------------------------

 SCF Done:  E(RHF) =  -637.111430316     A.U. after    2 cycles

 The electronic state is 1-A.
 Alpha  occ. eigenvalues -- -103.66193 -26.13561 -11.40415 -11.25915 -10.69533
 Alpha  occ. eigenvalues --   -8.35244  -8.34949  -8.34942  -1.67366  -1.17634
 Alpha  occ. eigenvalues --   -1.03687  -0.89565  -0.78443  -0.75765  -0.72346
 Alpha  occ. eigenvalues --   -0.62341  -0.58266  -0.57006  -0.52728  -0.47458
 Alpha  occ. eigenvalues --   -0.46155
 Alpha virt. eigenvalues --    0.03352   0.04691   0.05584   0.06454   0.09091
 Alpha virt. eigenvalues --    0.10958   0.11913   0.13888   0.14365   0.14925
 Alpha virt. eigenvalues --    0.16389   0.16954   0.18313   0.18720   0.19506

 Mulliken charges:
               1
     1  C    0.252701
     2  C    0.365080
     3  H   -0.044968
     4  F   -0.390998
     5  Cl  -0.174935
     6  H   -0.001610
     7  H   -0.000895
     8  H   -0.004373
 Sum of Mulliken charges =  -0.00000

 Dipole moment (field-independent basis, Debye):
    X=              1.5775    Y=             -1.8640    Z=              1.1739  Tot=              2.7095

 Test job not archived.
 1\1\GINC-SE107\SP\RHF\Aug-CC-pVDZ\C2H4Cl1F1\OHZDE\05-Apr-2025\0\\#t hf
  aug-cc-pvdz iop(5/13=1,5/36=2,99/5=2) pseudo=read geom=check guess=(r
 ead,tcheck) scf=(maxcycle=1)\\title\\0,1\C,0,0.416411,0.100268,0.38630
 8\C,0,1.263415,-1.037984,-0.112361\H,0,0.427859,0.216469,1.46677\F,0,0
 .84292,1.284656,-0.164507\Cl,0,-1.324878,-0.129863,-0.054942\H,0,1.189
 287,-1.116293,-1.195399\H,0,2.302538,-0.853754,0.163176\H,0,0.938014,-
 1.974348,0.336348\\Version=ES64L-G16RevC.01\State=1-A\HF=-637.1114303\
 RMSD=4.873e-03\Dipole=0.6206541,-0.7333444,0.4618573\Quadrupole=-0.038

 Normal termination of Gaussian 16 at Sat Apr  5 22:10:44 2025.
