 Gaussian 16, Revision C.01,

 ----------------------------------------------------------------------
 #t hf aug-cc-pvdz symm=none int=(grid=ultrafine) guess=(read,tcheck) s
 table=(opt,rrhf)
 ----------------------------------------------------------------------
 -----
 title
 -----
 Symbolic Z-matrix:
 Charge =  0 Multiplicity = 1

 SCF Done:  E(RHF) =  -735.904644288     A.U. after   12 cycles
 Normal termination of Gaussian 16 at Sat Apr  5 22:10:44 2025.
 Gaussian 16:  ES64L-G16RevC.01  3-Jul-2019

 ----------------------------------------------------------------------
 #t hf aug-cc-pvdz iop(5/13=1,5/36=2,99/5=2) pseudo=read geom=check gue
 ss=(read,tcheck) scf=(maxcycle=1)
 ----------------------------------------------------------------------
 -----
 title
 -----
 Structure from the checkpoint file:  "1-chloro-1-1-difluoroethane.chk"
 Charge =  0 Multiplicity = 1

                         Standard orientation:
 ---------------------------------------------------------------------
 Center     Atomic      Atomic             Coordinates (Angstroms)
 Number     Number       Type             X           Y           Z
 ---------------------------------------------------------------------
      1          6           0       -0.355891    0.007246    0.000000
      2          6           0       -0.817838    1.438371    0.000000
      3         17           0        1.445175   -0.130990    0.000000
      4          9           0       -0.817838   -0.654552    1.085396
      5          9           0       -0.817838   -0.654552   -1.085396
      6          1           0       -1.907414    1.446254    0.000000
      7          1           0       -0.448549    1.944401    0.887913
      8          1           0       -0.448549    1.944401   -0.887913
 ---------------------------------------------------------------------

 SCF Done:  E(RHF) =  -736.021559661     A.U. after    2 cycles

 The electronic state is 1-A'.
 Alpha  occ. eigenvalues -- -103.67894 -26.16341 -26.16331 -11.50183 -11.27310
 Alpha  occ. eigenvalues --  -10.71257  -8.36971  -8.36654  -8.36652  -1.73436
 Alpha  occ. eigenvalues --   -1.68514  -1.19317  -1.06169  -0.94088  -0.84962
 Alpha  occ. eigenvalues --   -0.81662  -0.80435  -0.75672  -0.72109  -0.66679
 Alpha  occ. eigenvalues --   -0.59933  -0.59807  -0.55265  -0.49262  -0.48567
 Alpha virt. eigenvalues --    0.03391   0.05609   0.05618   0.08012   0.09309
 Alpha virt. eigenvalues --    0.12022   0.12367   0.13095   0.14335   0.15168
 Alpha virt. eigenvalues --    0.16501   0.17615   0.18110   0.19673   0.22693

 Mulliken charges:
               1
     1  C    0.413235
     2  C    0.366924
     3  Cl  -0.168607
     4  F   -0.322461
     5  F   -0.322461
     6  H    0.006163
     7  H    0.013603
     8  H    0.013603
 Sum of Mulliken charges =  -0.00000

 Dipole moment (field-independent basis, Debye):
    X=             -0.5658    Y=              2.6023    Z=             -0.0000  Tot=              2.6631

 Test job not archived.
 1\1\GINC-SE047\SP\RHF\Aug-CC-pVDZ\C2H3Cl1F2\OHZDE\05-Apr-2025\0\\#t hf
  aug-cc-pvdz iop(5/13=1,5/36=2,99/5=2) pseudo=read geom=check guess=(r
 ead,tcheck) scf=(maxcycle=1)\\title\\0,1\C,0,-0.355891,0.007246,0.\C,0
 ,-0.817838,1.438371,0.\Cl,0,1.445175,-0.13099,0.\F,0,-0.817838,-0.6545
 52,1.085396\F,0,-0.817838,-0.654552,-1.085396\H,0,-1.907414,1.446254,0
 .\H,0,-0.448549,1.944401,0.887913\H,0,-0.448549,1.944401,-0.887913\\Ve
 rsion=ES64L-G16RevC.01\State=1-A'\HF=-736.0215597\RMSD=5.817e-03\Dipol
 e=-0.2225936,1.0238205,0.\Quadrupole=0.2442093,1.2201242,-1.4643335,-1

 Normal termination of Gaussian 16 at Sat Apr  5 22:10:47 2025.
