 Gaussian 16, Revision C.01,

 ----------------------------------------------------------------------
 #t hf aug-cc-pvdz symm=none int=(grid=ultrafine) guess=(read,tcheck) s
 table=(opt,rrhf)
 ----------------------------------------------------------------------
 -----
 title
 -----
 Symbolic Z-matrix:
 Charge =  0 Multiplicity = 1

 SCF Done:  E(RHF) =  -796.514571006     A.U. after   16 cycles
 Normal termination of Gaussian 16 at Sat Apr  5 22:11:02 2025.
 Gaussian 16:  ES64L-G16RevC.01  3-Jul-2019

 ----------------------------------------------------------------------
 #t hf aug-cc-pvdz iop(5/13=1,5/36=2,99/5=2) pseudo=read geom=check gue
 ss=(read,tcheck) scf=(maxcycle=1)
 ----------------------------------------------------------------------
 -----
 title
 -----
 Structure from the checkpoint file:  "1-chloro-1-cyano-2-isocyanatoethane.chk"
 Charge =  0 Multiplicity = 1

                         Standard orientation:
 ---------------------------------------------------------------------
 Center     Atomic      Atomic             Coordinates (Angstroms)
 Number     Number       Type             X           Y           Z
 ---------------------------------------------------------------------
      1         17           0       -0.676413    1.647673   -0.198839
      2          8           0        2.973312   -0.003864   -0.788694
      3          7           0        1.171490   -0.909893    0.447772
      4          7           0       -2.183834   -1.569197   -1.071477
      5          6           0        0.125081   -0.508516    1.336558
      6          6           0       -1.098061    0.085661    0.622655
      7          6           0       -1.695846   -0.827966   -0.341528
      8          6           0        2.065665   -0.383032   -0.161385
      9          1           0        0.479121    0.224746    2.062267
     10          1           0       -0.217303   -1.388512    1.882361
     11          1           0       -1.843922    0.340978    1.373321
 ---------------------------------------------------------------------

 SCF Done:  E(RHF) =  -796.635540065     A.U. after    2 cycles

 The electronic state is 1-A.
 Alpha  occ. eigenvalues -- -103.69675 -20.63919 -15.67289 -15.66904 -11.43637
 Alpha  occ. eigenvalues --  -11.38901 -11.35390 -11.31421 -10.72910  -8.38628
 Alpha  occ. eigenvalues --   -8.38320  -8.38310  -1.44287  -1.27545  -1.23137
 Alpha  occ. eigenvalues --   -1.19898  -1.07906  -0.96219  -0.79773  -0.75308
 Alpha  occ. eigenvalues --   -0.71558  -0.70113  -0.68855  -0.65773  -0.64199
 Alpha  occ. eigenvalues --   -0.59633  -0.57137  -0.50928  -0.50379  -0.48684
 Alpha  occ. eigenvalues --   -0.48227  -0.46346  -0.44795
 Alpha virt. eigenvalues --    0.01914   0.04171   0.04364   0.06134   0.07644
 Alpha virt. eigenvalues --    0.08829   0.09450   0.10119   0.10915   0.11514
 Alpha virt. eigenvalues --    0.12086   0.13465   0.13692   0.13850   0.14633

 Mulliken charges:
               1
     1  Cl  -0.096350
     2  O   -0.199582
     3  N   -0.118384
     4  N   -0.114027
     5  C    0.911835
     6  C    0.132729
     7  C   -0.254687
     8  C   -0.175748
     9  H   -0.034865
    10  H   -0.117294
    11  H    0.066373
 Sum of Mulliken charges =  -0.00000

 Dipole moment (field-independent basis, Debye):
    X=             -0.9405    Y=              0.9696    Z=              4.9431  Tot=              5.1244

 Test job not archived.
 1\1\GINC-SE106\SP\RHF\Aug-CC-pVDZ\C4H3Cl1N2O1\OHZDE\05-Apr-2025\0\\#t
 hf aug-cc-pvdz iop(5/13=1,5/36=2,99/5=2) pseudo=read geom=check guess=
 (read,tcheck) scf=(maxcycle=1)\\title\\0,1\Cl,0,-0.676413,1.647673,-0.
 198839\O,0,2.973312,-0.003864,-0.788694\N,0,1.17149,-0.909893,0.447772
 \N,0,-2.183834,-1.569197,-1.071477\C,0,0.125081,-0.508516,1.336558\C,0
 ,-1.098061,0.085661,0.622655\C,0,-1.695846,-0.827966,-0.341528\C,0,2.0
 65665,-0.383032,-0.161385\H,0,0.479121,0.224746,2.062267\H,0,-0.217303
 ,-1.388512,1.882361\H,0,-1.843922,0.340978,1.373321\\Version=ES64L-G16

 Normal termination of Gaussian 16 at Sat Apr  5 22:11:49 2025.
