 Gaussian 16, Revision C.01,

 ----------------------------------------------------------------------
 #t hf aug-cc-pvdz symm=none int=(grid=ultrafine) guess=(read,tcheck) s
 table=(opt,rrhf)
 ----------------------------------------------------------------------
 -----
 title
 -----
 Symbolic Z-matrix:
 Charge =  0 Multiplicity = 1

 SCF Done:  E(RHF) =  -1102.29441295     A.U. after   15 cycles
 Normal termination of Gaussian 16 at Sat Apr  5 22:12:01 2025.
 Gaussian 16:  ES64L-G16RevC.01  3-Jul-2019

 ----------------------------------------------------------------------
 #t hf aug-cc-pvdz iop(5/13=1,5/36=2,99/5=2) pseudo=read geom=check gue
 ss=(read,tcheck) scf=(maxcycle=1)
 ----------------------------------------------------------------------
 -----
 title
 -----
 Structure from the checkpoint file:  "1-chloroethylsulfanyliminomethanone.chk"
 Charge =  0 Multiplicity = 1

                         Standard orientation:
 ---------------------------------------------------------------------
 Center     Atomic      Atomic             Coordinates (Angstroms)
 Number     Number       Type             X           Y           Z
 ---------------------------------------------------------------------
      1         17           0        1.561680    1.458583   -0.139280
      2         16           0       -0.199332   -0.989403   -0.363561
      3          8           0       -3.703891    0.379365   -0.024728
      4          7           0       -1.406676   -0.052559    0.379697
      5          6           0        1.249977   -0.250731    0.422674
      6          6           0       -2.570828    0.137435    0.120568
      7          6           0        2.453915   -1.127919    0.131443
      8          1           0        1.049046   -0.158737    1.484752
      9          1           0        2.308548   -2.119331    0.561143
     10          1           0        3.342765   -0.681353    0.571677
     11          1           0        2.619862   -1.225756   -0.940992
 ---------------------------------------------------------------------

 SCF Done:  E(RHF) =  -1102.41437097     A.U. after    2 cycles

 The electronic state is 1-A.
 Alpha  occ. eigenvalues -- -103.66269 -93.61495 -20.64076 -15.68203 -11.43547
 Alpha  occ. eigenvalues --  -11.36118 -11.26934 -10.69544  -8.90764  -8.35255
 Alpha  occ. eigenvalues --   -8.34962  -8.34955  -6.24986  -6.24638  -6.24219
 Alpha  occ. eigenvalues --   -1.44253  -1.26087  -1.18308  -1.06234  -0.98781
 Alpha  occ. eigenvalues --   -0.84384  -0.76078  -0.71336  -0.67954  -0.67249
 Alpha  occ. eigenvalues --   -0.64870  -0.60599  -0.58926  -0.55600  -0.54096
 Alpha  occ. eigenvalues --   -0.50645  -0.47431  -0.46180  -0.43822  -0.36323
 Alpha virt. eigenvalues --    0.03114   0.04484   0.05373   0.05879   0.06799
 Alpha virt. eigenvalues --    0.08267   0.08611   0.09378   0.10355   0.11607
 Alpha virt. eigenvalues --    0.11912   0.12667   0.14566   0.14685   0.15591

 Mulliken charges:
               1
     1  Cl  -0.178865
     2  S    0.939701
     3  O   -0.196052
     4  N   -0.356148
     5  C   -0.549957
     6  C   -0.135456
     7  C    0.585737
     8  H   -0.012022
     9  H   -0.030441
    10  H   -0.040073
    11  H   -0.026424
 Sum of Mulliken charges =  -0.00000

 Dipole moment (field-independent basis, Debye):
    X=              2.8138    Y=             -2.4299    Z=              0.7601  Tot=              3.7947

 Test job not archived.
 1\1\GINC-SE041\SP\RHF\Aug-CC-pVDZ\C3H4Cl1N1O1S1\OHZDE\05-Apr-2025\0\\#
 t hf aug-cc-pvdz iop(5/13=1,5/36=2,99/5=2) pseudo=read geom=check gues
 s=(read,tcheck) scf=(maxcycle=1)\\title\\0,1\Cl,0,1.56168,1.458583,-0.
 13928\S,0,-0.199332,-0.989403,-0.363561\O,0,-3.703891,0.379365,-0.0247
 28\N,0,-1.406676,-0.052559,0.379697\C,0,1.249977,-0.250731,0.422674\C,
 0,-2.570828,0.137435,0.120568\C,0,2.453915,-1.127919,0.131443\H,0,1.04
 9046,-0.158737,1.484752\H,0,2.308548,-2.119331,0.561143\H,0,3.342765,-
 0.681353,0.571677\H,0,2.619862,-1.225756,-0.940992\\Version=ES64L-G16R

 Normal termination of Gaussian 16 at Sat Apr  5 22:12:53 2025.
