 Gaussian 16, Revision C.01,

 ----------------------------------------------------------------------
 #t hf aug-cc-pvdz symm=none int=(grid=ultrafine) guess=(read,tcheck) s
 table=(opt,rrhf)
 ----------------------------------------------------------------------
 -----
 title
 -----
 Symbolic Z-matrix:
 Charge =  0 Multiplicity = 1

 SCF Done:  E(RHF) =  -368.709081984     A.U. after   13 cycles
 Normal termination of Gaussian 16 at Sat Apr  5 22:11:53 2025.
 Gaussian 16:  ES64L-G16RevC.01  3-Jul-2019

 ----------------------------------------------------------------------
 #t hf aug-cc-pvdz iop(5/13=1,5/36=2,99/5=2) pseudo=read geom=check gue
 ss=(read,tcheck) scf=(maxcycle=1)
 ----------------------------------------------------------------------
 -----
 title
 -----
 Structure from the checkpoint file:  "1-cyano-1-1-difluoroethane.chk"
 Charge =  0 Multiplicity = 1

                         Standard orientation:
 ---------------------------------------------------------------------
 Center     Atomic      Atomic             Coordinates (Angstroms)
 Number     Number       Type             X           Y           Z
 ---------------------------------------------------------------------
      1          9           0       -0.675349   -0.769946    1.097109
      2          9           0       -0.675515   -0.770081   -1.096910
      3          7           0        2.321971    0.174000   -0.000189
      4          6           0       -0.299060   -0.045692    0.000026
      5          6           0       -0.986636    1.297029   -0.000005
      6          6           0        1.181140    0.048530   -0.000093
      7          1           0       -2.061714    1.126864    0.000085
      8          1           0       -0.703552    1.858035   -0.887970
      9          1           0       -0.703421    1.858143    0.887851
 ---------------------------------------------------------------------

 SCF Done:  E(RHF) =  -368.833006291     A.U. after    2 cycles

 The electronic state is 1-A.
 Alpha  occ. eigenvalues --  -26.17133 -26.17124 -15.68010 -11.49502 -11.31678
 Alpha  occ. eigenvalues --  -11.28477  -1.73641  -1.68938  -1.23052  -1.11315
 Alpha  occ. eigenvalues --   -0.97688  -0.88275  -0.85255  -0.81011  -0.76584
 Alpha  occ. eigenvalues --   -0.72811  -0.72719  -0.61646  -0.60958  -0.60769
 Alpha  occ. eigenvalues --   -0.57389  -0.50894  -0.50350
 Alpha virt. eigenvalues --    0.02924   0.05138   0.05175   0.07405   0.09184
 Alpha virt. eigenvalues --    0.11144   0.11324   0.11716   0.11863   0.14273
 Alpha virt. eigenvalues --    0.14861   0.15508   0.15853   0.16096   0.16371

 Mulliken charges:
               1
     1  F   -0.351030
     2  F   -0.351029
     3  N   -0.051173
     4  C    0.918034
     5  C    0.321526
     6  C   -0.601388
     7  H    0.022201
     8  H    0.046428
     9  H    0.046431
 Sum of Mulliken charges =  -0.00000

 Dipole moment (field-independent basis, Debye):
    X=             -2.4807    Y=              2.4478    Z=              0.0000  Tot=              3.4850

 Test job not archived.
 1\1\GINC-SE164\SP\RHF\Aug-CC-pVDZ\C3H3F2N1\OHZDE\05-Apr-2025\0\\#t hf
 aug-cc-pvdz iop(5/13=1,5/36=2,99/5=2) pseudo=read geom=check guess=(re
 ad,tcheck) scf=(maxcycle=1)\\title\\0,1\F,0,-0.675349,-0.769946,1.0971
 09\F,0,-0.675515,-0.770081,-1.09691\N,0,2.321971,0.174,-0.000189\C,0,-
 0.29906,-0.045692,0.000026\C,0,-0.986636,1.297029,-0.000005\C,0,1.1811
 4,0.04853,-0.000093\H,0,-2.061714,1.126864,0.000085\H,0,-0.703552,1.85
 8035,-0.88797\H,0,-0.703421,1.858143,0.887851\\Version=ES64L-G16RevC.0
 1\State=1-A\HF=-368.8330063\RMSD=7.864e-03\Dipole=-0.9759648,0.9630514

 Normal termination of Gaussian 16 at Sat Apr  5 22:12:51 2025.
