 Gaussian 16, Revision C.01,

 ----------------------------------------------------------------------
 #t hf aug-cc-pvdz symm=none int=(grid=ultrafine) guess=(read,tcheck) s
 table=(opt,rrhf)
 ----------------------------------------------------------------------
 -----
 title
 -----
 Symbolic Z-matrix:
 Charge =  0 Multiplicity = 1

 SCF Done:  E(RHF) =  -268.649526978     A.U. after   13 cycles
 Normal termination of Gaussian 16 at Sat Apr  5 22:11:49 2025.
 Gaussian 16:  ES64L-G16RevC.01  3-Jul-2019

 ----------------------------------------------------------------------
 #t hf aug-cc-pvdz iop(5/13=1,5/36=2,99/5=2) pseudo=read geom=check gue
 ss=(read,tcheck) scf=(maxcycle=1)
 ----------------------------------------------------------------------
 -----
 title
 -----
 Structure from the checkpoint file:  "1-cyano-2-fluoroethene.chk"
 Charge =  0 Multiplicity = 1

                         Standard orientation:
 ---------------------------------------------------------------------
 Center     Atomic      Atomic             Coordinates (Angstroms)
 Number     Number       Type             X           Y           Z
 ---------------------------------------------------------------------
      1          9           0        2.208132    0.011420   -0.000000
      2          7           0       -2.522866   -0.216097    0.000001
      3          6           0       -0.054551    0.505268   -0.000000
      4          6           0        0.934896   -0.381578   -0.000000
      5          6           0       -1.412545    0.093056   -0.000000
      6          1           0        0.158393    1.565950    0.000001
      7          1           0        0.821683   -1.456525   -0.000000
 ---------------------------------------------------------------------

 SCF Done:  E(RHF) =  -268.738022814     A.U. after    2 cycles

 The electronic state is 1-A.
 Alpha  occ. eigenvalues --  -26.18048 -15.65438 -11.39764 -11.30988 -11.30578
 Alpha  occ. eigenvalues --   -1.72296  -1.21116  -1.11850  -0.93949  -0.83773
 Alpha  occ. eigenvalues --   -0.79201  -0.78475  -0.71063  -0.63201  -0.56101
 Alpha  occ. eigenvalues --   -0.53502  -0.48134  -0.40881
 Alpha virt. eigenvalues --    0.03077   0.03901   0.06564   0.07489   0.09826
 Alpha virt. eigenvalues --    0.10435   0.11331   0.12968   0.13281   0.14201
 Alpha virt. eigenvalues --    0.14394   0.15167   0.15488   0.17846   0.20724

 Mulliken charges:
               1
     1  F   -0.300767
     2  N   -0.124933
     3  C    0.879819
     4  C    0.642652
     5  C   -0.626314
     6  H   -0.273795
     7  H   -0.196663
 Sum of Mulliken charges =  -0.00000

 Dipole moment (field-independent basis, Debye):
    X=              2.4838    Y=              0.1349    Z=             -0.0000  Tot=              2.4875

 Test job not archived.
 1\1\GINC-SE180\SP\RHF\Aug-CC-pVDZ\C3H2F1N1\OHZDE\05-Apr-2025\0\\#t hf
 aug-cc-pvdz iop(5/13=1,5/36=2,99/5=2) pseudo=read geom=check guess=(re
 ad,tcheck) scf=(maxcycle=1)\\title\\0,1\F,0,2.208132,0.01142,0.\N,0,-2
 .522866,-0.216097,0.000001\C,0,-0.054551,0.505268,0.\C,0,0.934896,-0.3
 81578,0.\C,0,-1.412545,0.093056,0.\H,0,0.158393,1.56595,0.000001\H,0,0
 .821683,-1.456525,0.\\Version=ES64L-G16RevC.01\State=1-A\HF=-268.73802
 28\RMSD=7.115e-03\Dipole=0.9772168,0.0530615,-0.0000002\Quadrupole=-7.
 6620538,5.5754827,2.0865711,-2.0034834,0.0000033,0.0000017\PG=C01 [X(C

 Normal termination of Gaussian 16 at Sat Apr  5 22:12:50 2025.
