 Gaussian 16, Revision C.01,

 ----------------------------------------------------------------------
 #t hf aug-cc-pvdz symm=none int=(grid=ultrafine) guess=(read,tcheck) s
 table=(opt,rrhf)
 ----------------------------------------------------------------------
 -----
 title
 -----
 Symbolic Z-matrix:
 Charge =  0 Multiplicity = 1

 SCF Done:  E(RHF) =  -386.021708710     A.U. after   14 cycles

 1\1\GINC-SE180\Stability\RHF\Aug-CC-pVDZ\C8H14O1\OHZDE\05-Apr-2025\0\\
 #t hf aug-cc-pvdz symm=none int=(grid=ultrafine) guess=(read,tcheck) s
 table=(opt,rrhf)\\title\\0,1\C,0,1.811591,-0.159551,-0.096424\C,0,-2.5
 56321,0.066825,-0.240521\C,0,-1.75119,1.356259,-0.059733\C,0,-1.921204
 ,-1.099327,0.52149\C,0,-0.281229,1.164125,-0.442828\C,0,-0.451165,-1.2
 9352,0.140424\C,0,0.359157,-0.006631,0.338914\C,0,2.843613,0.624195,0.
 685597\O,0,2.127563,-0.8614,-1.032\H,0,-3.586727,0.21757,0.088357\H,0,
 -2.602212,-0.181621,-1.305799\H,0,-2.183986,2.161109,-0.657926\H,0,-1.

 Normal termination of Gaussian 16 at Sat Apr  5 22:13:48 2025.
 Gaussian 16:  ES64L-G16RevC.01  3-Jul-2019

 ----------------------------------------------------------------------
 #t hf aug-cc-pvdz iop(5/13=1,5/36=2,99/5=2) pseudo=read geom=check gue
 ss=(read,tcheck) scf=(maxcycle=1)
 ----------------------------------------------------------------------
 -----
 title
 -----
 Structure from the checkpoint file:  "1-cyclohexylethanone.chk"
 Charge =  0 Multiplicity = 1

                         Standard orientation:
 ---------------------------------------------------------------------
 Center     Atomic      Atomic             Coordinates (Angstroms)
 Number     Number       Type             X           Y           Z
 ---------------------------------------------------------------------
      1          6           0        1.811591   -0.159551   -0.096424
      2          6           0       -2.556321    0.066825   -0.240521
      3          6           0       -1.751190    1.356259   -0.059733
      4          6           0       -1.921204   -1.099327    0.521490
      5          6           0       -0.281229    1.164125   -0.442828
      6          6           0       -0.451165   -1.293520    0.140424
      7          6           0        0.359157   -0.006631    0.338914
      8          6           0        2.843613    0.624195    0.685597
      9          8           0        2.127563   -0.861400   -1.032000
     10          1           0       -3.586727    0.217570    0.088357
     11          1           0       -2.602212   -0.181621   -1.305799
     12          1           0       -2.183986    2.161109   -0.657926
     13          1           0       -1.812407    1.678111    0.985184
     14          1           0       -1.997578   -0.910144    1.597770
     15          1           0       -2.475926   -2.020574    0.331373
     16          1           0       -0.204618    0.946364   -1.511824
     17          1           0        0.274902    2.088076   -0.268004
     18          1           0       -0.011128   -2.101922    0.728414
     19          1           0       -0.371415   -1.596118   -0.905549
     20          1           0        0.351723    0.262560    1.401185
     21          1           0        2.520697    1.654562    0.843527
     22          1           0        2.957113    0.173697    1.675299
     23          1           0        3.801543    0.605286    0.172476
 ---------------------------------------------------------------------

 SCF Done:  E(RHF) =  -386.139393045     A.U. after    2 cycles

 The electronic state is 1-A.
 Alpha  occ. eigenvalues --  -20.55569 -11.33552 -11.24416 -11.24191 -11.23852
 Alpha  occ. eigenvalues --  -11.23211 -11.22810 -11.22757 -11.22655  -1.34762
 Alpha  occ. eigenvalues --   -1.11662  -1.03231  -1.00345  -0.98650  -0.85896
 Alpha  occ. eigenvalues --   -0.83875  -0.76919  -0.73464  -0.67119  -0.65032
 Alpha  occ. eigenvalues --   -0.62532  -0.61664  -0.60196  -0.59648  -0.58112
 Alpha  occ. eigenvalues --   -0.54394  -0.53522  -0.53104  -0.49889  -0.49340
 Alpha  occ. eigenvalues --   -0.48863  -0.46672  -0.45939  -0.43698  -0.40563
 Alpha virt. eigenvalues --    0.03090   0.03856   0.04068   0.04613   0.05603
 Alpha virt. eigenvalues --    0.05828   0.06281   0.06808   0.07125   0.08248
 Alpha virt. eigenvalues --    0.08322   0.08970   0.09299   0.09485   0.12569

 Mulliken charges:
               1
     1  C    0.103724
     2  C    0.232342
     3  C    0.454028
     4  C    0.445221
     5  C    0.335296
     6  C    0.493114
     7  C   -0.499267
     8  C    0.423011
     9  O   -0.573287
    10  H   -0.118031
    11  H   -0.106111
    12  H   -0.103943
    13  H   -0.093801
    14  H   -0.107391
    15  H   -0.086138
    16  H   -0.085104
    17  H   -0.190217
    18  H   -0.184231
    19  H   -0.046925
    20  H   -0.291485
    21  H   -0.016874
    22  H    0.093921
    23  H   -0.077851
 Sum of Mulliken charges =   0.00000

 Dipole moment (field-independent basis, Debye):
    X=             -1.2770    Y=              1.9694    Z=              2.4804  Tot=              3.4149

 Test job not archived.
 1\1\GINC-SE180\SP\RHF\Aug-CC-pVDZ\C8H14O1\OHZDE\05-Apr-2025\0\\#t hf a
 ug-cc-pvdz iop(5/13=1,5/36=2,99/5=2) pseudo=read geom=check guess=(rea
 d,tcheck) scf=(maxcycle=1)\\title\\0,1\C,0,1.811591,-0.159551,-0.09642
 4\C,0,-2.556321,0.066825,-0.240521\C,0,-1.75119,1.356259,-0.059733\C,0
 ,-1.921204,-1.099327,0.52149\C,0,-0.281229,1.164125,-0.442828\C,0,-0.4
 51165,-1.29352,0.140424\C,0,0.359157,-0.006631,0.338914\C,0,2.843613,0
 .624195,0.685597\O,0,2.127563,-0.8614,-1.032\H,0,-3.586727,0.21757,0.0
 88357\H,0,-2.602212,-0.181621,-1.305799\H,0,-2.183986,2.161109,-0.6579

 Normal termination of Gaussian 16 at Sat Apr  5 22:14:02 2025.
