 Gaussian 16, Revision C.01,

 ----------------------------------------------------------------------
 #t hf aug-cc-pvdz symm=none int=(grid=ultrafine) guess=(read,tcheck) s
 table=(opt,rrhf)
 ----------------------------------------------------------------------
 -----
 title
 -----
 Symbolic Z-matrix:
 Charge =  0 Multiplicity = 1

 SCF Done:  E(RHF) =  -368.697164884     A.U. after   13 cycles
 Normal termination of Gaussian 16 at Sat Apr  5 22:11:06 2025.
 Gaussian 16:  ES64L-G16RevC.01  3-Jul-2019

 ----------------------------------------------------------------------
 #t hf aug-cc-pvdz iop(5/13=1,5/36=2,99/5=2) pseudo=read geom=check gue
 ss=(read,tcheck) scf=(maxcycle=1)
 ----------------------------------------------------------------------
 -----
 title
 -----
 Structure from the checkpoint file:  "1-cyano-1-2-difluoroethane.chk"
 Charge =  0 Multiplicity = 1

                         Standard orientation:
 ---------------------------------------------------------------------
 Center     Atomic      Atomic             Coordinates (Angstroms)
 Number     Number       Type             X           Y           Z
 ---------------------------------------------------------------------
      1          9           0       -0.068610    1.517102   -0.198375
      2          9           0       -2.172960   -0.385347    0.136936
      3          7           0        2.539942   -0.590490   -0.068123
      4          6           0        0.095496    0.250121    0.339624
      5          6           0       -0.898581   -0.714336   -0.288536
      6          6           0        1.473579   -0.202694    0.110068
      7          1           0       -0.088862    0.322052    1.413853
      8          1           0       -0.677638   -1.735688    0.024438
      9          1           0       -0.861929   -0.637279   -1.375414
 ---------------------------------------------------------------------

 SCF Done:  E(RHF) =  -368.819703864     A.U. after    2 cycles

 The electronic state is 1-A.
 Alpha  occ. eigenvalues --  -26.15601 -26.14235 -15.67793 -11.40872 -11.37088
 Alpha  occ. eigenvalues --  -11.31779  -1.69073  -1.67480  -1.23082  -1.11397
 Alpha  occ. eigenvalues --   -0.96519  -0.83618  -0.81456  -0.79575  -0.76861
 Alpha  occ. eigenvalues --   -0.76116  -0.72029  -0.65941  -0.59575  -0.58803
 Alpha  occ. eigenvalues --   -0.57556  -0.50724  -0.49461
 Alpha virt. eigenvalues --    0.03129   0.04005   0.05200   0.07393   0.09430
 Alpha virt. eigenvalues --    0.10504   0.11161   0.11888   0.11921   0.13975
 Alpha virt. eigenvalues --    0.14220   0.14756   0.15849   0.16431   0.17137

 Mulliken charges:
               1
     1  F   -0.396646
     2  F   -0.390260
     3  N   -0.101751
     4  C    0.813387
     5  C    0.705225
     6  C   -0.450856
     7  H   -0.004603
     8  H   -0.111239
     9  H   -0.063257
 Sum of Mulliken charges =  -0.00000

 Dipole moment (field-independent basis, Debye):
    X=             -1.1179    Y=             -1.4916    Z=              0.6280  Tot=              1.9670

 Test job not archived.
 1\1\GINC-SE165\SP\RHF\Aug-CC-pVDZ\C3H3F2N1\OHZDE\05-Apr-2025\0\\#t hf
 aug-cc-pvdz iop(5/13=1,5/36=2,99/5=2) pseudo=read geom=check guess=(re
 ad,tcheck) scf=(maxcycle=1)\\title\\0,1\F,0,-0.06861,1.517102,-0.19837
 5\F,0,-2.17296,-0.385347,0.136936\N,0,2.539942,-0.59049,-0.068123\C,0,
 0.095496,0.250121,0.339624\C,0,-0.898581,-0.714336,-0.288536\C,0,1.473
 579,-0.202694,0.110068\H,0,-0.088862,0.322052,1.413853\H,0,-0.677638,-
 1.735688,0.024438\H,0,-0.861929,-0.637279,-1.375414\\Version=ES64L-G16
 RevC.01\State=1-A\HF=-368.8197039\RMSD=6.105e-03\Dipole=-0.4398336,-0.

 Normal termination of Gaussian 16 at Sat Apr  5 22:11:47 2025.
