 Gaussian 16, Revision C.01,

 ----------------------------------------------------------------------
 #t hf aug-cc-pvdz symm=none int=(grid=ultrafine) guess=(read,tcheck) s
 table=(opt,rrhf)
 ----------------------------------------------------------------------
 -----
 title
 -----
 Symbolic Z-matrix:
 Charge =  0 Multiplicity = 1

 SCF Done:  E(RHF) =  -466.416267281     A.U. after   12 cycles
 Normal termination of Gaussian 16 at Sat Apr  5 22:18:10 2025.
 Gaussian 16:  ES64L-G16RevC.01  3-Jul-2019

 ----------------------------------------------------------------------
 #t hf aug-cc-pvdz iop(5/13=1,5/36=2,99/5=2) pseudo=read geom=check gue
 ss=(read,tcheck) scf=(maxcycle=1)
 ----------------------------------------------------------------------
 -----
 title
 -----
 Structure from the checkpoint file:  "1-decanol.chk"
 Charge =  0 Multiplicity = 1

                         Standard orientation:
 ---------------------------------------------------------------------
 Center     Atomic      Atomic             Coordinates (Angstroms)
 Number     Number       Type             X           Y           Z
 ---------------------------------------------------------------------
      1          6           0       -6.348463   -0.676838    0.000000
      2          6           0       -5.115500    0.225307    0.000000
      3          6           0       -3.797980   -0.550892    0.000000
      4          6           0       -2.557416    0.342637    0.000000
      5          6           0       -1.240689   -0.434878    0.000000
      6          6           0        0.000000    0.458845    0.000000
      7          6           0        1.316086   -0.319402    0.000000
      8          6           0        2.556349    0.575341    0.000000
      9          6           0        3.868290   -0.209696    0.000000
     10          6           0        5.092393    0.687237    0.000000
     11          8           0        6.258306   -0.139838    0.000000
     12          1           0       -6.364365   -1.322364    0.880634
     13          1           0       -6.364365   -1.322364   -0.880634
     14          1           0       -7.270587   -0.093915    0.000000
     15          1           0       -5.145071    0.883042   -0.873992
     16          1           0       -5.145071    0.883042    0.873992
     17          1           0       -3.769111   -1.209699    0.874515
     18          1           0       -3.769111   -1.209699   -0.874515
     19          1           0       -2.587308    1.001155    0.874567
     20          1           0       -2.587308    1.001155   -0.874567
     21          1           0       -1.210788   -1.093366    0.874472
     22          1           0       -1.210788   -1.093366   -0.874472
     23          1           0       -0.029832    1.117282    0.874617
     24          1           0       -0.029832    1.117282   -0.874617
     25          1           0        1.346921   -0.977463   -0.874449
     26          1           0        1.346921   -0.977463    0.874449
     27          1           0        2.524211    1.232959    0.875019
     28          1           0        2.524211    1.232959   -0.875019
     29          1           0        3.914692   -0.861511    0.876340
     30          1           0        3.914692   -0.861511   -0.876340
     31          1           0        5.083448    1.333838    0.885549
     32          1           0        5.083448    1.333838   -0.885549
     33          1           0        7.040122    0.418910    0.000000
 ---------------------------------------------------------------------

 SCF Done:  E(RHF) =  -466.564144501     A.U. after    2 cycles

 The electronic state is 1-A'.
 Alpha  occ. eigenvalues --  -20.56734 -11.28217 -11.22653 -11.22376 -11.22357
 Alpha  occ. eigenvalues --  -11.22290 -11.22258 -11.22197 -11.22156 -11.22108
 Alpha  occ. eigenvalues --  -11.21903  -1.31403  -1.08579  -1.06629  -1.03354
 Alpha  occ. eigenvalues --   -0.98938  -0.93605  -0.87771  -0.82409  -0.79501
 Alpha  occ. eigenvalues --   -0.78695  -0.78419  -0.69985  -0.66883  -0.65469
 Alpha  occ. eigenvalues --   -0.63081  -0.59810  -0.59808  -0.59264  -0.56724
 Alpha  occ. eigenvalues --   -0.56008  -0.55342  -0.53156  -0.52220  -0.50509
 Alpha  occ. eigenvalues --   -0.49088  -0.48987  -0.47669  -0.47020  -0.46739
 Alpha  occ. eigenvalues --   -0.46129  -0.45936  -0.45852  -0.45113  -0.43038
 Alpha virt. eigenvalues --    0.03366   0.03551   0.04303   0.04395   0.04464
 Alpha virt. eigenvalues --    0.05384   0.05389   0.05899   0.06491   0.06823
 Alpha virt. eigenvalues --    0.06915   0.07811   0.07901   0.08885   0.09233

 Mulliken charges:
               1
     1  C    0.678921
     2  C    0.564761
     3  C    0.263864
     4  C    0.244196
     5  C    0.203096
     6  C    0.137843
     7  C    0.193986
     8  C    0.333431
     9  C    0.412383
    10  C    1.285986
    11  O   -0.624714
    12  H   -0.097119
    13  H   -0.097119
    14  H   -0.070544
    15  H   -0.173385
    16  H   -0.173385
    17  H   -0.205524
    18  H   -0.205524
    19  H   -0.225025
    20  H   -0.225025
    21  H   -0.211641
    22  H   -0.211641
    23  H   -0.213208
    24  H   -0.213208
    25  H   -0.230124
    26  H   -0.230124
    27  H   -0.208356
    28  H   -0.208356
    29  H   -0.129815
    30  H   -0.129815
    31  H   -0.194011
    32  H   -0.194011
    33  H    0.153205
 Sum of Mulliken charges =  -0.00000

 Dipole moment (field-independent basis, Debye):
    X=             -0.2290    Y=              1.7503    Z=              0.0000  Tot=              1.7652

 Test job not archived.
 1\1\GINC-SE185\SP\RHF\Aug-CC-pVDZ\C10H22O1\OHZDE\05-Apr-2025\0\\#t hf
 aug-cc-pvdz iop(5/13=1,5/36=2,99/5=2) pseudo=read geom=check guess=(re
 ad,tcheck) scf=(maxcycle=1)\\title\\0,1\C,0,-6.348463,-0.676838,0.\C,0
 ,-5.1155,0.225307,0.\C,0,-3.79798,-0.550892,0.\C,0,-2.557416,0.342637,
 0.\C,0,-1.240689,-0.434878,0.\C,0,0.,0.458845,0.\C,0,1.316086,-0.31940
 2,0.\C,0,2.556349,0.575341,0.\C,0,3.86829,-0.209696,0.\C,0,5.092393,0.
 687237,0.\O,0,6.258306,-0.139839,0.\H,0,-6.364365,-1.322364,0.880634\H
 ,0,-6.364365,-1.322364,-0.880634\H,0,-7.270587,-0.093915,0.\H,0,-5.145

 Normal termination of Gaussian 16 at Sat Apr  5 22:18:31 2025.
