 Gaussian 16, Revision C.01,

 ----------------------------------------------------------------------
 #t hf aug-cc-pvdz symm=none int=(grid=ultrafine) guess=(read,tcheck) s
 table=(opt,rrhf)
 ----------------------------------------------------------------------
 -----
 title
 -----
 Symbolic Z-matrix:
 Charge =  0 Multiplicity = 1

 SCF Done:  E(RHF) =  -1239.53930001     A.U. after   15 cycles
 Normal termination of Gaussian 16 at Sat Apr  5 22:12:25 2025.
 Gaussian 16:  ES64L-G16RevC.01  3-Jul-2019

 ----------------------------------------------------------------------
 #t hf aug-cc-pvdz iop(5/13=1,5/36=2,99/5=2) pseudo=read geom=check gue
 ss=(read,tcheck) scf=(maxcycle=1)
 ----------------------------------------------------------------------
 -----
 title
 -----
 Structure from the checkpoint file:  "1-dichloroamino-oxy-1-methoxyethene.chk"
 Charge =  0 Multiplicity = 1

                         Standard orientation:
 ---------------------------------------------------------------------
 Center     Atomic      Atomic             Coordinates (Angstroms)
 Number     Number       Type             X           Y           Z
 ---------------------------------------------------------------------
      1         17           0       -2.228128   -1.021501   -0.416681
      2         17           0       -1.176042    1.636902    0.087881
      3          8           0        0.217710   -0.557728   -0.248136
      4          8           0        2.451588   -0.549725   -0.247351
      5          7           0       -0.936161   -0.161967    0.426500
      6          6           0        1.373759   -0.430493    0.538916
      7          6           0        1.403284   -0.296492    1.855640
      8          6           0        2.597789    0.411824   -1.311164
      9          1           0        0.502906   -0.317994    2.444647
     10          1           0        2.358608   -0.182888    2.340675
     11          1           0        3.551083    0.185303   -1.778270
     12          1           0        1.794461    0.315767   -2.038707
     13          1           0        2.613575    1.422361   -0.900703
 ---------------------------------------------------------------------

 SCF Done:  E(RHF) =  -1239.67959205     A.U. after    2 cycles

 The electronic state is 1-A.
 Alpha  occ. eigenvalues -- -103.71702-103.70360 -20.67754 -20.61552 -15.84392
 Alpha  occ. eigenvalues --  -11.38381 -11.30583 -11.23623 -10.74706 -10.73329
 Alpha  occ. eigenvalues --   -8.40449  -8.40041  -8.40020  -8.39049  -8.38685
 Alpha  occ. eigenvalues --   -8.38662  -1.47076  -1.38413  -1.24100  -1.15599
 Alpha  occ. eigenvalues --   -1.05435  -0.98736  -0.95383  -0.80769  -0.75276
 Alpha  occ. eigenvalues --   -0.71942  -0.71728  -0.66092  -0.65525  -0.63115
 Alpha  occ. eigenvalues --   -0.58447  -0.57141  -0.56028  -0.54198  -0.51925
 Alpha  occ. eigenvalues --   -0.49806  -0.49085  -0.47547  -0.43821  -0.36782
 Alpha virt. eigenvalues --    0.03469   0.03820   0.04742   0.05760   0.05917
 Alpha virt. eigenvalues --    0.06712   0.07818   0.09308   0.10519   0.10958
 Alpha virt. eigenvalues --    0.12910   0.13717   0.14238   0.14591   0.15164

 Mulliken charges:
               1
     1  Cl   0.337877
     2  Cl   0.198006
     3  O   -0.560076
     4  O   -0.633521
     5  N   -0.402997
     6  C    0.669454
     7  C    0.608943
     8  C    0.700973
     9  H   -0.283197
    10  H   -0.294549
    11  H   -0.224988
    12  H   -0.052188
    13  H   -0.063738
 Sum of Mulliken charges =   0.00000

 Dipole moment (field-independent basis, Debye):
    X=              0.9024    Y=              1.0226    Z=             -0.4833  Tot=              1.4469

 Test job not archived.
 1\1\GINC-SE185\SP\RHF\Aug-CC-pVDZ\C3H5Cl2N1O2\OHZDE\05-Apr-2025\0\\#t
 hf aug-cc-pvdz iop(5/13=1,5/36=2,99/5=2) pseudo=read geom=check guess=
 (read,tcheck) scf=(maxcycle=1)\\title\\0,1\Cl,0,-2.228128,-1.021501,-0
 .416681\Cl,0,-1.176042,1.636902,0.087881\O,0,0.21771,-0.557728,-0.2481
 36\O,0,2.451588,-0.549725,-0.247351\N,0,-0.936161,-0.161967,0.4265\C,0
 ,1.373759,-0.430493,0.538916\C,0,1.403284,-0.296492,1.85564\C,0,2.5977
 89,0.411824,-1.311164\H,0,0.502906,-0.317994,2.444647\H,0,2.358608,-0.
 182888,2.340675\H,0,3.551083,0.185303,-1.77827\H,0,1.794461,0.315767,-

 Normal termination of Gaussian 16 at Sat Apr  5 22:12:53 2025.
