 Gaussian 16, Revision C.01,

 ----------------------------------------------------------------------
 #t hf aug-cc-pvdz symm=none int=(grid=ultrafine) guess=(read,tcheck) s
 table=(opt,rrhf)
 ----------------------------------------------------------------------
 -----
 title
 -----
 Symbolic Z-matrix:
 Charge =  0 Multiplicity = 1

 SCF Done:  E(RHF) =  -406.743039152     A.U. after   14 cycles
 Normal termination of Gaussian 16 at Sat Apr  5 22:11:09 2025.
 Gaussian 16:  ES64L-G16RevC.01  3-Jul-2019

 ----------------------------------------------------------------------
 #t hf aug-cc-pvdz iop(5/13=1,5/36=2,99/5=2) pseudo=read geom=check gue
 ss=(read,tcheck) scf=(maxcycle=1)
 ----------------------------------------------------------------------
 -----
 title
 -----
 Structure from the checkpoint file:  "1-difluoroaminoethanol.chk"
 Charge =  0 Multiplicity = 1

                         Standard orientation:
 ---------------------------------------------------------------------
 Center     Atomic      Atomic             Coordinates (Angstroms)
 Number     Number       Type             X           Y           Z
 ---------------------------------------------------------------------
      1          9           0       -1.669344    0.483858   -0.453523
      2          9           0       -0.788373   -1.103319    0.767200
      3          8           0        0.629635    1.223624    0.727671
      4          7           0       -0.619879   -0.472984   -0.472184
      5          6           0        0.621002    0.357868   -0.363789
      6          6           0        1.814672   -0.567909   -0.285540
      7          1           0       -0.126057    1.819060    0.668820
      8          1           0        0.599329    0.897393   -1.316545
      9          1           0        2.723091    0.026037   -0.362124
     10          1           0        1.817974   -1.095028    0.666070
     11          1           0        1.793148   -1.290166   -1.099425
 ---------------------------------------------------------------------

 SCF Done:  E(RHF) =  -406.877687047     A.U. after    2 cycles

 The electronic state is 1-A.
 Alpha  occ. eigenvalues --  -26.16533 -26.16384 -20.60609 -15.83950 -11.36431
 Alpha  occ. eigenvalues --  -11.25202  -1.71359  -1.65604  -1.37072  -1.16053
 Alpha  occ. eigenvalues --   -1.01874  -0.88289  -0.81486  -0.80586  -0.80248
 Alpha  occ. eigenvalues --   -0.75843  -0.73295  -0.70092  -0.67532  -0.63196
 Alpha  occ. eigenvalues --   -0.57254  -0.56577  -0.56259  -0.51986  -0.48945
 Alpha virt. eigenvalues --    0.03270   0.04362   0.04880   0.05983   0.07494
 Alpha virt. eigenvalues --    0.10850   0.11660   0.12993   0.13881   0.14808
 Alpha virt. eigenvalues --    0.15551   0.16145   0.17914   0.18225   0.19046

 Mulliken charges:
               1
     1  F   -0.390515
     2  F   -0.371483
     3  O   -0.571011
     4  N   -0.046744
     5  C    1.168166
     6  C    0.270719
     7  H    0.152581
     8  H   -0.188903
     9  H   -0.003167
    10  H   -0.014539
    11  H   -0.005104
 Sum of Mulliken charges =  -0.00000

 Dipole moment (field-independent basis, Debye):
    X=              1.9620    Y=              0.9341    Z=             -1.7337  Tot=              2.7799

 Test job not archived.
 1\1\GINC-SE190\SP\RHF\Aug-CC-pVDZ\C2H5F2N1O1\OHZDE\05-Apr-2025\0\\#t h
 f aug-cc-pvdz iop(5/13=1,5/36=2,99/5=2) pseudo=read geom=check guess=(
 read,tcheck) scf=(maxcycle=1)\\title\\0,1\F,0,-1.669344,0.483858,-0.45
 3523\F,0,-0.788373,-1.103319,0.7672\O,0,0.629635,1.223624,0.727671\N,0
 ,-0.619879,-0.472984,-0.472184\C,0,0.621002,0.357868,-0.363789\C,0,1.8
 14672,-0.567909,-0.28554\H,0,-0.126057,1.81906,0.66882\H,0,0.599329,0.
 897393,-1.316545\H,0,2.723091,0.026037,-0.362124\H,0,1.817974,-1.09502
 8,0.66607\H,0,1.793148,-1.290166,-1.099425\\Version=ES64L-G16RevC.01\S

 Normal termination of Gaussian 16 at Sat Apr  5 22:11:47 2025.
