 Gaussian 16, Revision C.01,

 ----------------------------------------------------------------------
 #t hf aug-cc-pvdz symm=none int=(grid=ultrafine) guess=(read,tcheck) s
 table=(opt,rrhf)
 ----------------------------------------------------------------------
 -----
 title
 -----
 Symbolic Z-matrix:
 Charge =  0 Multiplicity = 1

 SCF Done:  E(RHF) =  -461.470128723     A.U. after   16 cycles
 Normal termination of Gaussian 16 at Sat Apr  5 22:16:50 2025.
 Gaussian 16:  ES64L-G16RevC.01  3-Jul-2019

 ----------------------------------------------------------------------
 #t hf aug-cc-pvdz iop(5/13=1,5/36=2,99/5=2) pseudo=read geom=check gue
 ss=(read,tcheck) scf=(maxcycle=1)
 ----------------------------------------------------------------------
 -----
 title
 -----
 Structure from the checkpoint file:  "1-ethylnaphthalene.chk"
 Charge =  0 Multiplicity = 1

                         Standard orientation:
 ---------------------------------------------------------------------
 Center     Atomic      Atomic             Coordinates (Angstroms)
 Number     Number       Type             X           Y           Z
 ---------------------------------------------------------------------
      1          6           0        2.843382   -0.911793    0.095853
      2          6           0        1.865295   -1.900259   -0.134234
      3          6           0       -0.579750    2.511077    0.033711
      4          6           0        2.473262    0.403278    0.193327
      5          6           0        0.543571   -1.555480   -0.257841
      6          6           0        0.733917    2.152826    0.165181
      7          6           0       -1.562211    1.527220   -0.196166
      8          6           0        1.117464    0.793908    0.069366
      9          6           0        0.119466   -0.205263   -0.160726
     10          6           0       -1.248770    0.190590   -0.290811
     11          6           0       -2.802522   -1.523090    0.785080
     12          6           0       -2.351636   -0.819638   -0.504417
     13          1           0        3.882886   -1.194986    0.192496
     14          1           0        2.160956   -2.937871   -0.214193
     15          1           0       -0.872273    3.550458    0.101606
     16          1           0        3.218207    1.169736    0.366401
     17          1           0       -0.186369   -2.331752   -0.434482
     18          1           0        1.496318    2.901125    0.340027
     19          1           0       -2.595290    1.834475   -0.303229
     20          1           0       -1.982937   -2.067541    1.253974
     21          1           0       -3.604229   -2.233272    0.576827
     22          1           0       -3.173490   -0.797867    1.510083
     23          1           0       -3.209005   -0.305295   -0.941733
     24          1           0       -2.043584   -1.567462   -1.237707
 ---------------------------------------------------------------------

 SCF Done:  E(RHF) =  -461.605354693     A.U. after    2 cycles

 The electronic state is 1-A.
 Alpha  occ. eigenvalues --  -11.25055 -11.24983 -11.24911 -11.24432 -11.24382
 Alpha  occ. eigenvalues --  -11.24286 -11.24240 -11.24235 -11.23984 -11.23830
 Alpha  occ. eigenvalues --  -11.23753 -11.22658  -1.16770  -1.10593  -1.06668
 Alpha  occ. eigenvalues --   -1.01238  -1.00268  -0.96798  -0.86961  -0.84441
 Alpha  occ. eigenvalues --   -0.83974  -0.78422  -0.70958  -0.69851  -0.68182
 Alpha  occ. eigenvalues --   -0.63317  -0.61903  -0.60220  -0.59216  -0.58037
 Alpha  occ. eigenvalues --   -0.56598  -0.55440  -0.53596  -0.51675  -0.51384
 Alpha  occ. eigenvalues --   -0.49998  -0.48121  -0.46554  -0.44795  -0.38066
 Alpha  occ. eigenvalues --   -0.32183  -0.28760
 Alpha virt. eigenvalues --    0.03333   0.03659   0.03711   0.05004   0.05176
 Alpha virt. eigenvalues --    0.05215   0.06633   0.07106   0.07290   0.07401
 Alpha virt. eigenvalues --    0.07973   0.09158   0.09768   0.09989   0.10606

 Mulliken charges:
               1
     1  C    0.234920
     2  C    0.154404
     3  C   -0.179262
     4  C    1.058879
     5  C    0.642015
     6  C    1.413940
     7  C    0.950826
     8  C   -0.102610
     9  C   -0.426894
    10  C    0.272983
    11  C    0.393917
    12  C    0.180346
    13  H   -0.462623
    14  H   -0.484387
    15  H   -0.470491
    16  H   -0.574434
    17  H   -0.859775
    18  H   -0.592303
    19  H   -0.644564
    20  H   -0.145262
    21  H   -0.089671
    22  H   -0.098535
    23  H   -0.174587
    24  H    0.003169
 Sum of Mulliken charges =   0.00000

 Dipole moment (field-independent basis, Debye):
    X=             -0.3359    Y=             -0.2328    Z=             -0.0074  Tot=              0.4088

 Test job not archived.
 1\1\GINC-SE046\SP\RHF\Aug-CC-pVDZ\C12H12\OHZDE\05-Apr-2025\0\\#t hf au
 g-cc-pvdz iop(5/13=1,5/36=2,99/5=2) pseudo=read geom=check guess=(read
 ,tcheck) scf=(maxcycle=1)\\title\\0,1\C,0,2.843382,-0.911793,0.095853\
 C,0,1.865295,-1.900259,-0.134234\C,0,-0.57975,2.511077,0.033711\C,0,2.
 473262,0.403278,0.193327\C,0,0.543571,-1.55548,-0.257841\C,0,0.733917,
 2.152826,0.165181\C,0,-1.562211,1.52722,-0.196166\C,0,1.117464,0.79390
 8,0.069366\C,0,0.119466,-0.205263,-0.160726\C,0,-1.24877,0.19059,-0.29
 0811\C,0,-2.802522,-1.52309,0.78508\C,0,-2.351636,-0.819638,-0.504417\

 Normal termination of Gaussian 16 at Sat Apr  5 22:17:11 2025.
