 Gaussian 16, Revision C.01,

 ----------------------------------------------------------------------
 #t hf aug-cc-pvdz symm=none int=(grid=ultrafine) guess=(read,tcheck) s
 table=(opt,rrhf)
 ----------------------------------------------------------------------
 -----
 title
 -----
 Symbolic Z-matrix:
 Charge =  0 Multiplicity = 1

 SCF Done:  E(RHF) =  -347.845153932     A.U. after   15 cycles
 Normal termination of Gaussian 16 at Sat Apr  5 22:13:30 2025.
 Gaussian 16:  ES64L-G16RevC.01  3-Jul-2019

 ----------------------------------------------------------------------
 #t hf aug-cc-pvdz iop(5/13=1,5/36=2,99/5=2) pseudo=read geom=check gue
 ss=(read,tcheck) scf=(maxcycle=1)
 ----------------------------------------------------------------------
 -----
 title
 -----
 Structure from the checkpoint file:  "1-ethyl-2-methylbenzene.chk"
 Charge =  0 Multiplicity = 1

                         Standard orientation:
 ---------------------------------------------------------------------
 Center     Atomic      Atomic             Coordinates (Angstroms)
 Number     Number       Type             X           Y           Z
 ---------------------------------------------------------------------
      1          6           0        2.405659   -0.121060    0.246773
      2          6           0        1.838083   -1.367505    0.021924
      3          6           0        1.605620    1.013405    0.195074
      4          6           0        0.478870   -1.458493   -0.249138
      5          6           0        0.238294    0.935373   -0.073405
      6          6           0       -0.337705   -0.327932   -0.297810
      7          6           0       -0.578927    2.201942   -0.131830
      8          6           0       -2.647406   -0.664207    0.717826
      9          6           0       -1.815959   -0.498821   -0.563287
     10          1           0        3.462852   -0.029351    0.457059
     11          1           0        2.446720   -2.261366    0.052064
     12          1           0        2.051065    1.985879    0.364968
     13          1           0        0.037240   -2.430840   -0.432374
     14          1           0       -1.016171    2.353512   -1.121381
     15          1           0       -1.404257    2.191747    0.581999
     16          1           0        0.039632    3.069984    0.091030
     17          1           0       -2.324469   -1.542269    1.278281
     18          1           0       -3.705954   -0.783853    0.481579
     19          1           0       -2.545656    0.200048    1.374935
     20          1           0       -2.198729    0.349580   -1.132566
     21          1           0       -1.961452   -1.379284   -1.192367
 ---------------------------------------------------------------------

 SCF Done:  E(RHF) =  -347.950820853     A.U. after    2 cycles

 The electronic state is 1-A.
 Alpha  occ. eigenvalues --  -11.24407 -11.24059 -11.23588 -11.23496 -11.23481
 Alpha  occ. eigenvalues --  -11.23395 -11.23379 -11.23162 -11.22581  -1.14578
 Alpha  occ. eigenvalues --   -1.05459  -1.03152  -0.97902  -0.92872  -0.86076
 Alpha  occ. eigenvalues --   -0.81143  -0.77973  -0.68285  -0.65656  -0.62783
 Alpha  occ. eigenvalues --   -0.59537  -0.58966  -0.57479  -0.57088  -0.54714
 Alpha  occ. eigenvalues --   -0.53405  -0.52052  -0.49963  -0.48049  -0.47534
 Alpha  occ. eigenvalues --   -0.46837  -0.33031  -0.32012
 Alpha virt. eigenvalues --    0.03470   0.03916   0.03980   0.05095   0.05301
 Alpha virt. eigenvalues --    0.05762   0.06892   0.07252   0.07636   0.08218
 Alpha virt. eigenvalues --    0.08568   0.10572   0.11132   0.11727   0.11953

 Mulliken charges:
               1
     1  C    0.272818
     2  C    0.263867
     3  C    0.602217
     4  C    0.437775
     5  C   -0.243358
     6  C    0.142937
     7  C    0.506852
     8  C    0.440425
     9  C    0.199784
    10  H   -0.465499
    11  H   -0.458847
    12  H   -0.581728
    13  H   -0.660589
    14  H    0.199516
    15  H    0.159284
    16  H   -0.267393
    17  H   -0.086401
    18  H   -0.091633
    19  H   -0.174016
    20  H   -0.044064
    21  H   -0.151947
 Sum of Mulliken charges =  -0.00000

 Dipole moment (field-independent basis, Debye):
    X=             -0.6021    Y=              0.2469    Z=             -0.0686  Tot=              0.6544

 Test job not archived.
 1\1\GINC-SE226\SP\RHF\Aug-CC-pVDZ\C9H12\OHZDE\05-Apr-2025\0\\#t hf aug
 -cc-pvdz iop(5/13=1,5/36=2,99/5=2) pseudo=read geom=check guess=(read,
 tcheck) scf=(maxcycle=1)\\title\\0,1\C,0,2.405659,-0.12106,0.246773\C,
 0,1.838083,-1.367505,0.021924\C,0,1.60562,1.013405,0.195074\C,0,0.4788
 7,-1.458493,-0.249138\C,0,0.238294,0.935373,-0.073405\C,0,-0.337705,-0
 .327932,-0.29781\C,0,-0.578927,2.201942,-0.13183\C,0,-2.647406,-0.6642
 07,0.717826\C,0,-1.815959,-0.498821,-0.563287\H,0,3.462852,-0.02935,0.
 457059\H,0,2.44672,-2.261366,0.052064\H,0,2.051065,1.985879,0.364968\H

 Normal termination of Gaussian 16 at Sat Apr  5 22:13:57 2025.
