 Gaussian 16, Revision C.01,

 ----------------------------------------------------------------------
 #t hf aug-cc-pvdz symm=none int=(grid=ultrafine) guess=(read,tcheck) s
 table=(opt,rrhf)
 ----------------------------------------------------------------------
 -----
 title
 -----
 Symbolic Z-matrix:
 Charge =  0 Multiplicity = 1

 SCF Done:  E(RHF) =  -346.064330657     A.U. after   12 cycles

 1\1\GINC-SE190\Stability\RHF\Aug-CC-pVDZ\C5H12O2\OHZDE\05-Apr-2025\0\\
 #t hf aug-cc-pvdz symm=none int=(grid=ultrafine) guess=(read,tcheck) s
 table=(opt,rrhf)\\title\\0,1\C,0,3.132473,0.770972,0.253731\C,0,-3.489
 777,0.102524,0.120232\C,0,2.46306,-0.488339,-0.280821\C,0,-1.182999,-0
 .374018,0.214782\C,0,0.153763,0.132123,-0.293733\O,0,-2.191518,0.48364
 5,-0.283274\O,0,1.15856,-0.710687,0.238596\H,0,4.155816,0.833282,-0.12
 0982\H,0,2.611059,1.675762,-0.058785\H,0,3.16746,0.751844,1.34334\H,0,
 -4.186566,0.819251,-0.309463\H,0,-3.589678,0.116485,1.212175\H,0,-3.74

 Normal termination of Gaussian 16 at Sat Apr  5 22:12:16 2025.
 Gaussian 16:  ES64L-G16RevC.01  3-Jul-2019

 ----------------------------------------------------------------------
 #t hf aug-cc-pvdz iop(5/13=1,5/36=2,99/5=2) pseudo=read geom=check gue
 ss=(read,tcheck) scf=(maxcycle=1)
 ----------------------------------------------------------------------
 -----
 title
 -----
 Structure from the checkpoint file:  "1-ethoxy-2-methoxyethane.chk"
 Charge =  0 Multiplicity = 1

                         Standard orientation:
 ---------------------------------------------------------------------
 Center     Atomic      Atomic             Coordinates (Angstroms)
 Number     Number       Type             X           Y           Z
 ---------------------------------------------------------------------
      1          6           0        3.132473    0.770972    0.253731
      2          6           0       -3.489777    0.102524    0.120232
      3          6           0        2.463060   -0.488339   -0.280821
      4          6           0       -1.182999   -0.374018    0.214782
      5          6           0        0.153763    0.132123   -0.293733
      6          8           0       -2.191518    0.483645   -0.283274
      7          8           0        1.158560   -0.710687    0.238596
      8          1           0        4.155816    0.833282   -0.120982
      9          1           0        2.611059    1.675762   -0.058785
     10          1           0        3.167460    0.751844    1.343340
     11          1           0       -4.186566    0.819251   -0.309463
     12          1           0       -3.589678    0.116485    1.212175
     13          1           0       -3.741954   -0.902048   -0.239929
     14          1           0        3.038609   -1.367952    0.008601
     15          1           0        2.422491   -0.463753   -1.377404
     16          1           0       -1.184178   -0.379223    1.312052
     17          1           0       -1.345961   -1.404224   -0.125418
     18          1           0        0.289010    1.172957    0.018531
     19          1           0        0.168426    0.104380   -1.390449
 ---------------------------------------------------------------------

 SCF Done:  E(RHF) =  -346.178833385     A.U. after    2 cycles

 The electronic state is 1-A.
 Alpha  occ. eigenvalues --  -20.57013 -20.56670 -11.28482 -11.28168 -11.28101
 Alpha  occ. eigenvalues --  -11.28012 -11.22604  -1.33764  -1.32629  -1.03685
 Alpha  occ. eigenvalues --   -0.98860  -0.91167  -0.84708  -0.81743  -0.69348
 Alpha  occ. eigenvalues --   -0.67851  -0.66945  -0.64334  -0.62468  -0.61642
 Alpha  occ. eigenvalues --   -0.57625  -0.55032  -0.53827  -0.51458  -0.50231
 Alpha  occ. eigenvalues --   -0.48547  -0.47189  -0.43652  -0.43075
 Alpha virt. eigenvalues --    0.03621   0.04151   0.04863   0.05048   0.05864
 Alpha virt. eigenvalues --    0.06053   0.06212   0.07491   0.08161   0.08707
 Alpha virt. eigenvalues --    0.08956   0.09195   0.12370   0.12992   0.14238

 Mulliken charges:
               1
     1  C    0.277888
     2  C    0.698565
     3  C    0.665791
     4  C    0.706672
     5  C    0.599176
     6  O   -0.629661
     7  O   -0.649733
     8  H   -0.057996
     9  H   -0.095358
    10  H   -0.066695
    11  H   -0.269768
    12  H   -0.067810
    13  H   -0.072621
    14  H   -0.282923
    15  H   -0.089286
    16  H   -0.155180
    17  H   -0.156723
    18  H   -0.223700
    19  H   -0.130637
 Sum of Mulliken charges =  -0.00000

 Dipole moment (field-independent basis, Debye):
    X=              0.1458    Y=             -0.0873    Z=             -0.1212  Tot=              0.2088

 Test job not archived.
 1\1\GINC-SE190\SP\RHF\Aug-CC-pVDZ\C5H12O2\OHZDE\05-Apr-2025\0\\#t hf a
 ug-cc-pvdz iop(5/13=1,5/36=2,99/5=2) pseudo=read geom=check guess=(rea
 d,tcheck) scf=(maxcycle=1)\\title\\0,1\C,0,3.132473,0.770972,0.253731\
 C,0,-3.489777,0.102524,0.120232\C,0,2.46306,-0.488339,-0.280821\C,0,-1
 .182999,-0.374018,0.214782\C,0,0.153763,0.132123,-0.293733\O,0,-2.1915
 18,0.483645,-0.283274\O,0,1.15856,-0.710687,0.238596\H,0,4.155816,0.83
 3282,-0.120982\H,0,2.611059,1.675762,-0.058785\H,0,3.16746,0.751844,1.
 34334\H,0,-4.186566,0.819251,-0.309463\H,0,-3.589678,0.116485,1.212175

 Normal termination of Gaussian 16 at Sat Apr  5 22:12:55 2025.
