 Gaussian 16, Revision C.01,

 ----------------------------------------------------------------------
 #t hf aug-cc-pvdz symm=none int=(grid=ultrafine) guess=(read,tcheck) s
 table=(opt,rrhf)
 ----------------------------------------------------------------------
 -----
 title
 -----
 Symbolic Z-matrix:
 Charge =  0 Multiplicity = 1

 SCF Done:  E(RHF) =  -302.921734546     A.U. after   14 cycles
 Normal termination of Gaussian 16 at Sat Apr  5 22:12:19 2025.
 Gaussian 16:  ES64L-G16RevC.01  3-Jul-2019

 ----------------------------------------------------------------------
 #t hf aug-cc-pvdz iop(5/13=1,5/36=2,99/5=2) pseudo=read geom=check gue
 ss=(read,tcheck) scf=(maxcycle=1)
 ----------------------------------------------------------------------
 -----
 title
 -----
 Structure from the checkpoint file:  "1-ethyl-1H-imidazole.chk"
 Charge =  0 Multiplicity = 1

                         Standard orientation:
 ---------------------------------------------------------------------
 Center     Atomic      Atomic             Coordinates (Angstroms)
 Number     Number       Type             X           Y           Z
 ---------------------------------------------------------------------
      1          7           0        1.951229   -0.653592    0.274179
      2          6           0       -1.544566   -0.217982   -0.577174
      3          6           0        0.599777    1.081360   -0.202261
      4          1           0        0.156334    2.041637   -0.396652
      5          6           0        1.871547    0.709910    0.140798
      6          1           0        2.728958    1.343392    0.292022
      7          1           0        0.434363   -2.128670    0.020356
      8          6           0        0.743448   -1.095776    0.014974
      9          7           0       -0.123330   -0.087560   -0.284887
     10          1           0       -1.720891   -1.257639   -0.851818
     11          1           0       -1.770847    0.387341   -1.456142
     12          6           0       -2.439557    0.181938    0.592297
     13          1           0       -2.233726   -0.434183    1.467321
     14          1           0       -3.488111    0.054549    0.320622
     15          1           0       -2.285276    1.224935    0.867450
 ---------------------------------------------------------------------

 SCF Done:  E(RHF) =  -303.013538567     A.U. after    2 cycles

 The electronic state is 1-A.
 Alpha  occ. eigenvalues --  -15.68025 -15.60334 -11.29944 -11.29843 -11.26295
 Alpha  occ. eigenvalues --  -11.24849 -11.24590  -1.30994  -1.15644  -1.03060
 Alpha  occ. eigenvalues --   -0.99422  -0.88737  -0.80202  -0.77734  -0.72006
 Alpha  occ. eigenvalues --   -0.64862  -0.62507  -0.59588  -0.59293  -0.56856
 Alpha  occ. eigenvalues --   -0.54841  -0.53453  -0.51961  -0.42275  -0.37652
 Alpha  occ. eigenvalues --   -0.31623
 Alpha virt. eigenvalues --    0.02717   0.03658   0.04252   0.04758   0.05884
 Alpha virt. eigenvalues --    0.07001   0.07234   0.07994   0.09443   0.11850
 Alpha virt. eigenvalues --    0.12181   0.13263   0.13375   0.14133   0.15142

 Mulliken charges:
               1
     1  N   -0.653144
     2  C    0.698114
     3  C    0.640444
     4  H   -0.369044
     5  C    0.450362
     6  H   -0.224799
     7  H   -0.324685
     8  C    0.409829
     9  N   -0.303954
    10  H   -0.213237
    11  H   -0.206404
    12  C    0.289522
    13  H   -0.061718
    14  H   -0.052241
    15  H   -0.079047
 Sum of Mulliken charges =  -0.00000

 Dipole moment (field-independent basis, Debye):
    X=             -4.2349    Y=              0.7346    Z=             -0.8968  Tot=              4.3907

 Test job not archived.
 1\1\GINC-SE225\SP\RHF\Aug-CC-pVDZ\C5H8N2\OHZDE\05-Apr-2025\0\\#t hf au
 g-cc-pvdz iop(5/13=1,5/36=2,99/5=2) pseudo=read geom=check guess=(read
 ,tcheck) scf=(maxcycle=1)\\title\\0,1\N,0,1.951229,-0.653592,0.274179\
 C,0,-1.544566,-0.217982,-0.577174\C,0,0.599777,1.08136,-0.202261\H,0,0
 .156334,2.041637,-0.396652\C,0,1.871547,0.70991,0.140798\H,0,2.728958,
 1.343392,0.292022\H,0,0.434363,-2.12867,0.020356\C,0,0.743448,-1.09577
 6,0.014974\N,0,-0.12333,-0.08756,-0.284887\H,0,-1.720891,-1.257639,-0.
 851818\H,0,-1.770847,0.387341,-1.456142\C,0,-2.439557,0.181938,0.59229

 Normal termination of Gaussian 16 at Sat Apr  5 22:12:53 2025.
