 Gaussian 16, Revision C.01,

 ----------------------------------------------------------------------
 #t hf aug-cc-pvdz symm=none int=(grid=ultrafine) guess=(read,tcheck) s
 table=(opt,rrhf)
 ----------------------------------------------------------------------
 -----
 title
 -----
 Symbolic Z-matrix:
 Charge =  0 Multiplicity = 1

 SCF Done:  E(RHF) =  -743.556782812     A.U. after   13 cycles
 Normal termination of Gaussian 16 at Sat Apr  5 22:13:34 2025.
 Gaussian 16:  ES64L-G16RevC.01  3-Jul-2019

 ----------------------------------------------------------------------
 #t hf aug-cc-pvdz iop(5/13=1,5/36=2,99/5=2) pseudo=read geom=check gue
 ss=(read,tcheck) scf=(maxcycle=1)
 ----------------------------------------------------------------------
 -----
 title
 -----
 Structure from the checkpoint file:  "1-ethylsulfonylpropane.chk"
 Charge =  0 Multiplicity = 1

                         Standard orientation:
 ---------------------------------------------------------------------
 Center     Atomic      Atomic             Coordinates (Angstroms)
 Number     Number       Type             X           Y           Z
 ---------------------------------------------------------------------
      1          6           0       -2.143446   -2.929295    0.000000
      2          6           0        1.157418    2.955149    0.000000
      3          6           0       -0.838198   -2.133417    0.000000
      4          6           0       -0.055932    2.033897    0.000000
      5          6           0       -1.094835   -0.628266    0.000000
      6          8           0        1.157418    0.026179    1.262499
      7          8           0        1.157418    0.026179   -1.262499
      8         16           0        0.468746    0.293929    0.000000
      9          1           0       -1.938473   -3.999896    0.000000
     10          1           0       -2.746355   -2.706824    0.882228
     11          1           0       -2.746355   -2.706824   -0.882228
     12          1           0        0.824711    3.992976    0.000000
     13          1           0        1.770380    2.790531    0.884210
     14          1           0        1.770380    2.790531   -0.884210
     15          1           0       -0.242657   -2.391528   -0.876212
     16          1           0       -0.242657   -2.391528    0.876212
     17          1           0       -0.670671    2.165871   -0.889878
     18          1           0       -0.670671    2.165871    0.889878
     19          1           0       -1.638152   -0.309656   -0.890168
     20          1           0       -1.638152   -0.309656    0.890168
 ---------------------------------------------------------------------

 SCF Done:  E(RHF) =  -743.737112752     A.U. after    2 cycles

 The electronic state is 1-A'.
 Alpha  occ. eigenvalues --  -93.76643 -20.54688 -20.54686 -11.28905 -11.28585
 Alpha  occ. eigenvalues --  -11.25172 -11.24857 -11.24034  -9.03475  -6.38086
 Alpha  occ. eigenvalues --   -6.37887  -6.37819  -1.40006  -1.28616  -1.09210
 Alpha  occ. eigenvalues --   -1.06910  -0.98384  -0.90610  -0.83620  -0.79286
 Alpha  occ. eigenvalues --   -0.69725  -0.68275  -0.66118  -0.65918  -0.62438
 Alpha  occ. eigenvalues --   -0.59931  -0.57814  -0.57569  -0.55540  -0.53536
 Alpha  occ. eigenvalues --   -0.53159  -0.51122  -0.50765  -0.49738  -0.48748
 Alpha  occ. eigenvalues --   -0.47691  -0.43182
 Alpha virt. eigenvalues --    0.02767   0.03573   0.04424   0.04542   0.05887
 Alpha virt. eigenvalues --    0.06097   0.06223   0.07347   0.08063   0.08840
 Alpha virt. eigenvalues --    0.09224   0.09666   0.10692   0.12821   0.13320

 Mulliken charges:
               1
     1  C    0.526831
     2  C    0.461074
     3  C    0.302986
     4  C   -0.064807
     5  C   -0.345442
     6  O   -1.201984
     7  O   -1.201984
     8  S    2.580213
     9  H   -0.061107
    10  H   -0.079000
    11  H   -0.079000
    12  H   -0.026083
    13  H   -0.035310
    14  H   -0.035310
    15  H   -0.104462
    16  H   -0.104462
    17  H   -0.115281
    18  H   -0.115281
    19  H   -0.150794
    20  H   -0.150794
 Sum of Mulliken charges =  -0.00000

 Dipole moment (field-independent basis, Debye):
    X=             -4.8817    Y=              1.7218    Z=             -0.0000  Tot=              5.1765

 Test job not archived.
 1\1\GINC-SE040\SP\RHF\Aug-CC-pVDZ\C5H12O2S1\OHZDE\05-Apr-2025\0\\#t hf
  aug-cc-pvdz iop(5/13=1,5/36=2,99/5=2) pseudo=read geom=check guess=(r
 ead,tcheck) scf=(maxcycle=1)\\title\\0,1\C,0,-2.143446,-2.929295,0.\C,
 0,1.157418,2.955149,0.\C,0,-0.838198,-2.133417,0.\C,0,-0.055932,2.0338
 97,0.\C,0,-1.094835,-0.628266,0.\O,0,1.157418,0.026179,1.262499\O,0,1.
 157418,0.026179,-1.262499\S,0,0.468746,0.293929,0.\H,0,-1.938473,-3.99
 9896,0.\H,0,-2.746355,-2.706824,0.882228\H,0,-2.746355,-2.706824,-0.88
 2228\H,0,0.824711,3.992976,0.\H,0,1.77038,2.790531,0.88421\H,0,1.77038

 Normal termination of Gaussian 16 at Sat Apr  5 22:13:54 2025.
