 Gaussian 16, Revision C.01,

 ----------------------------------------------------------------------
 #t hf aug-cc-pvdz symm=none int=(grid=ultrafine) guess=(read,tcheck) s
 table=(opt,rrhf)
 ----------------------------------------------------------------------
 -----
 title
 -----
 Symbolic Z-matrix:
 Charge =  0 Multiplicity = 1

 SCF Done:  E(RHF) =  -991.409658381     A.U. after   13 cycles

 1\1\GINC-SE047\Stability\RHF\Aug-CC-pVDZ\C5H12S2\OHZDE\05-Apr-2025\0\\
 #t hf aug-cc-pvdz symm=none int=(grid=ultrafine) guess=(read,tcheck) s
 table=(opt,rrhf)\\title\\0,1\C,0,4.257269,-0.037794,0.00003\C,0,-3.949
 908,-0.598011,0.000036\C,0,2.887553,0.627975,0.000013\C,0,-1.167307,-0
 .413074,-0.000018\C,0,0.091194,0.440608,-0.00002\S,0,-2.645575,0.67099
 8,-0.000005\S,0,1.568672,-0.643862,-0.000022\H,0,4.392436,-0.663324,0.
 882566\H,0,4.392468,-0.663306,-0.882513\H,0,5.04203,0.719953,0.000052\
 H,0,-3.88965,-1.219817,-0.891752\H,0,-4.901476,-0.07084,0.000059\H,0,-

 Normal termination of Gaussian 16 at Sat Apr  5 22:12:49 2025.
 Gaussian 16:  ES64L-G16RevC.01  3-Jul-2019

 ----------------------------------------------------------------------
 #t hf aug-cc-pvdz iop(5/13=1,5/36=2,99/5=2) pseudo=read geom=check gue
 ss=(read,tcheck) scf=(maxcycle=1)
 ----------------------------------------------------------------------
 -----
 title
 -----
 Structure from the checkpoint file:  "1-ethylsulfanyl-2-methylsulfanyl-ethane.chk"
 Charge =  0 Multiplicity = 1

                         Standard orientation:
 ---------------------------------------------------------------------
 Center     Atomic      Atomic             Coordinates (Angstroms)
 Number     Number       Type             X           Y           Z
 ---------------------------------------------------------------------
      1          6           0        4.257269   -0.037794    0.000030
      2          6           0       -3.949908   -0.598011    0.000036
      3          6           0        2.887553    0.627975    0.000013
      4          6           0       -1.167307   -0.413074   -0.000018
      5          6           0        0.091194    0.440608   -0.000020
      6         16           0       -2.645575    0.670998   -0.000005
      7         16           0        1.568672   -0.643862   -0.000022
      8          1           0        4.392436   -0.663324    0.882566
      9          1           0        4.392468   -0.663306   -0.882513
     10          1           0        5.042030    0.719953    0.000052
     11          1           0       -3.889650   -1.219817   -0.891752
     12          1           0       -4.901476   -0.070840    0.000059
     13          1           0       -3.889600   -1.219808    0.891826
     14          1           0        2.763247    1.254670   -0.883576
     15          1           0        2.763215    1.254650    0.883612
     16          1           0       -1.197075   -1.048863    0.885008
     17          1           0       -1.197083   -1.048856   -0.885049
     18          1           0        0.119565    1.076575   -0.884964
     19          1           0        0.119567    1.076572    0.884926
 ---------------------------------------------------------------------

 SCF Done:  E(RHF) =  -991.514665263     A.U. after    2 cycles

 The electronic state is 1-A.
 Alpha  occ. eigenvalues --  -93.52650 -93.52279 -11.27232 -11.27166 -11.26872
 Alpha  occ. eigenvalues --  -11.26458 -11.23592  -8.82379  -8.82034  -6.16537
 Alpha  occ. eigenvalues --   -6.16310  -6.16197  -6.15969  -6.15969  -6.15628
 Alpha  occ. eigenvalues --   -1.09043  -1.05318  -1.00656  -0.92997  -0.85725
 Alpha  occ. eigenvalues --   -0.79558  -0.78841  -0.65473  -0.62893  -0.60783
 Alpha  occ. eigenvalues --   -0.59711  -0.59043  -0.56457  -0.53381  -0.53321
 Alpha  occ. eigenvalues --   -0.52803  -0.50900  -0.45583  -0.43029  -0.42445
 Alpha  occ. eigenvalues --   -0.34338  -0.33134
 Alpha virt. eigenvalues --    0.03617   0.03785   0.05000   0.05012   0.05444
 Alpha virt. eigenvalues --    0.06116   0.06173   0.07519   0.08054   0.08224
 Alpha virt. eigenvalues --    0.08696   0.10412   0.10820   0.11303   0.12694

 Mulliken charges:
               1
     1  C    0.466526
     2  C    0.202478
     3  C   -0.075191
     4  C    0.044204
     5  C   -0.078270
     6  S    0.399807
     7  S    0.388403
     8  H   -0.073576
     9  H   -0.073579
    10  H   -0.027702
    11  H   -0.093424
    12  H   -0.118967
    13  H   -0.093429
    14  H   -0.146282
    15  H   -0.146281
    16  H   -0.140258
    17  H   -0.140257
    18  H   -0.147100
    19  H   -0.147099
 Sum of Mulliken charges =  -0.00000

 Dipole moment (field-independent basis, Debye):
    X=              0.2193    Y=              0.0235    Z=              0.0001  Tot=              0.2206

 Test job not archived.
 1\1\GINC-SE047\SP\RHF\Aug-CC-pVDZ\C5H12S2\OHZDE\05-Apr-2025\0\\#t hf a
 ug-cc-pvdz iop(5/13=1,5/36=2,99/5=2) pseudo=read geom=check guess=(rea
 d,tcheck) scf=(maxcycle=1)\\title\\0,1\C,0,4.257269,-0.037794,0.00003\
 C,0,-3.949908,-0.598011,0.000036\C,0,2.887553,0.627975,0.000013\C,0,-1
 .167307,-0.413074,-0.000018\C,0,0.091194,0.440608,-0.00002\S,0,-2.6455
 75,0.670998,-0.000005\S,0,1.568672,-0.643862,-0.000022\H,0,4.392436,-0
 .663324,0.882566\H,0,4.392468,-0.663306,-0.882513\H,0,5.04203,0.719953
 ,0.000052\H,0,-3.88965,-1.219817,-0.891752\H,0,-4.901476,-0.07084,0.00

 Normal termination of Gaussian 16 at Sat Apr  5 22:12:57 2025.
