 Gaussian 16, Revision C.01,

 ----------------------------------------------------------------------
 #t hf aug-cc-pvdz symm=none int=(grid=ultrafine) guess=(read,tcheck) s
 table=(opt,rrhf)
 ----------------------------------------------------------------------
 -----
 title
 -----
 Symbolic Z-matrix:
 Charge =  0 Multiplicity = 1

 SCF Done:  E(RHF) =  -347.847540590     A.U. after   15 cycles
 Normal termination of Gaussian 16 at Sat Apr  5 22:13:21 2025.
 Gaussian 16:  ES64L-G16RevC.01  3-Jul-2019

 ----------------------------------------------------------------------
 #t hf aug-cc-pvdz iop(5/13=1,5/36=2,99/5=2) pseudo=read geom=check gue
 ss=(read,tcheck) scf=(maxcycle=1)
 ----------------------------------------------------------------------
 -----
 title
 -----
 Structure from the checkpoint file:  "1-ethyl-4-methylbenzene.chk"
 Charge =  0 Multiplicity = 1

                         Standard orientation:
 ---------------------------------------------------------------------
 Center     Atomic      Atomic             Coordinates (Angstroms)
 Number     Number       Type             X           Y           Z
 ---------------------------------------------------------------------
      1          6           0        1.146241    1.193842   -0.045431
      2          6           0        1.145772   -1.192583   -0.047381
      3          6           0       -0.230006    1.193850   -0.240696
      4          6           0       -0.229569   -1.192065   -0.242263
      5          6           0        1.860578    0.000971    0.058338
      6          6           0       -0.945645    0.001362   -0.341139
      7          6           0        3.348664   -0.001567    0.293250
      8          6           0       -3.212526   -0.002676    0.806592
      9          6           0       -2.443952    0.001078   -0.522341
     10          1           0        1.673704    2.137762    0.019717
     11          1           0        1.673111   -2.136822    0.016045
     12          1           0       -0.753713    2.138576   -0.325696
     13          1           0       -0.753659   -2.136478   -0.328520
     14          1           0        3.832697   -0.827825   -0.228257
     15          1           0        3.806428    0.927029   -0.047139
     16          1           0        3.579777   -0.109506    1.356230
     17          1           0       -2.964444   -0.884319    1.399104
     18          1           0       -4.290020   -0.003069    0.634112
     19          1           0       -2.965687    0.876560    1.403176
     20          1           0       -2.738175    0.877564   -1.103946
     21          1           0       -2.737362   -0.872740   -1.108399
 ---------------------------------------------------------------------

 SCF Done:  E(RHF) =  -347.953360743     A.U. after    2 cycles

 The electronic state is 1-A.
 Alpha  occ. eigenvalues --  -11.24293 -11.23961 -11.23522 -11.23498 -11.23417
 Alpha  occ. eigenvalues --  -11.23396 -11.23388 -11.23079 -11.22392  -1.14491
 Alpha  occ. eigenvalues --   -1.06362  -1.00304  -1.00120  -0.92569  -0.84648
 Alpha  occ. eigenvalues --   -0.82748  -0.77902  -0.67278  -0.65426  -0.62955
 Alpha  occ. eigenvalues --   -0.59154  -0.58822  -0.58139  -0.57475  -0.53985
 Alpha  occ. eigenvalues --   -0.53859  -0.51681  -0.49522  -0.47568  -0.47558
 Alpha  occ. eigenvalues --   -0.47280  -0.33517  -0.31556
 Alpha virt. eigenvalues --    0.03500   0.03694   0.04166   0.05024   0.05246
 Alpha virt. eigenvalues --    0.05774   0.06245   0.07221   0.07515   0.08106
 Alpha virt. eigenvalues --    0.08180   0.09788   0.10738   0.11386   0.11558

 Mulliken charges:
               1
     1  C    0.356487
     2  C    0.352712
     3  C    0.095594
     4  C    0.090454
     5  C   -0.002580
     6  C    1.077320
     7  C    0.636170
     8  C    0.322234
     9  C    0.117008
    10  H   -0.597032
    11  H   -0.600289
    12  H   -0.636664
    13  H   -0.640573
    14  H   -0.046000
    15  H   -0.111446
    16  H    0.106509
    17  H   -0.098640
    18  H   -0.076785
    19  H   -0.098239
    20  H   -0.123517
    21  H   -0.122724
 Sum of Mulliken charges =  -0.00000

 Dipole moment (field-independent basis, Debye):
    X=             -0.0098    Y=             -0.0109    Z=              0.0644  Tot=              0.0661

 Test job not archived.
 1\1\GINC-SE045\SP\RHF\Aug-CC-pVDZ\C9H12\OHZDE\05-Apr-2025\0\\#t hf aug
 -cc-pvdz iop(5/13=1,5/36=2,99/5=2) pseudo=read geom=check guess=(read,
 tcheck) scf=(maxcycle=1)\\title\\0,1\C,0,1.146241,1.193842,-0.045431\C
 ,0,1.145772,-1.192583,-0.047381\C,0,-0.230006,1.19385,-0.240696\C,0,-0
 .229569,-1.192065,-0.242263\C,0,1.860578,0.000971,0.058338\C,0,-0.9456
 45,0.001362,-0.341139\C,0,3.348664,-0.001567,0.29325\C,0,-3.212526,-0.
 002676,0.806592\C,0,-2.443952,0.001078,-0.522341\H,0,1.673704,2.137762
 ,0.019717\H,0,1.673111,-2.136822,0.016045\H,0,-0.753713,2.138576,-0.32

 Normal termination of Gaussian 16 at Sat Apr  5 22:13:57 2025.
