 Gaussian 16, Revision C.01,

 ----------------------------------------------------------------------
 #t hf aug-cc-pvdz symm=none int=(grid=ultrafine) guess=(read,tcheck) s
 table=(opt,rrhf)
 ----------------------------------------------------------------------
 -----
 title
 -----
 Symbolic Z-matrix:
 Charge =  0 Multiplicity = 1

 SCF Done:  E(RHF) =  -668.700985297     A.U. after   14 cycles
 Normal termination of Gaussian 16 at Sat Apr  5 22:13:45 2025.
 Gaussian 16:  ES64L-G16RevC.01  3-Jul-2019

 ----------------------------------------------------------------------
 #t hf aug-cc-pvdz iop(5/13=1,5/36=2,99/5=2) pseudo=read geom=check gue
 ss=(read,tcheck) scf=(maxcycle=1)
 ----------------------------------------------------------------------
 -----
 title
 -----
 Structure from the checkpoint file:  "1-ethylsulfinylpropane.chk"
 Charge =  0 Multiplicity = 1

                         Standard orientation:
 ---------------------------------------------------------------------
 Center     Atomic      Atomic             Coordinates (Angstroms)
 Number     Number       Type             X           Y           Z
 ---------------------------------------------------------------------
      1          6           0        3.493846   -0.421699    0.204243
      2          6           0       -3.184549   -0.384832    0.026086
      3          6           0        2.208239    0.268987   -0.251395
      4          6           0       -1.762741   -0.898519    0.195965
      5          6           0        0.966634   -0.554479    0.069940
      6          8           0       -0.668107    1.544752    0.490797
      7         16           0       -0.558033    0.349232   -0.423484
      8          1           0        4.366226    0.187832   -0.033018
      9          1           0        3.490187   -0.590172    1.282549
     10          1           0        3.622266   -1.390088   -0.283365
     11          1           0       -3.313566    0.561793    0.548967
     12          1           0       -3.430342   -0.232732   -1.025459
     13          1           0       -3.894890   -1.102230    0.438056
     14          1           0        2.251096    0.456272   -1.327242
     15          1           0        2.117148    1.242262    0.233126
     16          1           0       -1.584775   -1.813954   -0.371007
     17          1           0       -1.518743   -1.069941    1.245101
     18          1           0        0.880940   -0.746643    1.141226
     19          1           0        0.959278   -1.504876   -0.468592
 ---------------------------------------------------------------------

 SCF Done:  E(RHF) =  -668.828321190     A.U. after    2 cycles

 The electronic state is 1-A.
 Alpha  occ. eigenvalues --  -93.64525 -20.50973 -11.27537 -11.27234 -11.24400
 Alpha  occ. eigenvalues --  -11.24021 -11.23450  -8.92968  -6.27240  -6.27092
 Alpha  occ. eigenvalues --   -6.26766  -1.28678  -1.08248  -1.05402  -0.97315
 Alpha  occ. eigenvalues --   -0.89232  -0.82326  -0.79230  -0.66625  -0.64494
 Alpha  occ. eigenvalues --   -0.63596  -0.60701  -0.57711  -0.57293  -0.55838
 Alpha  occ. eigenvalues --   -0.53287  -0.53096  -0.50956  -0.50691  -0.49926
 Alpha  occ. eigenvalues --   -0.48965  -0.41551  -0.36745
 Alpha virt. eigenvalues --    0.03051   0.03713   0.04446   0.04669   0.05912
 Alpha virt. eigenvalues --    0.06150   0.06261   0.07484   0.08009   0.08911
 Alpha virt. eigenvalues --    0.09466   0.09794   0.11027   0.12244   0.13042

 Mulliken charges:
               1
     1  C    0.510879
     2  C    0.490959
     3  C    0.360297
     4  C   -0.042483
     5  C   -0.249523
     6  O   -1.117110
     7  S    1.214718
     8  H   -0.068425
     9  H   -0.082492
    10  H   -0.084280
    11  H   -0.034296
    12  H   -0.072201
    13  H   -0.025700
    14  H   -0.128791
    15  H   -0.093225
    16  H   -0.149355
    17  H   -0.119726
    18  H   -0.156912
    19  H   -0.152333
 Sum of Mulliken charges =  -0.00000

 Dipole moment (field-independent basis, Debye):
    X=              0.6454    Y=             -4.4343    Z=             -0.9316  Tot=              4.5768

 Test job not archived.
 1\1\GINC-SE145\SP\RHF\Aug-CC-pVDZ\C5H12O1S1\OHZDE\05-Apr-2025\0\\#t hf
  aug-cc-pvdz iop(5/13=1,5/36=2,99/5=2) pseudo=read geom=check guess=(r
 ead,tcheck) scf=(maxcycle=1)\\title\\0,1\C,0,3.493846,-0.421699,0.2042
 43\C,0,-3.184549,-0.384832,0.026086\C,0,2.208239,0.268987,-0.251395\C,
 0,-1.762741,-0.898519,0.195965\C,0,0.966634,-0.554479,0.06994\O,0,-0.6
 68107,1.544752,0.490797\S,0,-0.558033,0.349232,-0.423484\H,0,4.366226,
 0.187832,-0.033018\H,0,3.490187,-0.590172,1.282549\H,0,3.622266,-1.390
 088,-0.283365\H,0,-3.313566,0.561793,0.548967\H,0,-3.430342,-0.232732,

 Normal termination of Gaussian 16 at Sat Apr  5 22:13:55 2025.
