 Gaussian 16, Revision C.01,

 ----------------------------------------------------------------------
 #t hf aug-cc-pvdz symm=none int=(grid=ultrafine) guess=(read,tcheck) s
 table=(opt,rrhf)
 ----------------------------------------------------------------------
 -----
 title
 -----
 Symbolic Z-matrix:
 Charge =  0 Multiplicity = 1

 SCF Done:  E(RHF) =  -385.121683620     A.U. after   12 cycles

 1\1\GINC-SE198\Stability\RHF\Aug-CC-pVDZ\C6H14O2\OHZDE\05-Apr-2025\0\\
 #t hf aug-cc-pvdz symm=none int=(grid=ultrafine) guess=(read,tcheck) s
 table=(opt,rrhf)\\title\\0,1\C,0,2.945747,-1.326432,-0.272137\C,0,-3.2
 05462,-0.965279,-0.174465\C,0,0.235796,2.251178,-0.163046\C,0,2.11899,
 -0.25769,0.413385\C,0,-1.783395,-0.782436,0.311995\C,0,-0.023554,0.819
 576,0.264379\O,0,0.911871,-0.08384,-0.314715\O,0,-1.30245,0.472628,-0.
 168283\H,0,3.881046,-1.483282,0.266831\H,0,2.403192,-2.271186,-0.3049\
 H,0,3.18213,-1.03224,-1.294481\H,0,-3.603189,-1.917908,0.177985\H,0,-3

 Normal termination of Gaussian 16 at Sat Apr  5 22:13:02 2025.
 Gaussian 16:  ES64L-G16RevC.01  3-Jul-2019

 ----------------------------------------------------------------------
 #t hf aug-cc-pvdz iop(5/13=1,5/36=2,99/5=2) pseudo=read geom=check gue
 ss=(read,tcheck) scf=(maxcycle=1)
 ----------------------------------------------------------------------
 -----
 title
 -----
 Structure from the checkpoint file:  "1-ethoxyethoxyethane.chk"
 Charge =  0 Multiplicity = 1

                         Standard orientation:
 ---------------------------------------------------------------------
 Center     Atomic      Atomic             Coordinates (Angstroms)
 Number     Number       Type             X           Y           Z
 ---------------------------------------------------------------------
      1          6           0        2.945747   -1.326432   -0.272137
      2          6           0       -3.205462   -0.965279   -0.174465
      3          6           0        0.235796    2.251178   -0.163046
      4          6           0        2.118990   -0.257690    0.413385
      5          6           0       -1.783395   -0.782436    0.311995
      6          6           0       -0.023554    0.819576    0.264379
      7          8           0        0.911871   -0.083840   -0.314715
      8          8           0       -1.302450    0.472628   -0.168283
      9          1           0        3.881046   -1.483282    0.266831
     10          1           0        2.403192   -2.271186   -0.304900
     11          1           0        3.182130   -1.032240   -1.294481
     12          1           0       -3.603189   -1.917908    0.177985
     13          1           0       -3.848536   -0.165468    0.192996
     14          1           0       -3.241225   -0.960448   -1.263778
     15          1           0        0.138687    2.326594   -1.245260
     16          1           0        1.239390    2.563008    0.124892
     17          1           0       -0.483643    2.921348    0.306118
     18          1           0        2.680904    0.683225    0.457447
     19          1           0        1.890021   -0.550298    1.446690
     20          1           0       -1.139904   -1.586590   -0.051523
     21          1           0       -1.743586   -0.787738    1.409110
     22          1           0        0.040618    0.717179    1.361201
 ---------------------------------------------------------------------

 SCF Done:  E(RHF) =  -385.248454538     A.U. after    2 cycles

 The electronic state is 1-A.
 Alpha  occ. eigenvalues --  -20.56723 -20.56556 -11.33956 -11.28781 -11.27944
 Alpha  occ. eigenvalues --  -11.22590 -11.22138 -11.22093  -1.36664  -1.30141
 Alpha  occ. eigenvalues --   -1.04588  -1.00514  -0.97278  -0.85782  -0.83715
 Alpha  occ. eigenvalues --   -0.81739  -0.70528  -0.69471  -0.66980  -0.62884
 Alpha  occ. eigenvalues --   -0.61668  -0.57301  -0.56552  -0.55185  -0.54289
 Alpha  occ. eigenvalues --   -0.52966  -0.52448  -0.51979  -0.49967  -0.48612
 Alpha  occ. eigenvalues --   -0.47986  -0.44311  -0.43189
 Alpha virt. eigenvalues --    0.03426   0.04315   0.04533   0.04649   0.05770
 Alpha virt. eigenvalues --    0.05892   0.06332   0.06667   0.06936   0.08109
 Alpha virt. eigenvalues --    0.08819   0.08994   0.09841   0.10912   0.12724

 Mulliken charges:
               1
     1  C    0.284297
     2  C    0.246459
     3  C    0.391363
     4  C    0.605012
     5  C    0.572307
     6  C    0.617479
     7  O   -0.709151
     8  O   -0.698795
     9  H   -0.049727
    10  H   -0.061897
    11  H   -0.063106
    12  H   -0.038075
    13  H   -0.040074
    14  H   -0.033424
    15  H   -0.002590
    16  H   -0.113409
    17  H   -0.052799
    18  H   -0.184971
    19  H   -0.174721
    20  H   -0.185258
    21  H   -0.146092
    22  H   -0.162829
 Sum of Mulliken charges =  -0.00000

 Dipole moment (field-independent basis, Debye):
    X=              1.0335    Y=             -0.3288    Z=              1.9450  Tot=              2.2269

 Test job not archived.
 1\1\GINC-SE198\SP\RHF\Aug-CC-pVDZ\C6H14O2\OHZDE\05-Apr-2025\0\\#t hf a
 ug-cc-pvdz iop(5/13=1,5/36=2,99/5=2) pseudo=read geom=check guess=(rea
 d,tcheck) scf=(maxcycle=1)\\title\\0,1\C,0,2.945747,-1.326432,-0.27213
 7\C,0,-3.205462,-0.965279,-0.174465\C,0,0.235796,2.251178,-0.163046\C,
 0,2.11899,-0.25769,0.413385\C,0,-1.783395,-0.782436,0.311995\C,0,-0.02
 3554,0.819576,0.264379\O,0,0.911871,-0.08384,-0.314715\O,0,-1.30245,0.
 472628,-0.168283\H,0,3.881046,-1.483282,0.266831\H,0,2.403192,-2.27118
 6,-0.3049\H,0,3.18213,-1.03224,-1.294481\H,0,-3.603189,-1.917908,0.177

 Normal termination of Gaussian 16 at Sat Apr  5 22:13:56 2025.
