 Gaussian 16, Revision C.01,

 ----------------------------------------------------------------------
 #t hf aug-cc-pvdz symm=none int=(grid=ultrafine) guess=(read,tcheck) s
 table=(opt,rrhf)
 ----------------------------------------------------------------------
 -----
 title
 -----
 Symbolic Z-matrix:
 Charge =  0 Multiplicity = 1

 SCF Done:  E(RHF) =  -271.213702317     A.U. after   12 cycles

 1\1\GINC-SE199\Stability\RHF\Aug-CC-pVDZ\C5H12O1\OHZDE\05-Apr-2025\0\\
 #t hf aug-cc-pvdz symm=none int=(grid=ultrafine) guess=(read,tcheck) s
 table=(opt,rrhf)\\title\\0,1\C,0,0.98919,2.876892,0.\H,0,1.934526,3.42
 1126,0.\H,0,0.422313,3.170372,0.883513\H,0,0.422313,3.170372,-0.883513
 \C,0,1.244016,1.383759,0.\H,0,1.827047,1.091952,-0.88441\H,0,1.827047,
 1.091952,0.88441\O,0,0.,0.70477,0.\C,0,0.125303,-0.705775,0.\H,0,0.691
 231,-1.031792,-0.884779\H,0,0.691231,-1.031792,0.884779\C,0,-1.257913,
 -1.331654,0.\H,0,-1.802831,-0.97298,0.875837\H,0,-1.802831,-0.97298,-0

 Normal termination of Gaussian 16 at Sat Apr  5 22:12:07 2025.
 Gaussian 16:  ES64L-G16RevC.01  3-Jul-2019

 ----------------------------------------------------------------------
 #t hf aug-cc-pvdz iop(5/13=1,5/36=2,99/5=2) pseudo=read geom=check gue
 ss=(read,tcheck) scf=(maxcycle=1)
 ----------------------------------------------------------------------
 -----
 title
 -----
 Structure from the checkpoint file:  "1-ethoxypropane.chk"
 Charge =  0 Multiplicity = 1

                         Standard orientation:
 ---------------------------------------------------------------------
 Center     Atomic      Atomic             Coordinates (Angstroms)
 Number     Number       Type             X           Y           Z
 ---------------------------------------------------------------------
      1          6           0        0.989190    2.876892    0.000000
      2          1           0        1.934526    3.421126    0.000000
      3          1           0        0.422313    3.170372    0.883513
      4          1           0        0.422313    3.170372   -0.883513
      5          6           0        1.244016    1.383759    0.000000
      6          1           0        1.827047    1.091952   -0.884410
      7          1           0        1.827047    1.091952    0.884410
      8          8           0        0.000000    0.704770    0.000000
      9          6           0        0.125303   -0.705775    0.000000
     10          1           0        0.691231   -1.031792   -0.884779
     11          1           0        0.691231   -1.031792    0.884779
     12          6           0       -1.257913   -1.331654    0.000000
     13          1           0       -1.802831   -0.972980    0.875837
     14          1           0       -1.802831   -0.972980   -0.875837
     15          6           0       -1.205589   -2.858427    0.000000
     16          1           0       -0.685547   -3.239386   -0.881267
     17          1           0       -0.685547   -3.239386    0.881267
     18          1           0       -2.208990   -3.284394    0.000000
 ---------------------------------------------------------------------

 SCF Done:  E(RHF) =  -271.303662501     A.U. after    2 cycles

 The electronic state is 1-A'.
 Alpha  occ. eigenvalues --  -20.56261 -11.28153 -11.27870 -11.22537 -11.22439
 Alpha  occ. eigenvalues --  -11.22163  -1.32769  -1.05484  -1.00325  -0.90817
 Alpha  occ. eigenvalues --   -0.83045  -0.80661  -0.68366  -0.66923  -0.62266
 Alpha  occ. eigenvalues --   -0.61306  -0.56518  -0.55645  -0.53970  -0.50825
 Alpha  occ. eigenvalues --   -0.50407  -0.48602  -0.47490  -0.46944  -0.42855
 Alpha virt. eigenvalues --    0.03602   0.04222   0.04733   0.04832   0.05967
 Alpha virt. eigenvalues --    0.06220   0.06481   0.07372   0.08339   0.09150
 Alpha virt. eigenvalues --    0.09549   0.10108   0.11486   0.13722   0.14136

 Mulliken charges:
               1
     1  C    0.322178
     2  H   -0.048938
     3  H   -0.051382
     4  H   -0.051382
     5  C    0.460464
     6  H   -0.133849
     7  H   -0.133849
     8  O   -0.636170
     9  C    0.431930
    10  H   -0.174988
    11  H   -0.174988
    12  C    0.220280
    13  H   -0.118632
    14  H   -0.118632
    15  C    0.429007
    16  H   -0.072522
    17  H   -0.072522
    18  H   -0.076005
 Sum of Mulliken charges =  -0.00000

 Dipole moment (field-independent basis, Debye):
    X=              1.1165    Y=             -0.6348    Z=              0.0000  Tot=              1.2843

 Test job not archived.
 1\1\GINC-SE199\SP\RHF\Aug-CC-pVDZ\C5H12O1\OHZDE\05-Apr-2025\0\\#t hf a
 ug-cc-pvdz iop(5/13=1,5/36=2,99/5=2) pseudo=read geom=check guess=(rea
 d,tcheck) scf=(maxcycle=1)\\title\\0,1\C,0,0.98919,2.876892,0.\H,0,1.9
 34526,3.421126,0.\H,0,0.422313,3.170372,0.883513\H,0,0.422313,3.170372
 ,-0.883513\C,0,1.244016,1.383759,0.\H,0,1.827047,1.091952,-0.88441\H,0
 ,1.827047,1.091952,0.88441\O,0,0.,0.70477,0.\C,0,0.125303,-0.705775,0.
 \H,0,0.691231,-1.031792,-0.884779\H,0,0.691231,-1.031792,0.884779\C,0,
 -1.257913,-1.331654,0.\H,0,-1.802831,-0.97298,0.875837\H,0,-1.802831,-

 Normal termination of Gaussian 16 at Sat Apr  5 22:12:52 2025.
