 Gaussian 16, Revision C.01,

 ----------------------------------------------------------------------
 #t hf aug-cc-pvdz symm=none int=(grid=ultrafine) guess=(read,tcheck) s
 table=(opt,rrhf)
 ----------------------------------------------------------------------
 -----
 title
 -----
 Symbolic Z-matrix:
 Charge =  0 Multiplicity = 1

 SCF Done:  E(RHF) =  -416.512722794     A.U. after   15 cycles
 Normal termination of Gaussian 16 at Sat Apr  5 22:12:23 2025.
 Gaussian 16:  ES64L-G16RevC.01  3-Jul-2019

 ----------------------------------------------------------------------
 #t hf aug-cc-pvdz iop(5/13=1,5/36=2,99/5=2) pseudo=read geom=check gue
 ss=(read,tcheck) scf=(maxcycle=1)
 ----------------------------------------------------------------------
 -----
 title
 -----
 Structure from the checkpoint file:  "1-H-1-2--bipyrrole.chk"
 Charge =  0 Multiplicity = 1

                         Standard orientation:
 ---------------------------------------------------------------------
 Center     Atomic      Atomic             Coordinates (Angstroms)
 Number     Number       Type             X           Y           Z
 ---------------------------------------------------------------------
      1          6           0        2.841297    0.623378   -0.306532
      2          6           0        2.814080   -0.667434    0.287849
      3          6           0       -2.861574    0.594094    0.254885
      4          6           0       -1.540425    1.066662    0.485810
      5          6           0       -2.766925   -0.654559   -0.305131
      6          6           0        1.541870    1.032508   -0.460978
      7          6           0        1.498859   -1.002720    0.481775
      8          6           0       -0.682616    0.087435    0.048268
      9          7           0       -1.432507   -0.956411   -0.430976
     10          7           0        0.716428    0.038300    0.020394
     11          1           0        3.714040    1.183550   -0.595045
     12          1           0        3.662216   -1.274837    0.553684
     13          1           0       -3.776525    1.109760    0.489826
     14          1           0       -1.248499    1.997823    0.938908
     15          1           0       -3.525636   -1.349731   -0.616531
     16          1           0        1.122489    1.926638   -0.885807
     17          1           0        1.048662   -1.865483    0.939940
     18          1           0       -1.051588   -1.777123   -0.866575
 ---------------------------------------------------------------------

 SCF Done:  E(RHF) =  -416.636590917     A.U. after    2 cycles

 The electronic state is 1-A.
 Alpha  occ. eigenvalues --  -15.68480 -15.67966 -11.31521 -11.27082 -11.26827
 Alpha  occ. eigenvalues --  -11.26743 -11.22931 -11.22783 -11.22684 -11.22449
 Alpha  occ. eigenvalues --   -1.30314  -1.25448  -1.07066  -1.04642  -0.98117
 Alpha  occ. eigenvalues --   -0.96057  -0.82447  -0.80150  -0.78876  -0.76714
 Alpha  occ. eigenvalues --   -0.74658  -0.66635  -0.61909  -0.60987  -0.59744
 Alpha  occ. eigenvalues --   -0.58622  -0.57194  -0.55680  -0.55281  -0.53988
 Alpha  occ. eigenvalues --   -0.53723  -0.37138  -0.35939  -0.30827  -0.29285
 Alpha virt. eigenvalues --    0.02989   0.03757   0.03867   0.04696   0.05479
 Alpha virt. eigenvalues --    0.06097   0.06552   0.07060   0.10787   0.11161
 Alpha virt. eigenvalues --    0.11717   0.11748   0.12535   0.13059   0.13740

 Mulliken charges:
               1
     1  C    0.180125
     2  C    0.260671
     3  C    0.378751
     4  C    0.902497
     5  C    0.574614
     6  C    0.774082
     7  C    0.767555
     8  C   -0.241375
     9  N   -0.303168
    10  N   -0.374942
    11  H   -0.343188
    12  H   -0.346322
    13  H   -0.339806
    14  H   -0.455292
    15  H   -0.339129
    16  H   -0.469459
    17  H   -0.511785
    18  H   -0.113829
 Sum of Mulliken charges =  -0.00000

 Dipole moment (field-independent basis, Debye):
    X=             -0.8351    Y=             -1.3532    Z=             -0.6815  Tot=              1.7300

 Test job not archived.
 1\1\GINC-SE232\SP\RHF\Aug-CC-pVDZ\C8H8N2\OHZDE\05-Apr-2025\0\\#t hf au
 g-cc-pvdz iop(5/13=1,5/36=2,99/5=2) pseudo=read geom=check guess=(read
 ,tcheck) scf=(maxcycle=1)\\title\\0,1\C,0,2.841297,0.623378,-0.306532\
 C,0,2.81408,-0.667434,0.287849\C,0,-2.861574,0.594094,0.254885\C,0,-1.
 540425,1.066662,0.48581\C,0,-2.766925,-0.654559,-0.305131\C,0,1.54187,
 1.032508,-0.460978\C,0,1.498859,-1.00272,0.481775\C,0,-0.682616,0.0874
 35,0.048268\N,0,-1.432507,-0.956411,-0.430976\N,0,0.716428,0.0383,0.02
 0394\H,0,3.71404,1.18355,-0.595045\H,0,3.662216,-1.274837,0.553684\H,0

 Normal termination of Gaussian 16 at Sat Apr  5 22:12:57 2025.
