 Gaussian 16, Revision C.01,

 ----------------------------------------------------------------------
 #t hf aug-cc-pvdz symm=none int=(grid=ultrafine) guess=(read,tcheck) s
 table=(opt,rrhf)
 ----------------------------------------------------------------------
 -----
 title
 -----
 Symbolic Z-matrix:
 Charge =  0 Multiplicity = 1

 SCF Done:  E(RHF) =  -290.427621575     A.U. after   12 cycles

 1\1\GINC-SE190\Stability\RHF\Aug-CC-pVDZ\C6H15N1\OHZDE\05-Apr-2025\0\\
 #t hf aug-cc-pvdz symm=none int=(grid=ultrafine) guess=(read,tcheck) s
 table=(opt,rrhf)\\title\\0,1\C,0,3.802935,-0.49061,0.\C,0,2.559112,0.3
 96474,0.\C,0,1.251338,-0.396094,0.\C,0,0.,0.482704,0.\C,0,-1.308018,-0
 .309699,0.\C,0,-2.556134,0.578683,0.\N,0,-3.845546,-0.114188,0.\H,0,4.
 717679,0.103723,0.\H,0,3.826861,-1.135787,0.880692\H,0,3.826861,-1.135
 787,-0.880692\H,0,2.580491,1.054451,0.873988\H,0,2.580491,1.054451,-0.
 873988\H,0,1.230295,-1.055016,0.874553\H,0,1.230295,-1.055016,-0.87455

 Normal termination of Gaussian 16 at Sat Apr  5 22:13:00 2025.
 Gaussian 16:  ES64L-G16RevC.01  3-Jul-2019

 ----------------------------------------------------------------------
 #t hf aug-cc-pvdz iop(5/13=1,5/36=2,99/5=2) pseudo=read geom=check gue
 ss=(read,tcheck) scf=(maxcycle=1)
 ----------------------------------------------------------------------
 -----
 title
 -----
 Structure from the checkpoint file:  "1-hexanamine.chk"
 Charge =  0 Multiplicity = 1

                         Standard orientation:
 ---------------------------------------------------------------------
 Center     Atomic      Atomic             Coordinates (Angstroms)
 Number     Number       Type             X           Y           Z
 ---------------------------------------------------------------------
      1          6           0        3.802935   -0.490610    0.000000
      2          6           0        2.559112    0.396474    0.000000
      3          6           0        1.251338   -0.396094    0.000000
      4          6           0        0.000000    0.482704    0.000000
      5          6           0       -1.308018   -0.309699    0.000000
      6          6           0       -2.556134    0.578683    0.000000
      7          7           0       -3.845546   -0.114188    0.000000
      8          1           0        4.717679    0.103723    0.000000
      9          1           0        3.826861   -1.135787    0.880692
     10          1           0        3.826861   -1.135787   -0.880692
     11          1           0        2.580491    1.054451    0.873988
     12          1           0        2.580491    1.054451   -0.873988
     13          1           0        1.230295   -1.055016    0.874553
     14          1           0        1.230295   -1.055016   -0.874553
     15          1           0        0.022835    1.141535   -0.874500
     16          1           0        0.022835    1.141535    0.874500
     17          1           0       -1.338505   -0.966435    0.876192
     18          1           0       -1.338505   -0.966435   -0.876192
     19          1           0       -2.533944    1.235791    0.873348
     20          1           0       -2.533944    1.235791   -0.873348
     21          1           0       -3.935161   -0.711119    0.813635
     22          1           0       -3.935161   -0.711119   -0.813635
 ---------------------------------------------------------------------

 SCF Done:  E(RHF) =  -290.520056992     A.U. after    2 cycles

 The electronic state is 1-A'.
 Alpha  occ. eigenvalues --  -15.60087 -11.25333 -11.22601 -11.22596 -11.22460
 Alpha  occ. eigenvalues --  -11.22441 -11.22092  -1.14470  -1.07314  -1.01791
 Alpha  occ. eigenvalues --   -0.93991  -0.85669  -0.80178  -0.78934  -0.67715
 Alpha  occ. eigenvalues --   -0.64627  -0.60387  -0.59970  -0.58286  -0.56049
 Alpha  occ. eigenvalues --   -0.54460  -0.53523  -0.49694  -0.49029  -0.47041
 Alpha  occ. eigenvalues --   -0.46966  -0.46299  -0.46252  -0.37617
 Alpha virt. eigenvalues --    0.03490   0.03886   0.04297   0.04384   0.05458
 Alpha virt. eigenvalues --    0.05874   0.06277   0.06712   0.07873   0.08512
 Alpha virt. eigenvalues --    0.08841   0.08999   0.10603   0.10955   0.11933

 Mulliken charges:
               1
     1  C    0.587190
     2  C    0.356616
     3  C   -0.007618
     4  C    0.061512
     5  C    0.301349
     6  C    1.046584
     7  N   -0.395398
     8  H   -0.070356
     9  H   -0.091803
    10  H   -0.091803
    11  H   -0.159200
    12  H   -0.159200
    13  H   -0.185579
    14  H   -0.185579
    15  H   -0.179215
    16  H   -0.179215
    17  H   -0.149783
    18  H   -0.149783
    19  H   -0.176900
    20  H   -0.176900
    21  H    0.002539
    22  H    0.002539
 Sum of Mulliken charges =   0.00000

 Dipole moment (field-independent basis, Debye):
    X=              1.1063    Y=             -0.8790    Z=              0.0000  Tot=              1.4130

 Test job not archived.
 1\1\GINC-SE190\SP\RHF\Aug-CC-pVDZ\C6H15N1\OHZDE\05-Apr-2025\0\\#t hf a
 ug-cc-pvdz iop(5/13=1,5/36=2,99/5=2) pseudo=read geom=check guess=(rea
 d,tcheck) scf=(maxcycle=1)\\title\\0,1\C,0,3.802935,-0.49061,0.\C,0,2.
 559112,0.396474,0.\C,0,1.251338,-0.396094,0.\C,0,0.,0.482704,0.\C,0,-1
 .308018,-0.309699,0.\C,0,-2.556134,0.578683,0.\N,0,-3.845546,-0.114188
 ,0.\H,0,4.717679,0.103723,0.\H,0,3.826861,-1.135787,0.880692\H,0,3.826
 861,-1.135787,-0.880692\H,0,2.580491,1.054451,0.873988\H,0,2.580491,1.
 054451,-0.873988\H,0,1.230295,-1.055016,0.874553\H,0,1.230295,-1.05501

 Normal termination of Gaussian 16 at Sat Apr  5 22:13:52 2025.
