 Gaussian 16, Revision C.01,

 ----------------------------------------------------------------------
 #t hf aug-cc-pvdz symm=none int=(grid=ultrafine) guess=(read,tcheck) s
 table=(opt,rrhf)
 ----------------------------------------------------------------------
 -----
 title
 -----
 Symbolic Z-matrix:
 Charge =  0 Multiplicity = 1

 SCF Done:  E(RHF) =  -234.203139322     A.U. after   13 cycles
 Normal termination of Gaussian 16 at Sat Apr  5 22:12:50 2025.
 Gaussian 16:  ES64L-G16RevC.01  3-Jul-2019

 ----------------------------------------------------------------------
 #t hf aug-cc-pvdz iop(5/13=1,5/36=2,99/5=2) pseudo=read geom=check gue
 ss=(read,tcheck) scf=(maxcycle=1)
 ----------------------------------------------------------------------
 -----
 title
 -----
 Structure from the checkpoint file:  "1-hexene.chk"
 Charge =  0 Multiplicity = 1

                         Standard orientation:
 ---------------------------------------------------------------------
 Center     Atomic      Atomic             Coordinates (Angstroms)
 Number     Number       Type             X           Y           Z
 ---------------------------------------------------------------------
      1          6           0        3.083882   -0.164653   -0.435306
      2          6           0        2.038689   -0.211887    0.381630
      3          6           0       -3.012649   -0.378385   -0.169663
      4          6           0        0.775189    0.578680    0.225667
      5          6           0       -1.771338    0.499840   -0.023071
      6          6           0       -0.474243   -0.302353    0.082056
      7          1           0        3.964976   -0.769042   -0.266002
      8          1           0        3.096130    0.483870   -1.303601
      9          1           0        2.074756   -0.880467    1.238236
     10          1           0       -2.952804   -0.999751   -1.065528
     11          1           0       -3.919711    0.223030   -0.243990
     12          1           0       -3.127075   -1.046179    0.686669
     13          1           0        0.861213    1.241498   -0.639318
     14          1           0        0.645805    1.223387    1.102645
     15          1           0       -1.704688    1.181440   -0.876345
     16          1           0       -1.875165    1.133412    0.863013
     17          1           0       -0.537082   -0.981633    0.938389
     18          1           0       -0.363539   -0.937015   -0.802044
 ---------------------------------------------------------------------

 SCF Done:  E(RHF) =  -234.278958368     A.U. after    2 cycles

 The electronic state is 1-A.
 Alpha  occ. eigenvalues --  -11.24000 -11.23199 -11.22764 -11.22709 -11.22702
 Alpha  occ. eigenvalues --  -11.22156  -1.08348  -1.03709  -0.96376  -0.86855
 Alpha  occ. eigenvalues --   -0.79490  -0.75647  -0.65625  -0.62683  -0.59906
 Alpha  occ. eigenvalues --   -0.58689  -0.55903  -0.53727  -0.50881  -0.49160
 Alpha  occ. eigenvalues --   -0.47723  -0.46720  -0.46222  -0.36096
 Alpha virt. eigenvalues --    0.03612   0.04155   0.04459   0.04848   0.05791
 Alpha virt. eigenvalues --    0.06295   0.06907   0.07225   0.07865   0.09028
 Alpha virt. eigenvalues --    0.09693   0.09933   0.11546   0.12243   0.13891

 Mulliken charges:
               1
     1  C    0.498109
     2  C    0.864025
     3  C    0.502686
     4  C    0.246039
     5  C    0.231693
     6  C   -0.184038
     7  H   -0.319105
     8  H   -0.289085
     9  H   -0.446738
    10  H   -0.073007
    11  H   -0.064068
    12  H   -0.081551
    13  H   -0.206808
    14  H   -0.053327
    15  H   -0.157338
    16  H   -0.136990
    17  H   -0.182413
    18  H   -0.148085
 Sum of Mulliken charges =  -0.00000

 Dipole moment (field-independent basis, Debye):
    X=             -0.4508    Y=              0.1025    Z=              0.1128  Tot=              0.4759

 Test job not archived.
 1\1\GINC-SE231\SP\RHF\Aug-CC-pVDZ\C6H12\OHZDE\05-Apr-2025\0\\#t hf aug
 -cc-pvdz iop(5/13=1,5/36=2,99/5=2) pseudo=read geom=check guess=(read,
 tcheck) scf=(maxcycle=1)\\title\\0,1\C,0,3.083882,-0.164653,-0.435306\
 C,0,2.038689,-0.211887,0.38163\C,0,-3.012649,-0.378385,-0.169663\C,0,0
 .775189,0.57868,0.225667\C,0,-1.771338,0.49984,-0.023071\C,0,-0.474243
 ,-0.302353,0.082056\H,0,3.964976,-0.769042,-0.266002\H,0,3.09613,0.483
 87,-1.303601\H,0,2.074756,-0.880467,1.238236\H,0,-2.952804,-0.999751,-
 1.065528\H,0,-3.919711,0.22303,-0.24399\H,0,-3.127075,-1.046179,0.6866

 Normal termination of Gaussian 16 at Sat Apr  5 22:12:56 2025.
