 Gaussian 16, Revision C.01,

 ----------------------------------------------------------------------
 #t hf aug-cc-pvdz symm=none int=(grid=ultrafine) guess=(read,tcheck) s
 table=(opt,rrhf)
 ----------------------------------------------------------------------
 -----
 title
 -----
 Symbolic Z-matrix:
 Charge =  0 Multiplicity = 1

 SCF Done:  E(RHF) =  -310.260714444     A.U. after   12 cycles

 1\1\GINC-SE226\Stability\RHF\Aug-CC-pVDZ\C6H14O1\OHZDE\05-Apr-2025\0\\
 #t hf aug-cc-pvdz symm=none int=(grid=ultrafine) guess=(read,tcheck) s
 table=(opt,rrhf)\\title\\0,1\C,0,3.803979,-0.333546,-0.007335\C,0,2.52
 3952,0.499934,0.021358\C,0,1.251148,-0.346744,-0.014028\C,0,-0.035517,
 0.479205,0.013309\C,0,-1.306448,-0.371112,-0.02505\C,0,-2.580107,0.464
 187,0.009234\O,0,-3.7705,-0.317449,-0.083397\H,0,4.692588,0.298478,0.0
 20787\H,0,3.852231,-1.011503,0.847324\H,0,3.858181,-0.941543,-0.912719
 \H,0,2.519811,1.190707,-0.827105\H,0,2.515487,1.124471,0.919783\H,0,1.

 Normal termination of Gaussian 16 at Sat Apr  5 22:13:45 2025.
 Gaussian 16:  ES64L-G16RevC.01  3-Jul-2019

 ----------------------------------------------------------------------
 #t hf aug-cc-pvdz iop(5/13=1,5/36=2,99/5=2) pseudo=read geom=check gue
 ss=(read,tcheck) scf=(maxcycle=1)
 ----------------------------------------------------------------------
 -----
 title
 -----
 Structure from the checkpoint file:  "1-hexanol.chk"
 Charge =  0 Multiplicity = 1

                         Standard orientation:
 ---------------------------------------------------------------------
 Center     Atomic      Atomic             Coordinates (Angstroms)
 Number     Number       Type             X           Y           Z
 ---------------------------------------------------------------------
      1          6           0        3.803979   -0.333546   -0.007335
      2          6           0        2.523952    0.499934    0.021358
      3          6           0        1.251148   -0.346744   -0.014028
      4          6           0       -0.035517    0.479205    0.013309
      5          6           0       -1.306448   -0.371112   -0.025050
      6          6           0       -2.580107    0.464187    0.009234
      7          8           0       -3.770500   -0.317449   -0.083397
      8          1           0        4.692588    0.298478    0.020787
      9          1           0        3.852231   -1.011503    0.847324
     10          1           0        3.858181   -0.941543   -0.912719
     11          1           0        2.519811    1.190707   -0.827105
     12          1           0        2.515487    1.124471    0.919783
     13          1           0        1.255049   -1.037842    0.835498
     14          1           0        1.259420   -0.972533   -0.912499
     15          1           0       -0.037623    1.169441   -0.836563
     16          1           0       -0.042076    1.104927    0.911889
     17          1           0       -1.308490   -1.061289    0.826320
     18          1           0       -1.317911   -0.988628   -0.926931
     19          1           0       -2.600079    1.086487    0.912165
     20          1           0       -2.612653    1.137348   -0.848433
     21          1           0       -3.811971   -0.910475    0.672738
 ---------------------------------------------------------------------

 SCF Done:  E(RHF) =  -310.360557428     A.U. after    2 cycles

 The electronic state is 1-A.
 Alpha  occ. eigenvalues --  -20.56747 -11.28201 -11.23075 -11.22931 -11.22812
 Alpha  occ. eigenvalues --  -11.22734 -11.22240  -1.31455  -1.08080  -1.03046
 Alpha  occ. eigenvalues --   -0.95456  -0.87151  -0.81242  -0.79265  -0.69838
 Alpha  occ. eigenvalues --   -0.65651  -0.62606  -0.61223  -0.59431  -0.57750
 Alpha  occ. eigenvalues --   -0.55253  -0.53773  -0.50708  -0.49755  -0.48398
 Alpha  occ. eigenvalues --   -0.47042  -0.46681  -0.46610  -0.43799
 Alpha virt. eigenvalues --    0.03425   0.03907   0.04282   0.04592   0.05628
 Alpha virt. eigenvalues --    0.06180   0.06466   0.06757   0.07967   0.08483
 Alpha virt. eigenvalues --    0.08945   0.09637   0.10445   0.10939   0.12038

 Mulliken charges:
               1
     1  C    0.572169
     2  C    0.351055
     3  C   -0.005500
     4  C    0.109425
     5  C    0.240558
     6  C    1.116817
     7  O   -0.575433
     8  H   -0.068946
     9  H   -0.090860
    10  H   -0.091221
    11  H   -0.155608
    12  H   -0.156934
    13  H   -0.193250
    14  H   -0.190637
    15  H   -0.176195
    16  H   -0.175868
    17  H   -0.177749
    18  H   -0.109675
    19  H   -0.149602
    20  H   -0.210371
    21  H    0.137823
 Sum of Mulliken charges =  -0.00000

 Dipole moment (field-independent basis, Debye):
    X=              1.5857    Y=             -0.0542    Z=              1.2501  Tot=              2.0199

 Test job not archived.
 1\1\GINC-SE226\SP\RHF\Aug-CC-pVDZ\C6H14O1\OHZDE\05-Apr-2025\0\\#t hf a
 ug-cc-pvdz iop(5/13=1,5/36=2,99/5=2) pseudo=read geom=check guess=(rea
 d,tcheck) scf=(maxcycle=1)\\title\\0,1\C,0,3.803979,-0.333546,-0.00733
 5\C,0,2.523952,0.499934,0.021358\C,0,1.251148,-0.346744,-0.014028\C,0,
 -0.035517,0.479205,0.013309\C,0,-1.306448,-0.371112,-0.02505\C,0,-2.58
 0107,0.464187,0.009234\O,0,-3.7705,-0.317449,-0.083397\H,0,4.692588,0.
 298478,0.020787\H,0,3.852231,-1.011503,0.847324\H,0,3.858181,-0.941543
 ,-0.912719\H,0,2.519811,1.190707,-0.827105\H,0,2.515487,1.124471,0.919

 Normal termination of Gaussian 16 at Sat Apr  5 22:13:55 2025.
