 Gaussian 16, Revision C.01,

 ----------------------------------------------------------------------
 #t hf aug-cc-pvdz symm=none int=(grid=ultrafine) guess=(read,tcheck) s
 table=(opt,rrhf)
 ----------------------------------------------------------------------
 -----
 title
 -----
 Symbolic Z-matrix:
 Charge =  0 Multiplicity = 1

 SCF Done:  E(RHF) =  -349.299525550     A.U. after   12 cycles

 1\1\GINC-SE115\Stability\RHF\Aug-CC-pVDZ\C7H16O1\OHZDE\05-Apr-2025\0\\
 #t hf aug-cc-pvdz symm=none int=(grid=ultrafine) guess=(read,tcheck) s
 table=(opt,rrhf)\\title\\0,1\C,0,4.455953,0.270233,0.013128\C,0,3.1564
 86,-0.532657,-0.01481\C,0,1.903604,0.343655,0.01125\C,0,0.597863,-0.45
 1106,-0.015679\C,0,-0.653922,0.427229,0.00904\C,0,-1.958782,-0.3703,-0
 .0225\C,0,-3.196862,0.516964,0.008447\O,0,-4.418615,-0.215524,-0.07787
 3\H,0,4.523173,0.941403,-0.845601\H,0,5.329459,-0.382837,-0.007953\H,0
 ,4.521716,0.882668,0.914818\H,0,3.133472,-1.218292,0.837586\H,0,3.1361

 Normal termination of Gaussian 16 at Sat Apr  5 22:14:04 2025.
 Gaussian 16:  ES64L-G16RevC.01  3-Jul-2019

 ----------------------------------------------------------------------
 #t hf aug-cc-pvdz iop(5/13=1,5/36=2,99/5=2) pseudo=read geom=check gue
 ss=(read,tcheck) scf=(maxcycle=1)
 ----------------------------------------------------------------------
 -----
 title
 -----
 Structure from the checkpoint file:  "1-heptanol.chk"
 Charge =  0 Multiplicity = 1

                         Standard orientation:
 ---------------------------------------------------------------------
 Center     Atomic      Atomic             Coordinates (Angstroms)
 Number     Number       Type             X           Y           Z
 ---------------------------------------------------------------------
      1          6           0        4.455953    0.270233    0.013128
      2          6           0        3.156486   -0.532657   -0.014810
      3          6           0        1.903604    0.343655    0.011250
      4          6           0        0.597863   -0.451106   -0.015679
      5          6           0       -0.653922    0.427229    0.009040
      6          6           0       -1.958782   -0.370300   -0.022500
      7          6           0       -3.196862    0.516964    0.008447
      8          8           0       -4.418615   -0.215524   -0.077873
      9          1           0        4.523173    0.941403   -0.845601
     10          1           0        5.329459   -0.382837   -0.007953
     11          1           0        4.521716    0.882668    0.914818
     12          1           0        3.133472   -1.218292    0.837586
     13          1           0        3.136119   -1.162088   -0.909563
     14          1           0        1.926908    1.029567   -0.842248
     15          1           0        1.924665    0.974859    0.906112
     16          1           0        0.577344   -1.082187   -0.910093
     17          1           0        0.574572   -1.136132    0.838283
     18          1           0       -0.629327    1.112199   -0.844708
     19          1           0       -0.633266    1.057787    0.903988
     20          1           0       -1.987895   -1.054978    0.832841
     21          1           0       -1.997124   -0.992014   -0.920763
     22          1           0       -3.202967    1.185677   -0.853276
     23          1           0       -3.189897    1.145038    0.907556
     24          1           0       -4.484069   -0.800583    0.682753
 ---------------------------------------------------------------------

 SCF Done:  E(RHF) =  -349.411353179     A.U. after    2 cycles

 The electronic state is 1-A.
 Alpha  occ. eigenvalues --  -20.56738 -11.28191 -11.23059 -11.22914 -11.22732
 Alpha  occ. eigenvalues --  -11.22682 -11.22526 -11.22149  -1.31445  -1.08397
 Alpha  occ. eigenvalues --   -1.04546  -0.98487  -0.91098  -0.84277  -0.80082
 Alpha  occ. eigenvalues --   -0.79050  -0.69829  -0.65944  -0.63215  -0.61510
 Alpha  occ. eigenvalues --   -0.60225  -0.58321  -0.56708  -0.55153  -0.52623
 Alpha  occ. eigenvalues --   -0.51523  -0.49583  -0.48444  -0.47332  -0.46604
 Alpha  occ. eigenvalues --   -0.46486  -0.46395  -0.43500
 Alpha virt. eigenvalues --    0.03434   0.03756   0.04189   0.04488   0.05391
 Alpha virt. eigenvalues --    0.05702   0.06142   0.06532   0.07662   0.07898
 Alpha virt. eigenvalues --    0.08277   0.08646   0.10294   0.10603   0.10840

 Mulliken charges:
               1
     1  C    0.631043
     2  C    0.426896
     3  C    0.095208
     4  C   -0.015373
     5  C    0.190165
     6  C    0.320056
     7  C    1.198793
     8  O   -0.586597
     9  H   -0.094204
    10  H   -0.070035
    11  H   -0.093875
    12  H   -0.162546
    13  H   -0.163447
    14  H   -0.192643
    15  H   -0.191995
    16  H   -0.198809
    17  H   -0.202974
    18  H   -0.177520
    19  H   -0.177513
    20  H   -0.188372
    21  H   -0.118048
    22  H   -0.214003
    23  H   -0.154129
    24  H    0.139923
 Sum of Mulliken charges =   0.00000

 Dipole moment (field-independent basis, Debye):
    X=              1.5917    Y=             -0.1914    Z=              1.2457  Tot=              2.0303

 Test job not archived.
 1\1\GINC-SE115\SP\RHF\Aug-CC-pVDZ\C7H16O1\OHZDE\05-Apr-2025\0\\#t hf a
 ug-cc-pvdz iop(5/13=1,5/36=2,99/5=2) pseudo=read geom=check guess=(rea
 d,tcheck) scf=(maxcycle=1)\\title\\0,1\C,0,4.455953,0.270233,0.013128\
 C,0,3.156486,-0.532657,-0.01481\C,0,1.903604,0.343655,0.01125\C,0,0.59
 7863,-0.451106,-0.015679\C,0,-0.653922,0.427229,0.00904\C,0,-1.958782,
 -0.3703,-0.0225\C,0,-3.196862,0.516964,0.008447\O,0,-4.418615,-0.21552
 4,-0.077873\H,0,4.523173,0.941403,-0.845601\H,0,5.329459,-0.382837,-0.
 007953\H,0,4.521716,0.882668,0.914818\H,0,3.133472,-1.218292,0.837586\

 Normal termination of Gaussian 16 at Sat Apr  5 22:14:48 2025.
