 Gaussian 16, Revision C.01,

 ----------------------------------------------------------------------
 #t hf aug-cc-pvdz symm=none int=(grid=ultrafine) guess=(read,tcheck) s
 table=(opt,rrhf)
 ----------------------------------------------------------------------
 -----
 title
 -----
 Symbolic Z-matrix:
 Charge =  0 Multiplicity = 1

 SCF Done:  E(RHF) =  -232.995144955     A.U. after   13 cycles
 Normal termination of Gaussian 16 at Sat Apr  5 22:12:29 2025.
 Gaussian 16:  ES64L-G16RevC.01  3-Jul-2019

 ----------------------------------------------------------------------
 #t hf aug-cc-pvdz iop(5/13=1,5/36=2,99/5=2) pseudo=read geom=check gue
 ss=(read,tcheck) scf=(maxcycle=1)
 ----------------------------------------------------------------------
 -----
 title
 -----
 Structure from the checkpoint file:  "1-hexyne.chk"
 Charge =  0 Multiplicity = 1

                         Standard orientation:
 ---------------------------------------------------------------------
 Center     Atomic      Atomic             Coordinates (Angstroms)
 Number     Number       Type             X           Y           Z
 ---------------------------------------------------------------------
      1          6           0       -2.312498   -2.277578    0.000000
      2          6           0       -1.228339   -1.763422    0.000000
      3          6           0        1.311092    2.604422    0.000000
      4          6           0        0.077794   -1.116147    0.000000
      5          6           0        1.378741    1.078321    0.000000
      6          6           0        0.000000    0.420250    0.000000
      7          1           0       -3.268709   -2.737512    0.000000
      8          1           0        2.308010    3.046780    0.000000
      9          1           0        0.783276    2.975425    0.880761
     10          1           0        0.783276    2.975425   -0.880761
     11          1           0        0.642365   -1.452734    0.874593
     12          1           0        0.642365   -1.452734   -0.874593
     13          1           0        1.941609    0.738131   -0.874478
     14          1           0        1.941609    0.738131    0.874478
     15          1           0       -0.567271    0.747005    0.874792
     16          1           0       -0.567271    0.747005   -0.874792
 ---------------------------------------------------------------------

 SCF Done:  E(RHF) =  -233.071038080     A.U. after    2 cycles

 The electronic state is 1-A'.
 Alpha  occ. eigenvalues --  -11.25884 -11.24256 -11.23664 -11.23340 -11.22887
 Alpha  occ. eigenvalues --  -11.22569  -1.08871  -1.03356  -0.97449  -0.88365
 Alpha  occ. eigenvalues --   -0.80336  -0.71770  -0.65730  -0.63599  -0.59829
 Alpha  occ. eigenvalues --   -0.59337  -0.54152  -0.51780  -0.49512  -0.48120
 Alpha  occ. eigenvalues --   -0.47519  -0.38560  -0.38474
 Alpha virt. eigenvalues --    0.03539   0.03990   0.04638   0.04886   0.05440
 Alpha virt. eigenvalues --    0.06863   0.07132   0.07562   0.08339   0.09988
 Alpha virt. eigenvalues --    0.10735   0.11838   0.12451   0.12956   0.13781

 Mulliken charges:
               1
     1  C    0.918937
     2  C   -0.394766
     3  C    0.474827
     4  C    0.072598
     5  C    0.285110
     6  C    0.102040
     7  H   -0.545960
     8  H   -0.061712
     9  H   -0.070614
    10  H   -0.070614
    11  H   -0.015758
    12  H   -0.015758
    13  H   -0.154608
    14  H   -0.154608
    15  H   -0.184556
    16  H   -0.184556
 Sum of Mulliken charges =  -0.00000

 Dipole moment (field-independent basis, Debye):
    X=              0.7560    Y=              0.5782    Z=              0.0000  Tot=              0.9517

 Test job not archived.
 1\1\GINC-SE009\SP\RHF\Aug-CC-pVDZ\C6H10\OHZDE\05-Apr-2025\0\\#t hf aug
 -cc-pvdz iop(5/13=1,5/36=2,99/5=2) pseudo=read geom=check guess=(read,
 tcheck) scf=(maxcycle=1)\\title\\0,1\C,0,-2.312498,-2.277578,0.\C,0,-1
 .228339,-1.763422,0.\C,0,1.311092,2.604422,0.\C,0,0.077794,-1.116147,0
 .\C,0,1.378741,1.078321,0.\C,0,0.,0.42025,0.\H,0,-3.268709,-2.737512,0
 .\H,0,2.30801,3.04678,0.\H,0,0.783276,2.975425,0.880761\H,0,0.783276,2
 .975425,-0.880761\H,0,0.642365,-1.452734,0.874593\H,0,0.642365,-1.4527
 34,-0.874593\H,0,1.941609,0.738131,-0.874478\H,0,1.941609,0.738131,0.8

 Normal termination of Gaussian 16 at Sat Apr  5 22:12:52 2025.
