 Gaussian 16, Revision C.01,

 ----------------------------------------------------------------------
 #t hf aug-cc-pvdz symm=none int=(grid=ultrafine) guess=(read,tcheck) s
 table=(opt,rrhf)
 ----------------------------------------------------------------------
 -----
 title
 -----
 Symbolic Z-matrix:
 Charge =  0 Multiplicity = 1

 SCF Done:  E(RHF) =  -329.466427186     A.U. after   12 cycles

 1\1\GINC-SE053\Stability\RHF\Aug-CC-pVDZ\C7H17N1\OHZDE\05-Apr-2025\0\\
 #t hf aug-cc-pvdz symm=none int=(grid=ultrafine) guess=(read,tcheck) s
 table=(opt,rrhf)\\title\\0,1\C,0,2.858294,3.448276,0.\C,0,1.443396,2.8
 72081,0.\C,0,1.412286,1.343354,0.\C,0,0.,0.757661,0.\C,0,-0.030717,-0.
 771281,0.\C,0,-1.443246,-1.357334,0.\C,0,-1.465482,-2.889128,0.\N,0,-2
 .786976,-3.51851,0.\H,0,3.416468,3.123539,0.880618\H,0,3.416468,3.1235
 39,-0.880618\H,0,2.845446,4.539098,0.\H,0,0.899109,3.242456,0.874013\H
 ,0,0.899109,3.242456,-0.874013\H,0,1.957625,0.972748,0.874556\H,0,1.95

 Normal termination of Gaussian 16 at Sat Apr  5 22:14:36 2025.
 Gaussian 16:  ES64L-G16RevC.01  3-Jul-2019

 ----------------------------------------------------------------------
 #t hf aug-cc-pvdz iop(5/13=1,5/36=2,99/5=2) pseudo=read geom=check gue
 ss=(read,tcheck) scf=(maxcycle=1)
 ----------------------------------------------------------------------
 -----
 title
 -----
 Structure from the checkpoint file:  "1-heptanamine.chk"
 Charge =  0 Multiplicity = 1

                         Standard orientation:
 ---------------------------------------------------------------------
 Center     Atomic      Atomic             Coordinates (Angstroms)
 Number     Number       Type             X           Y           Z
 ---------------------------------------------------------------------
      1          6           0        2.858294    3.448276    0.000000
      2          6           0        1.443396    2.872081    0.000000
      3          6           0        1.412286    1.343354    0.000000
      4          6           0        0.000000    0.757661    0.000000
      5          6           0       -0.030717   -0.771281    0.000000
      6          6           0       -1.443246   -1.357334    0.000000
      7          6           0       -1.465482   -2.889128    0.000000
      8          7           0       -2.786976   -3.518510    0.000000
      9          1           0        3.416468    3.123539    0.880618
     10          1           0        3.416468    3.123539   -0.880618
     11          1           0        2.845446    4.539098    0.000000
     12          1           0        0.899109    3.242456    0.874013
     13          1           0        0.899109    3.242456   -0.874013
     14          1           0        1.957625    0.972748    0.874556
     15          1           0        1.957625    0.972748   -0.874556
     16          1           0       -0.544592    1.128853    0.874555
     17          1           0       -0.544592    1.128853   -0.874555
     18          1           0        0.514279   -1.142144   -0.874488
     19          1           0        0.514279   -1.142144    0.874488
     20          1           0       -1.990914   -0.993618    0.876239
     21          1           0       -1.990914   -0.993618   -0.876239
     22          1           0       -0.922544   -3.259922   -0.873380
     23          1           0       -0.922544   -3.259922    0.873380
     24          1           0       -3.321330   -3.237562   -0.813570
     25          1           0       -3.321330   -3.237562    0.813570
 ---------------------------------------------------------------------

 SCF Done:  E(RHF) =  -329.570850300     A.U. after    2 cycles

 The electronic state is 1-A'.
 Alpha  occ. eigenvalues --  -15.60080 -11.25323 -11.22583 -11.22537 -11.22455
 Alpha  occ. eigenvalues --  -11.22430 -11.22322 -11.22035  -1.14463  -1.07796
 Alpha  occ. eigenvalues --   -1.03535  -0.97232  -0.89768  -0.82975  -0.79379
 Alpha  occ. eigenvalues --   -0.78804  -0.67722  -0.65154  -0.61390  -0.59796
 Alpha  occ. eigenvalues --   -0.59555  -0.56607  -0.56058  -0.54239  -0.51867
 Alpha  occ. eigenvalues --   -0.51391  -0.48343  -0.48221  -0.46643  -0.46282
 Alpha  occ. eigenvalues --   -0.46186  -0.45581  -0.37592
 Alpha virt. eigenvalues --    0.03491   0.03764   0.04259   0.04264   0.05247
 Alpha virt. eigenvalues --    0.05579   0.05744   0.06623   0.07567   0.07847
 Alpha virt. eigenvalues --    0.07996   0.08421   0.10443   0.10535   0.10589

 Mulliken charges:
               1
     1  C    0.637286
     2  C    0.436760
     3  C    0.085724
     4  C   -0.007359
     5  C    0.158854
     6  C    0.367666
     7  C    1.136208
     8  N   -0.416948
     9  H   -0.093884
    10  H   -0.093884
    11  H   -0.070293
    12  H   -0.164217
    13  H   -0.164217
    14  H   -0.196435
    15  H   -0.196435
    16  H   -0.194405
    17  H   -0.194405
    18  H   -0.179044
    19  H   -0.179044
    20  H   -0.158764
    21  H   -0.158764
    22  H   -0.181191
    23  H   -0.181191
    24  H    0.003992
    25  H    0.003992
 Sum of Mulliken charges =  -0.00000

 Dipole moment (field-independent basis, Debye):
    X=             -0.1178    Y=              1.4634    Z=             -0.0000  Tot=              1.4681

 Test job not archived.
 1\1\GINC-SE053\SP\RHF\Aug-CC-pVDZ\C7H17N1\OHZDE\05-Apr-2025\0\\#t hf a
 ug-cc-pvdz iop(5/13=1,5/36=2,99/5=2) pseudo=read geom=check guess=(rea
 d,tcheck) scf=(maxcycle=1)\\title\\0,1\C,0,2.858294,3.448276,0.\C,0,1.
 443396,2.872081,0.\C,0,1.412286,1.343354,0.\C,0,0.,0.757661,0.\C,0,-0.
 030717,-0.771281,0.\C,0,-1.443246,-1.357334,0.\C,0,-1.465482,-2.889128
 ,0.\N,0,-2.786976,-3.51851,0.\H,0,3.416468,3.123539,0.880618\H,0,3.416
 468,3.123539,-0.880618\H,0,2.845446,4.539098,0.\H,0,0.899109,3.242456,
 0.874013\H,0,0.899109,3.242456,-0.874013\H,0,1.957625,0.972748,0.87455

 Normal termination of Gaussian 16 at Sat Apr  5 22:15:52 2025.
