 Gaussian 16, Revision C.01,

 ----------------------------------------------------------------------
 #t hf aug-cc-pvdz symm=none int=(grid=ultrafine) guess=(read,tcheck) s
 table=(opt,rrhf)
 ----------------------------------------------------------------------
 -----
 title
 -----
 Symbolic Z-matrix:
 Charge =  0 Multiplicity = 1

 SCF Done:  E(RHF) =  -272.033974268     A.U. after   13 cycles
 Normal termination of Gaussian 16 at Sat Apr  5 22:12:54 2025.
 Gaussian 16:  ES64L-G16RevC.01  3-Jul-2019

 ----------------------------------------------------------------------
 #t hf aug-cc-pvdz iop(5/13=1,5/36=2,99/5=2) pseudo=read geom=check gue
 ss=(read,tcheck) scf=(maxcycle=1)
 ----------------------------------------------------------------------
 -----
 title
 -----
 Structure from the checkpoint file:  "1-heptyne.chk"
 Charge =  0 Multiplicity = 1

                         Standard orientation:
 ---------------------------------------------------------------------
 Center     Atomic      Atomic             Coordinates (Angstroms)
 Number     Number       Type             X           Y           Z
 ---------------------------------------------------------------------
      1          6           0        2.257879    3.177876    0.000000
      2          6           0        1.939719    2.020940    0.000000
      3          6           0       -2.330524   -2.718125    0.000000
      4          6           0        1.527217    0.622766    0.000000
      5          6           0       -1.925506   -1.245234    0.000000
      6          6           0        0.000000    0.434858    0.000000
      7          6           0       -0.410473   -1.036234    0.000000
      8          1           0        2.546918    4.198732    0.000000
      9          1           0       -3.415229   -2.832921    0.000000
     10          1           0       -1.942770   -3.234004    0.880832
     11          1           0       -1.942770   -3.234004   -0.880832
     12          1           0        1.956087    0.124043   -0.874253
     13          1           0        1.956087    0.124043    0.874253
     14          1           0       -2.356942   -0.748038   -0.873782
     15          1           0       -2.356942   -0.748038    0.873782
     16          1           0       -0.418718    0.938863    0.874266
     17          1           0       -0.418718    0.938863   -0.874266
     18          1           0        0.021563   -1.534311   -0.874638
     19          1           0        0.021563   -1.534311    0.874638
 ---------------------------------------------------------------------

 SCF Done:  E(RHF) =  -272.121850395     A.U. after    2 cycles

 The electronic state is 1-A'.
 Alpha  occ. eigenvalues --  -11.25865 -11.24240 -11.23640 -11.23076 -11.22984
 Alpha  occ. eigenvalues --  -11.22868 -11.22368  -1.09134  -1.04827  -0.99568
 Alpha  occ. eigenvalues --   -0.93130  -0.84055  -0.79610  -0.71737  -0.66167
 Alpha  occ. eigenvalues --   -0.63895  -0.61392  -0.58035  -0.57595  -0.54905
 Alpha  occ. eigenvalues --   -0.51556  -0.49324  -0.47705  -0.47277  -0.46935
 Alpha  occ. eigenvalues --   -0.38543  -0.38438
 Alpha virt. eigenvalues --    0.03528   0.03921   0.04366   0.04700   0.05254
 Alpha virt. eigenvalues --    0.06457   0.06698   0.07028   0.07869   0.09368
 Alpha virt. eigenvalues --    0.09499   0.09999   0.10561   0.12007   0.12568

 Mulliken charges:
               1
     1  C    0.892752
     2  C   -0.331524
     3  C    0.544444
     4  C    0.167864
     5  C    0.311481
     6  C    0.164600
     7  C    0.136635
     8  H   -0.552845
     9  H   -0.066219
    10  H   -0.090596
    11  H   -0.090596
    12  H   -0.019366
    13  H   -0.019366
    14  H   -0.147211
    15  H   -0.147211
    16  H   -0.191930
    17  H   -0.191930
    18  H   -0.184490
    19  H   -0.184490
 Sum of Mulliken charges =  -0.00000

 Dipole moment (field-independent basis, Debye):
    X=             -0.5095    Y=             -0.8034    Z=             -0.0000  Tot=              0.9513

 Test job not archived.
 1\1\GINC-SE165\SP\RHF\Aug-CC-pVDZ\C7H12\OHZDE\05-Apr-2025\0\\#t hf aug
 -cc-pvdz iop(5/13=1,5/36=2,99/5=2) pseudo=read geom=check guess=(read,
 tcheck) scf=(maxcycle=1)\\title\\0,1\C,0,2.257879,3.177876,0.\C,0,1.93
 9719,2.02094,0.\C,0,-2.330524,-2.718125,0.\C,0,1.527217,0.622766,0.\C,
 0,-1.925506,-1.245234,0.\C,0,0.,0.434858,0.\C,0,-0.410473,-1.036234,0.
 \H,0,2.546918,4.198732,0.\H,0,-3.415229,-2.832921,0.\H,0,-1.94277,-3.2
 34004,0.880832\H,0,-1.94277,-3.234004,-0.880832\H,0,1.956087,0.124043,
 -0.874253\H,0,1.956087,0.124043,0.874253\H,0,-2.356942,-0.748038,-0.87

 Normal termination of Gaussian 16 at Sat Apr  5 22:13:01 2025.
