 Gaussian 16, Revision C.01,

 ----------------------------------------------------------------------
 #t hf aug-cc-pvdz symm=none int=(grid=ultrafine) guess=(read,tcheck) s
 table=(opt,rrhf)
 ----------------------------------------------------------------------
 -----
 title
 -----
 Symbolic Z-matrix:
 Charge =  0 Multiplicity = 1

 SCF Done:  E(RHF) =  -273.241960795     A.U. after   13 cycles
 Normal termination of Gaussian 16 at Sat Apr  5 22:12:58 2025.
 Gaussian 16:  ES64L-G16RevC.01  3-Jul-2019

 ----------------------------------------------------------------------
 #t hf aug-cc-pvdz iop(5/13=1,5/36=2,99/5=2) pseudo=read geom=check gue
 ss=(read,tcheck) scf=(maxcycle=1)
 ----------------------------------------------------------------------
 -----
 title
 -----
 Structure from the checkpoint file:  "1-heptene.chk"
 Charge =  0 Multiplicity = 1

                         Standard orientation:
 ---------------------------------------------------------------------
 Center     Atomic      Atomic             Coordinates (Angstroms)
 Number     Number       Type             X           Y           Z
 ---------------------------------------------------------------------
      1          6           0       -3.718906    0.008129   -0.494379
      2          6           0       -2.699428    0.209382    0.331599
      3          6           0        3.687893   -0.207825   -0.120495
      4          6           0       -1.396675   -0.530695    0.303389
      5          6           0        2.358809    0.545407   -0.139559
      6          6           0       -0.186173    0.386338    0.074430
      7          6           0        1.148183   -0.358947    0.093708
      8          1           0       -4.631597    0.584270   -0.421349
      9          1           0       -3.677416   -0.743766   -1.273896
     10          1           0       -2.790163    0.977233    1.096030
     11          1           0        3.716728   -0.976298   -0.895791
     12          1           0        3.846764   -0.703368    0.839542
     13          1           0        4.530129    0.464536   -0.289388
     14          1           0       -1.260508   -1.052629    1.257535
     15          1           0       -1.428811   -1.300599   -0.471834
     16          1           0        2.244636    1.058481   -1.099103
     17          1           0        2.373926    1.330018    0.622906
     18          1           0       -0.176694    1.167721    0.841095
     19          1           0       -0.305655    0.900978   -0.883282
     20          1           0        1.134469   -1.144791   -0.669046
     21          1           0        1.261978   -0.872523    1.054419
 ---------------------------------------------------------------------

 SCF Done:  E(RHF) =  -273.329763387     A.U. after    2 cycles

 The electronic state is 1-A.
 Alpha  occ. eigenvalues --  -11.23987 -11.23184 -11.22724 -11.22689 -11.22598
 Alpha  occ. eigenvalues --  -11.22464 -11.22072  -1.08585  -1.05029  -0.99251
 Alpha  occ. eigenvalues --   -0.91634  -0.83030  -0.78985  -0.75555  -0.65894
 Alpha  occ. eigenvalues --   -0.63375  -0.60662  -0.59041  -0.57010  -0.56003
 Alpha  occ. eigenvalues --   -0.52702  -0.51172  -0.49522  -0.47965  -0.46717
 Alpha  occ. eigenvalues --   -0.46390  -0.45556  -0.36074
 Alpha virt. eigenvalues --    0.03601   0.04021   0.04400   0.04614   0.05553
 Alpha virt. eigenvalues --    0.05878   0.06562   0.06802   0.07646   0.08275
 Alpha virt. eigenvalues --    0.09229   0.09434   0.09652   0.11219   0.11671

 Mulliken charges:
               1
     1  C    0.497931
     2  C    0.945725
     3  C    0.552236
     4  C    0.391886
     5  C    0.326846
     6  C   -0.180809
     7  C    0.080143
     8  H   -0.320887
     9  H   -0.307602
    10  H   -0.470452
    11  H   -0.089566
    12  H   -0.093263
    13  H   -0.065701
    14  H   -0.055297
    15  H   -0.199360
    16  H   -0.151945
    17  H   -0.152440
    18  H   -0.185496
    19  H   -0.151622
    20  H   -0.201254
    21  H   -0.169071
 Sum of Mulliken charges =   0.00000

 Dipole moment (field-independent basis, Debye):
    X=              0.4561    Y=              0.0158    Z=              0.1209  Tot=              0.4721

 Test job not archived.
 1\1\GINC-SE129\SP\RHF\Aug-CC-pVDZ\C7H14\OHZDE\05-Apr-2025\0\\#t hf aug
 -cc-pvdz iop(5/13=1,5/36=2,99/5=2) pseudo=read geom=check guess=(read,
 tcheck) scf=(maxcycle=1)\\title\\0,1\C,0,-3.718906,0.008129,-0.494379\
 C,0,-2.699428,0.209382,0.331599\C,0,3.687893,-0.207825,-0.120495\C,0,-
 1.396675,-0.530695,0.303389\C,0,2.358809,0.545407,-0.139559\C,0,-0.186
 173,0.386338,0.07443\C,0,1.148183,-0.358947,0.093708\H,0,-4.631597,0.5
 8427,-0.421349\H,0,-3.677416,-0.743766,-1.273896\H,0,-2.790163,0.97723
 3,1.09603\H,0,3.716728,-0.976298,-0.895791\H,0,3.846764,-0.703368,0.83

 Normal termination of Gaussian 16 at Sat Apr  5 22:13:54 2025.
