 Gaussian 16, Revision C.01,

 ----------------------------------------------------------------------
 #t hf aug-cc-pvdz symm=none int=(grid=ultrafine) guess=(read,tcheck) s
 table=(opt,rrhf)
 ----------------------------------------------------------------------
 -----
 title
 -----
 Symbolic Z-matrix:
 Charge =  0 Multiplicity = 1

 SCF Done:  E(RHF) =  -550.266324196     A.U. after   17 cycles
 Normal termination of Gaussian 16 at Sat Apr  5 22:16:50 2025.
 Gaussian 16:  ES64L-G16RevC.01  3-Jul-2019

 ----------------------------------------------------------------------
 #t hf aug-cc-pvdz iop(5/13=1,5/36=2,99/5=2) pseudo=read geom=check gue
 ss=(read,tcheck) scf=(maxcycle=1)
 ----------------------------------------------------------------------
 -----
 title
 -----
 Structure from the checkpoint file:  "1-hydroxy-3-4-dihydroquinolin-2-one.chk"
 Charge =  0 Multiplicity = 1

                         Standard orientation:
 ---------------------------------------------------------------------
 Center     Atomic      Atomic             Coordinates (Angstroms)
 Number     Number       Type             X           Y           Z
 ---------------------------------------------------------------------
      1          6           0        3.077395    0.196598   -0.111658
      2          6           0        2.666570   -1.128501   -0.161156
      3          6           0        2.129143    1.205688    0.034852
      4          6           0        1.317412   -1.453527   -0.078360
      5          6           0        0.776833    0.911753    0.133669
      6          6           0        0.382349   -0.432412    0.060180
      7          6           0       -2.008325    0.164976   -0.109593
      8          6           0       -0.286188    1.954073    0.363802
      9          6           0       -1.588515    1.593777   -0.354663
     10          7           0       -0.990799   -0.704017    0.145273
     11          8           0       -3.161157   -0.254176   -0.157240
     12          8           0       -1.361171   -2.042198    0.243835
     13          1           0        4.126728    0.446251   -0.182912
     14          1           0        3.395360   -1.919946   -0.269911
     15          1           0        2.445503    2.240189    0.082160
     16          1           0        0.987299   -2.479262   -0.120828
     17          1           0       -0.484242    2.028309    1.438806
     18          1           0        0.064034    2.934551    0.042685
     19          1           0       -1.473721    1.707651   -1.437370
     20          1           0       -2.413797    2.234873   -0.051575
     21          1           0       -2.332996   -1.968059    0.126836
 ---------------------------------------------------------------------

 SCF Done:  E(RHF) =  -550.429990241     A.U. after    2 cycles

 The electronic state is 1-A.
 Alpha  occ. eigenvalues --  -20.63033 -20.55871 -15.72678 -11.38479 -11.30776
 Alpha  occ. eigenvalues --  -11.26884 -11.26514 -11.26278 -11.25629 -11.25421
 Alpha  occ. eigenvalues --  -11.25040 -11.24751  -1.42834  -1.34222  -1.21001
 Alpha  occ. eigenvalues --   -1.13382  -1.08352  -1.02135  -1.01317  -0.90585
 Alpha  occ. eigenvalues --   -0.87931  -0.84524  -0.77986  -0.73568  -0.72082
 Alpha  occ. eigenvalues --   -0.69269  -0.66823  -0.66243  -0.63807  -0.63233
 Alpha  occ. eigenvalues --   -0.61443  -0.60515  -0.57832  -0.57100  -0.56791
 Alpha  occ. eigenvalues --   -0.53070  -0.51718  -0.50905  -0.49910  -0.46301
 Alpha  occ. eigenvalues --   -0.43464  -0.34976  -0.31300
 Alpha virt. eigenvalues --    0.02911   0.03426   0.04241   0.04625   0.05386
 Alpha virt. eigenvalues --    0.05694   0.06540   0.07816   0.07960   0.09813
 Alpha virt. eigenvalues --    0.09926   0.10420   0.11165   0.11533   0.12026

 Mulliken charges:
               1
     1  C    0.417055
     2  C    0.280724
     3  C    0.974886
     4  C    0.671079
     5  C    0.008439
     6  C    0.291703
     7  C    0.470361
     8  C    0.282929
     9  C    0.206849
    10  N   -0.598070
    11  O   -0.618678
    12  O   -0.543235
    13  H   -0.466769
    14  H   -0.459729
    15  H   -0.581816
    16  H   -0.566206
    17  H    0.031526
    18  H   -0.066568
    19  H    0.044454
    20  H    0.008168
    21  H    0.212897
 Sum of Mulliken charges =  -0.00000

 Dipole moment (field-independent basis, Debye):
    X=              2.6985    Y=              2.4930    Z=             -0.2041  Tot=              3.6795

 Test job not archived.
 1\1\GINC-SE145\SP\RHF\Aug-CC-pVDZ\C9H9N1O2\OHZDE\05-Apr-2025\0\\#t hf
 aug-cc-pvdz iop(5/13=1,5/36=2,99/5=2) pseudo=read geom=check guess=(re
 ad,tcheck) scf=(maxcycle=1)\\title\\0,1\C,0,3.077395,0.196598,-0.11165
 8\C,0,2.66657,-1.128501,-0.161156\C,0,2.129143,1.205688,0.034852\C,0,1
 .317412,-1.453527,-0.07836\C,0,0.776833,0.911753,0.133669\C,0,0.382349
 ,-0.432412,0.06018\C,0,-2.008325,0.164976,-0.109593\C,0,-0.286188,1.95
 4073,0.363802\C,0,-1.588515,1.593777,-0.354663\N,0,-0.990799,-0.704017
 ,0.145273\O,0,-3.161157,-0.254175,-0.15724\O,0,-1.361171,-2.042198,0.2

 Normal termination of Gaussian 16 at Sat Apr  5 22:17:58 2025.
