 Gaussian 16, Revision C.01,

 ----------------------------------------------------------------------
 #t hf aug-cc-pvdz symm=none int=(grid=ultrafine) guess=(read,tcheck) s
 table=(opt,rrhf)
 ----------------------------------------------------------------------
 -----
 title
 -----
 Symbolic Z-matrix:
 Charge =  0 Multiplicity = 1

 SCF Done:  E(RHF) =  -278.974878858     A.U. after   13 cycles
 Normal termination of Gaussian 16 at Sat Apr  5 22:12:56 2025.
 Gaussian 16:  ES64L-G16RevC.01  3-Jul-2019

 ----------------------------------------------------------------------
 #t hf aug-cc-pvdz iop(5/13=1,5/36=2,99/5=2) pseudo=read geom=check gue
 ss=(read,tcheck) scf=(maxcycle=1)
 ----------------------------------------------------------------------
 -----
 title
 -----
 Structure from the checkpoint file:  "1-hydroxyguanidine.chk"
 Charge =  0 Multiplicity = 1

                         Standard orientation:
 ---------------------------------------------------------------------
 Center     Atomic      Atomic             Coordinates (Angstroms)
 Number     Number       Type             X           Y           Z
 ---------------------------------------------------------------------
      1          8           0        1.787242    0.003282   -0.184204
      2          7           0        0.624265   -0.739187    0.193069
      3          7           0       -1.728663   -0.614242   -0.065776
      4          7           0       -0.477517    1.325874    0.083465
      5          6           0       -0.595184   -0.035554    0.023160
      6          1           0        2.301487    0.044235    0.629806
      7          1           0        0.630705   -1.583507   -0.364470
      8          1           0       -1.653756   -1.625649   -0.018118
      9          1           0       -1.320486    1.821828   -0.150356
     10          1           0        0.388624    1.723041   -0.237498
 ---------------------------------------------------------------------

 SCF Done:  E(RHF) =  -279.059993808     A.U. after    2 cycles

 The electronic state is 1-A.
 Alpha  occ. eigenvalues --  -20.63842 -15.70693 -15.63829 -15.58212 -11.36442
 Alpha  occ. eigenvalues --   -1.39606  -1.24725  -1.12807  -1.07651  -0.82089
 Alpha  occ. eigenvalues --   -0.75091  -0.73702  -0.68259  -0.64810  -0.62197
 Alpha  occ. eigenvalues --   -0.55776  -0.54230  -0.44109  -0.41577  -0.35765
 Alpha virt. eigenvalues --    0.03028   0.03731   0.04656   0.06218   0.07707
 Alpha virt. eigenvalues --    0.10331   0.13046   0.13827   0.14749   0.15959
 Alpha virt. eigenvalues --    0.16989   0.17635   0.18810   0.19016   0.20200

 Mulliken charges:
               1
     1  O   -0.548682
     2  N   -0.099346
     3  N   -0.354861
     4  N   -0.246993
     5  C    0.948411
     6  H    0.224414
     7  H    0.081657
     8  H   -0.039408
     9  H    0.013860
    10  H    0.020950
 Sum of Mulliken charges =  -0.00000

 Dipole moment (field-independent basis, Debye):
    X=              2.8941    Y=              0.1131    Z=             -0.0803  Tot=              2.8974

 Test job not archived.
 1\1\GINC-SE146\SP\RHF\Aug-CC-pVDZ\C1H5N3O1\OHZDE\05-Apr-2025\0\\#t hf
 aug-cc-pvdz iop(5/13=1,5/36=2,99/5=2) pseudo=read geom=check guess=(re
 ad,tcheck) scf=(maxcycle=1)\\title\\0,1\O,0,1.787242,0.003282,-0.18420
 4\N,0,0.624265,-0.739187,0.193069\N,0,-1.728663,-0.614242,-0.065776\N,
 0,-0.477517,1.325874,0.083465\C,0,-0.595184,-0.035554,0.02316\H,0,2.30
 1487,0.044235,0.629806\H,0,0.630705,-1.583507,-0.36447\H,0,-1.653756,-
 1.625649,-0.018118\H,0,-1.320486,1.821828,-0.150356\H,0,0.388624,1.723
 041,-0.237498\\Version=ES64L-G16RevC.01\State=1-A\HF=-279.0599938\RMSD

 Normal termination of Gaussian 16 at Sat Apr  5 22:12:59 2025.
