 Gaussian 16, Revision C.01,

 ----------------------------------------------------------------------
 #t hf aug-cc-pvdz symm=none int=(grid=ultrafine) guess=(read,tcheck) s
 table=(opt,rrhf)
 ----------------------------------------------------------------------
 -----
 title
 -----
 Symbolic Z-matrix:
 Charge =  0 Multiplicity = 1

 SCF Done:  E(RHF) =  -391.386119045     A.U. after   16 cycles
 Normal termination of Gaussian 16 at Sat Apr  5 22:12:19 2025.
 Gaussian 16:  ES64L-G16RevC.01  3-Jul-2019

 ----------------------------------------------------------------------
 #t hf aug-cc-pvdz iop(5/13=1,5/36=2,99/5=2) pseudo=read geom=check gue
 ss=(read,tcheck) scf=(maxcycle=1)
 ----------------------------------------------------------------------
 -----
 title
 -----
 Structure from the checkpoint file:  "1-hydroxy-1H-imidazole-2-carbonitrile.chk"
 Charge =  0 Multiplicity = 1

                         Standard orientation:
 ---------------------------------------------------------------------
 Center     Atomic      Atomic             Coordinates (Angstroms)
 Number     Number       Type             X           Y           Z
 ---------------------------------------------------------------------
      1          8           0       -0.027776    1.986911   -0.109462
      2          7           0        0.447489    0.699855    0.009592
      3          7           0        0.482610   -1.505368    0.002437
      4          7           0       -2.871050   -0.377420    0.004695
      5          6           0       -0.304395   -0.445800   -0.010178
      6          6           0        1.764045    0.350395    0.006510
      7          6           0        1.757719   -1.024291    0.007880
      8          6           0       -1.719987   -0.424794   -0.008428
      9          1           0       -0.325015    2.249084    0.774101
     10          1           0        2.543576    1.089605   -0.002664
     11          1           0        2.606018   -1.686508    0.012487
 ---------------------------------------------------------------------

 SCF Done:  E(RHF) =  -391.501084413     A.U. after    2 cycles

 The electronic state is 1-A.
 Alpha  occ. eigenvalues --  -20.68900 -15.78246 -15.66586 -15.65936 -11.36731
 Alpha  occ. eigenvalues --  -11.31338 -11.31171 -11.29076  -1.46660  -1.32706
 Alpha  occ. eigenvalues --   -1.21450  -1.14466  -1.06365  -0.89486  -0.85946
 Alpha  occ. eigenvalues --   -0.84047  -0.75126  -0.70372  -0.66193  -0.63523
 Alpha  occ. eigenvalues --   -0.62565  -0.59093  -0.56919  -0.50919  -0.49232
 Alpha  occ. eigenvalues --   -0.47013  -0.42598  -0.35200
 Alpha virt. eigenvalues --    0.02046   0.03260   0.04697   0.06569   0.07921
 Alpha virt. eigenvalues --    0.09532   0.09798   0.10529   0.11353   0.12237
 Alpha virt. eigenvalues --    0.12957   0.13276   0.13770   0.14432   0.15462

 Mulliken charges:
               1
     1  O   -0.486488
     2  N   -0.140717
     3  N   -0.572366
     4  N   -0.117763
     5  C    0.669502
     6  C    0.783209
     7  C    0.595505
     8  C   -0.412184
     9  H    0.211710
    10  H   -0.282046
    11  H   -0.248361
 Sum of Mulliken charges =  -0.00000

 Dipole moment (field-independent basis, Debye):
    X=              4.0687    Y=              3.0210    Z=              1.4879  Tot=              5.2815

 Test job not archived.
 1\1\GINC-SE013\SP\RHF\Aug-CC-pVDZ\C4H3N3O1\OHZDE\05-Apr-2025\0\\#t hf
 aug-cc-pvdz iop(5/13=1,5/36=2,99/5=2) pseudo=read geom=check guess=(re
 ad,tcheck) scf=(maxcycle=1)\\title\\0,1\O,0,-0.027776,1.986911,-0.1094
 62\N,0,0.447489,0.699855,0.009592\N,0,0.48261,-1.505368,0.002437\N,0,-
 2.87105,-0.37742,0.004695\C,0,-0.304395,-0.4458,-0.010178\C,0,1.764045
 ,0.350395,0.00651\C,0,1.757719,-1.024291,0.00788\C,0,-1.719987,-0.4247
 94,-0.008428\H,0,-0.325015,2.249084,0.774101\H,0,2.543576,1.089605,-0.
 002664\H,0,2.606018,-1.686508,0.012487\\Version=ES64L-G16RevC.01\State

 Normal termination of Gaussian 16 at Sat Apr  5 22:12:52 2025.
