 Gaussian 16, Revision C.01,

 ----------------------------------------------------------------------
 #t hf aug-cc-pvdz symm=none int=(grid=ultrafine) guess=(read,tcheck) s
 table=(opt,rrhf)
 ----------------------------------------------------------------------
 -----
 title
 -----
 Symbolic Z-matrix:
 Charge =  0 Multiplicity = 1

 SCF Done:  E(RHF) =  -227.374601981     A.U. after   16 cycles
 Normal termination of Gaussian 16 at Sat Apr  5 22:12:10 2025.
 Gaussian 16:  ES64L-G16RevC.01  3-Jul-2019

 ----------------------------------------------------------------------
 #t hf aug-cc-pvdz iop(5/13=1,5/36=2,99/5=2) pseudo=read geom=check gue
 ss=(read,tcheck) scf=(maxcycle=1)
 ----------------------------------------------------------------------
 -----
 title
 -----
 Structure from the checkpoint file:  "1-hydroxy-1-3-dibutyne.chk"
 Charge =  0 Multiplicity = 1

                         Standard orientation:
 ---------------------------------------------------------------------
 Center     Atomic      Atomic             Coordinates (Angstroms)
 Number     Number       Type             X           Y           Z
 ---------------------------------------------------------------------
      1          8           0       -2.416628   -0.098841   -0.000028
      2          6           0        0.087033   -0.011100    0.000005
      3          6           0       -1.117057   -0.002424   -0.000010
      4          6           0        1.449836    0.001422    0.000013
      5          6           0        2.655112    0.011669    0.000023
      6          1           0       -2.832487    0.773856    0.000005
      7          1           0        3.715965    0.019465    0.000027
 ---------------------------------------------------------------------

 SCF Done:  E(RHF) =  -227.450656818     A.U. after    2 cycles

 The electronic state is 1-A.
 Alpha  occ. eigenvalues --  -20.66782 -11.33520 -11.27092 -11.26380 -11.25539
 Alpha  occ. eigenvalues --   -1.42929  -1.07912  -1.01364  -0.87078  -0.81234
 Alpha  occ. eigenvalues --   -0.71090  -0.69915  -0.65771  -0.48671  -0.48125
 Alpha  occ. eigenvalues --   -0.36288  -0.35161
 Alpha virt. eigenvalues --    0.02498   0.03822   0.08518   0.09342   0.09686
 Alpha virt. eigenvalues --    0.09794   0.10181   0.10913   0.13885   0.14119
 Alpha virt. eigenvalues --    0.14607   0.15313   0.18122   0.19470   0.20662

 Mulliken charges:
               1
     1  O   -0.300247
     2  C    1.541394
     3  C   -1.432396
     4  C    0.482071
     5  C    0.169863
     6  H    0.152508
     7  H   -0.613192
 Sum of Mulliken charges =   0.00000

 Dipole moment (field-independent basis, Debye):
    X=             -1.0106    Y=              1.6316    Z=              0.0000  Tot=              1.9192

 Test job not archived.
 1\1\GINC-SE012\SP\RHF\Aug-CC-pVDZ\C4H2O1\OHZDE\05-Apr-2025\0\\#t hf au
 g-cc-pvdz iop(5/13=1,5/36=2,99/5=2) pseudo=read geom=check guess=(read
 ,tcheck) scf=(maxcycle=1)\\title\\0,1\O,0,-2.416628,-0.098841,-0.00002
 8\C,0,0.087033,-0.0111,0.000005\C,0,-1.117057,-0.002424,-0.00001\C,0,1
 .449836,0.001422,0.000013\C,0,2.655112,0.011669,0.000023\H,0,-2.832487
 ,0.773856,0.000005\H,0,3.715965,0.019465,0.000027\\Version=ES64L-G16Re
 vC.01\State=1-A\HF=-227.4506568\RMSD=1.879e-02\Dipole=-0.3975853,0.641
 9195,0.0000194\Quadrupole=6.4644449,-2.5513553,-3.9130896,-3.8391421,-

 Normal termination of Gaussian 16 at Sat Apr  5 22:12:50 2025.
