 Gaussian 16, Revision C.01,

 ----------------------------------------------------------------------
 #t hf aug-cc-pvdz symm=none int=(grid=ultrafine) guess=(read,tcheck) s
 table=(opt,rrhf)
 ----------------------------------------------------------------------
 -----
 title
 -----
 Symbolic Z-matrix:
 Charge =  0 Multiplicity = 1

 SCF Done:  E(RHF) =  -412.570770610     A.U. after   17 cycles
 Normal termination of Gaussian 16 at Sat Apr  5 22:12:26 2025.
 Gaussian 16:  ES64L-G16RevC.01  3-Jul-2019

 ----------------------------------------------------------------------
 #t hf aug-cc-pvdz iop(5/13=1,5/36=2,99/5=2) pseudo=read geom=check gue
 ss=(read,tcheck) scf=(maxcycle=1)
 ----------------------------------------------------------------------
 -----
 title
 -----
 Structure from the checkpoint file:  "1-hydroperoxy-N-nitrosodimethylamine.chk"
 Charge =  0 Multiplicity = 1

                         Standard orientation:
 ---------------------------------------------------------------------
 Center     Atomic      Atomic             Coordinates (Angstroms)
 Number     Number       Type             X           Y           Z
 ---------------------------------------------------------------------
      1          8           0        1.527751   -0.041787   -0.537922
      2          8           0        2.903656   -0.081519   -0.081598
      3          8           0       -2.550243   -0.648905   -0.302870
      4          7           0       -0.622833    0.129378    0.252599
      5          7           0       -1.430434   -0.925890    0.075880
      6          6           0        0.715920   -0.171147    0.638713
      7          6           0       -1.072890    1.482292   -0.050054
      8          1           0        1.075986    0.533849    1.388665
      9          1           0        0.743524   -1.191858    1.019263
     10          1           0       -0.254371    2.165555    0.153369
     11          1           0       -1.938584    1.731739    0.562219
     12          1           0       -1.363685    1.558623   -1.097009
     13          1           0        3.202517   -0.911506   -0.478692
 ---------------------------------------------------------------------

 SCF Done:  E(RHF) =  -412.700290656     A.U. after    2 cycles

 The electronic state is 1-A.
 Alpha  occ. eigenvalues --  -20.65764 -20.65664 -20.60826 -15.80143 -15.70394
 Alpha  occ. eigenvalues --  -11.35609 -11.28807  -1.47492  -1.44534  -1.27720
 Alpha  occ. eigenvalues --   -1.20139  -1.01250  -0.96993  -0.81301  -0.76444
 Alpha  occ. eigenvalues --   -0.74660  -0.71979  -0.70152  -0.65267  -0.64823
 Alpha  occ. eigenvalues --   -0.61984  -0.58852  -0.57863  -0.56947  -0.53666
 Alpha  occ. eigenvalues --   -0.49467  -0.43128  -0.41268
 Alpha virt. eigenvalues --    0.03067   0.03709   0.04537   0.05579   0.06634
 Alpha virt. eigenvalues --    0.07580   0.10639   0.11120   0.12186   0.13142
 Alpha virt. eigenvalues --    0.13469   0.15579   0.15889   0.16469   0.16806

 Mulliken charges:
               1
     1  O   -0.493160
     2  O   -0.274148
     3  O   -0.505041
     4  N   -0.144816
     5  N   -0.020019
     6  C    1.202650
     7  C    0.864280
     8  H   -0.217464
     9  H   -0.226105
    10  H   -0.212052
    11  H   -0.110935
    12  H   -0.075126
    13  H    0.211936
 Sum of Mulliken charges =  -0.00000

 Dipole moment (field-independent basis, Debye):
    X=              2.6550    Y=              0.7279    Z=              1.4945  Tot=              3.1324

 Test job not archived.
 1\1\GINC-SE010\SP\RHF\Aug-CC-pVDZ\C2H6N2O3\OHZDE\05-Apr-2025\0\\#t hf
 aug-cc-pvdz iop(5/13=1,5/36=2,99/5=2) pseudo=read geom=check guess=(re
 ad,tcheck) scf=(maxcycle=1)\\title\\0,1\O,0,1.527751,-0.041787,-0.5379
 22\O,0,2.903656,-0.081519,-0.081598\O,0,-2.550243,-0.648905,-0.30287\N
 ,0,-0.622833,0.129378,0.252599\N,0,-1.430434,-0.92589,0.07588\C,0,0.71
 592,-0.171147,0.638713\C,0,-1.07289,1.482292,-0.050054\H,0,1.075986,0.
 533849,1.388665\H,0,0.743524,-1.191858,1.019263\H,0,-0.25437,2.165555,
 0.153369\H,0,-1.938584,1.731739,0.562219\H,0,-1.363685,1.558623,-1.097

 Normal termination of Gaussian 16 at Sat Apr  5 22:12:52 2025.
