 Gaussian 16, Revision C.01,

 ----------------------------------------------------------------------
 #t hf aug-cc-pvdz symm=none int=(grid=ultrafine) guess=(read,tcheck) s
 table=(opt,rrhf)
 ----------------------------------------------------------------------
 -----
 title
 -----
 Symbolic Z-matrix:
 Charge =  0 Multiplicity = 1

 SCF Done:  E(RHF) =  -470.490269693     A.U. after   14 cycles
 Normal termination of Gaussian 16 at Sat Apr  5 22:12:57 2025.
 Gaussian 16:  ES64L-G16RevC.01  3-Jul-2019

 ----------------------------------------------------------------------
 #t hf aug-cc-pvdz iop(5/13=1,5/36=2,99/5=2) pseudo=read geom=check gue
 ss=(read,tcheck) scf=(maxcycle=1)
 ----------------------------------------------------------------------
 -----
 title
 -----
 Structure from the checkpoint file:  "1-isocyanato-1-1-2-ethanetriol.chk"
 Charge =  0 Multiplicity = 1

                         Standard orientation:
 ---------------------------------------------------------------------
 Center     Atomic      Atomic             Coordinates (Angstroms)
 Number     Number       Type             X           Y           Z
 ---------------------------------------------------------------------
      1          8           0       -0.307443   -0.870123   -1.164144
      2          8           0       -0.307406   -0.869880    1.164290
      3          8           0       -2.627780    0.100056    0.000029
      4          8           0        3.229423    0.053522    0.000030
      5          7           0        0.941114    0.662461   -0.000117
      6          6           0       -0.281383   -0.078177   -0.000011
      7          6           0       -1.450502    0.910137   -0.000090
      8          6           0        2.088626    0.280911   -0.000031
      9          1           0       -1.215065   -1.172916   -1.295790
     10          1           0       -1.215054   -1.172515    1.296121
     11          1           0       -3.410450    0.656719   -0.000033
     12          1           0       -1.390992    1.532924    0.893801
     13          1           0       -1.391037    1.532728   -0.894121
 ---------------------------------------------------------------------

 SCF Done:  E(RHF) =  -470.638717489     A.U. after    2 cycles

 The electronic state is 1-A.
 Alpha  occ. eigenvalues --  -20.63396 -20.61543 -20.59620 -20.59618 -15.65081
 Alpha  occ. eigenvalues --  -11.42704 -11.42466 -11.31892  -1.43847  -1.41050
 Alpha  occ. eigenvalues --   -1.35631  -1.31921  -1.23726  -1.02551  -0.90571
 Alpha  occ. eigenvalues --   -0.77893  -0.76364  -0.75612  -0.73626  -0.69959
 Alpha  occ. eigenvalues --   -0.68484  -0.66043  -0.64877  -0.60736  -0.59419
 Alpha  occ. eigenvalues --   -0.59007  -0.52028  -0.50606  -0.50251  -0.46657
 Alpha  occ. eigenvalues --   -0.44582
 Alpha virt. eigenvalues --    0.02123   0.04382   0.04678   0.05100   0.07139
 Alpha virt. eigenvalues --    0.07969   0.09877   0.10814   0.11390   0.12419
 Alpha virt. eigenvalues --    0.13555   0.14627   0.14883   0.15433   0.17005

 Mulliken charges:
               1
     1  O   -0.620853
     2  O   -0.620859
     3  O   -0.692897
     4  O   -0.207651
     5  N   -0.182868
     6  C    1.108315
     7  C    0.963359
     8  C   -0.166359
     9  H    0.212689
    10  H    0.212704
    11  H    0.171059
    12  H   -0.088322
    13  H   -0.088318
 Sum of Mulliken charges =  -0.00000

 Dipole moment (field-independent basis, Debye):
    X=             -5.6290    Y=              1.8080    Z=             -0.0000  Tot=              5.9122

 Test job not archived.
 1\1\GINC-SE146\SP\RHF\Aug-CC-pVDZ\C3H5N1O4\OHZDE\05-Apr-2025\0\\#t hf
 aug-cc-pvdz iop(5/13=1,5/36=2,99/5=2) pseudo=read geom=check guess=(re
 ad,tcheck) scf=(maxcycle=1)\\title\\0,1\O,0,-0.307443,-0.870123,-1.164
 144\O,0,-0.307406,-0.86988,1.16429\O,0,-2.62778,0.100056,0.000029\O,0,
 3.229423,0.053522,0.00003\N,0,0.941114,0.662461,-0.000117\C,0,-0.28138
 3,-0.078177,-0.000011\C,0,-1.450502,0.910137,-0.00009\C,0,2.088626,0.2
 80911,-0.000031\H,0,-1.215065,-1.172916,-1.29579\H,0,-1.215054,-1.1725
 15,1.296121\H,0,-3.41045,0.656719,-0.000033\H,0,-1.390992,1.532924,0.8

 Normal termination of Gaussian 16 at Sat Apr  5 22:13:02 2025.
