 Gaussian 16, Revision C.01,

 ----------------------------------------------------------------------
 #t hf aug-cc-pvdz symm=none int=(grid=ultrafine) guess=(read,tcheck) s
 table=(opt,rrhf)
 ----------------------------------------------------------------------
 -----
 title
 -----
 Symbolic Z-matrix:
 Charge =  0 Multiplicity = 1

 SCF Done:  E(RHF) =  -470.489091831     A.U. after   14 cycles
 Normal termination of Gaussian 16 at Sat Apr  5 22:12:32 2025.
 Gaussian 16:  ES64L-G16RevC.01  3-Jul-2019

 ----------------------------------------------------------------------
 #t hf aug-cc-pvdz iop(5/13=1,5/36=2,99/5=2) pseudo=read geom=check gue
 ss=(read,tcheck) scf=(maxcycle=1)
 ----------------------------------------------------------------------
 -----
 title
 -----
 Structure from the checkpoint file:  "1-isocyanato-1-2-2-ethanetriol.chk"
 Charge =  0 Multiplicity = 1

                         Standard orientation:
 ---------------------------------------------------------------------
 Center     Atomic      Atomic             Coordinates (Angstroms)
 Number     Number       Type             X           Y           Z
 ---------------------------------------------------------------------
      1          8           0       -1.482146   -1.542331    0.230188
      2          8           0       -0.780161    0.943861    1.241654
      3          8           0       -0.288525    1.618368   -0.871586
      4          8           0        2.697279    0.071265    0.337982
      5          7           0        0.716696   -0.999336   -0.393493
      6          6           0       -0.677117   -0.691619   -0.564145
      7          6           0       -1.055012    0.730034   -0.123074
      8          6           0        1.681516   -0.387203   -0.003450
      9          1           0       -1.203672   -2.453161    0.090455
     10          1           0       -1.228041    0.256337    1.750743
     11          1           0       -0.405482    2.503660   -0.509998
     12          1           0       -0.919496   -0.810808   -1.623032
     13          1           0       -2.128076    0.862744   -0.315611
 ---------------------------------------------------------------------

 SCF Done:  E(RHF) =  -470.637468374     A.U. after    2 cycles

 The electronic state is 1-A.
 Alpha  occ. eigenvalues --  -20.62497 -20.60896 -20.60237 -20.59652 -15.65103
 Alpha  occ. eigenvalues --  -11.42140 -11.37104 -11.37018  -1.42916  -1.40327
 Alpha  occ. eigenvalues --   -1.36566  -1.31790  -1.23617  -1.01933  -0.89505
 Alpha  occ. eigenvalues --   -0.80054  -0.76656  -0.74316  -0.74190  -0.70791
 Alpha  occ. eigenvalues --   -0.67601  -0.65401  -0.64056  -0.61203  -0.59508
 Alpha  occ. eigenvalues --   -0.57702  -0.54046  -0.52131  -0.49748  -0.44479
 Alpha  occ. eigenvalues --   -0.43308
 Alpha virt. eigenvalues --    0.02948   0.03987   0.04556   0.05479   0.06659
 Alpha virt. eigenvalues --    0.08086   0.10202   0.10840   0.11523   0.12432
 Alpha virt. eigenvalues --    0.13219   0.14567   0.14749   0.15534   0.16573

 Mulliken charges:
               1
     1  O   -0.600388
     2  O   -0.607228
     3  O   -0.547048
     4  O   -0.191949
     5  N   -0.294978
     6  C    1.192569
     7  C    0.988778
     8  C   -0.180167
     9  H    0.147577
    10  H    0.198168
    11  H    0.169661
    12  H   -0.144917
    13  H   -0.130078
 Sum of Mulliken charges =  -0.00000

 Dipole moment (field-independent basis, Debye):
    X=             -3.4994    Y=             -1.0553    Z=             -0.7392  Tot=              3.7291

 Test job not archived.
 1\1\GINC-SE187\SP\RHF\Aug-CC-pVDZ\C3H5N1O4\OHZDE\05-Apr-2025\0\\#t hf
 aug-cc-pvdz iop(5/13=1,5/36=2,99/5=2) pseudo=read geom=check guess=(re
 ad,tcheck) scf=(maxcycle=1)\\title\\0,1\O,0,-1.482146,-1.542331,0.2301
 88\O,0,-0.780161,0.943861,1.241654\O,0,-0.288525,1.618368,-0.871586\O,
 0,2.697279,0.071265,0.337982\N,0,0.716696,-0.999336,-0.393493\C,0,-0.6
 77117,-0.691619,-0.564145\C,0,-1.055012,0.730034,-0.123074\C,0,1.68151
 6,-0.387203,-0.00345\H,0,-1.203672,-2.453161,0.090455\H,0,-1.228041,0.
 256337,1.750743\H,0,-0.405482,2.50366,-0.509998\H,0,-0.919496,-0.81080

 Normal termination of Gaussian 16 at Sat Apr  5 22:12:52 2025.
