 Gaussian 16, Revision C.01,

 ----------------------------------------------------------------------
 #t hf aug-cc-pvdz symm=none int=(grid=ultrafine) guess=(read,tcheck) s
 table=(opt,rrhf)
 ----------------------------------------------------------------------
 -----
 title
 -----
 Symbolic Z-matrix:
 Charge =  0 Multiplicity = 1

 SCF Done:  E(RHF) =  -735.128874387     A.U. after   16 cycles
 Normal termination of Gaussian 16 at Sat Apr  5 22:13:11 2025.
 Gaussian 16:  ES64L-G16RevC.01  3-Jul-2019

 ----------------------------------------------------------------------
 #t hf aug-cc-pvdz iop(5/13=1,5/36=2,99/5=2) pseudo=read geom=check gue
 ss=(read,tcheck) scf=(maxcycle=1)
 ----------------------------------------------------------------------
 -----
 title
 -----
 Structure from the checkpoint file:  "1-isocyanato-2-isothiocyanatoethane.chk"
 Charge =  0 Multiplicity = 1

                         Standard orientation:
 ---------------------------------------------------------------------
 Center     Atomic      Atomic             Coordinates (Angstroms)
 Number     Number       Type             X           Y           Z
 ---------------------------------------------------------------------
      1         16           0       -3.986894   -0.049708   -0.000087
      2          8           0        4.775654   -0.113191   -0.000147
      3          7           0       -1.218888   -0.119564    0.000118
      4          7           0        2.439468    0.263192    0.000069
      5          6           0        0.039669    0.560667    0.000057
      6          6           0        1.185169   -0.449890    0.000115
      7          6           0       -2.404278   -0.042911    0.000025
      8          6           0        3.612272    0.010529   -0.000044
      9          1           0        0.112187    1.198876   -0.883098
     10          1           0        0.112207    1.198992    0.883127
     11          1           0        1.109813   -1.086449   -0.883060
     12          1           0        1.109821   -1.086333    0.883374
 ---------------------------------------------------------------------

 SCF Done:  E(RHF) =  -735.253887419     A.U. after    2 cycles

 The electronic state is 1-A.
 Alpha  occ. eigenvalues --  -93.53706 -20.63447 -15.68489 -15.66921 -11.43039
 Alpha  occ. eigenvalues --  -11.39709 -11.33232 -11.32985  -8.83630  -6.17955
 Alpha  occ. eigenvalues --   -6.17260  -6.17219  -1.43700  -1.27800  -1.25805
 Alpha  occ. eigenvalues --   -1.09745  -1.02169  -0.94120  -0.77856  -0.75173
 Alpha  occ. eigenvalues --   -0.71393  -0.70272  -0.67280  -0.66768  -0.62569
 Alpha  occ. eigenvalues --   -0.60260  -0.59608  -0.54097  -0.53050  -0.46214
 Alpha  occ. eigenvalues --   -0.44059  -0.37034  -0.36110
 Alpha virt. eigenvalues --    0.02766   0.03640   0.03802   0.05791   0.06926
 Alpha virt. eigenvalues --    0.07537   0.08980   0.09620   0.10072   0.10431
 Alpha virt. eigenvalues --    0.10604   0.11527   0.12537   0.13294   0.13839

 Mulliken charges:
               1
     1  S    0.147706
     2  O   -0.214629
     3  N   -0.042839
     4  N   -0.083862
     5  C    0.764791
     6  C    0.975364
     7  C   -0.674994
     8  C   -0.303277
     9  H   -0.142565
    10  H   -0.142565
    11  H   -0.141568
    12  H   -0.141562
 Sum of Mulliken charges =   0.00000

 Dipole moment (field-independent basis, Debye):
    X=              0.2869    Y=              0.0239    Z=              0.0002  Tot=              0.2879

 Test job not archived.
 1\1\GINC-SE188\SP\RHF\Aug-CC-pVDZ\C4H4N2O1S1\OHZDE\05-Apr-2025\0\\#t h
 f aug-cc-pvdz iop(5/13=1,5/36=2,99/5=2) pseudo=read geom=check guess=(
 read,tcheck) scf=(maxcycle=1)\\title\\0,1\S,0,-3.986894,-0.049708,-0.0
 00087\O,0,4.775654,-0.113191,-0.000147\N,0,-1.218888,-0.119564,0.00011
 8\N,0,2.439468,0.263192,0.000069\C,0,0.039669,0.560667,0.000057\C,0,1.
 185169,-0.44989,0.000115\C,0,-2.404278,-0.042911,0.000025\C,0,3.612272
 ,0.010529,-0.000044\H,0,0.112187,1.198876,-0.883098\H,0,0.112207,1.198
 992,0.883127\H,0,1.109813,-1.086449,-0.88306\H,0,1.109821,-1.086333,0.

 Normal termination of Gaussian 16 at Sat Apr  5 22:13:51 2025.
