 Gaussian 16, Revision C.01,

 ----------------------------------------------------------------------
 #t hf aug-cc-pvdz symm=none int=(grid=ultrafine) guess=(read,tcheck) s
 table=(opt,rrhf)
 ----------------------------------------------------------------------
 -----
 title
 -----
 Symbolic Z-matrix:
 Charge =  0 Multiplicity = 1

 SCF Done:  E(RHF) =  -289.246088116     A.U. after   12 cycles

 1\1\GINC-SE164\Stability\RHF\Aug-CC-pVDZ\C6H13N1\OHZDE\05-Apr-2025\0\\
 #t hf aug-cc-pvdz symm=none int=(grid=ultrafine) guess=(read,tcheck) s
 table=(opt,rrhf)\\title\\0,1\C,0,0.96524,1.519566,0.\C,0,0.317239,0.93
 8668,1.261849\C,0,0.317239,0.938668,-1.261849\C,0,0.317239,-0.596952,1
 .207472\C,0,0.317239,-0.596952,-1.207472\C,0,-1.745453,-1.132476,0.\N,
 0,-0.291486,-1.154914,0.\H,0,0.900662,2.609587,0.\H,0,2.0323,1.27092,0
 .\H,0,0.848574,1.272756,2.156437\H,0,-0.708429,1.307685,1.352481\H,0,-
 0.708429,1.307685,-1.352481\H,0,0.848574,1.272756,-2.156437\H,0,1.3537

 Normal termination of Gaussian 16 at Sat Apr  5 22:14:45 2025.
 Gaussian 16:  ES64L-G16RevC.01  3-Jul-2019

 ----------------------------------------------------------------------
 #t hf aug-cc-pvdz iop(5/13=1,5/36=2,99/5=2) pseudo=read geom=check gue
 ss=(read,tcheck) scf=(maxcycle=1)
 ----------------------------------------------------------------------
 -----
 title
 -----
 Structure from the checkpoint file:  "1-methylpiperidine.chk"
 Charge =  0 Multiplicity = 1

                         Standard orientation:
 ---------------------------------------------------------------------
 Center     Atomic      Atomic             Coordinates (Angstroms)
 Number     Number       Type             X           Y           Z
 ---------------------------------------------------------------------
      1          6           0        0.965240    1.519566   -0.000000
      2          6           0        0.317239    0.938668    1.261849
      3          6           0        0.317239    0.938668   -1.261849
      4          6           0        0.317239   -0.596952    1.207472
      5          6           0        0.317239   -0.596952   -1.207472
      6          6           0       -1.745453   -1.132476    0.000000
      7          7           0       -0.291486   -1.154914    0.000000
      8          1           0        0.900662    2.609587   -0.000000
      9          1           0        2.032300    1.270920   -0.000000
     10          1           0        0.848574    1.272756    2.156437
     11          1           0       -0.708429    1.307685    1.352481
     12          1           0       -0.708429    1.307685   -1.352481
     13          1           0        0.848574    1.272756   -2.156437
     14          1           0        1.353737   -0.949519    1.247433
     15          1           0       -0.193487   -1.015270    2.076593
     16          1           0       -0.193487   -1.015270   -2.076593
     17          1           0        1.353737   -0.949519   -1.247433
     18          1           0       -2.112988   -1.660457   -0.881168
     19          1           0       -2.199834   -0.129627   -0.000000
     20          1           0       -2.112988   -1.660457    0.881168
 ---------------------------------------------------------------------

 SCF Done:  E(RHF) =  -289.335794938     A.U. after    2 cycles

 The electronic state is 1-A'.
 Alpha  occ. eigenvalues --  -15.59905 -11.24940 -11.24937 -11.24724 -11.22470
 Alpha  occ. eigenvalues --  -11.22203 -11.22192  -1.19287  -1.05251  -1.00355
 Alpha  occ. eigenvalues --   -0.93492  -0.84395  -0.82875  -0.74568  -0.65904
 Alpha  occ. eigenvalues --   -0.63237  -0.61505  -0.60361  -0.57079  -0.56509
 Alpha  occ. eigenvalues --   -0.53110  -0.51323  -0.50444  -0.48469  -0.48317
 Alpha  occ. eigenvalues --   -0.45503  -0.44573  -0.32962
 Alpha virt. eigenvalues --    0.03507   0.04163   0.04296   0.04614   0.06443
 Alpha virt. eigenvalues --    0.06458   0.06793   0.07046   0.07200   0.08955
 Alpha virt. eigenvalues --    0.09209   0.09246   0.09769   0.12669   0.14006

 Mulliken charges:
               1
     1  C    0.253398
     2  C    0.120060
     3  C    0.120060
     4  C    0.665655
     5  C    0.665655
     6  C    0.752612
     7  N   -0.822347
     8  H   -0.097093
     9  H   -0.107773
    10  H   -0.102900
    11  H   -0.109262
    12  H   -0.109262
    13  H   -0.102900
    14  H   -0.147404
    15  H   -0.198605
    16  H   -0.198605
    17  H   -0.147404
    18  H   -0.179694
    19  H   -0.074497
    20  H   -0.179694
 Sum of Mulliken charges =  -0.00000

 Dipole moment (field-independent basis, Debye):
    X=             -0.1621    Y=              0.8738    Z=              0.0000  Tot=              0.8887

 Test job not archived.
 1\1\GINC-SE164\SP\RHF\Aug-CC-pVDZ\C6H13N1\OHZDE\05-Apr-2025\0\\#t hf a
 ug-cc-pvdz iop(5/13=1,5/36=2,99/5=2) pseudo=read geom=check guess=(rea
 d,tcheck) scf=(maxcycle=1)\\title\\0,1\C,0,0.96524,1.519566,0.\C,0,0.3
 17239,0.938668,1.261849\C,0,0.317239,0.938668,-1.261849\C,0,0.317239,-
 0.596952,1.207472\C,0,0.317239,-0.596952,-1.207472\C,0,-1.745453,-1.13
 2476,0.\N,0,-0.291486,-1.154914,0.\H,0,0.900662,2.609587,0.\H,0,2.0323
 ,1.27092,0.\H,0,0.848574,1.272756,2.156437\H,0,-0.708429,1.307685,1.35
 2481\H,0,-0.708429,1.307685,-1.352481\H,0,0.848574,1.272756,-2.156437\

 Normal termination of Gaussian 16 at Sat Apr  5 22:15:48 2025.
