 Gaussian 16, Revision C.01,

 ----------------------------------------------------------------------
 #t hf aug-cc-pvdz symm=none int=(grid=ultrafine) guess=(read,tcheck) s
 table=(opt,rrhf)
 ----------------------------------------------------------------------
 -----
 title
 -----
 Symbolic Z-matrix:
 Charge =  0 Multiplicity = 1

 SCF Done:  E(RHF) =  -473.274372617     A.U. after   16 cycles
 Normal termination of Gaussian 16 at Sat Apr  5 22:14:11 2025.
 Gaussian 16:  ES64L-G16RevC.01  3-Jul-2019

 ----------------------------------------------------------------------
 #t hf aug-cc-pvdz iop(5/13=1,5/36=2,99/5=2) pseudo=read geom=check gue
 ss=(read,tcheck) scf=(maxcycle=1)
 ----------------------------------------------------------------------
 -----
 title
 -----
 Structure from the checkpoint file:  "1-methyl-3-nitro-benzene.chk"
 Charge =  0 Multiplicity = 1

                         Standard orientation:
 ---------------------------------------------------------------------
 Center     Atomic      Atomic             Coordinates (Angstroms)
 Number     Number       Type             X           Y           Z
 ---------------------------------------------------------------------
      1          6           0       -2.057620   -0.570893    0.000000
      2          6           0       -1.349473   -1.765667    0.000000
      3          6           0       -1.385262    0.643953    0.000000
      4          6           0        0.722393   -0.566463    0.000000
      5          6           0        0.048829   -1.783697    0.000000
      6          6           0       -0.000000    0.619586    0.000000
      7          6           0        0.801538   -3.087682    0.000000
      8          7           0        0.736402    1.899710    0.000000
      9          8           0        0.081540    2.932000    0.000000
     10          8           0        1.958229    1.853894    0.000000
     11          1           0       -3.138638   -0.583862    0.000000
     12          1           0       -1.890749   -2.703493    0.000000
     13          1           0       -1.907623    1.587184    0.000000
     14          1           0        1.800839   -0.524533    0.000000
     15          1           0        1.877726   -2.925062    0.000000
     16          1           0        0.551524   -3.685088    0.878569
     17          1           0        0.551524   -3.685088   -0.878569
 ---------------------------------------------------------------------

 SCF Done:  E(RHF) =  -473.416093613     A.U. after    2 cycles

 The electronic state is 1-A'.
 Alpha  occ. eigenvalues --  -20.61614 -20.61603 -15.91876 -11.31792 -11.27916
 Alpha  occ. eigenvalues --  -11.27838 -11.27622 -11.27448 -11.27173 -11.25377
 Alpha  occ. eigenvalues --   -1.54993  -1.36464  -1.19093  -1.09273  -1.06078
 Alpha  occ. eigenvalues --   -0.96570  -0.95074  -0.85186  -0.82245  -0.77379
 Alpha  occ. eigenvalues --   -0.73844  -0.72628  -0.70894  -0.67465  -0.64163
 Alpha  occ. eigenvalues --   -0.60880  -0.60115  -0.56971  -0.54936  -0.52653
 Alpha  occ. eigenvalues --   -0.52549  -0.51293  -0.50768  -0.47377  -0.37767
 Alpha  occ. eigenvalues --   -0.36050
 Alpha virt. eigenvalues --    0.02613   0.03220   0.03395   0.04519   0.05081
 Alpha virt. eigenvalues --    0.05664   0.06159   0.07921   0.09397   0.10137
 Alpha virt. eigenvalues --    0.11451   0.11984   0.12630   0.12881   0.13056

 Mulliken charges:
               1
     1  C    0.203772
     2  C    0.959563
     3  C    0.301865
     4  C    0.381988
     5  C   -0.274299
     6  C    1.022434
     7  C    0.514222
     8  N    0.078504
     9  O   -0.568254
    10  O   -0.565184
    11  H   -0.445956
    12  H   -0.591133
    13  H   -0.438158
    14  H   -0.531015
    15  H   -0.187845
    16  H    0.069748
    17  H    0.069748
 Sum of Mulliken charges =  -0.00000

 Dipole moment (field-independent basis, Debye):
    X=             -2.4447    Y=             -5.1630    Z=             -0.0000  Tot=              5.7125

 Test job not archived.
 1\1\GINC-SE106\SP\RHF\Aug-CC-pVDZ\C7H7N1O2\OHZDE\05-Apr-2025\0\\#t hf
 aug-cc-pvdz iop(5/13=1,5/36=2,99/5=2) pseudo=read geom=check guess=(re
 ad,tcheck) scf=(maxcycle=1)\\title\\0,1\C,0,-2.05762,-0.570893,0.\C,0,
 -1.349473,-1.765667,0.\C,0,-1.385262,0.643953,0.\C,0,0.722393,-0.56646
 3,0.\C,0,0.048829,-1.783697,0.\C,0,0.,0.619586,0.\C,0,0.801538,-3.0876
 82,0.\N,0,0.736402,1.89971,0.\O,0,0.08154,2.932,0.\O,0,1.958229,1.8538
 94,0.\H,0,-3.138638,-0.583862,0.\H,0,-1.890749,-2.703493,0.\H,0,-1.907
 623,1.587184,0.\H,0,1.800839,-0.524533,0.\H,0,1.877726,-2.925062,0.\H,

 Normal termination of Gaussian 16 at Sat Apr  5 22:14:44 2025.
