 Gaussian 16, Revision C.01,

 ----------------------------------------------------------------------
 #t hf aug-cc-pvdz symm=none int=(grid=ultrafine) guess=(read,tcheck) s
 table=(opt,rrhf)
 ----------------------------------------------------------------------
 -----
 title
 -----
 Symbolic Z-matrix:
 Charge =  0 Multiplicity = 1

 SCF Done:  E(RHF) =  -305.241423964     A.U. after   12 cycles

 1\1\GINC-SE115\Stability\RHF\Aug-CC-pVDZ\C5H12N2\OHZDE\05-Apr-2025\0\\
 #t hf aug-cc-pvdz symm=none int=(grid=ultrafine) guess=(read,tcheck) s
 table=(opt,rrhf)\\title\\0,1\C,0,-0.10432,-1.183383,1.206556\C,0,-0.10
 432,-1.183383,-1.206556\C,0,-0.10432,0.339172,1.204675\C,0,-0.10432,0.
 339172,-1.204675\C,0,0.628275,2.299249,0.\N,0,-0.76993,-1.666118,0.\N,
 0,0.541509,0.851074,0.\H,0,0.937429,-1.532481,1.281318\H,0,-0.646488,-
 1.547447,2.080373\H,0,-0.646488,-1.547447,-2.080373\H,0,0.937429,-1.53
 2481,-1.281318\H,0,-1.145389,0.697953,1.285374\H,0,0.442711,0.708091,2

 Normal termination of Gaussian 16 at Sat Apr  5 22:14:37 2025.
 Gaussian 16:  ES64L-G16RevC.01  3-Jul-2019

 ----------------------------------------------------------------------
 #t hf aug-cc-pvdz iop(5/13=1,5/36=2,99/5=2) pseudo=read geom=check gue
 ss=(read,tcheck) scf=(maxcycle=1)
 ----------------------------------------------------------------------
 -----
 title
 -----
 Structure from the checkpoint file:  "1-methylpiperazine.chk"
 Charge =  0 Multiplicity = 1

                         Standard orientation:
 ---------------------------------------------------------------------
 Center     Atomic      Atomic             Coordinates (Angstroms)
 Number     Number       Type             X           Y           Z
 ---------------------------------------------------------------------
      1          6           0       -0.104320   -1.183383    1.206556
      2          6           0       -0.104320   -1.183383   -1.206556
      3          6           0       -0.104320    0.339172    1.204675
      4          6           0       -0.104320    0.339172   -1.204675
      5          6           0        0.628275    2.299249   -0.000000
      6          7           0       -0.769930   -1.666118    0.000000
      7          7           0        0.541509    0.851074   -0.000000
      8          1           0        0.937429   -1.532481    1.281318
      9          1           0       -0.646488   -1.547447    2.080373
     10          1           0       -0.646488   -1.547447   -2.080373
     11          1           0        0.937429   -1.532481   -1.281318
     12          1           0       -1.145389    0.697953    1.285374
     13          1           0        0.442711    0.708091    2.074318
     14          1           0        0.442711    0.708091   -2.074318
     15          1           0       -1.145389    0.697953   -1.285374
     16          1           0        1.171992    2.637024    0.883042
     17          1           0       -0.360624    2.789441   -0.000000
     18          1           0        1.171992    2.637024   -0.883042
     19          1           0       -0.826919   -2.675387    0.000000
 ---------------------------------------------------------------------

 SCF Done:  E(RHF) =  -305.334980767     A.U. after    2 cycles

 The electronic state is 1-A'.
 Alpha  occ. eigenvalues --  -15.60546 -15.60272 -11.25260 -11.25258 -11.25071
 Alpha  occ. eigenvalues --  -11.25068 -11.24916  -1.21459  -1.15147  -1.01679
 Alpha  occ. eigenvalues --   -0.95726  -0.85743  -0.84821  -0.75338  -0.68968
 Alpha  occ. eigenvalues --   -0.63445  -0.62642  -0.60618  -0.60418  -0.57894
 Alpha  occ. eigenvalues --   -0.54591  -0.52848  -0.51362  -0.49191  -0.46751
 Alpha  occ. eigenvalues --   -0.46053  -0.36245  -0.34514
 Alpha virt. eigenvalues --    0.03575   0.03998   0.04083   0.04494   0.06481
 Alpha virt. eigenvalues --    0.06485   0.07023   0.07453   0.08353   0.09036
 Alpha virt. eigenvalues --    0.09055   0.09529   0.12466   0.13033   0.14640

 Mulliken charges:
               1
     1  C    0.739183
     2  C    0.739183
     3  C    0.594177
     4  C    0.594177
     5  C    0.670223
     6  N   -0.607436
     7  N   -0.915746
     8  H   -0.110502
     9  H   -0.189255
    10  H   -0.189255
    11  H   -0.110502
    12  H   -0.103190
    13  H   -0.249363
    14  H   -0.249363
    15  H   -0.103190
    16  H   -0.200622
    17  H   -0.031963
    18  H   -0.200622
    19  H   -0.075935
 Sum of Mulliken charges =   0.00000

 Dipole moment (field-independent basis, Debye):
    X=              0.2568    Y=             -0.3080    Z=             -0.0000  Tot=              0.4010

 Test job not archived.
 1\1\GINC-SE115\SP\RHF\Aug-CC-pVDZ\C5H12N2\OHZDE\05-Apr-2025\0\\#t hf a
 ug-cc-pvdz iop(5/13=1,5/36=2,99/5=2) pseudo=read geom=check guess=(rea
 d,tcheck) scf=(maxcycle=1)\\title\\0,1\C,0,-0.10432,-1.183383,1.206556
 \C,0,-0.10432,-1.183383,-1.206556\C,0,-0.10432,0.339172,1.204675\C,0,-
 0.10432,0.339172,-1.204675\C,0,0.628275,2.299249,0.\N,0,-0.76993,-1.66
 6118,0.\N,0,0.541509,0.851074,0.\H,0,0.937429,-1.532481,1.281318\H,0,-
 0.646488,-1.547447,2.080373\H,0,-0.646488,-1.547447,-2.080373\H,0,0.93
 7429,-1.532481,-1.281318\H,0,-1.145389,0.697953,1.285374\H,0,0.442711,

 Normal termination of Gaussian 16 at Sat Apr  5 22:15:48 2025.
