 Gaussian 16, Revision C.01,

 ----------------------------------------------------------------------
 #t hf aug-cc-pvdz symm=none int=(grid=ultrafine) guess=(read,tcheck) s
 table=(opt,rrhf)
 ----------------------------------------------------------------------
 -----
 title
 -----
 Symbolic Z-matrix:
 Charge =  0 Multiplicity = 1

 SCF Done:  E(RHF) =  -422.433605195     A.U. after   16 cycles
 Normal termination of Gaussian 16 at Sat Apr  5 22:16:58 2025.
 Gaussian 16:  ES64L-G16RevC.01  3-Jul-2019

 ----------------------------------------------------------------------
 #t hf aug-cc-pvdz iop(5/13=1,5/36=2,99/5=2) pseudo=read geom=check gue
 ss=(read,tcheck) scf=(maxcycle=1)
 ----------------------------------------------------------------------
 -----
 title
 -----
 Structure from the checkpoint file:  "1-methylnaphthalene.chk"
 Charge =  0 Multiplicity = 1

                         Standard orientation:
 ---------------------------------------------------------------------
 Center     Atomic      Atomic             Coordinates (Angstroms)
 Number     Number       Type             X           Y           Z
 ---------------------------------------------------------------------
      1          6           0       -2.758791   -0.172613    0.000000
      2          6           0       -2.313124    1.163831    0.000000
      3          6           0        1.829385   -1.714991    0.000000
      4          6           0       -1.848500   -1.196479    0.000000
      5          6           0       -0.971197    1.448460    0.000000
      6          6           0        0.490239   -1.990790    0.000000
      7          6           0        2.279504   -0.378589    0.000000
      8          6           0       -0.456727   -0.938145    0.000000
      9          6           0        0.000000    0.416294    0.000000
     10          6           0        1.404403    0.681450    0.000000
     11          6           0        1.923414    2.094614    0.000000
     12          1           0       -3.819371   -0.385995    0.000000
     13          1           0       -3.035350    1.969462    0.000000
     14          1           0        2.552743   -2.519608    0.000000
     15          1           0       -2.183644   -2.226204    0.000000
     16          1           0       -0.648972    2.479854    0.000000
     17          1           0        0.135900   -3.013788    0.000000
     18          1           0        3.344718   -0.184203    0.000000
     19          1           0        1.585123    2.649219    0.878154
     20          1           0        3.012097    2.103796    0.000000
     21          1           0        1.585123    2.649219   -0.878154
 ---------------------------------------------------------------------

 SCF Done:  E(RHF) =  -422.557013259     A.U. after    2 cycles

 The electronic state is 1-A'.
 Alpha  occ. eigenvalues --  -11.25226 -11.25050 -11.24881 -11.24477 -11.24424
 Alpha  occ. eigenvalues --  -11.24324 -11.24277 -11.24268 -11.24014 -11.23808
 Alpha  occ. eigenvalues --  -11.23516  -1.16807  -1.10535  -1.05892  -1.00321
 Alpha  occ. eigenvalues --   -0.99583  -0.93143  -0.85009  -0.84084  -0.79170
 Alpha  occ. eigenvalues --   -0.70972  -0.69869  -0.68173  -0.62661  -0.61237
 Alpha  occ. eigenvalues --   -0.59225  -0.58359  -0.57964  -0.56525  -0.54104
 Alpha  occ. eigenvalues --   -0.52589  -0.52489  -0.48756  -0.47469  -0.44923
 Alpha  occ. eigenvalues --   -0.38048  -0.32235  -0.28864
 Alpha virt. eigenvalues --    0.03421   0.03688   0.03759   0.05034   0.05231
 Alpha virt. eigenvalues --    0.05909   0.06826   0.07114   0.07726   0.08481
 Alpha virt. eigenvalues --    0.09279   0.09882   0.10616   0.10956   0.12323

 Mulliken charges:
               1
     1  C    0.262813
     2  C    0.184696
     3  C   -0.061766
     4  C    1.009105
     5  C    0.416130
     6  C    1.131611
     7  C    0.814784
     8  C   -0.000958
     9  C   -0.345195
    10  C   -0.201042
    11  C    0.533892
    12  H   -0.460781
    13  H   -0.466756
    14  H   -0.465571
    15  H   -0.570647
    16  H   -0.722699
    17  H   -0.571110
    18  H   -0.581739
    19  H    0.178064
    20  H   -0.260896
    21  H    0.178064
 Sum of Mulliken charges =  -0.00000

 Dipole moment (field-independent basis, Debye):
    X=              0.1501    Y=              0.3365    Z=              0.0000  Tot=              0.3685

 Test job not archived.
 1\1\GINC-SE104\SP\RHF\Aug-CC-pVDZ\C11H10\OHZDE\05-Apr-2025\0\\#t hf au
 g-cc-pvdz iop(5/13=1,5/36=2,99/5=2) pseudo=read geom=check guess=(read
 ,tcheck) scf=(maxcycle=1)\\title\\0,1\C,0,-2.758791,-0.172612,0.\C,0,-
 2.313124,1.163832,0.\C,0,1.829384,-1.714992,0.\C,0,-1.848501,-1.196478
 ,0.\C,0,-0.971197,1.44846,0.\C,0,0.490238,-1.99079,0.\C,0,2.279504,-0.
 37859,0.\C,0,-0.456728,-0.938145,0.\C,0,0.,0.416294,0.\C,0,1.404403,0.
 681449,0.\C,0,1.923415,2.094613,0.\H,0,-3.819371,-0.385993,0.\H,0,-3.0
 35349,1.969463,0.\H,0,2.552742,-2.519609,0.\H,0,-2.183645,-2.226203,0.

 Normal termination of Gaussian 16 at Sat Apr  5 22:17:11 2025.
