 Gaussian 16, Revision C.01,

 ----------------------------------------------------------------------
 #t hf aug-cc-pvdz symm=none int=(grid=ultrafine) guess=(read,tcheck) s
 table=(opt,rrhf)
 ----------------------------------------------------------------------
 -----
 title
 -----
 Symbolic Z-matrix:
 Charge =  0 Multiplicity = 1

 SCF Done:  E(RHF) =  -743.555390698     A.U. after   13 cycles
 Normal termination of Gaussian 16 at Sat Apr  5 22:15:44 2025.
 Gaussian 16:  ES64L-G16RevC.01  3-Jul-2019

 ----------------------------------------------------------------------
 #t hf aug-cc-pvdz iop(5/13=1,5/36=2,99/5=2) pseudo=read geom=check gue
 ss=(read,tcheck) scf=(maxcycle=1)
 ----------------------------------------------------------------------
 -----
 title
 -----
 Structure from the checkpoint file:  "1-methylsulfonylbutane.chk"
 Charge =  0 Multiplicity = 1

                         Standard orientation:
 ---------------------------------------------------------------------
 Center     Atomic      Atomic             Coordinates (Angstroms)
 Number     Number       Type             X           Y           Z
 ---------------------------------------------------------------------
      1          6           0        3.923243   -0.294842    0.000054
      2          6           0        2.698256    0.617692   -0.000087
      3          6           0        1.382566   -0.165828    0.000024
      4          6           0        0.168891    0.759188   -0.000133
      5         16           0       -1.375513   -0.194329    0.000033
      6          6           0       -2.659703    1.068823   -0.000208
      7          8           0       -1.466231   -0.923301   -1.262796
      8          8           0       -1.466246   -0.922837    1.263128
      9          1           0        3.934055   -0.938927    0.881033
     10          1           0        3.934060   -0.939189   -0.880734
     11          1           0        4.846873    0.284744   -0.000030
     12          1           0        2.730480    1.272993   -0.875356
     13          1           0        2.730472    1.273253    0.874988
     14          1           0        1.338291   -0.814008    0.877013
     15          1           0        1.338307   -0.814284   -0.876761
     16          1           0        0.138588    1.388271   -0.890317
     17          1           0        0.138590    1.388574    0.889838
     18          1           0       -3.601690    0.525093   -0.000121
     19          1           0       -2.569767    1.670989    0.899941
     20          1           0       -2.569747    1.670664   -0.900573
 ---------------------------------------------------------------------

 SCF Done:  E(RHF) =  -743.736771928     A.U. after    2 cycles

 The electronic state is 1-A.
 Alpha  occ. eigenvalues --  -93.77306 -20.54965 -20.54964 -11.28777 -11.28740
 Alpha  occ. eigenvalues --  -11.25024 -11.24528 -11.23184  -9.04079  -6.38696
 Alpha  occ. eigenvalues --   -6.38496  -6.38431  -1.40431  -1.29016  -1.09875
 Alpha  occ. eigenvalues --   -1.04570  -1.00693  -0.90677  -0.81934  -0.80032
 Alpha  occ. eigenvalues --   -0.69016  -0.68484  -0.66837  -0.65456  -0.61528
 Alpha  occ. eigenvalues --   -0.61197  -0.60166  -0.59401  -0.56187  -0.52997
 Alpha  occ. eigenvalues --   -0.51167  -0.50917  -0.50271  -0.48821  -0.48588
 Alpha  occ. eigenvalues --   -0.48018  -0.43806
 Alpha virt. eigenvalues --    0.02749   0.03592   0.04335   0.04651   0.05681
 Alpha virt. eigenvalues --    0.05902   0.06533   0.07463   0.08292   0.08786
 Alpha virt. eigenvalues --    0.08936   0.10383   0.10726   0.12095   0.13174

 Mulliken charges:
               1
     1  C    0.605276
     2  C    0.274714
     3  C    0.185446
     4  C   -0.320841
     5  S    2.452824
     6  C    0.214733
     7  O   -1.168716
     8  O   -1.168713
     9  H   -0.082515
    10  H   -0.082514
    11  H   -0.060721
    12  H   -0.151692
    13  H   -0.151693
    14  H   -0.137386
    15  H   -0.137384
    16  H   -0.131036
    17  H   -0.131027
    18  H    0.040897
    19  H   -0.024827
    20  H   -0.024825
 Sum of Mulliken charges =  -0.00000

 Dipole moment (field-independent basis, Debye):
    X=              1.2776    Y=              5.2331    Z=             -0.0010  Tot=              5.3868

 Test job not archived.
 1\1\GINC-SE190\SP\RHF\Aug-CC-pVDZ\C5H12O2S1\OHZDE\05-Apr-2025\0\\#t hf
  aug-cc-pvdz iop(5/13=1,5/36=2,99/5=2) pseudo=read geom=check guess=(r
 ead,tcheck) scf=(maxcycle=1)\\title\\0,1\C,0,3.923243,-0.294842,0.0000
 54\C,0,2.698256,0.617692,-0.000087\C,0,1.382566,-0.165828,0.000024\C,0
 ,0.168891,0.759188,-0.000133\S,0,-1.375513,-0.194329,0.000033\C,0,-2.6
 59703,1.068823,-0.000208\O,0,-1.466231,-0.923301,-1.262796\O,0,-1.4662
 46,-0.922837,1.263128\H,0,3.934055,-0.938927,0.881033\H,0,3.93406,-0.9
 39189,-0.880734\H,0,4.846873,0.284744,-0.00003\H,0,2.73048,1.272993,-0

 Normal termination of Gaussian 16 at Sat Apr  5 22:15:54 2025.
