 Gaussian 16, Revision C.01,

 ----------------------------------------------------------------------
 #t hf aug-cc-pvdz symm=none int=(grid=ultrafine) guess=(read,tcheck) s
 table=(opt,rrhf)
 ----------------------------------------------------------------------
 -----
 title
 -----
 Symbolic Z-matrix:
 Charge =  0 Multiplicity = 1

 SCF Done:  E(RHF) =  -271.208333699     A.U. after   12 cycles

 1\1\GINC-SE177\Stability\RHF\Aug-CC-pVDZ\C5H12O1\OHZDE\05-Apr-2025\0\\
 #t hf aug-cc-pvdz symm=none int=(grid=ultrafine) guess=(read,tcheck) s
 table=(opt,rrhf)\\title\\0,1\C,0,1.48511,2.778995,0.\C,0,1.429424,1.25
 2245,0.\C,0,-1.555601,-2.629031,0.\O,0,-1.408397,-1.225844,0.\C,0,-0.0
 54114,-0.808031,0.\C,0,0.,0.708683,0.\H,0,-2.622301,-2.844448,0.\H,0,2
 .514453,3.139718,0.\H,0,0.988352,3.190751,0.880627\H,0,0.988352,3.1907
 51,-0.880627\H,0,1.964404,0.869962,0.874461\H,0,1.964404,0.869962,-0.8
 74461\H,0,-1.100454,-3.081175,0.889958\H,0,-1.100454,-3.081175,-0.8899

 Normal termination of Gaussian 16 at Sat Apr  5 22:12:48 2025.
 Gaussian 16:  ES64L-G16RevC.01  3-Jul-2019

 ----------------------------------------------------------------------
 #t hf aug-cc-pvdz iop(5/13=1,5/36=2,99/5=2) pseudo=read geom=check gue
 ss=(read,tcheck) scf=(maxcycle=1)
 ----------------------------------------------------------------------
 -----
 title
 -----
 Structure from the checkpoint file:  "1-methoxybutane.chk"
 Charge =  0 Multiplicity = 1

                         Standard orientation:
 ---------------------------------------------------------------------
 Center     Atomic      Atomic             Coordinates (Angstroms)
 Number     Number       Type             X           Y           Z
 ---------------------------------------------------------------------
      1          6           0        1.485110    2.778995    0.000000
      2          6           0        1.429424    1.252245    0.000000
      3          6           0       -1.555601   -2.629031    0.000000
      4          8           0       -1.408397   -1.225844    0.000000
      5          6           0       -0.054114   -0.808031    0.000000
      6          6           0        0.000000    0.708683    0.000000
      7          1           0       -2.622301   -2.844448    0.000000
      8          1           0        2.514453    3.139718    0.000000
      9          1           0        0.988352    3.190751    0.880627
     10          1           0        0.988352    3.190751   -0.880627
     11          1           0        1.964404    0.869962    0.874461
     12          1           0        1.964404    0.869962   -0.874461
     13          1           0       -1.100454   -3.081175    0.889958
     14          1           0       -1.100454   -3.081175   -0.889958
     15          1           0       -0.538951    1.078011   -0.876368
     16          1           0       -0.538951    1.078011    0.876368
     17          1           0        0.459702   -1.210388   -0.884985
     18          1           0        0.459702   -1.210388    0.884985
 ---------------------------------------------------------------------

 SCF Done:  E(RHF) =  -271.298294876     A.U. after    2 cycles

 The electronic state is 1-A'.
 Alpha  occ. eigenvalues --  -20.56547 -11.27988 -11.27878 -11.22933 -11.22330
 Alpha  occ. eigenvalues --  -11.22198  -1.32885  -1.06525  -0.98628  -0.91105
 Alpha  occ. eigenvalues --   -0.84263  -0.79701  -0.68015  -0.65495  -0.63823
 Alpha  occ. eigenvalues --   -0.62775  -0.57284  -0.56719  -0.53913  -0.50885
 Alpha  occ. eigenvalues --   -0.49403  -0.47693  -0.46935  -0.46791  -0.43199
 Alpha virt. eigenvalues --    0.03572   0.04184   0.04854   0.04870   0.05985
 Alpha virt. eigenvalues --    0.06460   0.06583   0.07463   0.08366   0.08961
 Alpha virt. eigenvalues --    0.09064   0.10889   0.11384   0.13363   0.14081

 Mulliken charges:
               1
     1  C    0.388583
     2  C    0.264645
     3  C    0.726348
     4  O   -0.639877
     5  C    0.753007
     6  C    0.087538
     7  H   -0.278452
     8  H   -0.065279
     9  H   -0.078927
    10  H   -0.078927
    11  H   -0.144581
    12  H   -0.144581
    13  H   -0.068295
    14  H   -0.068295
    15  H   -0.136157
    16  H   -0.136157
    17  H   -0.190296
    18  H   -0.190296
 Sum of Mulliken charges =  -0.00000

 Dipole moment (field-independent basis, Debye):
    X=              1.1954    Y=             -0.7978    Z=              0.0000  Tot=              1.4371

 Test job not archived.
 1\1\GINC-SE177\SP\RHF\Aug-CC-pVDZ\C5H12O1\OHZDE\05-Apr-2025\0\\#t hf a
 ug-cc-pvdz iop(5/13=1,5/36=2,99/5=2) pseudo=read geom=check guess=(rea
 d,tcheck) scf=(maxcycle=1)\\title\\0,1\C,0,1.48511,2.778995,0.\C,0,1.4
 29424,1.252245,0.\C,0,-1.555601,-2.629031,0.\O,0,-1.408397,-1.225844,0
 .\C,0,-0.054114,-0.808031,0.\C,0,0.,0.708683,0.\H,0,-2.622301,-2.84444
 8,0.\H,0,2.514453,3.139718,0.\H,0,0.988352,3.190751,0.880627\H,0,0.988
 352,3.190751,-0.880627\H,0,1.964404,0.869962,0.874461\H,0,1.964404,0.8
 69962,-0.874461\H,0,-1.100454,-3.081175,0.889958\H,0,-1.100454,-3.0811

 Normal termination of Gaussian 16 at Sat Apr  5 22:12:54 2025.
