 Gaussian 16, Revision C.01,

 ----------------------------------------------------------------------
 #t hf aug-cc-pvdz symm=none int=(grid=ultrafine) guess=(read,tcheck) s
 table=(opt,rrhf)
 ----------------------------------------------------------------------
 -----
 title
 -----
 Symbolic Z-matrix:
 Charge =  0 Multiplicity = 1

 SCF Done:  E(RHF) =  -589.523408539     A.U. after   14 cycles
 Normal termination of Gaussian 16 at Sat Apr  5 22:13:56 2025.
 Gaussian 16:  ES64L-G16RevC.01  3-Jul-2019

 ----------------------------------------------------------------------
 #t hf aug-cc-pvdz iop(5/13=1,5/36=2,99/5=2) pseudo=read geom=check gue
 ss=(read,tcheck) scf=(maxcycle=1)
 ----------------------------------------------------------------------
 -----
 title
 -----
 Structure from the checkpoint file:  "1-methylsulfanylethanone.chk"
 Charge =  0 Multiplicity = 1

                         Standard orientation:
 ---------------------------------------------------------------------
 Center     Atomic      Atomic             Coordinates (Angstroms)
 Number     Number       Type             X           Y           Z
 ---------------------------------------------------------------------
      1          6           0        0.754145    0.274218   -0.000001
      2          6           0        2.080251   -0.448669   -0.000000
      3          6           0       -2.006474    0.397153    0.000001
      4          8           0        0.648332    1.474901   -0.000000
      5         16           0       -0.661464   -0.824798   -0.000000
      6          1           0        1.966836   -1.530536   -0.000035
      7          1           0        2.644386   -0.141223    0.880822
      8          1           0        2.644418   -0.141166   -0.880780
      9          1           0       -1.944496    1.019312    0.888116
     10          1           0       -2.937384   -0.164322    0.000020
     11          1           0       -1.944520    1.019289   -0.888133
 ---------------------------------------------------------------------

 SCF Done:  E(RHF) =  -589.606536216     A.U. after    2 cycles

 The electronic state is 1-A.
 Alpha  occ. eigenvalues --  -93.55065 -20.57281 -11.37700 -11.27053 -11.25660
 Alpha  occ. eigenvalues --   -8.84948  -6.19081  -6.18846  -6.18549  -1.37023
 Alpha  occ. eigenvalues --   -1.05863  -1.01171  -0.89046  -0.73919  -0.66014
 Alpha  occ. eigenvalues --   -0.64880  -0.62690  -0.59434  -0.59164  -0.54980
 Alpha  occ. eigenvalues --   -0.52858  -0.48174  -0.41672  -0.37170
 Alpha virt. eigenvalues --    0.03536   0.04189   0.05508   0.05630   0.06716
 Alpha virt. eigenvalues --    0.07149   0.08880   0.11327   0.11595   0.12910
 Alpha virt. eigenvalues --    0.13622   0.13669   0.14224   0.16185   0.16259

 Mulliken charges:
               1
     1  C   -0.204614
     2  C    0.458647
     3  C    0.090171
     4  O   -0.522625
     5  S    0.366654
     6  H   -0.079570
     7  H    0.034430
     8  H    0.034420
     9  H   -0.035724
    10  H   -0.106067
    11  H   -0.035723
 Sum of Mulliken charges =   0.00000

 Dipole moment (field-independent basis, Debye):
    X=             -0.1633    Y=             -1.7458    Z=              0.0000  Tot=              1.7534

 Test job not archived.
 1\1\GINC-SE180\SP\RHF\Aug-CC-pVDZ\C3H6O1S1\OHZDE\05-Apr-2025\0\\#t hf
 aug-cc-pvdz iop(5/13=1,5/36=2,99/5=2) pseudo=read geom=check guess=(re
 ad,tcheck) scf=(maxcycle=1)\\title\\0,1\C,0,0.754145,0.274218,-0.00000
 1\C,0,2.080251,-0.448669,0.\C,0,-2.006474,0.397153,0.000001\O,0,0.6483
 32,1.474901,0.\S,0,-0.661464,-0.824798,0.\H,0,1.966836,-1.530536,-0.00
 0035\H,0,2.644386,-0.141223,0.880822\H,0,2.644418,-0.141166,-0.88078\H
 ,0,-1.944496,1.019312,0.888116\H,0,-2.937384,-0.164322,0.00002\H,0,-1.
 94452,1.019289,-0.888133\\Version=ES64L-G16RevC.01\State=1-A\HF=-589.6

 Normal termination of Gaussian 16 at Sat Apr  5 22:14:00 2025.
