 Gaussian 16, Revision C.01,

 ----------------------------------------------------------------------
 #t hf aug-cc-pvdz symm=none int=(grid=ultrafine) guess=(read,tcheck) s
 table=(opt,rrhf)
 ----------------------------------------------------------------------
 -----
 title
 -----
 Symbolic Z-matrix:
 Charge =  0 Multiplicity = 1

 SCF Done:  E(RHF) =  -247.869753955     A.U. after   13 cycles
 Normal termination of Gaussian 16 at Sat Apr  5 22:13:09 2025.
 Gaussian 16:  ES64L-G16RevC.01  3-Jul-2019

 ----------------------------------------------------------------------
 #t hf aug-cc-pvdz iop(5/13=1,5/36=2,99/5=2) pseudo=read geom=check gue
 ss=(read,tcheck) scf=(maxcycle=1)
 ----------------------------------------------------------------------
 -----
 title
 -----
 Structure from the checkpoint file:  "1-methyl-1H-pyrrole.chk"
 Charge =  0 Multiplicity = 1

                         Standard orientation:
 ---------------------------------------------------------------------
 Center     Atomic      Atomic             Coordinates (Angstroms)
 Number     Number       Type             X           Y           Z
 ---------------------------------------------------------------------
      1          6           0       -0.016408   -1.487716    0.709392
      2          6           0       -0.016408   -1.487716   -0.709392
      3          6           0       -0.016408   -0.174043    1.115752
      4          6           0       -0.016408   -0.174043   -1.115752
      5          6           0        0.066679    2.069240    0.000000
      6          7           0       -0.023110    0.623459    0.000000
      7          1           0       -0.026850   -2.347321    1.357432
      8          1           0       -0.026850   -2.347321   -1.357432
      9          1           0       -0.017376    0.257756    2.101616
     10          1           0       -0.017376    0.257756   -2.101616
     11          1           0       -0.430683    2.466938    0.882657
     12          1           0        1.105307    2.406717    0.000000
     13          1           0       -0.430683    2.466938   -0.882657
 ---------------------------------------------------------------------

 SCF Done:  E(RHF) =  -247.946678269     A.U. after    2 cycles

 The electronic state is 1-A'.
 Alpha  occ. eigenvalues --  -15.66809 -11.28356 -11.25625 -11.25616 -11.21543
 Alpha  occ. eigenvalues --  -11.21450  -1.26768  -1.06608  -0.97146  -0.92863
 Alpha  occ. eigenvalues --   -0.77442  -0.75032  -0.71273  -0.63508  -0.60646
 Alpha  occ. eigenvalues --   -0.57462  -0.56753  -0.53122  -0.52952  -0.52210
 Alpha  occ. eigenvalues --   -0.33350  -0.29686
 Alpha virt. eigenvalues --    0.03200   0.04060   0.04405   0.05383   0.06161
 Alpha virt. eigenvalues --    0.06473   0.08370   0.10772   0.11701   0.13303
 Alpha virt. eigenvalues --    0.13503   0.13924   0.14655   0.15353   0.15595

 Mulliken charges:
               1
     1  C    0.295878
     2  C    0.295878
     3  C    0.482860
     4  C    0.482860
     5  C    0.839367
     6  N   -0.363188
     7  H   -0.336292
     8  H   -0.336292
     9  H   -0.454810
    10  H   -0.454810
    11  H   -0.188697
    12  H   -0.074058
    13  H   -0.188697
 Sum of Mulliken charges =   0.00000

 Dipole moment (field-independent basis, Debye):
    X=              0.0446    Y=              2.2488    Z=             -0.0000  Tot=              2.2492

 Test job not archived.
 1\1\GINC-SE176\SP\RHF\Aug-CC-pVDZ\C5H7N1\OHZDE\05-Apr-2025\0\\#t hf au
 g-cc-pvdz iop(5/13=1,5/36=2,99/5=2) pseudo=read geom=check guess=(read
 ,tcheck) scf=(maxcycle=1)\\title\\0,1\C,0,-0.016408,-1.487716,0.709392
 \C,0,-0.016408,-1.487716,-0.709392\C,0,-0.016408,-0.174043,1.115752\C,
 0,-0.016408,-0.174043,-1.115752\C,0,0.066679,2.06924,0.\N,0,-0.02311,0
 .623459,0.\H,0,-0.02685,-2.347321,1.357432\H,0,-0.02685,-2.347321,-1.3
 57432\H,0,-0.017376,0.257756,2.101616\H,0,-0.017376,0.257756,-2.101616
 \H,0,-0.430683,2.466938,0.882657\H,0,1.105307,2.406717,0.\H,0,-0.43068

 Normal termination of Gaussian 16 at Sat Apr  5 22:13:48 2025.
