 Gaussian 16, Revision C.01,

 ----------------------------------------------------------------------
 #t hf aug-cc-pvdz symm=none int=(grid=ultrafine) guess=(read,tcheck) s
 table=(opt,rrhf)
 ----------------------------------------------------------------------
 -----
 title
 -----
 Symbolic Z-matrix:
 Charge =  0 Multiplicity = 1

 SCF Done:  E(RHF) =  -268.811718456     A.U. after   13 cycles
 Normal termination of Gaussian 16 at Sat Apr  5 22:12:21 2025.
 Gaussian 16:  ES64L-G16RevC.01  3-Jul-2019

 ----------------------------------------------------------------------
 #t hf aug-cc-pvdz iop(5/13=1,5/36=2,99/5=2) pseudo=read geom=check gue
 ss=(read,tcheck) scf=(maxcycle=1)
 ----------------------------------------------------------------------
 -----
 title
 -----
 Structure from the checkpoint file:  "1-methoxybut-2-yne.chk"
 Charge =  0 Multiplicity = 1

                         Standard orientation:
 ---------------------------------------------------------------------
 Center     Atomic      Atomic             Coordinates (Angstroms)
 Number     Number       Type             X           Y           Z
 ---------------------------------------------------------------------
      1          6           0       -1.854995    0.059212    0.000286
      2          6           0       -0.682965    0.318398    0.000121
      3          6           0       -3.272404   -0.269344   -0.000016
      4          6           0        2.908916   -0.231355   -0.000182
      5          6           0        0.731823    0.658966   -0.000000
      6          8           0        1.525377   -0.520062    0.000268
      7          1           0       -3.785213    0.196056   -0.843401
      8          1           0       -3.757047    0.068458    0.917494
      9          1           0       -3.416982   -1.348358   -0.076266
     10          1           0        3.201339    0.338694    0.890135
     11          1           0        3.200880    0.338009   -0.891089
     12          1           0        3.434078   -1.183772    0.000063
     13          1           0        0.968850    1.268307    0.883485
     14          1           0        0.968823    1.267833   -0.883814
 ---------------------------------------------------------------------

 SCF Done:  E(RHF) =  -268.900873165     A.U. after    2 cycles

 The electronic state is 1-A.
 Alpha  occ. eigenvalues --  -20.57591 -11.31181 -11.28501 -11.25579 -11.23734
 Alpha  occ. eigenvalues --  -11.22741  -1.33847  -1.05897  -1.00369  -0.93613
 Alpha  occ. eigenvalues --   -0.88483  -0.69930  -0.68105  -0.66481  -0.63047
 Alpha  occ. eigenvalues --   -0.59155  -0.58855  -0.56974  -0.56568  -0.50338
 Alpha  occ. eigenvalues --   -0.44962  -0.38028  -0.36989
 Alpha virt. eigenvalues --    0.03456   0.03791   0.05146   0.05274   0.06396
 Alpha virt. eigenvalues --    0.06610   0.06671   0.08656   0.09793   0.11274
 Alpha virt. eigenvalues --    0.13298   0.14147   0.14491   0.14930   0.15757

 Mulliken charges:
               1
     1  C   -0.753951
     2  C   -0.297881
     3  C    0.250163
     4  C    0.728111
     5  C    0.401526
     6  O   -0.618786
     7  H    0.151463
     8  H    0.150928
     9  H    0.161458
    10  H   -0.057232
    11  H   -0.057223
    12  H   -0.254830
    13  H    0.098020
    14  H    0.098233
 Sum of Mulliken charges =  -0.00000

 Dipole moment (field-independent basis, Debye):
    X=              0.2156    Y=              1.2681    Z=             -0.0028  Tot=              1.2863

 Test job not archived.
 1\1\GINC-SE175\SP\RHF\Aug-CC-pVDZ\C5H8O1\OHZDE\05-Apr-2025\0\\#t hf au
 g-cc-pvdz iop(5/13=1,5/36=2,99/5=2) pseudo=read geom=check guess=(read
 ,tcheck) scf=(maxcycle=1)\\title\\0,1\C,0,-1.854995,0.059212,0.000286\
 C,0,-0.682965,0.318398,0.000121\C,0,-3.272404,-0.269344,-0.000016\C,0,
 2.908916,-0.231355,-0.000182\C,0,0.731823,0.658966,0.\O,0,1.525377,-0.
 520062,0.000268\H,0,-3.785213,0.196056,-0.843401\H,0,-3.757047,0.06845
 8,0.917494\H,0,-3.416982,-1.348358,-0.076266\H,0,3.201339,0.338694,0.8
 90135\H,0,3.20088,0.338009,-0.891089\H,0,3.434078,-1.183772,0.000063\H

 Normal termination of Gaussian 16 at Sat Apr  5 22:12:52 2025.
