 Gaussian 16, Revision C.01,

 ----------------------------------------------------------------------
 #t hf aug-cc-pvdz symm=none int=(grid=ultrafine) guess=(read,tcheck) s
 table=(opt,rrhf)
 ----------------------------------------------------------------------
 -----
 title
 -----
 Symbolic Z-matrix:
 Charge =  0 Multiplicity = 1

 SCF Done:  E(RHF) =  -422.913895800     A.U. after   14 cycles

 1\1\GINC-SE172\Stability\RHF\Aug-CC-pVDZ\C7H14O2\OHZDE\05-Apr-2025\0\\
 #t hf aug-cc-pvdz symm=none int=(grid=ultrafine) guess=(read,tcheck) s
 table=(opt,rrhf)\\title\\0,1\O,0,-2.016926,-1.21602,-0.772187\O,0,-1.0
 5402,-0.153372,-1.018473\C,0,-0.59446,0.399667,0.242789\C,0,-1.748089,
 1.091571,0.961695\C,0,0.047512,-0.692223,1.111646\C,0,1.271993,-1.3373
 32,0.459293\C,0,2.312818,-0.289435,0.056807\C,0,1.699456,0.775969,-0.8
 55005\C,0,0.461929,1.417906,-0.220985\H,0,-2.812365,-0.822759,-1.15403
 4\H,0,-2.514347,0.371918,1.247143\H,0,-2.19849,1.849073,0.318379\H,0,-

 Normal termination of Gaussian 16 at Sat Apr  5 22:15:03 2025.
 Gaussian 16:  ES64L-G16RevC.01  3-Jul-2019

 ----------------------------------------------------------------------
 #t hf aug-cc-pvdz iop(5/13=1,5/36=2,99/5=2) pseudo=read geom=check gue
 ss=(read,tcheck) scf=(maxcycle=1)
 ----------------------------------------------------------------------
 -----
 title
 -----
 Structure from the checkpoint file:  "1-methylcyclohexylhydroperoxide.chk"
 Charge =  0 Multiplicity = 1

                         Standard orientation:
 ---------------------------------------------------------------------
 Center     Atomic      Atomic             Coordinates (Angstroms)
 Number     Number       Type             X           Y           Z
 ---------------------------------------------------------------------
      1          8           0       -2.016926   -1.216020   -0.772187
      2          8           0       -1.054020   -0.153372   -1.018473
      3          6           0       -0.594460    0.399667    0.242789
      4          6           0       -1.748089    1.091571    0.961695
      5          6           0        0.047512   -0.692223    1.111646
      6          6           0        1.271993   -1.337332    0.459293
      7          6           0        2.312818   -0.289435    0.056807
      8          6           0        1.699456    0.775969   -0.855005
      9          6           0        0.461929    1.417906   -0.220985
     10          1           0       -2.812365   -0.822759   -1.154034
     11          1           0       -2.514347    0.371918    1.247143
     12          1           0       -2.198490    1.849073    0.318379
     13          1           0       -1.393009    1.581890    1.868465
     14          1           0        0.337697   -0.229451    2.059796
     15          1           0       -0.704912   -1.445089    1.346701
     16          1           0        0.955390   -1.894817   -0.424991
     17          1           0        1.710071   -2.062943    1.147967
     18          1           0        3.159370   -0.767676   -0.440398
     19          1           0        2.711283    0.189455    0.958403
     20          1           0        1.423587    0.321303   -1.808390
     21          1           0        2.433947    1.553119   -1.077801
     22          1           0       -0.005539    2.120714   -0.913867
     23          1           0        0.757931    1.993648    0.660473
 ---------------------------------------------------------------------

 SCF Done:  E(RHF) =  -423.043125781     A.U. after    2 cycles

 The electronic state is 1-A.
 Alpha  occ. eigenvalues --  -20.62942 -20.62787 -11.29571 -11.22893 -11.22482
 Alpha  occ. eigenvalues --  -11.22210 -11.22144 -11.22076 -11.21845  -1.41204
 Alpha  occ. eigenvalues --   -1.20631  -1.08945  -1.01702  -0.99910  -0.92366
 Alpha  occ. eigenvalues --   -0.83967  -0.80172  -0.74916  -0.72167  -0.67312
 Alpha  occ. eigenvalues --   -0.64060  -0.63114  -0.60623  -0.59375  -0.57924
 Alpha  occ. eigenvalues --   -0.55425  -0.54572  -0.53067  -0.52397  -0.50121
 Alpha  occ. eigenvalues --   -0.49266  -0.48627  -0.47111  -0.45354  -0.43063
 Alpha  occ. eigenvalues --   -0.42431
 Alpha virt. eigenvalues --    0.03434   0.04026   0.04365   0.04550   0.05950
 Alpha virt. eigenvalues --    0.06066   0.06218   0.06763   0.07069   0.08676
 Alpha virt. eigenvalues --    0.08871   0.08937   0.09410   0.09446   0.12990

 Mulliken charges:
               1
     1  O   -0.304486
     2  O   -0.534117
     3  C   -2.548047
     4  C    1.294044
     5  C    0.806846
     6  C    0.396735
     7  C    0.271858
     8  C    0.407629
     9  C    0.679746
    10  H    0.218273
    11  H   -0.005815
    12  H    0.040377
    13  H    0.030123
    14  H   -0.019186
    15  H   -0.071384
    16  H   -0.064036
    17  H   -0.098286
    18  H   -0.132752
    19  H   -0.095992
    20  H   -0.072462
    21  H   -0.097533
    22  H   -0.103737
    23  H    0.002203
 Sum of Mulliken charges =   0.00000

 Dipole moment (field-independent basis, Debye):
    X=             -0.5601    Y=              1.3345    Z=              0.9358  Tot=              1.7235

 Test job not archived.
 1\1\GINC-SE172\SP\RHF\Aug-CC-pVDZ\C7H14O2\OHZDE\05-Apr-2025\0\\#t hf a
 ug-cc-pvdz iop(5/13=1,5/36=2,99/5=2) pseudo=read geom=check guess=(rea
 d,tcheck) scf=(maxcycle=1)\\title\\0,1\O,0,-2.016926,-1.21602,-0.77218
 7\O,0,-1.05402,-0.153372,-1.018473\C,0,-0.59446,0.399667,0.242789\C,0,
 -1.748089,1.091571,0.961695\C,0,0.047512,-0.692223,1.111646\C,0,1.2719
 93,-1.337332,0.459293\C,0,2.312818,-0.289435,0.056807\C,0,1.699456,0.7
 75969,-0.855005\C,0,0.461929,1.417906,-0.220985\H,0,-2.812365,-0.82275
 9,-1.154034\H,0,-2.514347,0.371918,1.247143\H,0,-2.19849,1.849073,0.31

 Normal termination of Gaussian 16 at Sat Apr  5 22:15:56 2025.
