 Gaussian 16, Revision C.01,

 ----------------------------------------------------------------------
 #t hf aug-cc-pvdz symm=none int=(grid=ultrafine) guess=(read,tcheck) s
 table=(opt,rrhf)
 ----------------------------------------------------------------------
 -----
 title
 -----
 Symbolic Z-matrix:
 Charge =  0 Multiplicity = 1

 SCF Done:  E(RHF) =  -272.087956124     A.U. after   13 cycles
 Normal termination of Gaussian 16 at Sat Apr  5 22:13:40 2025.
 Gaussian 16:  ES64L-G16RevC.01  3-Jul-2019

 ----------------------------------------------------------------------
 #t hf aug-cc-pvdz iop(5/13=1,5/36=2,99/5=2) pseudo=read geom=check gue
 ss=(read,tcheck) scf=(maxcycle=1)
 ----------------------------------------------------------------------
 -----
 title
 -----
 Structure from the checkpoint file:  "1-methylcyclohexene.chk"
 Charge =  0 Multiplicity = 1

                         Standard orientation:
 ---------------------------------------------------------------------
 Center     Atomic      Atomic             Coordinates (Angstroms)
 Number     Number       Type             X           Y           Z
 ---------------------------------------------------------------------
      1          6           0       -0.310382    1.216690   -0.089709
      2          6           0       -1.007899    0.083990    0.004985
      3          6           0        1.192425    1.294994   -0.102231
      4          6           0       -0.326807   -1.262539    0.080273
      5          6           0        1.847130   -0.015210    0.343539
      6          6           0        1.153813   -1.212625   -0.305738
      7          6           0       -2.509324    0.066544    0.050173
      8          1           0       -0.847383    2.157642   -0.160153
      9          1           0        1.536186    1.559736   -1.109789
     10          1           0        1.519991    2.116878    0.540709
     11          1           0       -0.437051   -1.659080    1.097370
     12          1           0       -0.858397   -1.969943   -0.563834
     13          1           0        2.911702   -0.007513    0.101968
     14          1           0        1.771087   -0.104427    1.431482
     15          1           0        1.646877   -2.144880   -0.023372
     16          1           0        1.239620   -1.129025   -1.393390
     17          1           0       -2.926173    1.072865    0.023793
     18          1           0       -2.868014   -0.426132    0.959054
     19          1           0       -2.922178   -0.497188   -0.791594
 ---------------------------------------------------------------------

 SCF Done:  E(RHF) =  -272.171518074     A.U. after    2 cycles

 The electronic state is 1-A.
 Alpha  occ. eigenvalues --  -11.23254 -11.22720 -11.22587 -11.22420 -11.22370
 Alpha  occ. eigenvalues --  -11.22270 -11.21900  -1.11279  -1.02573  -0.99360
 Alpha  occ. eigenvalues --   -0.91916  -0.84366  -0.80125  -0.69005  -0.64701
 Alpha  occ. eigenvalues --   -0.61284  -0.59091  -0.58752  -0.56245  -0.54739
 Alpha  occ. eigenvalues --   -0.52091  -0.51582  -0.50817  -0.46354  -0.45077
 Alpha  occ. eigenvalues --   -0.43503  -0.33198
 Alpha virt. eigenvalues --    0.03596   0.04149   0.04380   0.04758   0.05898
 Alpha virt. eigenvalues --    0.06333   0.06637   0.07083   0.07360   0.08745
 Alpha virt. eigenvalues --    0.09110   0.09520   0.12538   0.13295   0.13851

 Mulliken charges:
               1
     1  C    0.235435
     2  C   -0.838914
     3  C    0.069554
     4  C    0.059440
     5  C    0.504400
     6  C    0.499521
     7  C    0.390397
     8  H   -0.534608
     9  H    0.049578
    10  H    0.020818
    11  H    0.052660
    12  H    0.014021
    13  H   -0.062441
    14  H   -0.151065
    15  H   -0.071749
    16  H   -0.146712
    17  H   -0.177691
    18  H    0.044424
    19  H    0.042933
 Sum of Mulliken charges =  -0.00000

 Dipole moment (field-independent basis, Debye):
    X=              0.0801    Y=             -0.2667    Z=              0.0250  Tot=              0.2796

 Test job not archived.
 1\1\GINC-SE170\SP\RHF\Aug-CC-pVDZ\C7H12\OHZDE\05-Apr-2025\0\\#t hf aug
 -cc-pvdz iop(5/13=1,5/36=2,99/5=2) pseudo=read geom=check guess=(read,
 tcheck) scf=(maxcycle=1)\\title\\0,1\C,0,-0.310382,1.21669,-0.089709\C
 ,0,-1.007899,0.08399,0.004985\C,0,1.192425,1.294994,-0.102231\C,0,-0.3
 26807,-1.262539,0.080273\C,0,1.84713,-0.01521,0.343539\C,0,1.153813,-1
 .212625,-0.305738\C,0,-2.509324,0.066544,0.050173\H,0,-0.847383,2.1576
 42,-0.160153\H,0,1.536186,1.559736,-1.109789\H,0,1.519991,2.116878,0.5
 40709\H,0,-0.437051,-1.65908,1.09737\H,0,-0.858397,-1.969943,-0.563834

 Normal termination of Gaussian 16 at Sat Apr  5 22:13:54 2025.
