 Gaussian 16, Revision C.01,

 ----------------------------------------------------------------------
 #t hf aug-cc-pvdz symm=none int=(grid=ultrafine) guess=(read,tcheck) s
 table=(opt,rrhf)
 ----------------------------------------------------------------------
 -----
 title
 -----
 Symbolic Z-matrix:
 Charge =  0 Multiplicity = 1

 SCF Done:  E(RHF) =  -569.671105986     A.U. after   14 cycles
 Normal termination of Gaussian 16 at Sat Apr  5 22:14:00 2025.
 Gaussian 16:  ES64L-G16RevC.01  3-Jul-2019

 ----------------------------------------------------------------------
 #t hf aug-cc-pvdz iop(5/13=1,5/36=2,99/5=2) pseudo=read geom=check gue
 ss=(read,tcheck) scf=(maxcycle=1)
 ----------------------------------------------------------------------
 -----
 title
 -----
 Structure from the checkpoint file:  "1-methylsulfanylethanimine.chk"
 Charge =  0 Multiplicity = 1

                         Standard orientation:
 ---------------------------------------------------------------------
 Center     Atomic      Atomic             Coordinates (Angstroms)
 Number     Number       Type             X           Y           Z
 ---------------------------------------------------------------------
      1          6           0        0.000000    0.825176    0.000000
      2          6           0        1.158271    1.785300    0.000000
      3          6           0       -1.007571   -1.801949    0.000000
      4          7           0       -1.193183    1.247338    0.000000
      5         16           0        0.556958   -0.883144    0.000000
      6          1           0        1.784741    1.632779    0.879911
      7          1           0        1.784741    1.632779   -0.879911
      8          1           0        0.775934    2.802688    0.000000
      9          1           0       -0.737538   -2.855412    0.000000
     10          1           0       -1.589589   -1.586821   -0.894274
     11          1           0       -1.589589   -1.586821    0.894274
     12          1           0       -1.891951    0.508598    0.000000
 ---------------------------------------------------------------------

 SCF Done:  E(RHF) =  -569.745903178     A.U. after    2 cycles

 The electronic state is 1-A'.
 Alpha  occ. eigenvalues --  -93.54796 -15.61582 -11.33037 -11.27964 -11.24284
 Alpha  occ. eigenvalues --   -8.84627  -6.18781  -6.18548  -6.18219  -1.19675
 Alpha  occ. eigenvalues --   -1.04129  -0.99684  -0.88430  -0.74649  -0.66056
 Alpha  occ. eigenvalues --   -0.61332  -0.60485  -0.59061  -0.57151  -0.52905
 Alpha  occ. eigenvalues --   -0.48209  -0.45586  -0.39807  -0.35239
 Alpha virt. eigenvalues --    0.03288   0.04309   0.05090   0.05388   0.06847
 Alpha virt. eigenvalues --    0.07056   0.08180   0.09582   0.11272   0.13230
 Alpha virt. eigenvalues --    0.13469   0.13563   0.15011   0.15340   0.15859

 Mulliken charges:
               1
     1  C   -0.235284
     2  C    0.335627
     3  C    0.114936
     4  N   -0.350289
     5  S    0.390114
     6  H    0.030392
     7  H    0.030392
     8  H   -0.077698
     9  H   -0.196994
    10  H   -0.022356
    11  H   -0.022356
    12  H    0.003516
 Sum of Mulliken charges =  -0.00000

 Dipole moment (field-independent basis, Debye):
    X=             -0.0732    Y=             -1.7609    Z=              0.0000  Tot=              1.7625

 Test job not archived.
 1\1\GINC-SE177\SP\RHF\Aug-CC-pVDZ\C3H7N1S1\OHZDE\05-Apr-2025\0\\#t hf
 aug-cc-pvdz iop(5/13=1,5/36=2,99/5=2) pseudo=read geom=check guess=(re
 ad,tcheck) scf=(maxcycle=1)\\title\\0,1\C,0,0.,0.825176,0.\C,0,1.15827
 1,1.7853,0.\C,0,-1.007571,-1.801949,0.\N,0,-1.193183,1.247338,0.\S,0,0
 .556958,-0.883144,0.\H,0,1.784741,1.632779,0.879911\H,0,1.784741,1.632
 779,-0.879911\H,0,0.775934,2.802688,0.\H,0,-0.737538,-2.855412,0.\H,0,
 -1.589589,-1.586821,-0.894274\H,0,-1.589589,-1.586821,0.894274\H,0,-1.
 891951,0.508598,0.\\Version=ES64L-G16RevC.01\State=1-A'\HF=-569.745903

 Normal termination of Gaussian 16 at Sat Apr  5 22:14:41 2025.
