 Gaussian 16, Revision C.01,

 ----------------------------------------------------------------------
 #t hf aug-cc-pvdz symm=none int=(grid=ultrafine) guess=(read,tcheck) s
 table=(opt,rrhf)
 ----------------------------------------------------------------------
 -----
 title
 -----
 Symbolic Z-matrix:
 Charge =  0 Multiplicity = 1

 SCF Done:  E(RHF) =  -295.831913771     A.U. after   16 cycles
 Normal termination of Gaussian 16 at Sat Apr  5 22:12:59 2025.
 Gaussian 16:  ES64L-G16RevC.01  3-Jul-2019

 ----------------------------------------------------------------------
 #t hf aug-cc-pvdz iop(5/13=1,5/36=2,99/5=2) pseudo=read geom=check gue
 ss=(read,tcheck) scf=(maxcycle=1)
 ----------------------------------------------------------------------
 -----
 title
 -----
 Structure from the checkpoint file:  "1-methyl-1H-tetrazole.chk"
 Charge =  0 Multiplicity = 1

                         Standard orientation:
 ---------------------------------------------------------------------
 Center     Atomic      Atomic             Coordinates (Angstroms)
 Number     Number       Type             X           Y           Z
 ---------------------------------------------------------------------
      1          6           0       -0.115632    2.015647    0.000000
      2          1           0       -0.652547    2.342305    0.887714
      3          1           0       -0.652547    2.342305   -0.887714
      4          1           0        0.882425    2.445220    0.000000
      5          7           0        0.000000    0.569086    0.000000
      6          7           0       -1.090343   -0.221557    0.000000
      7          7           0       -0.666004   -1.437578    0.000000
      8          1           0        2.096573    0.126082    0.000000
      9          6           0        1.080585   -0.227007    0.000000
     10          7           0        0.690116   -1.479630    0.000000
 ---------------------------------------------------------------------

 SCF Done:  E(RHF) =  -295.916255182     A.U. after    2 cycles

 The electronic state is 1-A'.
 Alpha  occ. eigenvalues --  -15.74263 -15.71901 -15.70756 -15.66286 -11.34040
 Alpha  occ. eigenvalues --  -11.31818  -1.44620  -1.23035  -1.15989  -1.01189
 Alpha  occ. eigenvalues --   -0.88027  -0.84481  -0.74206  -0.69864  -0.65654
 Alpha  occ. eigenvalues --   -0.61695  -0.60438  -0.55250  -0.46503  -0.45279
 Alpha  occ. eigenvalues --   -0.42469  -0.40717
 Alpha virt. eigenvalues --    0.01857   0.03711   0.04359   0.05857   0.09218
 Alpha virt. eigenvalues --    0.09473   0.10516   0.12812   0.13722   0.14114
 Alpha virt. eigenvalues --    0.14716   0.15066   0.15755   0.17105   0.17237

 Mulliken charges:
               1
     1  C    0.924484
     2  H   -0.065468
     3  H   -0.065468
     4  H   -0.200354
     5  N   -0.354719
     6  N   -0.172132
     7  N   -0.261718
     8  H   -0.268345
     9  C    0.832226
    10  N   -0.368505
 Sum of Mulliken charges =  -0.00000

 Dipole moment (field-independent basis, Debye):
    X=              2.3152    Y=              5.6723    Z=             -0.0000  Tot=              6.1266

 Test job not archived.
 1\1\GINC-SE107\SP\RHF\Aug-CC-pVDZ\C2H4N4\OHZDE\05-Apr-2025\0\\#t hf au
 g-cc-pvdz iop(5/13=1,5/36=2,99/5=2) pseudo=read geom=check guess=(read
 ,tcheck) scf=(maxcycle=1)\\title\\0,1\C,0,-0.115632,2.015647,0.\H,0,-0
 .652547,2.342305,0.887714\H,0,-0.652547,2.342305,-0.887714\H,0,0.88242
 5,2.44522,0.\N,0,0.,0.569086,0.\N,0,-1.090343,-0.221557,0.\N,0,-0.6660
 04,-1.437578,0.\H,0,2.096573,0.126082,0.\C,0,1.080585,-0.227007,0.\N,0
 ,0.690116,-1.47963,0.\\Version=ES64L-G16RevC.01\State=1-A'\HF=-295.916
 2552\RMSD=3.012e-03\Dipole=0.9108532,2.2316724,0.\Quadrupole=0.2321415

 Normal termination of Gaussian 16 at Sat Apr  5 22:13:49 2025.
