 Gaussian 16, Revision C.01,

 ----------------------------------------------------------------------
 #t hf aug-cc-pvdz symm=none int=(grid=ultrafine) guess=(read,tcheck) s
 table=(opt,rrhf)
 ----------------------------------------------------------------------
 -----
 title
 -----
 Symbolic Z-matrix:
 Charge =  0 Multiplicity = 1

 SCF Done:  E(RHF) =  -856.004703470     A.U. after   15 cycles
 Normal termination of Gaussian 16 at Sat Apr  5 22:15:16 2025.
 Gaussian 16:  ES64L-G16RevC.01  3-Jul-2019

 ----------------------------------------------------------------------
 #t hf aug-cc-pvdz iop(5/13=1,5/36=2,99/5=2) pseudo=read geom=check gue
 ss=(read,tcheck) scf=(maxcycle=1)
 ----------------------------------------------------------------------
 -----
 title
 -----
 Structure from the checkpoint file:  "1-methyl-4-methylsulfonylbenzene.chk"
 Charge =  0 Multiplicity = 1

                         Standard orientation:
 ---------------------------------------------------------------------
 Center     Atomic      Atomic             Coordinates (Angstroms)
 Number     Number       Type             X           Y           Z
 ---------------------------------------------------------------------
      1          6           0       -1.656245   -2.355698   -0.000000
      2         16           0        0.088738   -1.905377   -0.000000
      3          8           0        0.654560   -2.357841    1.267005
      4          8           0        0.654560   -2.357841   -1.267005
      5          6           0        0.080334   -0.110707   -0.000000
      6          6           0        0.087584    0.574569   -1.208898
      7          6           0        0.087584    1.962499   -1.199749
      8          6           0        0.081470    2.677518    0.000000
      9          6           0        0.055105    4.182111    0.000000
     10          6           0        0.087584    1.962499    1.199749
     11          6           0        0.087584    0.574569    1.208898
     12          1           0       -2.123209   -1.961947   -0.898464
     13          1           0       -1.678863   -3.443534   -0.000000
     14          1           0       -2.123209   -1.961947    0.898464
     15          1           0        0.119138    0.024829   -2.138786
     16          1           0        0.104503    2.498591   -2.139961
     17          1           0        0.546532    4.588743    0.883175
     18          1           0       -0.973845    4.550449    0.000000
     19          1           0        0.546532    4.588743   -0.883175
     20          1           0        0.104503    2.498591    2.139961
     21          1           0        0.119138    0.024829    2.138786
 ---------------------------------------------------------------------

 SCF Done:  E(RHF) =  -856.215568716     A.U. after    2 cycles

 The electronic state is 1-A'.
 Alpha  occ. eigenvalues --  -93.77839 -20.55104 -20.55102 -11.28366 -11.28295
 Alpha  occ. eigenvalues --  -11.27951 -11.27460 -11.27449 -11.26117 -11.26112
 Alpha  occ. eigenvalues --  -11.25240  -9.04513  -6.39150  -6.38944  -6.38870
 Alpha  occ. eigenvalues --   -1.40671  -1.29345  -1.17653  -1.07769  -1.03707
 Alpha  occ. eigenvalues --   -1.02998  -0.96347  -0.86576  -0.85979  -0.79981
 Alpha  occ. eigenvalues --   -0.72948  -0.68074  -0.67338  -0.66205  -0.65029
 Alpha  occ. eigenvalues --   -0.64058  -0.61763  -0.60523  -0.60227  -0.59765
 Alpha  occ. eigenvalues --   -0.56496  -0.53935  -0.52192  -0.51723  -0.51184
 Alpha  occ. eigenvalues --   -0.50228  -0.48461  -0.44811  -0.36460  -0.36183
 Alpha virt. eigenvalues --    0.02674   0.03513   0.03734   0.04647   0.04992
 Alpha virt. eigenvalues --    0.05627   0.06631   0.06995   0.07278   0.07991
 Alpha virt. eigenvalues --    0.08269   0.09327   0.09377   0.11709   0.12174

 Mulliken charges:
               1
     1  C   -0.044460
     2  S    2.732041
     3  O   -1.160724
     4  O   -1.160724
     5  C    0.369006
     6  C   -0.192120
     7  C    0.905645
     8  C   -0.502945
     9  C    0.768639
    10  C    0.905645
    11  C   -0.192120
    12  H   -0.014004
    13  H   -0.012039
    14  H   -0.014004
    15  H   -0.574431
    16  H   -0.588685
    17  H   -0.081859
    18  H    0.102110
    19  H   -0.081859
    20  H   -0.588685
    21  H   -0.574431
 Sum of Mulliken charges =  -0.00000

 Dipole moment (field-independent basis, Debye):
    X=             -4.1370    Y=              4.8930    Z=             -0.0000  Tot=              6.4075

 Test job not archived.
 1\1\GINC-SE108\SP\RHF\Aug-CC-pVDZ\C8H10O2S1\OHZDE\05-Apr-2025\0\\#t hf
  aug-cc-pvdz iop(5/13=1,5/36=2,99/5=2) pseudo=read geom=check guess=(r
 ead,tcheck) scf=(maxcycle=1)\\title\\0,1\C,0,-1.656245,-2.355698,0.\S,
 0,0.088738,-1.905377,0.\O,0,0.65456,-2.357841,1.267005\O,0,0.65456,-2.
 357841,-1.267005\C,0,0.080334,-0.110707,0.\C,0,0.087584,0.574569,-1.20
 8898\C,0,0.087584,1.962499,-1.199749\C,0,0.08147,2.677518,0.\C,0,0.055
 105,4.182111,0.\C,0,0.087584,1.962499,1.199749\C,0,0.087584,0.574569,1
 .208898\H,0,-2.123209,-1.961947,-0.898464\H,0,-1.678863,-3.443534,0.\H

 Normal termination of Gaussian 16 at Sat Apr  5 22:15:52 2025.
