 Gaussian 16, Revision C.01,

 ----------------------------------------------------------------------
 #t hf aug-cc-pvdz symm=none int=(grid=ultrafine) guess=(read,tcheck) s
 table=(opt,rrhf)
 ----------------------------------------------------------------------
 -----
 title
 -----
 Symbolic Z-matrix:
 Charge =  0 Multiplicity = 1

 SCF Done:  E(RHF) =  -593.882062742     A.U. after   12 cycles

 1\1\GINC-SE171\Stability\RHF\Aug-CC-pVDZ\C5H12S1\OHZDE\05-Apr-2025\0\\
 #t hf aug-cc-pvdz symm=none int=(grid=ultrafine) guess=(read,tcheck) s
 table=(opt,rrhf)\\title\\0,1\C,0,-2.90053,-2.06119,0.\C,0,-2.210491,-0
 .698205,0.\C,0,2.318193,2.117672,0.\S,0,1.820699,0.367544,0.\C,0,0.,0.
 560581,0.\C,0,-0.683216,-0.803015,0.\H,0,3.406072,2.138869,0.\H,0,-3.9
 86273,-1.956738,0.\H,0,-2.623158,-2.643745,0.880787\H,0,-2.623158,-2.6
 43745,-0.880787\H,0,-2.53334,-0.125846,0.874655\H,0,-2.53334,-0.125846
 ,-0.874655\H,0,1.955763,2.628694,0.891218\H,0,1.955763,2.628694,-0.891

 Normal termination of Gaussian 16 at Sat Apr  5 22:14:37 2025.
 Gaussian 16:  ES64L-G16RevC.01  3-Jul-2019

 ----------------------------------------------------------------------
 #t hf aug-cc-pvdz iop(5/13=1,5/36=2,99/5=2) pseudo=read geom=check gue
 ss=(read,tcheck) scf=(maxcycle=1)
 ----------------------------------------------------------------------
 -----
 title
 -----
 Structure from the checkpoint file:  "1-methylthiobutane.chk"
 Charge =  0 Multiplicity = 1

                         Standard orientation:
 ---------------------------------------------------------------------
 Center     Atomic      Atomic             Coordinates (Angstroms)
 Number     Number       Type             X           Y           Z
 ---------------------------------------------------------------------
      1          6           0       -2.900530   -2.061190    0.000000
      2          6           0       -2.210491   -0.698205    0.000000
      3          6           0        2.318193    2.117672    0.000000
      4         16           0        1.820699    0.367544    0.000000
      5          6           0        0.000000    0.560581    0.000000
      6          6           0       -0.683216   -0.803015    0.000000
      7          1           0        3.406072    2.138869    0.000000
      8          1           0       -3.986273   -1.956738    0.000000
      9          1           0       -2.623158   -2.643745    0.880787
     10          1           0       -2.623158   -2.643745   -0.880787
     11          1           0       -2.533340   -0.125846    0.874655
     12          1           0       -2.533340   -0.125846   -0.874655
     13          1           0        1.955763    2.628694    0.891218
     14          1           0        1.955763    2.628694   -0.891218
     15          1           0       -0.357222   -1.371028   -0.875684
     16          1           0       -0.357222   -1.371028    0.875684
     17          1           0       -0.289402    1.132982   -0.883547
     18          1           0       -0.289402    1.132982    0.883547
 ---------------------------------------------------------------------

 SCF Done:  E(RHF) =  -593.967298499     A.U. after    2 cycles

 The electronic state is 1-A'.
 Alpha  occ. eigenvalues --  -93.51924 -11.26142 -11.25957 -11.23398 -11.23248
 Alpha  occ. eigenvalues --  -11.22444  -8.81654  -6.15815  -6.15585  -6.15248
 Alpha  occ. eigenvalues --   -1.08283  -1.03100  -0.97212  -0.88184  -0.80430
 Alpha  occ. eigenvalues --   -0.78636  -0.65621  -0.60114  -0.59975  -0.59132
 Alpha  occ. eigenvalues --   -0.57540  -0.54691  -0.53125  -0.51167  -0.48300
 Alpha  occ. eigenvalues --   -0.47317  -0.45498  -0.42260  -0.33103
 Alpha virt. eigenvalues --    0.03514   0.03972   0.04806   0.04865   0.05738
 Alpha virt. eigenvalues --    0.06427   0.06718   0.07566   0.08267   0.08830
 Alpha virt. eigenvalues --    0.09145   0.11106   0.11274   0.11731   0.13644

 Mulliken charges:
               1
     1  C    0.477654
     2  C    0.263477
     3  C    0.245115
     4  S    0.417341
     5  C   -0.045927
     6  C    0.122211
     7  H   -0.125584
     8  H   -0.066588
     9  H   -0.082377
    10  H   -0.082377
    11  H   -0.148690
    12  H   -0.148690
    13  H   -0.101304
    14  H   -0.101304
    15  H   -0.152243
    16  H   -0.152243
    17  H   -0.159235
    18  H   -0.159235
 Sum of Mulliken charges =   0.00000

 Dipole moment (field-independent basis, Debye):
    X=             -1.2390    Y=              1.3156    Z=              0.0000  Tot=              1.8072

 Test job not archived.
 1\1\GINC-SE171\SP\RHF\Aug-CC-pVDZ\C5H12S1\OHZDE\05-Apr-2025\0\\#t hf a
 ug-cc-pvdz iop(5/13=1,5/36=2,99/5=2) pseudo=read geom=check guess=(rea
 d,tcheck) scf=(maxcycle=1)\\title\\0,1\C,0,-2.90053,-2.06119,0.\C,0,-2
 .210491,-0.698205,0.\C,0,2.318193,2.117672,0.\S,0,1.820699,0.367544,0.
 \C,0,0.,0.560581,0.\C,0,-0.683216,-0.803015,0.\H,0,3.406072,2.138869,0
 .\H,0,-3.986273,-1.956738,0.\H,0,-2.623158,-2.643745,0.880787\H,0,-2.6
 23158,-2.643745,-0.880787\H,0,-2.53334,-0.125846,0.874655\H,0,-2.53334
 ,-0.125846,-0.874655\H,0,1.955763,2.628694,0.891218\H,0,1.955763,2.628

 Normal termination of Gaussian 16 at Sat Apr  5 22:15:48 2025.
