 Gaussian 16, Revision C.01,

 ----------------------------------------------------------------------
 #t hf aug-cc-pvdz symm=none int=(grid=ultrafine) guess=(read,tcheck) s
 table=(opt,rrhf)
 ----------------------------------------------------------------------
 -----
 title
 -----
 Symbolic Z-matrix:
 Charge =  0 Multiplicity = 1

 SCF Done:  E(RHF) =  -473.269370864     A.U. after   17 cycles
 Normal termination of Gaussian 16 at Sat Apr  5 22:14:18 2025.
 Gaussian 16:  ES64L-G16RevC.01  3-Jul-2019

 ----------------------------------------------------------------------
 #t hf aug-cc-pvdz iop(5/13=1,5/36=2,99/5=2) pseudo=read geom=check gue
 ss=(read,tcheck) scf=(maxcycle=1)
 ----------------------------------------------------------------------
 -----
 title
 -----
 Structure from the checkpoint file:  "1-methyl-2-nitro-benzene.chk"
 Charge =  0 Multiplicity = 1

                         Standard orientation:
 ---------------------------------------------------------------------
 Center     Atomic      Atomic             Coordinates (Angstroms)
 Number     Number       Type             X           Y           Z
 ---------------------------------------------------------------------
      1          6           0        2.555199   -0.206184   -0.030002
      2          6           0        1.904094   -1.432601   -0.092797
      3          6           0        1.822358    0.969098    0.049255
      4          6           0        0.521008   -1.464364   -0.071553
      5          6           0        0.424347    0.981756    0.050347
      6          6           0       -0.196494   -0.273992   -0.013060
      7          6           0       -0.290301    2.302138    0.145550
      8          7           0       -1.666810   -0.404509   -0.018623
      9          8           0       -2.143297   -1.460414    0.374057
     10          8           0       -2.328126    0.540642   -0.426159
     11          1           0        3.635895   -0.163364   -0.037093
     12          1           0        2.465502   -2.353997   -0.153385
     13          1           0        2.342694    1.915301    0.114787
     14          1           0       -0.021103   -2.396371   -0.103663
     15          1           0       -0.772031    2.558749   -0.796957
     16          1           0       -1.076089    2.289354    0.898913
     17          1           0        0.422924    3.084965    0.398137
 ---------------------------------------------------------------------

 SCF Done:  E(RHF) =  -473.410752274     A.U. after    2 cycles

 The electronic state is 1-A.
 Alpha  occ. eigenvalues --  -20.61645 -20.61503 -15.91811 -11.31725 -11.29483
 Alpha  occ. eigenvalues --  -11.28021 -11.27752 -11.26720 -11.26610 -11.24757
 Alpha  occ. eigenvalues --   -1.54975  -1.36402  -1.19083  -1.08398  -1.06801
 Alpha  occ. eigenvalues --   -0.97727  -0.93134  -0.85190  -0.83001  -0.77436
 Alpha  occ. eigenvalues --   -0.73717  -0.72815  -0.69972  -0.67110  -0.64372
 Alpha  occ. eigenvalues --   -0.60593  -0.59449  -0.56942  -0.55194  -0.52792
 Alpha  occ. eigenvalues --   -0.52644  -0.51200  -0.49985  -0.47185  -0.37758
 Alpha  occ. eigenvalues --   -0.36073
 Alpha virt. eigenvalues --    0.02661   0.03446   0.03949   0.04365   0.05626
 Alpha virt. eigenvalues --    0.05838   0.06212   0.07878   0.09170   0.09881
 Alpha virt. eigenvalues --    0.11479   0.12150   0.12523   0.12739   0.13189

 Mulliken charges:
               1
     1  C    0.301423
     2  C    0.389027
     3  C    0.753895
     4  C    0.472752
     5  C   -0.380412
     6  C    1.006261
     7  C    0.536320
     8  N   -0.015461
     9  O   -0.552419
    10  O   -0.558948
    11  H   -0.446524
    12  H   -0.419068
    13  H   -0.560175
    14  H   -0.507747
    15  H    0.131982
    16  H    0.065903
    17  H   -0.216809
 Sum of Mulliken charges =   0.00000

 Dipole moment (field-independent basis, Debye):
    X=              4.9630    Y=              0.9399    Z=              0.0319  Tot=              5.0513

 Test job not archived.
 1\1\GINC-SE106\SP\RHF\Aug-CC-pVDZ\C7H7N1O2\OHZDE\05-Apr-2025\0\\#t hf
 aug-cc-pvdz iop(5/13=1,5/36=2,99/5=2) pseudo=read geom=check guess=(re
 ad,tcheck) scf=(maxcycle=1)\\title\\0,1\C,0,2.555199,-0.206184,-0.0300
 02\C,0,1.904094,-1.432601,-0.092797\C,0,1.822358,0.969098,0.049255\C,0
 ,0.521008,-1.464364,-0.071553\C,0,0.424347,0.981756,0.050347\C,0,-0.19
 6494,-0.273992,-0.01306\C,0,-0.290301,2.302138,0.14555\N,0,-1.66681,-0
 .404509,-0.018623\O,0,-2.143297,-1.460414,0.374057\O,0,-2.328126,0.540
 642,-0.426159\H,0,3.635895,-0.163364,-0.037093\H,0,2.465502,-2.353997,

 Normal termination of Gaussian 16 at Sat Apr  5 22:14:45 2025.
