 Gaussian 16, Revision C.01,

 ----------------------------------------------------------------------
 #t hf aug-cc-pvdz symm=none int=(grid=ultrafine) guess=(read,tcheck) s
 table=(opt,rrhf)
 ----------------------------------------------------------------------
 -----
 title
 -----
 Symbolic Z-matrix:
 Charge =  0 Multiplicity = 1

 SCF Done:  E(RHF) =  -893.846914192     A.U. after   16 cycles
 Normal termination of Gaussian 16 at Sat Apr  5 22:16:51 2025.
 Gaussian 16:  ES64L-G16RevC.01  3-Jul-2019

 ----------------------------------------------------------------------
 #t hf aug-cc-pvdz iop(5/13=1,5/36=2,99/5=2) pseudo=read geom=check gue
 ss=(read,tcheck) scf=(maxcycle=1)
 ----------------------------------------------------------------------
 -----
 title
 -----
 Structure from the checkpoint file:  "1-methyl-4-vinylsulfonylbenzene.chk"
 Charge =  0 Multiplicity = 1

                         Standard orientation:
 ---------------------------------------------------------------------
 Center     Atomic      Atomic             Coordinates (Angstroms)
 Number     Number       Type             X           Y           Z
 ---------------------------------------------------------------------
      1          6           0       -3.078529   -1.367977    1.210348
      2          6           0       -2.305286   -0.296520    1.197245
      3         16           0       -1.653876    0.347458   -0.339227
      4          8           0       -2.103694   -0.521011   -1.422004
      5          8           0       -1.949843    1.776690   -0.353711
      6          6           0        0.119813    0.156743   -0.166060
      7          6           0        0.875233    1.211605    0.329411
      8          6           0        2.250170    1.058628    0.455227
      9          6           0        2.880484   -0.132464    0.093069
     10          6           0        4.367008   -0.302232    0.252868
     11          6           0        2.095867   -1.173407   -0.412746
     12          6           0        0.722573   -1.038461   -0.544117
     13          1           0       -3.301679   -1.900515    0.295654
     14          1           0       -3.514621   -1.728332    2.132549
     15          1           0       -2.049479    0.296576    2.064631
     16          1           0        0.392477    2.143116    0.587644
     17          1           0        2.842356    1.882699    0.831571
     18          1           0        4.794103   -0.860951   -0.579957
     19          1           0        4.597393   -0.855973    1.166365
     20          1           0        4.873811    0.659644    0.314839
     21          1           0        2.568975   -2.098441   -0.716657
     22          1           0        0.122971   -1.838083   -0.954756
 ---------------------------------------------------------------------

 SCF Done:  E(RHF) =  -894.068628736     A.U. after    2 cycles

 The electronic state is 1-A.
 Alpha  occ. eigenvalues --  -93.78096 -20.55375 -20.55170 -11.28739 -11.28194
 Alpha  occ. eigenvalues --  -11.28052 -11.27810 -11.27313 -11.27289 -11.25961
 Alpha  occ. eigenvalues --  -11.25934 -11.25123  -9.04730  -6.39375  -6.39167
 Alpha  occ. eigenvalues --   -6.39099  -1.40825  -1.29539  -1.17498  -1.08879
 Alpha  occ. eigenvalues --   -1.06969  -1.03554  -0.97244  -0.90645  -0.85820
 Alpha  occ. eigenvalues --   -0.83021  -0.78395  -0.73297  -0.69836  -0.67903
 Alpha  occ. eigenvalues --   -0.66259  -0.65801  -0.63547  -0.62890  -0.61582
 Alpha  occ. eigenvalues --   -0.59779  -0.57848  -0.56379  -0.53850  -0.52587
 Alpha  occ. eigenvalues --   -0.51683  -0.51445  -0.50287  -0.48933  -0.45084
 Alpha  occ. eigenvalues --   -0.42585  -0.36292  -0.35740
 Alpha virt. eigenvalues --    0.02798   0.03308   0.03797   0.04667   0.04818
 Alpha virt. eigenvalues --    0.05424   0.06435   0.06722   0.07076   0.07929
 Alpha virt. eigenvalues --    0.08313   0.09156   0.09752   0.10387   0.10824

 Mulliken charges:
               1
     1  C    0.539530
     2  C    0.074387
     3  S    3.090855
     4  O   -1.178834
     5  O   -1.162016
     6  C    0.324257
     7  C   -0.246727
     8  C    0.851045
     9  C   -0.453986
    10  C    0.705677
    11  C    0.761182
    12  C    0.003625
    13  H   -0.243979
    14  H   -0.241555
    15  H   -0.422409
    16  H   -0.587060
    17  H   -0.589071
    18  H   -0.023582
    19  H    0.102850
    20  H   -0.130663
    21  H   -0.593817
    22  H   -0.579711
 Sum of Mulliken charges =  -0.00000

 Dipole moment (field-independent basis, Debye):
    X=              3.9101    Y=             -2.7429    Z=              4.0636  Tot=              6.2710

 Test job not archived.
 1\1\GINC-SE108\SP\RHF\Aug-CC-pVDZ\C9H10O2S1\OHZDE\05-Apr-2025\0\\#t hf
  aug-cc-pvdz iop(5/13=1,5/36=2,99/5=2) pseudo=read geom=check guess=(r
 ead,tcheck) scf=(maxcycle=1)\\title\\0,1\C,0,-3.078529,-1.367977,1.210
 348\C,0,-2.305286,-0.29652,1.197245\S,0,-1.653876,0.347458,-0.339227\O
 ,0,-2.103694,-0.521011,-1.422004\O,0,-1.949843,1.77669,-0.353711\C,0,0
 .119813,0.156743,-0.16606\C,0,0.875233,1.211605,0.329411\C,0,2.25017,1
 .058628,0.455227\C,0,2.880484,-0.132464,0.093069\C,0,4.367008,-0.30223
 2,0.252868\C,0,2.095867,-1.173407,-0.412746\C,0,0.722573,-1.038461,-0.

 Normal termination of Gaussian 16 at Sat Apr  5 22:17:08 2025.
