 Gaussian 16, Revision C.01,

 ----------------------------------------------------------------------
 #t hf aug-cc-pvdz symm=none int=(grid=ultrafine) guess=(read,tcheck) s
 table=(opt,rrhf)
 ----------------------------------------------------------------------
 -----
 title
 -----
 Symbolic Z-matrix:
 Charge =  0 Multiplicity = 1

 SCF Done:  E(RHF) =  -233.043309075     A.U. after   13 cycles
 Normal termination of Gaussian 16 at Sat Apr  5 22:14:17 2025.
 Gaussian 16:  ES64L-G16RevC.01  3-Jul-2019

 ----------------------------------------------------------------------
 #t hf aug-cc-pvdz iop(5/13=1,5/36=2,99/5=2) pseudo=read geom=check gue
 ss=(read,tcheck) scf=(maxcycle=1)
 ----------------------------------------------------------------------
 -----
 title
 -----
 Structure from the checkpoint file:  "1-methylcyclopentene.chk"
 Charge =  0 Multiplicity = 1

                         Standard orientation:
 ---------------------------------------------------------------------
 Center     Atomic      Atomic             Coordinates (Angstroms)
 Number     Number       Type             X           Y           Z
 ---------------------------------------------------------------------
      1          6           0       -0.756198    0.073934   -0.002520
      2          1           0       -0.343604    2.171486   -0.066463
      3          6           0        0.023743    1.153783   -0.022376
      4          1           0       -2.647844   -0.452806    0.859762
      5          1           0       -2.606606   -0.553100   -0.889410
      6          1           0       -2.679983    1.029419   -0.103430
      7          6           0       -2.248786    0.030965   -0.036722
      8          1           0       -0.043702   -1.617124    1.120770
      9          1           0       -0.250301   -1.964412   -0.582053
     10          6           0        0.069948   -1.188503    0.117983
     11          1           0        1.780513   -0.916913   -1.185058
     12          1           0        2.249118   -1.218041    0.478619
     13          6           0        1.515599   -0.711239   -0.147209
     14          1           0        1.879408    1.089875    1.069321
     15          1           0        2.101884    1.357766   -0.645531
     16          6           0        1.489213    0.820035    0.081422
 ---------------------------------------------------------------------

 SCF Done:  E(RHF) =  -233.115272062     A.U. after    2 cycles

 The electronic state is 1-A.
 Alpha  occ. eigenvalues --  -11.23193 -11.22799 -11.22656 -11.22537 -11.22418
 Alpha  occ. eigenvalues --  -11.21827  -1.12166  -1.00165  -0.95044  -0.89846
 Alpha  occ. eigenvalues --   -0.78621  -0.70335  -0.64359  -0.63716  -0.57678
 Alpha  occ. eigenvalues --   -0.56844  -0.54331  -0.51531  -0.48499  -0.47951
 Alpha  occ. eigenvalues --   -0.47639  -0.46755  -0.33088
 Alpha virt. eigenvalues --    0.03640   0.04339   0.04642   0.04898   0.06319
 Alpha virt. eigenvalues --    0.06564   0.06762   0.07376   0.08254   0.09027
 Alpha virt. eigenvalues --    0.11708   0.13014   0.13601   0.14349   0.14732

 Mulliken charges:
               1
     1  C   -0.814094
     2  H   -0.401424
     3  C    0.258886
     4  H    0.030747
     5  H    0.034439
     6  H   -0.132244
     7  C    0.508980
     8  H    0.006947
     9  H   -0.025354
    10  C    0.032934
    11  H   -0.122443
    12  H   -0.090236
    13  C    0.490097
    14  H   -0.022546
    15  H   -0.013750
    16  C    0.259060
 Sum of Mulliken charges =  -0.00000

 Dipole moment (field-independent basis, Debye):
    X=             -0.1294    Y=             -0.2261    Z=              0.0766  Tot=              0.2715

 Test job not archived.
 1\1\GINC-SE028\SP\RHF\Aug-CC-pVDZ\C6H10\OHZDE\05-Apr-2025\0\\#t hf aug
 -cc-pvdz iop(5/13=1,5/36=2,99/5=2) pseudo=read geom=check guess=(read,
 tcheck) scf=(maxcycle=1)\\title\\0,1\C,0,-0.756198,0.073934,-0.00252\H
 ,0,-0.343604,2.171486,-0.066463\C,0,0.023743,1.153783,-0.022376\H,0,-2
 .647844,-0.452806,0.859762\H,0,-2.606606,-0.5531,-0.88941\H,0,-2.67998
 3,1.029419,-0.10343\C,0,-2.248786,0.030965,-0.036722\H,0,-0.043702,-1.
 617124,1.12077\H,0,-0.250301,-1.964412,-0.582053\C,0,0.069948,-1.18850
 3,0.117983\H,0,1.780513,-0.916913,-1.185058\H,0,2.249118,-1.218041,0.4

 Normal termination of Gaussian 16 at Sat Apr  5 22:14:41 2025.
