 Gaussian 16, Revision C.01,

 ----------------------------------------------------------------------
 #t hf aug-cc-pvdz symm=none int=(grid=ultrafine) guess=(read,tcheck) s
 table=(opt,rrhf)
 ----------------------------------------------------------------------
 -----
 title
 -----
 Symbolic Z-matrix:
 Charge =  0 Multiplicity = 1

 SCF Done:  E(RHF) =  -704.516278511     A.U. after   13 cycles
 Normal termination of Gaussian 16 at Sat Apr  5 22:14:37 2025.
 Gaussian 16:  ES64L-G16RevC.01  3-Jul-2019

 ----------------------------------------------------------------------
 #t hf aug-cc-pvdz iop(5/13=1,5/36=2,99/5=2) pseudo=read geom=check gue
 ss=(read,tcheck) scf=(maxcycle=1)
 ----------------------------------------------------------------------
 -----
 title
 -----
 Structure from the checkpoint file:  "1-methylsulfonylpropane.chk"
 Charge =  0 Multiplicity = 1

                         Standard orientation:
 ---------------------------------------------------------------------
 Center     Atomic      Atomic             Coordinates (Angstroms)
 Number     Number       Type             X           Y           Z
 ---------------------------------------------------------------------
      1          8           0        1.052746   -0.884054    1.262930
      2         16           0        0.899001   -0.165953    0.000000
      3          8           0        1.052746   -0.884054   -1.262930
      4          6           0        2.067344    1.204889    0.000000
      5          6           0       -0.723417    0.647846    0.000000
      6          6           0       -1.851316   -0.380647    0.000000
      7          6           0       -3.225240    0.289975    0.000000
      8          1           0        3.053274    0.745574    0.000000
      9          1           0        1.925580    1.797049   -0.900169
     10          1           0        1.925580    1.797049    0.900169
     11          1           0       -0.749135    1.277504    0.890070
     12          1           0       -0.749135    1.277504   -0.890070
     13          1           0       -1.747958   -1.021292   -0.876349
     14          1           0       -1.747958   -1.021292    0.876349
     15          1           0       -3.362963    0.917670    0.882223
     16          1           0       -3.362963    0.917671   -0.882223
     17          1           0       -4.016488   -0.459710    0.000000
 ---------------------------------------------------------------------

 SCF Done:  E(RHF) =  -704.685687987     A.U. after    2 cycles

 The electronic state is 1-A.
 Alpha  occ. eigenvalues --  -93.77354 -20.55015 -20.55014 -11.28838 -11.28786
 Alpha  occ. eigenvalues --  -11.25368 -11.24186  -9.04130  -6.38747  -6.38545
 Alpha  occ. eigenvalues --   -6.38477  -1.40487  -1.29070  -1.09316  -1.03839
 Alpha  occ. eigenvalues --   -0.97107  -0.85019  -0.80028  -0.69343  -0.68280
 Alpha  occ. eigenvalues --   -0.66860  -0.65005  -0.60953  -0.60814  -0.59787
 Alpha  occ. eigenvalues --   -0.57768  -0.54037  -0.51449  -0.51026  -0.50012
 Alpha  occ. eigenvalues --   -0.49632  -0.48086  -0.44045
 Alpha virt. eigenvalues --    0.02710   0.03806   0.04425   0.04779   0.06177
 Alpha virt. eigenvalues --    0.06256   0.06985   0.08007   0.08674   0.09219
 Alpha virt. eigenvalues --    0.10785   0.11337   0.13200   0.14237   0.14391

 Mulliken charges:
               1
     1  O   -1.149666
     2  S    2.370275
     3  O   -1.149666
     4  C    0.152774
     5  C   -0.276560
     6  C    0.211635
     7  C    0.483150
     8  H    0.047070
     9  H   -0.015428
    10  H   -0.015428
    11  H   -0.128481
    12  H   -0.128481
    13  H   -0.096421
    14  H   -0.096421
    15  H   -0.075647
    16  H   -0.075645
    17  H   -0.057061
 Sum of Mulliken charges =  -0.00000

 Dipole moment (field-independent basis, Debye):
    X=             -1.6292    Y=              5.0956    Z=              0.0000  Tot=              5.3497

 Test job not archived.
 1\1\GINC-SE047\SP\RHF\Aug-CC-pVDZ\C4H10O2S1\OHZDE\05-Apr-2025\0\\#t hf
  aug-cc-pvdz iop(5/13=1,5/36=2,99/5=2) pseudo=read geom=check guess=(r
 ead,tcheck) scf=(maxcycle=1)\\title\\0,1\O,0,1.052746,-0.884054,1.2629
 3\S,0,0.899001,-0.165953,0.\O,0,1.052746,-0.884054,-1.26293\C,0,2.0673
 44,1.204889,0.\C,0,-0.723417,0.647846,0.\C,0,-1.851316,-0.380647,0.\C,
 0,-3.22524,0.289975,0.\H,0,3.053274,0.745574,0.\H,0,1.92558,1.797049,-
 0.900169\H,0,1.92558,1.797049,0.900169\H,0,-0.749135,1.277504,0.89007\
 H,0,-0.749135,1.277504,-0.89007\H,0,-1.747958,-1.021292,-0.876349\H,0,

 Normal termination of Gaussian 16 at Sat Apr  5 22:15:49 2025.
