 Gaussian 16, Revision C.01,

 ----------------------------------------------------------------------
 #t hf aug-cc-pvdz symm=none int=(grid=ultrafine) guess=(read,tcheck) s
 table=(opt,rrhf)
 ----------------------------------------------------------------------
 -----
 title
 -----
 Symbolic Z-matrix:
 Charge =  0 Multiplicity = 1

 SCF Done:  E(RHF) =  -267.917807702     A.U. after   13 cycles
 Normal termination of Gaussian 16 at Sat Apr  5 22:14:02 2025.
 Gaussian 16:  ES64L-G16RevC.01  3-Jul-2019

 ----------------------------------------------------------------------
 #t hf aug-cc-pvdz iop(5/13=1,5/36=2,99/5=2) pseudo=read geom=check gue
 ss=(read,tcheck) scf=(maxcycle=1)
 ----------------------------------------------------------------------
 -----
 title
 -----
 Structure from the checkpoint file:  "1-methylethyl_hydroperoxide.chk"
 Charge =  0 Multiplicity = 1

                         Standard orientation:
 ---------------------------------------------------------------------
 Center     Atomic      Atomic             Coordinates (Angstroms)
 Number     Number       Type             X           Y           Z
 ---------------------------------------------------------------------
      1          8           0       -1.918563   -0.173683   -0.195389
      2          1           0       -2.312775    0.187830    0.609427
      3          8           0       -0.661485   -0.686944    0.324121
      4          6           0        1.651684   -0.787137    0.026852
      5          1           0        1.820412   -0.777766    1.104424
      6          1           0        1.554045   -1.821145   -0.300398
      7          1           0        2.523590   -0.349504   -0.459304
      8          6           0        0.487776    1.469705    0.103519
      9          1           0        0.672394    1.540668    1.177022
     10          1           0        1.301951    1.974955   -0.418152
     11          1           0       -0.436230    1.995634   -0.131444
     12          6           0        0.408750    0.013954   -0.330908
     13          1           0        0.227738   -0.044785   -1.408201
 ---------------------------------------------------------------------

 SCF Done:  E(RHF) =  -268.004965229     A.U. after    2 cycles

 The electronic state is 1-A.
 Alpha  occ. eigenvalues --  -20.63220 -20.63175 -11.29620 -11.23071 -11.22878
 Alpha  occ. eigenvalues --   -1.41649  -1.20571  -1.03009  -0.94199  -0.80756
 Alpha  occ. eigenvalues --   -0.73461  -0.66852  -0.65151  -0.62740  -0.55681
 Alpha  occ. eigenvalues --   -0.55469  -0.54190  -0.52961  -0.50437  -0.48629
 Alpha  occ. eigenvalues --   -0.45453
 Alpha virt. eigenvalues --    0.03547   0.04461   0.04999   0.05150   0.06837
 Alpha virt. eigenvalues --    0.07206   0.07618   0.08025   0.12637   0.13405
 Alpha virt. eigenvalues --    0.14753   0.15269   0.15762   0.16397   0.17110

 Mulliken charges:
               1
     1  O   -0.304552
     2  H    0.214154
     3  O   -0.495590
     4  C    0.414207
     5  H   -0.010794
     6  H   -0.055072
     7  H   -0.005302
     8  C    0.317647
     9  H    0.025361
    10  H   -0.006226
    11  H   -0.081612
    12  C    0.147590
    13  H   -0.159813
 Sum of Mulliken charges =  -0.00000

 Dipole moment (field-independent basis, Debye):
    X=              0.9989    Y=              1.5755    Z=              0.5377  Tot=              1.9414

 Test job not archived.
 1\1\GINC-SE055\SP\RHF\Aug-CC-pVDZ\C3H8O2\OHZDE\05-Apr-2025\0\\#t hf au
 g-cc-pvdz iop(5/13=1,5/36=2,99/5=2) pseudo=read geom=check guess=(read
 ,tcheck) scf=(maxcycle=1)\\title\\0,1\O,0,-1.918563,-0.173683,-0.19538
 9\H,0,-2.312775,0.18783,0.609427\O,0,-0.661485,-0.686944,0.324121\C,0,
 1.651684,-0.787137,0.026852\H,0,1.820412,-0.777766,1.104424\H,0,1.5540
 45,-1.821145,-0.300398\H,0,2.52359,-0.349504,-0.459304\C,0,0.487776,1.
 469705,0.103519\H,0,0.672394,1.540668,1.177022\H,0,1.301951,1.974955,-
 0.418152\H,0,-0.43623,1.995634,-0.131444\C,0,0.40875,0.013954,-0.33090

 Normal termination of Gaussian 16 at Sat Apr  5 22:14:39 2025.
