 Gaussian 16, Revision C.01,

 ----------------------------------------------------------------------
 #t hf aug-cc-pvdz symm=none int=(grid=ultrafine) guess=(read,tcheck) s
 table=(opt,rrhf)
 ----------------------------------------------------------------------
 -----
 title
 -----
 Symbolic Z-matrix:
 Charge =  0 Multiplicity = 1

 SCF Done:  E(RHF) =  -247.011640664     A.U. after   13 cycles
 Normal termination of Gaussian 16 at Sat Apr  5 22:13:00 2025.
 Gaussian 16:  ES64L-G16RevC.01  3-Jul-2019

 ----------------------------------------------------------------------
 #t hf aug-cc-pvdz iop(5/13=1,5/36=2,99/5=2) pseudo=read geom=check gue
 ss=(read,tcheck) scf=(maxcycle=1)
 ----------------------------------------------------------------------
 -----
 title
 -----
 Structure from the checkpoint file:  "1-methoxyethanimine.chk"
 Charge =  0 Multiplicity = 1

                         Standard orientation:
 ---------------------------------------------------------------------
 Center     Atomic      Atomic             Coordinates (Angstroms)
 Number     Number       Type             X           Y           Z
 ---------------------------------------------------------------------
      1          6           0        0.000000    0.513378    0.000000
      2          6           0        1.126362    1.500699    0.000000
      3          6           0       -0.434875   -1.838472    0.000000
      4          7           0       -1.214300    0.871560    0.000000
      5          8           0        0.493529   -0.759900    0.000000
      6          1           0        1.755164    1.352520    0.878602
      7          1           0        1.755164    1.352520   -0.878602
      8          1           0        0.727889    2.509956    0.000000
      9          1           0        0.161301   -2.746313    0.000000
     10          1           0       -1.064794   -1.818499   -0.892116
     11          1           0       -1.064794   -1.818499    0.892116
     12          1           0       -1.866987    0.092961    0.000000
 ---------------------------------------------------------------------

 SCF Done:  E(RHF) =  -247.091912019     A.U. after    2 cycles

 The electronic state is 1-A'.
 Alpha  occ. eigenvalues --  -20.61090 -15.60006 -11.35203 -11.30449 -11.23709
 Alpha  occ. eigenvalues --   -1.38558  -1.16506  -1.01501  -0.94473  -0.77253
 Alpha  occ. eigenvalues --   -0.72379  -0.67955  -0.66988  -0.58479  -0.56879
 Alpha  occ. eigenvalues --   -0.55235  -0.53085  -0.51123  -0.42929  -0.40632
 Alpha virt. eigenvalues --    0.03197   0.04435   0.05084   0.05279   0.06985
 Alpha virt. eigenvalues --    0.07090   0.07996   0.09644   0.12823   0.14104
 Alpha virt. eigenvalues --    0.14980   0.15152   0.16185   0.16331   0.16649

 Mulliken charges:
               1
     1  C    0.323387
     2  C    0.315753
     3  C    0.790953
     4  N   -0.311931
     5  O   -0.617101
     6  H    0.016156
     7  H    0.016156
     8  H   -0.044302
     9  H   -0.292192
    10  H   -0.093469
    11  H   -0.093469
    12  H   -0.009938
 Sum of Mulliken charges =   0.00000

 Dipole moment (field-independent basis, Debye):
    X=              0.3896    Y=             -2.1386    Z=              0.0000  Tot=              2.1738

 Test job not archived.
 1\1\GINC-SE050\SP\RHF\Aug-CC-pVDZ\C3H7N1O1\OHZDE\05-Apr-2025\0\\#t hf
 aug-cc-pvdz iop(5/13=1,5/36=2,99/5=2) pseudo=read geom=check guess=(re
 ad,tcheck) scf=(maxcycle=1)\\title\\0,1\C,0,0.,0.513378,0.\C,0,1.12636
 2,1.500699,0.\C,0,-0.434875,-1.838472,0.\N,0,-1.2143,0.87156,0.\O,0,0.
 493529,-0.7599,0.\H,0,1.755164,1.35252,0.878602\H,0,1.755164,1.35252,-
 0.878602\H,0,0.727889,2.509956,0.\H,0,0.161301,-2.746313,0.\H,0,-1.064
 794,-1.818499,-0.892116\H,0,-1.064794,-1.818499,0.892116\H,0,-1.866987
 ,0.092961,0.\\Version=ES64L-G16RevC.01\State=1-A'\HF=-247.091912\RMSD=

 Normal termination of Gaussian 16 at Sat Apr  5 22:13:50 2025.
