 Gaussian 16, Revision C.01,

 ----------------------------------------------------------------------
 #t hf aug-cc-pvdz symm=none int=(grid=ultrafine) guess=(read,tcheck) s
 table=(opt,rrhf)
 ----------------------------------------------------------------------
 -----
 title
 -----
 Symbolic Z-matrix:
 Charge =  0 Multiplicity = 1

 SCF Done:  E(RHF) =  -263.880326876     A.U. after   14 cycles
 Normal termination of Gaussian 16 at Sat Apr  5 22:13:02 2025.
 Gaussian 16:  ES64L-G16RevC.01  3-Jul-2019

 ----------------------------------------------------------------------
 #t hf aug-cc-pvdz iop(5/13=1,5/36=2,99/5=2) pseudo=read geom=check gue
 ss=(read,tcheck) scf=(maxcycle=1)
 ----------------------------------------------------------------------
 -----
 title
 -----
 Structure from the checkpoint file:  "1-methyl-1H-imidazole.chk"
 Charge =  0 Multiplicity = 1

                         Standard orientation:
 ---------------------------------------------------------------------
 Center     Atomic      Atomic             Coordinates (Angstroms)
 Number     Number       Type             X           Y           Z
 ---------------------------------------------------------------------
      1          6           0        0.645337   -1.483107    0.000000
      2          6           0        1.115639   -0.197648    0.000000
      3          6           0       -1.077575   -0.225768    0.000000
      4          6           0       -0.022919    2.058005    0.000000
      5          7           0       -0.726800   -1.489807    0.000000
      6          7           0        0.000000    0.608310    0.000000
      7          1           0        1.214722   -2.396921    0.000000
      8          1           0        2.111503    0.208433    0.000000
      9          1           0       -2.087758    0.150798    0.000000
     10          1           0        0.471699    2.452768    0.887470
     11          1           0        0.471699    2.452768   -0.887470
     12          1           0       -1.057157    2.393731    0.000000
 ---------------------------------------------------------------------

 SCF Done:  E(RHF) =  -263.960210118     A.U. after    2 cycles

 The electronic state is 1-A'.
 Alpha  occ. eigenvalues --  -15.68438 -15.60472 -11.30160 -11.29675 -11.26430
 Alpha  occ. eigenvalues --  -11.25041  -1.31202  -1.15369  -1.00827  -0.96127
 Alpha  occ. eigenvalues --   -0.80369  -0.78182  -0.72184  -0.65201  -0.62118
 Alpha  occ. eigenvalues --   -0.59248  -0.57852  -0.55932  -0.55292  -0.42455
 Alpha  occ. eigenvalues --   -0.37880  -0.31801
 Alpha virt. eigenvalues --    0.02638   0.03695   0.04849   0.04953   0.06318
 Alpha virt. eigenvalues --    0.07190   0.09861   0.10694   0.12199   0.12587
 Alpha virt. eigenvalues --    0.13130   0.14056   0.14876   0.15256   0.15408

 Mulliken charges:
               1
     1  C    0.470485
     2  C    0.565271
     3  C    0.515932
     4  C    0.824612
     5  N   -0.656666
     6  N   -0.458933
     7  H   -0.221792
     8  H   -0.353306
     9  H   -0.269243
    10  H   -0.095745
    11  H   -0.095745
    12  H   -0.224869
 Sum of Mulliken charges =   0.00000

 Dipole moment (field-independent basis, Debye):
    X=              0.9999    Y=              4.1311    Z=              0.0000  Tot=              4.2504

 Test job not archived.
 1\1\GINC-SE176\SP\RHF\Aug-CC-pVDZ\C4H6N2\OHZDE\05-Apr-2025\0\\#t hf au
 g-cc-pvdz iop(5/13=1,5/36=2,99/5=2) pseudo=read geom=check guess=(read
 ,tcheck) scf=(maxcycle=1)\\title\\0,1\C,0,0.645337,-1.483107,0.\C,0,1.
 115639,-0.197648,0.\C,0,-1.077575,-0.225768,0.\C,0,-0.022919,2.058005,
 0.\N,0,-0.7268,-1.489807,0.\N,0,0.,0.60831,0.\H,0,1.214722,-2.396921,0
 .\H,0,2.111503,0.208433,0.\H,0,-2.087758,0.150798,0.\H,0,0.471699,2.45
 2768,0.88747\H,0,0.471699,2.452768,-0.88747\H,0,-1.057157,2.393731,0.\
 \Version=ES64L-G16RevC.01\State=1-A'\HF=-263.9602101\RMSD=4.013e-03\Di

 Normal termination of Gaussian 16 at Sat Apr  5 22:13:50 2025.
