 Gaussian 16, Revision C.01,

 ----------------------------------------------------------------------
 #t hf aug-cc-pvdz symm=none int=(grid=ultrafine) guess=(read,tcheck) s
 table=(opt,rrhf)
 ----------------------------------------------------------------------
 -----
 title
 -----
 Symbolic Z-matrix:
 Charge =  0 Multiplicity = 1

 SCF Done:  E(RHF) =  -321.786404264     A.U. after   15 cycles
 Normal termination of Gaussian 16 at Sat Apr  5 22:14:09 2025.
 Gaussian 16:  ES64L-G16RevC.01  3-Jul-2019

 ----------------------------------------------------------------------
 #t hf aug-cc-pvdz iop(5/13=1,5/36=2,99/5=2) pseudo=read geom=check gue
 ss=(read,tcheck) scf=(maxcycle=1)
 ----------------------------------------------------------------------
 -----
 title
 -----
 Structure from the checkpoint file:  "1-nitropropane.chk"
 Charge =  0 Multiplicity = 1

                         Standard orientation:
 ---------------------------------------------------------------------
 Center     Atomic      Atomic             Coordinates (Angstroms)
 Number     Number       Type             X           Y           Z
 ---------------------------------------------------------------------
      1          6           0       -2.640949   -0.019049    0.026517
      2          6           0       -1.209042    0.058303   -0.500284
      3          6           0       -0.194938   -0.085420    0.631445
      4          7           0        1.205024   -0.003386    0.081039
      5          8           0        1.765014   -1.053167   -0.189400
      6          8           0        1.672267    1.111046   -0.088501
      7          1           0       -2.833745   -0.973366    0.519100
      8          1           0       -2.844646    0.776897    0.744558
      9          1           0       -3.353672    0.081711   -0.791461
     10          1           0       -1.043315    1.011913   -1.003038
     11          1           0       -1.035929   -0.731717   -1.232936
     12          1           0       -0.270535   -1.051673    1.121825
     13          1           0       -0.282005    0.723902    1.351821
 ---------------------------------------------------------------------

 SCF Done:  E(RHF) =  -321.887404725     A.U. after    2 cycles

 The electronic state is 1-A.
 Alpha  occ. eigenvalues --  -20.61841 -20.61744 -15.91057 -11.31692 -11.26826
 Alpha  occ. eigenvalues --  -11.25254  -1.54916  -1.36591  -1.12257  -1.01961
 Alpha  occ. eigenvalues --   -0.88291  -0.83651  -0.75991  -0.74437  -0.71931
 Alpha  occ. eigenvalues --   -0.67627  -0.60703  -0.59130  -0.55863  -0.52430
 Alpha  occ. eigenvalues --   -0.51879  -0.50869  -0.49419  -0.47193
 Alpha virt. eigenvalues --    0.02831   0.03900   0.04399   0.05378   0.06779
 Alpha virt. eigenvalues --    0.06995   0.07798   0.08622   0.11008   0.11210
 Alpha virt. eigenvalues --    0.13782   0.14662   0.15375   0.15695   0.15897

 Mulliken charges:
               1
     1  C    0.319928
     2  C   -0.043921
     3  C    1.045821
     4  N    0.408513
     5  O   -0.573805
     6  O   -0.575796
     7  H   -0.046695
     8  H   -0.045247
     9  H   -0.062891
    10  H   -0.052901
    11  H   -0.062096
    12  H   -0.163427
    13  H   -0.147483
 Sum of Mulliken charges =   0.00000

 Dipole moment (field-independent basis, Debye):
    X=             -4.5330    Y=             -0.1931    Z=              1.2733  Tot=              4.7124

 Test job not archived.
 1\1\GINC-SE052\SP\RHF\Aug-CC-pVDZ\C3H7N1O2\OHZDE\05-Apr-2025\0\\#t hf
 aug-cc-pvdz iop(5/13=1,5/36=2,99/5=2) pseudo=read geom=check guess=(re
 ad,tcheck) scf=(maxcycle=1)\\title\\0,1\C,0,-2.640949,-0.019049,0.0265
 17\C,0,-1.209042,0.058303,-0.500284\C,0,-0.194938,-0.08542,0.631445\N,
 0,1.205024,-0.003386,0.081039\O,0,1.765014,-1.053167,-0.1894\O,0,1.672
 267,1.111046,-0.088501\H,0,-2.833745,-0.973366,0.5191\H,0,-2.844646,0.
 776897,0.744558\H,0,-3.353672,0.081711,-0.791461\H,0,-1.043315,1.01191
 3,-1.003038\H,0,-1.035929,-0.731717,-1.232936\H,0,-0.270535,-1.051673,

 Normal termination of Gaussian 16 at Sat Apr  5 22:14:40 2025.
