 Gaussian 16, Revision C.01,

 ----------------------------------------------------------------------
 #t hf aug-cc-pvdz symm=none int=(grid=ultrafine) guess=(read,tcheck) s
 table=(opt,rrhf)
 ----------------------------------------------------------------------
 -----
 title
 -----
 Symbolic Z-matrix:
 Charge =  0 Multiplicity = 1

 SCF Done:  E(RHF) =  -399.864324383     A.U. after   15 cycles
 Normal termination of Gaussian 16 at Sat Apr  5 22:14:49 2025.
 Gaussian 16:  ES64L-G16RevC.01  3-Jul-2019

 ----------------------------------------------------------------------
 #t hf aug-cc-pvdz iop(5/13=1,5/36=2,99/5=2) pseudo=read geom=check gue
 ss=(read,tcheck) scf=(maxcycle=1)
 ----------------------------------------------------------------------
 -----
 title
 -----
 Structure from the checkpoint file:  "1-nitropentane.chk"
 Charge =  0 Multiplicity = 1

                         Standard orientation:
 ---------------------------------------------------------------------
 Center     Atomic      Atomic             Coordinates (Angstroms)
 Number     Number       Type             X           Y           Z
 ---------------------------------------------------------------------
      1          6           0       -3.998201   -0.032014    0.092137
      2          6           0       -2.629647    0.130528   -0.566038
      3          6           0       -1.467215   -0.100900    0.400376
      4          6           0       -0.099316    0.063086   -0.264256
      5          6           0        1.038289   -0.173687    0.725014
      6          7           0        2.364390   -0.001301    0.031077
      7          8           0        2.905108   -1.004150   -0.406070
      8          8           0        2.792402    1.136336   -0.078101
      9          1           0       -4.802943    0.140790   -0.623098
     10          1           0       -4.125783   -1.037723    0.497305
     11          1           0       -4.128535    0.674598    0.914043
     12          1           0       -2.547318    1.133724   -0.993858
     13          1           0       -2.543271   -0.565696   -1.405148
     14          1           0       -1.548032   -1.105658    0.827165
     15          1           0       -1.550790    0.596612    1.239848
     16          1           0       -0.003675    1.068374   -0.678690
     17          1           0       -0.002303   -0.642032   -1.092626
     18          1           0        1.032650   -1.187298    1.115133
     19          1           0        1.025724    0.553854    1.532353
 ---------------------------------------------------------------------

 SCF Done:  E(RHF) =  -399.989294150     A.U. after    2 cycles

 The electronic state is 1-A.
 Alpha  occ. eigenvalues --  -20.61731 -20.61628 -15.90946 -11.31561 -11.26386
 Alpha  occ. eigenvalues --  -11.25228 -11.24439 -11.23459  -1.54788  -1.36459
 Alpha  occ. eigenvalues --   -1.12557  -1.06819  -0.98782  -0.88932  -0.83684
 Alpha  occ. eigenvalues --   -0.81582  -0.75497  -0.74330  -0.71846  -0.68433
 Alpha  occ. eigenvalues --   -0.63530  -0.60437  -0.58986  -0.57224  -0.53921
 Alpha  occ. eigenvalues --   -0.51938  -0.51576  -0.50764  -0.49293  -0.48698
 Alpha  occ. eigenvalues --   -0.47723  -0.47068
 Alpha virt. eigenvalues --    0.02905   0.03638   0.04070   0.04662   0.05707
 Alpha virt. eigenvalues --    0.06211   0.06689   0.07305   0.08474   0.09162
 Alpha virt. eigenvalues --    0.09261   0.10007   0.10027   0.12454   0.12802

 Mulliken charges:
               1
     1  C    0.515012
     2  C    0.286666
     3  C    0.067727
     4  C    0.041824
     5  C    1.251586
     6  N    0.416516
     7  O   -0.580792
     8  O   -0.580698
     9  H   -0.055230
    10  H   -0.081738
    11  H   -0.082929
    12  H   -0.154126
    13  H   -0.152785
    14  H   -0.169491
    15  H   -0.166137
    16  H   -0.117053
    17  H   -0.126408
    18  H   -0.166155
    19  H   -0.145793
 Sum of Mulliken charges =  -0.00000

 Dipole moment (field-independent basis, Debye):
    X=             -4.5584    Y=             -0.4157    Z=              1.6882  Tot=              4.8788

 Test job not archived.
 1\1\GINC-SE187\SP\RHF\Aug-CC-pVDZ\C5H11N1O2\OHZDE\05-Apr-2025\0\\#t hf
  aug-cc-pvdz iop(5/13=1,5/36=2,99/5=2) pseudo=read geom=check guess=(r
 ead,tcheck) scf=(maxcycle=1)\\title\\0,1\C,0,-3.998201,-0.032014,0.092
 137\C,0,-2.629647,0.130528,-0.566038\C,0,-1.467215,-0.1009,0.400376\C,
 0,-0.099316,0.063086,-0.264256\C,0,1.038289,-0.173687,0.725014\N,0,2.3
 6439,-0.001301,0.031077\O,0,2.905108,-1.00415,-0.40607\O,0,2.792402,1.
 136336,-0.078101\H,0,-4.802943,0.14079,-0.623098\H,0,-4.125783,-1.0377
 23,0.497305\H,0,-4.128535,0.674598,0.914043\H,0,-2.547318,1.133724,-0.

 Normal termination of Gaussian 16 at Sat Apr  5 22:15:51 2025.
