 Gaussian 16, Revision C.01,

 ----------------------------------------------------------------------
 #t hf aug-cc-pvdz symm=none int=(grid=ultrafine) guess=(read,tcheck) s
 table=(opt,rrhf)
 ----------------------------------------------------------------------
 -----
 title
 -----
 Symbolic Z-matrix:
 Charge =  0 Multiplicity = 1

 SCF Done:  E(RHF) =  -525.292768631     A.U. after   18 cycles
 Normal termination of Gaussian 16 at Sat Apr  5 22:14:44 2025.
 Gaussian 16:  ES64L-G16RevC.01  3-Jul-2019

 ----------------------------------------------------------------------
 #t hf aug-cc-pvdz iop(5/13=1,5/36=2,99/5=2) pseudo=read geom=check gue
 ss=(read,tcheck) scf=(maxcycle=1)
 ----------------------------------------------------------------------
 -----
 title
 -----
 Structure from the checkpoint file:  "1-nitropropan-2-ylnitrite.chk"
 Charge =  0 Multiplicity = 1

                         Standard orientation:
 ---------------------------------------------------------------------
 Center     Atomic      Atomic             Coordinates (Angstroms)
 Number     Number       Type             X           Y           Z
 ---------------------------------------------------------------------
      1          8           0       -1.586677    0.242823   -0.452011
      2          8           0        2.127839   -0.895530    1.082740
      3          8           0        2.980961    0.036614   -0.679653
      4          8           0       -3.549446   -0.597000   -0.150032
      5          7           0        2.051118   -0.418864   -0.038076
      6          7           0       -2.519406   -0.492165    0.375228
      7          6           0       -0.310700    0.372479    0.201478
      8          6           0        0.684193   -0.397131   -0.672929
      9          6           0        0.022761    1.846227    0.352622
     10          1           0       -0.376425   -0.112909    1.175395
     11          1           0        0.382088   -1.438003   -0.762724
     12          1           0        0.800672    0.053603   -1.652876
     13          1           0        0.997303    1.974383    0.824190
     14          1           0       -0.723135    2.333423    0.978516
     15          1           0        0.038585    2.342002   -0.617938
 ---------------------------------------------------------------------

 SCF Done:  E(RHF) =  -525.454149685     A.U. after    2 cycles

 The electronic state is 1-A.
 Alpha  occ. eigenvalues --  -20.69760 -20.65621 -20.63468 -20.63045 -15.92651
 Alpha  occ. eigenvalues --  -15.87721 -11.34473 -11.33120 -11.25813  -1.57679
 Alpha  occ. eigenvalues --   -1.56486  -1.38253  -1.38075  -1.13204  -1.03447
 Alpha  occ. eigenvalues --   -0.95196  -0.89922  -0.84656  -0.79467  -0.77088
 Alpha  occ. eigenvalues --   -0.76180  -0.75601  -0.73095  -0.71214  -0.66012
 Alpha  occ. eigenvalues --   -0.63954  -0.61975  -0.59329  -0.56267  -0.54073
 Alpha  occ. eigenvalues --   -0.52673  -0.52346  -0.50026  -0.48702  -0.47585
 Alpha virt. eigenvalues --    0.03479   0.03577   0.04430   0.06032   0.06153
 Alpha virt. eigenvalues --    0.06786   0.07239   0.07758   0.09706   0.10900
 Alpha virt. eigenvalues --    0.11957   0.12796   0.14030   0.14753   0.15444

 Mulliken charges:
               1
     1  O   -0.721900
     2  O   -0.582798
     3  O   -0.567152
     4  O   -0.315542
     5  N    0.385777
     6  N    0.385162
     7  C    0.195894
     8  C    1.067333
     9  C    0.446873
    10  H   -0.080071
    11  H   -0.071498
    12  H   -0.109914
    13  H    0.020272
    14  H   -0.067797
    15  H    0.015362
 Sum of Mulliken charges =  -0.00000

 Dipole moment (field-independent basis, Debye):
    X=             -1.7534    Y=              0.6624    Z=             -0.3316  Tot=              1.9034

 Test job not archived.
 1\1\GINC-SE199\SP\RHF\Aug-CC-pVDZ\C3H6N2O4\OHZDE\05-Apr-2025\0\\#t hf
 aug-cc-pvdz iop(5/13=1,5/36=2,99/5=2) pseudo=read geom=check guess=(re
 ad,tcheck) scf=(maxcycle=1)\\title\\0,1\O,0,-1.586677,0.242823,-0.4520
 11\O,0,2.127839,-0.89553,1.08274\O,0,2.980961,0.036614,-0.679653\O,0,-
 3.549446,-0.597,-0.150032\N,0,2.051118,-0.418864,-0.038076\N,0,-2.5194
 06,-0.492165,0.375228\C,0,-0.3107,0.372479,0.201478\C,0,0.684193,-0.39
 7131,-0.672929\C,0,0.022761,1.846227,0.352622\H,0,-0.376425,-0.112909,
 1.175395\H,0,0.382088,-1.438003,-0.762724\H,0,0.800672,0.053603,-1.652

 Normal termination of Gaussian 16 at Sat Apr  5 22:15:49 2025.
