 Gaussian 16, Revision C.01,

 ----------------------------------------------------------------------
 #t hf aug-cc-pvdz symm=none int=(grid=ultrafine) guess=(read,tcheck) s
 table=(opt,rrhf)
 ----------------------------------------------------------------------
 -----
 title
 -----
 Symbolic Z-matrix:
 Charge =  0 Multiplicity = 1

 SCF Done:  E(RHF) =  -504.049464255     A.U. after   17 cycles
 Normal termination of Gaussian 16 at Sat Apr  5 22:15:45 2025.
 Gaussian 16:  ES64L-G16RevC.01  3-Jul-2019

 ----------------------------------------------------------------------
 #t hf aug-cc-pvdz iop(5/13=1,5/36=2,99/5=2) pseudo=read geom=check gue
 ss=(read,tcheck) scf=(maxcycle=1)
 ----------------------------------------------------------------------
 -----
 title
 -----
 Structure from the checkpoint file:  "1-nitropyrrole-3-carbonitrile.chk"
 Charge =  0 Multiplicity = 1

                         Standard orientation:
 ---------------------------------------------------------------------
 Center     Atomic      Atomic             Coordinates (Angstroms)
 Number     Number       Type             X           Y           Z
 ---------------------------------------------------------------------
      1          8           0       -2.903943    0.542304    0.000007
      2          8           0       -2.224534   -1.527721   -0.000004
      3          7           0       -0.718011    0.114913    0.000001
      4          7           0       -2.064664   -0.328750    0.000001
      5          7           0        3.923133   -0.694141   -0.000009
      6          6           0        1.475503    0.087120   -0.000000
      7          6           0        0.370315   -0.724286   -0.000004
      8          6           0       -0.330392    1.446894    0.000007
      9          6           0        1.027257    1.456025    0.000005
     10          6           0        2.822191   -0.353769   -0.000005
     11          1           0        0.260075   -1.791459   -0.000009
     12          1           0       -1.062361    2.231220    0.000012
     13          1           0        1.657653    2.327515    0.000009
 ---------------------------------------------------------------------

 SCF Done:  E(RHF) =  -504.199987120     A.U. after    2 cycles

 The electronic state is 1-A.
 Alpha  occ. eigenvalues --  -20.66846 -20.66811 -16.00726 -15.78549 -15.65573
 Alpha  occ. eigenvalues --  -11.34672 -11.33056 -11.31518 -11.30620 -11.29254
 Alpha  occ. eigenvalues --   -1.62525  -1.43553  -1.35569  -1.21169  -1.15117
 Alpha  occ. eigenvalues --   -1.06134  -0.99296  -0.88699  -0.85707  -0.81631
 Alpha  occ. eigenvalues --   -0.80461  -0.79168  -0.74981  -0.66197  -0.65732
 Alpha  occ. eigenvalues --   -0.63811  -0.62310  -0.57653  -0.56685  -0.56009
 Alpha  occ. eigenvalues --   -0.52852  -0.52296  -0.48128  -0.41199  -0.37046
 Alpha virt. eigenvalues --    0.01806   0.02585   0.03720   0.04560   0.06923
 Alpha virt. eigenvalues --    0.08571   0.08931   0.09697   0.09998   0.11682
 Alpha virt. eigenvalues --    0.12313   0.12802   0.13021   0.13881   0.13970

 Mulliken charges:
               1
     1  O   -0.462101
     2  O   -0.474001
     3  N   -0.410343
     4  N    0.717366
     5  N   -0.069119
     6  C    1.095989
     7  C    0.515721
     8  C    1.034741
     9  C    0.218587
    10  C   -1.020320
    11  H   -0.402810
    12  H   -0.320482
    13  H   -0.423228
 Sum of Mulliken charges =  -0.00000

 Dipole moment (field-independent basis, Debye):
    X=             -1.5563    Y=              2.1823    Z=              0.0000  Tot=              2.6804

 Test job not archived.
 1\1\GINC-SE045\SP\RHF\Aug-CC-pVDZ\C5H3N3O2\OHZDE\05-Apr-2025\0\\#t hf
 aug-cc-pvdz iop(5/13=1,5/36=2,99/5=2) pseudo=read geom=check guess=(re
 ad,tcheck) scf=(maxcycle=1)\\title\\0,1\O,0,-2.903943,0.542304,0.00000
 7\O,0,-2.224534,-1.527721,-0.000004\N,0,-0.718011,0.114913,0.000001\N,
 0,-2.064664,-0.32875,0.000001\N,0,3.923133,-0.694141,-0.000009\C,0,1.4
 75503,0.08712,0.\C,0,0.370315,-0.724286,-0.000004\C,0,-0.330392,1.4468
 94,0.000007\C,0,1.027257,1.456025,0.000005\C,0,2.822191,-0.353769,-0.0
 00005\H,0,0.260075,-1.791459,-0.000009\H,0,-1.062361,2.23122,0.000012\

 Normal termination of Gaussian 16 at Sat Apr  5 22:15:51 2025.
