 Gaussian 16, Revision C.01,

 ----------------------------------------------------------------------
 #t hf aug-cc-pvdz symm=none int=(grid=ultrafine) guess=(read,tcheck) s
 table=(opt,rrhf)
 ----------------------------------------------------------------------
 -----
 title
 -----
 Symbolic Z-matrix:
 Charge =  0 Multiplicity = 1

 SCF Done:  E(RHF) =  -429.531121879     A.U. after   17 cycles
 Normal termination of Gaussian 16 at Sat Apr  5 22:15:13 2025.
 Gaussian 16:  ES64L-G16RevC.01  3-Jul-2019

 ----------------------------------------------------------------------
 #t hf aug-cc-pvdz iop(5/13=1,5/36=2,99/5=2) pseudo=read geom=check gue
 ss=(read,tcheck) scf=(maxcycle=1)
 ----------------------------------------------------------------------
 -----
 title
 -----
 Structure from the checkpoint file:  "1-nitrosopyrazolidin-3-one.chk"
 Charge =  0 Multiplicity = 1

                         Standard orientation:
 ---------------------------------------------------------------------
 Center     Atomic      Atomic             Coordinates (Angstroms)
 Number     Number       Type             X           Y           Z
 ---------------------------------------------------------------------
      1          8           0        2.708104   -0.570601   -0.088239
      2          8           0       -2.779924    0.006037   -0.197353
      3          7           0       -0.704809   -0.238358    0.294109
      4          7           0        0.460380   -0.985720    0.109260
      5          7           0       -1.836329   -0.763921   -0.182698
      6          6           0       -0.379980    1.203560    0.320132
      7          6           0        1.049525    1.244702   -0.232188
      8          6           0        1.565924   -0.183314   -0.071158
      9          1           0       -0.441868    1.572185    1.343414
     10          1           0       -1.126052    1.719833   -0.277729
     11          1           0        1.701720    1.927919    0.304039
     12          1           0        1.078298    1.509182   -1.289948
     13          1           0        0.514950   -1.886298    0.559549
 ---------------------------------------------------------------------

 SCF Done:  E(RHF) =  -429.660175865     A.U. after    2 cycles

 The electronic state is 1-A.
 Alpha  occ. eigenvalues --  -20.62049 -20.56920 -15.81635 -15.74749 -15.71183
 Alpha  occ. eigenvalues --  -11.39810 -11.31971 -11.28467  -1.48866  -1.39040
 Alpha  occ. eigenvalues --   -1.33281  -1.14714  -1.10080  -0.96002  -0.85542
 Alpha  occ. eigenvalues --   -0.84523  -0.76582  -0.73248  -0.69940  -0.68214
 Alpha  occ. eigenvalues --   -0.64709  -0.63640  -0.62021  -0.60278  -0.58616
 Alpha  occ. eigenvalues --   -0.55643  -0.49984  -0.46307  -0.44633  -0.38191
 Alpha virt. eigenvalues --    0.02716   0.03461   0.04189   0.05238   0.07011
 Alpha virt. eigenvalues --    0.08835   0.09616   0.09957   0.10676   0.11316
 Alpha virt. eigenvalues --    0.13870   0.14154   0.14302   0.14649   0.15127

 Mulliken charges:
               1
     1  O   -0.475405
     2  O   -0.514171
     3  N   -0.193871
     4  N   -0.193085
     5  N    0.120641
     6  C    1.059972
     7  C    0.012895
     8  C    0.525222
     9  H   -0.187755
    10  H   -0.175856
    11  H   -0.001262
    12  H    0.015683
    13  H    0.006994
 Sum of Mulliken charges =  -0.00000

 Dipole moment (field-independent basis, Debye):
    X=              0.2400    Y=              1.9752    Z=              1.1178  Tot=              2.2822

 Test job not archived.
 1\1\GINC-SE085\SP\RHF\Aug-CC-pVDZ\C3H5N3O2\OHZDE\05-Apr-2025\0\\#t hf
 aug-cc-pvdz iop(5/13=1,5/36=2,99/5=2) pseudo=read geom=check guess=(re
 ad,tcheck) scf=(maxcycle=1)\\title\\0,1\O,0,2.708104,-0.570601,-0.0882
 39\O,0,-2.779924,0.006037,-0.197353\N,0,-0.704809,-0.238358,0.294109\N
 ,0,0.46038,-0.98572,0.10926\N,0,-1.836329,-0.763921,-0.182698\C,0,-0.3
 7998,1.20356,0.320132\C,0,1.049525,1.244702,-0.232188\C,0,1.565924,-0.
 183314,-0.071158\H,0,-0.441868,1.572185,1.343414\H,0,-1.126052,1.71983
 3,-0.277729\H,0,1.70172,1.927919,0.304039\H,0,1.078298,1.509182,-1.289

 Normal termination of Gaussian 16 at Sat Apr  5 22:15:47 2025.
