 Gaussian 16, Revision C.01,

 ----------------------------------------------------------------------
 #t hf aug-cc-pvdz symm=none int=(grid=ultrafine) guess=(read,tcheck) s
 table=(opt,rrhf)
 ----------------------------------------------------------------------
 -----
 title
 -----
 Symbolic Z-matrix:
 Charge =  0 Multiplicity = 1

 SCF Done:  E(RHF) =  -360.825418281     A.U. after   14 cycles
 Normal termination of Gaussian 16 at Sat Apr  5 22:14:37 2025.
 Gaussian 16:  ES64L-G16RevC.01  3-Jul-2019

 ----------------------------------------------------------------------
 #t hf aug-cc-pvdz iop(5/13=1,5/36=2,99/5=2) pseudo=read geom=check gue
 ss=(read,tcheck) scf=(maxcycle=1)
 ----------------------------------------------------------------------
 -----
 title
 -----
 Structure from the checkpoint file:  "1-nitrobutane.chk"
 Charge =  0 Multiplicity = 1

                         Standard orientation:
 ---------------------------------------------------------------------
 Center     Atomic      Atomic             Coordinates (Angstroms)
 Number     Number       Type             X           Y           Z
 ---------------------------------------------------------------------
      1          6           0        0.536731    3.223064   -0.000000
      2          6           0       -0.454928    2.061221   -0.000000
      3          6           0        0.239825    0.697977   -0.000000
      4          6           0       -0.768764   -0.447146    0.000000
      5          7           0       -0.044489   -1.768093    0.000000
      6          8           0        0.239825   -2.250342    1.084249
      7          8           0        0.239825   -2.250342   -1.084249
      8          1           0        0.018030    4.181913   -0.000000
      9          1           0        1.179997    3.192827    0.881142
     10          1           0        1.179997    3.192827   -0.881142
     11          1           0       -1.106167    2.136482    0.875255
     12          1           0       -1.106167    2.136482   -0.875255
     13          1           0        0.880107    0.607526   -0.879899
     14          1           0        0.880107    0.607526    0.879899
     15          1           0       -1.384437   -0.442080    0.895216
     16          1           0       -1.384437   -0.442080   -0.895216
 ---------------------------------------------------------------------

 SCF Done:  E(RHF) =  -360.938412788     A.U. after    2 cycles

 The electronic state is 1-A'.
 Alpha  occ. eigenvalues --  -20.61721 -20.61711 -15.90985 -11.31598 -11.26450
 Alpha  occ. eigenvalues --  -11.25558 -11.24076  -1.54835  -1.36509  -1.12496
 Alpha  occ. eigenvalues --   -1.05092  -0.94389  -0.84617  -0.82853  -0.75597
 Alpha  occ. eigenvalues --   -0.74370  -0.71977  -0.68202  -0.61815  -0.61091
 Alpha  occ. eigenvalues --   -0.57192  -0.54490  -0.52695  -0.50922  -0.50790
 Alpha  occ. eigenvalues --   -0.49835  -0.48589  -0.47106
 Alpha virt. eigenvalues --    0.02852   0.03839   0.04231   0.04869   0.06255
 Alpha virt. eigenvalues --    0.06405   0.07348   0.07803   0.08864   0.09718
 Alpha virt. eigenvalues --    0.10263   0.12019   0.13266   0.14590   0.14965

 Mulliken charges:
               1
     1  C    0.465960
     2  C    0.134191
     3  C   -0.035121
     4  C    1.159716
     5  N    0.405047
     6  O   -0.575751
     7  O   -0.575751
     8  H   -0.059568
     9  H   -0.069597
    10  H   -0.069597
    11  H   -0.124481
    12  H   -0.124481
    13  H   -0.113610
    14  H   -0.113610
    15  H   -0.151673
    16  H   -0.151673
 Sum of Mulliken charges =  -0.00000

 Dipole moment (field-independent basis, Debye):
    X=             -1.8432    Y=              4.4718    Z=             -0.0000  Tot=              4.8368

 Test job not archived.
 1\1\GINC-SE171\SP\RHF\Aug-CC-pVDZ\C4H9N1O2\OHZDE\05-Apr-2025\0\\#t hf
 aug-cc-pvdz iop(5/13=1,5/36=2,99/5=2) pseudo=read geom=check guess=(re
 ad,tcheck) scf=(maxcycle=1)\\title\\0,1\C,0,0.536731,3.223064,0.\C,0,-
 0.454928,2.061221,0.\C,0,0.239825,0.697977,0.\C,0,-0.768764,-0.447146,
 0.\N,0,-0.044489,-1.768093,0.\O,0,0.239825,-2.250342,1.084249\O,0,0.23
 9825,-2.250342,-1.084249\H,0,0.01803,4.181913,0.\H,0,1.179997,3.192827
 ,0.881142\H,0,1.179997,3.192827,-0.881142\H,0,-1.106167,2.136482,0.875
 255\H,0,-1.106167,2.136482,-0.875255\H,0,0.880107,0.607526,-0.879899\H

 Normal termination of Gaussian 16 at Sat Apr  5 22:15:47 2025.
