 Gaussian 16, Revision C.01,

 ----------------------------------------------------------------------
 #t hf aug-cc-pvdz symm=none int=(grid=ultrafine) guess=(read,tcheck) s
 table=(opt,rrhf)
 ----------------------------------------------------------------------
 -----
 title
 -----
 Symbolic Z-matrix:
 Charge =  0 Multiplicity = 1

 SCF Done:  E(RHF) =  -752.220064446     A.U. after   15 cycles
 Normal termination of Gaussian 16 at Sat Apr  5 22:16:50 2025.
 Gaussian 16:  ES64L-G16RevC.01  3-Jul-2019

 ----------------------------------------------------------------------
 #t hf aug-cc-pvdz iop(5/13=1,5/36=2,99/5=2) pseudo=read geom=check gue
 ss=(read,tcheck) scf=(maxcycle=1)
 ----------------------------------------------------------------------
 -----
 title
 -----
 Structure from the checkpoint file:  "1-nitroso-2-imidazolidinethione.chk"
 Charge =  0 Multiplicity = 1

                         Standard orientation:
 ---------------------------------------------------------------------
 Center     Atomic      Atomic             Coordinates (Angstroms)
 Number     Number       Type             X           Y           Z
 ---------------------------------------------------------------------
      1         16           0       -2.085780   -0.900716    0.006105
      2          8           0        2.215947   -1.569660    0.000507
      3          7           0        0.569237   -0.210430    0.014654
      4          7           0       -0.824348    1.471103   -0.076104
      5          7           0        1.006426   -1.480170    0.031513
      6          6           0       -0.797846    0.120492   -0.016313
      7          6           0        1.454352    0.955921   -0.068349
      8          6           0        0.468197    2.125120    0.088754
      9          1           0       -1.707843    1.945974   -0.009085
     10          1           0        1.968507    0.956564   -1.029568
     11          1           0        2.206495    0.910569    0.715423
     12          1           0        0.550124    2.589299    1.074075
     13          1           0        0.620198    2.893610   -0.667587
 ---------------------------------------------------------------------

 SCF Done:  E(RHF) =  -752.343711990     A.U. after    2 cycles

 The electronic state is 1-A.
 Alpha  occ. eigenvalues --  -93.49177 -20.63571 -15.82150 -15.73082 -15.69216
 Alpha  occ. eigenvalues --  -11.41218 -11.32612 -11.32259  -8.79132  -6.13404
 Alpha  occ. eigenvalues --   -6.12825  -6.12734  -1.49864  -1.34133  -1.22008
 Alpha  occ. eigenvalues --   -1.09113  -1.00933  -0.93884  -0.89785  -0.80431
 Alpha  occ. eigenvalues --   -0.73413  -0.73156  -0.72173  -0.67738  -0.65248
 Alpha  occ. eigenvalues --   -0.62679  -0.58678  -0.57696  -0.54739  -0.53038
 Alpha  occ. eigenvalues --   -0.45228  -0.42016  -0.34182  -0.33733
 Alpha virt. eigenvalues --    0.01817   0.03513   0.03672   0.05544   0.06541
 Alpha virt. eigenvalues --    0.06786   0.08240   0.09241   0.10550   0.12041
 Alpha virt. eigenvalues --    0.12453   0.13140   0.13483   0.13887   0.14869

 Mulliken charges:
               1
     1  S    0.065862
     2  O   -0.473936
     3  N   -0.204592
     4  N   -0.404819
     5  N    0.051969
     6  C    0.091869
     7  C    0.886729
     8  C    0.740286
     9  H   -0.100534
    10  H   -0.207748
    11  H   -0.177206
    12  H   -0.155323
    13  H   -0.112557
 Sum of Mulliken charges =  -0.00000

 Dipole moment (field-independent basis, Debye):
    X=              1.5922    Y=              6.6760    Z=              0.1307  Tot=              6.8644

 Test job not archived.
 1\1\GINC-SE050\SP\RHF\Aug-CC-pVDZ\C3H5N3O1S1\OHZDE\05-Apr-2025\0\\#t h
 f aug-cc-pvdz iop(5/13=1,5/36=2,99/5=2) pseudo=read geom=check guess=(
 read,tcheck) scf=(maxcycle=1)\\title\\0,1\S,0,-2.08578,-0.900716,0.006
 105\O,0,2.215947,-1.569659,0.000507\N,0,0.569237,-0.21043,0.014654\N,0
 ,-0.824348,1.471103,-0.076104\N,0,1.006426,-1.48017,0.031513\C,0,-0.79
 7846,0.120492,-0.016313\C,0,1.454352,0.955921,-0.068349\C,0,0.468196,2
 .12512,0.088754\H,0,-1.707844,1.945974,-0.009085\H,0,1.968507,0.956565
 ,-1.029568\H,0,2.206495,0.91057,0.715423\H,0,0.550123,2.589299,1.07407

 Normal termination of Gaussian 16 at Sat Apr  5 22:16:56 2025.
