 Gaussian 16, Revision C.01,

 ----------------------------------------------------------------------
 #t hf aug-cc-pvdz symm=none int=(grid=ultrafine) guess=(read,tcheck) s
 table=(opt,rrhf)
 ----------------------------------------------------------------------
 -----
 title
 -----
 Symbolic Z-matrix:
 Charge =  0 Multiplicity = 1

 SCF Done:  E(RHF) =  -388.338331730     A.U. after   12 cycles

 1\1\GINC-SE129\Stability\RHF\Aug-CC-pVDZ\C8H18O1\OHZDE\05-Apr-2025\0\\
 #t hf aug-cc-pvdz symm=none int=(grid=ultrafine) guess=(read,tcheck) s
 table=(opt,rrhf)\\title\\0,1\C,0,5.089909,-0.352288,-0.006234\C,0,3.81
 2557,0.485486,0.017342\C,0,2.536468,-0.356683,-0.009704\C,0,1.252161,0
 .472558,0.012261\C,0,-0.022805,-0.371121,-0.013333\C,0,-1.306858,0.459
 456,0.007688\C,0,-2.580564,-0.387028,-0.02192\C,0,-3.851423,0.452738,0
 .005891\O,0,-5.044544,-0.325727,-0.078454\H,0,5.140854,-0.967918,-0.90
 6694\H,0,5.136911,-1.023546,0.853797\H,0,5.980865,0.276784,0.015618\H,

 Normal termination of Gaussian 16 at Sat Apr  5 22:17:27 2025.
 Gaussian 16:  ES64L-G16RevC.01  3-Jul-2019

 ----------------------------------------------------------------------
 #t hf aug-cc-pvdz iop(5/13=1,5/36=2,99/5=2) pseudo=read geom=check gue
 ss=(read,tcheck) scf=(maxcycle=1)
 ----------------------------------------------------------------------
 -----
 title
 -----
 Structure from the checkpoint file:  "1-octanol.chk"
 Charge =  0 Multiplicity = 1

                         Standard orientation:
 ---------------------------------------------------------------------
 Center     Atomic      Atomic             Coordinates (Angstroms)
 Number     Number       Type             X           Y           Z
 ---------------------------------------------------------------------
      1          6           0        5.089909   -0.352288   -0.006234
      2          6           0        3.812557    0.485486    0.017342
      3          6           0        2.536468   -0.356683   -0.009704
      4          6           0        1.252161    0.472558    0.012261
      5          6           0       -0.022805   -0.371121   -0.013333
      6          6           0       -1.306858    0.459456    0.007688
      7          6           0       -2.580564   -0.387028   -0.021920
      8          6           0       -3.851423    0.452738    0.005891
      9          8           0       -5.044544   -0.325727   -0.078454
     10          1           0        5.140854   -0.967918   -0.906694
     11          1           0        5.136911   -1.023546    0.853797
     12          1           0        5.980865    0.276784    0.015618
     13          1           0        3.809761    1.169734   -0.836459
     14          1           0        3.807307    1.117177    0.910784
     15          1           0        2.542544   -0.990137   -0.903143
     16          1           0        2.539557   -1.041269    0.845242
     17          1           0        1.249543    1.155909   -0.843424
     18          1           0        1.247470    1.106707    0.905111
     19          1           0       -0.018787   -1.005273   -0.905757
     20          1           0       -0.021131   -1.053901    0.842702
     21          1           0       -1.307512    1.142029   -0.848333
     22          1           0       -1.310614    1.093278    0.900561
     23          1           0       -2.584132   -1.069525    0.835632
     24          1           0       -2.594832   -1.012605   -0.918195
     25          1           0       -3.868468    1.083342    0.903101
     26          1           0       -3.882554    1.118124   -0.857873
     27          1           0       -5.087108   -0.911803    0.683019
 ---------------------------------------------------------------------

 SCF Done:  E(RHF) =  -388.462147801     A.U. after    2 cycles

 The electronic state is 1-A.
 Alpha  occ. eigenvalues --  -20.56732 -11.28183 -11.23046 -11.22906 -11.22719
 Alpha  occ. eigenvalues --  -11.22595 -11.22524 -11.22404 -11.22083  -1.31438
 Alpha  occ. eigenvalues --   -1.08597  -1.05572  -1.00682  -0.94405  -0.87698
 Alpha  occ. eigenvalues --   -0.82307  -0.79455  -0.78873  -0.69815  -0.66149
 Alpha  occ. eigenvalues --   -0.63789  -0.61476  -0.61017  -0.59133  -0.57614
 Alpha  occ. eigenvalues --   -0.56151  -0.54196  -0.52775  -0.51284  -0.49865
 Alpha  occ. eigenvalues --   -0.48201  -0.47840  -0.46870  -0.46452  -0.46280
 Alpha  occ. eigenvalues --   -0.46057  -0.43221
 Alpha virt. eigenvalues --    0.03434   0.03626   0.04137   0.04409   0.05067
 Alpha virt. eigenvalues --    0.05480   0.05792   0.06458   0.06934   0.07586
 Alpha virt. eigenvalues --    0.07784   0.08329   0.09314   0.10133   0.10194

 Mulliken charges:
               1
     1  C    0.656168
     2  C    0.487740
     3  C    0.196821
     4  C    0.050612
     5  C    0.061027
     6  C    0.234967
     7  C    0.401136
     8  C    1.235167
     9  O   -0.589458
    10  H   -0.093891
    11  H   -0.094988
    12  H   -0.069766
    13  H   -0.169291
    14  H   -0.169648
    15  H   -0.200396
    16  H   -0.197378
    17  H   -0.205516
    18  H   -0.205138
    19  H   -0.200205
    20  H   -0.203319
    21  H   -0.187689
    22  H   -0.186983
    23  H   -0.197904
    24  H   -0.124949
    25  H   -0.154143
    26  H   -0.213681
    27  H    0.140705
 Sum of Mulliken charges =  -0.00000

 Dipole moment (field-independent basis, Debye):
    X=              1.6075    Y=             -0.0470    Z=              1.2464  Tot=              2.0347

 Test job not archived.
 1\1\GINC-SE129\SP\RHF\Aug-CC-pVDZ\C8H18O1\OHZDE\05-Apr-2025\0\\#t hf a
 ug-cc-pvdz iop(5/13=1,5/36=2,99/5=2) pseudo=read geom=check guess=(rea
 d,tcheck) scf=(maxcycle=1)\\title\\0,1\C,0,5.089909,-0.352288,-0.00623
 4\C,0,3.812557,0.485486,0.017342\C,0,2.536468,-0.356683,-0.009704\C,0,
 1.252161,0.472558,0.012261\C,0,-0.022805,-0.371121,-0.013333\C,0,-1.30
 6858,0.459456,0.007688\C,0,-2.580564,-0.387028,-0.02192\C,0,-3.851423,
 0.452738,0.005891\O,0,-5.044544,-0.325727,-0.078454\H,0,5.140854,-0.96
 7918,-0.906694\H,0,5.136911,-1.023546,0.853797\H,0,5.980865,0.276784,0

 Normal termination of Gaussian 16 at Sat Apr  5 22:18:13 2025.
