 Gaussian 16, Revision C.01,

 ----------------------------------------------------------------------
 #t hf aug-cc-pvdz symm=none int=(grid=ultrafine) guess=(read,tcheck) s
 table=(opt,rrhf)
 ----------------------------------------------------------------------
 -----
 title
 -----
 Symbolic Z-matrix:
 Charge =  0 Multiplicity = 1

 SCF Done:  E(RHF) =  -271.221896880     A.U. after   12 cycles

 1\1\GINC-SE199\Stability\RHF\Aug-CC-pVDZ\C5H12O1\OHZDE\05-Apr-2025\0\\
 #t hf aug-cc-pvdz symm=none int=(grid=ultrafine) guess=(read,tcheck) s
 table=(opt,rrhf)\\title\\0,1\C,0,-3.174894,0.221356,0.015832\C,0,-1.85
 4161,-0.545307,-0.021865\C,0,-0.626182,0.365737,0.013037\C,0,0.699506,
 -0.395753,-0.027955\C,0,1.913737,0.52347,0.013334\O,0,3.154194,-0.1757
 19,-0.081422\H,0,-3.256954,0.821962,0.924087\H,0,-3.261939,0.8992,-0.8
 3578\H,0,-4.029566,-0.455825,-0.01154\H,0,-1.816621,-1.163702,-0.92341
 2\H,0,-1.810925,-1.238981,0.823068\H,0,-0.670781,1.059963,-0.832589\H,

 Normal termination of Gaussian 16 at Sat Apr  5 22:16:17 2025.
 Gaussian 16:  ES64L-G16RevC.01  3-Jul-2019

 ----------------------------------------------------------------------
 #t hf aug-cc-pvdz iop(5/13=1,5/36=2,99/5=2) pseudo=read geom=check gue
 ss=(read,tcheck) scf=(maxcycle=1)
 ----------------------------------------------------------------------
 -----
 title
 -----
 Structure from the checkpoint file:  "1-pentanol.chk"
 Charge =  0 Multiplicity = 1

                         Standard orientation:
 ---------------------------------------------------------------------
 Center     Atomic      Atomic             Coordinates (Angstroms)
 Number     Number       Type             X           Y           Z
 ---------------------------------------------------------------------
      1          6           0       -3.174894    0.221356    0.015832
      2          6           0       -1.854161   -0.545307   -0.021865
      3          6           0       -0.626182    0.365737    0.013037
      4          6           0        0.699506   -0.395753   -0.027955
      5          6           0        1.913737    0.523470    0.013334
      6          8           0        3.154194   -0.175719   -0.081422
      7          1           0       -3.256954    0.821962    0.924087
      8          1           0       -3.261939    0.899200   -0.835780
      9          1           0       -4.029566   -0.455825   -0.011540
     10          1           0       -1.816621   -1.163702   -0.923412
     11          1           0       -1.810925   -1.238981    0.823068
     12          1           0       -0.670781    1.059963   -0.832589
     13          1           0       -0.664660    0.985038    0.915426
     14          1           0        0.754149   -1.005560   -0.933536
     15          1           0        0.747184   -1.089540    0.819209
     16          1           0        1.890619    1.140743    0.919619
     17          1           0        1.902039    1.201994   -0.840618
     18          1           0        3.235868   -0.766559    0.673146
 ---------------------------------------------------------------------

 SCF Done:  E(RHF) =  -271.309759722     A.U. after    2 cycles

 The electronic state is 1-A.
 Alpha  occ. eigenvalues --  -20.56760 -11.28219 -11.23098 -11.23009 -11.22943
 Alpha  occ. eigenvalues --  -11.22369  -1.31470  -1.07545  -1.00768  -0.91338
 Alpha  occ. eigenvalues --   -0.83154  -0.79631  -0.69842  -0.65187  -0.61957
 Alpha  occ. eigenvalues --   -0.61236  -0.58117  -0.56779  -0.53407  -0.51506
 Alpha  occ. eigenvalues --   -0.49516  -0.47567  -0.47444  -0.46818  -0.44128
 Alpha virt. eigenvalues --    0.03423   0.04082   0.04415   0.04784   0.06134
 Alpha virt. eigenvalues --    0.06394   0.06727   0.06984   0.08966   0.09233
 Alpha virt. eigenvalues --    0.09659   0.10309   0.10674   0.13390   0.14068

 Mulliken charges:
               1
     1  C    0.497848
     2  C    0.203839
     3  C    0.070153
     4  C    0.104725
     5  C    1.050471
     6  O   -0.568810
     7  H   -0.083502
     8  H   -0.082397
     9  H   -0.059794
    10  H   -0.152769
    11  H   -0.154142
    12  H   -0.172525
    13  H   -0.170316
    14  H   -0.104247
    15  H   -0.172662
    16  H   -0.141946
    17  H   -0.202126
    18  H    0.138201
 Sum of Mulliken charges =  -0.00000

 Dipole moment (field-independent basis, Debye):
    X=             -1.5558    Y=             -0.2421    Z=              1.2488  Tot=              2.0096

 Test job not archived.
 1\1\GINC-SE199\SP\RHF\Aug-CC-pVDZ\C5H12O1\OHZDE\05-Apr-2025\0\\#t hf a
 ug-cc-pvdz iop(5/13=1,5/36=2,99/5=2) pseudo=read geom=check guess=(rea
 d,tcheck) scf=(maxcycle=1)\\title\\0,1\C,0,-3.174894,0.221356,0.015832
 \C,0,-1.854161,-0.545307,-0.021865\C,0,-0.626182,0.365737,0.013037\C,0
 ,0.699506,-0.395753,-0.027955\C,0,1.913737,0.52347,0.013334\O,0,3.1541
 94,-0.175719,-0.081422\H,0,-3.256954,0.821962,0.924087\H,0,-3.261939,0
 .8992,-0.83578\H,0,-4.029566,-0.455825,-0.01154\H,0,-1.816621,-1.16370
 2,-0.923412\H,0,-1.810925,-1.238981,0.823068\H,0,-0.670781,1.059963,-0

 Normal termination of Gaussian 16 at Sat Apr  5 22:16:55 2025.
