 Gaussian 16, Revision C.01,

 ----------------------------------------------------------------------
 #t hf aug-cc-pvdz symm=none int=(grid=ultrafine) guess=(read,tcheck) s
 table=(opt,rrhf)
 ----------------------------------------------------------------------
 -----
 title
 -----
 Symbolic Z-matrix:
 Charge =  0 Multiplicity = 1

 SCF Done:  E(RHF) =  -593.886843658     A.U. after   12 cycles

 1\1\GINC-SE198\Stability\RHF\Aug-CC-pVDZ\C5H12S1\OHZDE\05-Apr-2025\0\\
 #t hf aug-cc-pvdz symm=none int=(grid=ultrafine) guess=(read,tcheck) s
 table=(opt,rrhf)\\title\\0,1\S,0,-2.422026,1.676358,0.\H,0,-3.662177,1
 .155548,0.\C,0,-1.499663,0.079993,0.\H,0,-1.784672,-0.487365,0.884633\
 H,0,-1.784672,-0.487365,-0.884633\C,0,0.,0.354619,0.\H,0,0.257208,0.95
 6252,-0.876062\H,0,0.257208,0.956252,0.876062\C,0,0.830343,-0.930799,0
 .\H,0,0.566953,-1.533496,0.875311\H,0,0.566953,-1.533496,-0.875311\C,0
 ,2.338563,-0.676984,0.\H,0,2.601518,-0.074233,0.874144\H,0,2.601518,-0

 Normal termination of Gaussian 16 at Sat Apr  5 22:15:13 2025.
 Gaussian 16:  ES64L-G16RevC.01  3-Jul-2019

 ----------------------------------------------------------------------
 #t hf aug-cc-pvdz iop(5/13=1,5/36=2,99/5=2) pseudo=read geom=check gue
 ss=(read,tcheck) scf=(maxcycle=1)
 ----------------------------------------------------------------------
 -----
 title
 -----
 Structure from the checkpoint file:  "1-pentanethiol.chk"
 Charge =  0 Multiplicity = 1

                         Standard orientation:
 ---------------------------------------------------------------------
 Center     Atomic      Atomic             Coordinates (Angstroms)
 Number     Number       Type             X           Y           Z
 ---------------------------------------------------------------------
      1         16           0       -2.422027    1.676357    0.000000
      2          1           0       -3.662178    1.155546    0.000000
      3          6           0       -1.499663    0.079992    0.000000
      4          1           0       -1.784671   -0.487366    0.884633
      5          1           0       -1.784671   -0.487366   -0.884633
      6          6           0        0.000000    0.354619    0.000000
      7          1           0        0.257208    0.956252   -0.876062
      8          1           0        0.257208    0.956252    0.876062
      9          6           0        0.830344   -0.930798    0.000000
     10          1           0        0.566954   -1.533495    0.875311
     11          1           0        0.566954   -1.533495   -0.875311
     12          6           0        2.338564   -0.676982    0.000000
     13          1           0        2.601518   -0.074231    0.874144
     14          1           0        2.601518   -0.074231   -0.874144
     15          6           0        3.164446   -1.962115    0.000000
     16          1           0        2.948287   -2.570043    0.880892
     17          1           0        2.948287   -2.570043   -0.880892
     18          1           0        4.233869   -1.747781    0.000000
 ---------------------------------------------------------------------

 SCF Done:  E(RHF) =  -593.970070803     A.U. after    2 cycles

 The electronic state is 1-A'.
 Alpha  occ. eigenvalues --  -93.52882 -11.26939 -11.23830 -11.23296 -11.23110
 Alpha  occ. eigenvalues --  -11.22464  -8.82613  -6.16803  -6.16556  -6.16210
 Alpha  occ. eigenvalues --   -1.08879  -1.03763  -0.96363  -0.88166  -0.80979
 Alpha  occ. eigenvalues --   -0.79747  -0.66453  -0.61610  -0.60802  -0.58209
 Alpha  occ. eigenvalues --   -0.54973  -0.54370  -0.52133  -0.49414  -0.47774
 Alpha  occ. eigenvalues --   -0.47129  -0.46341  -0.43999  -0.35126
 Alpha virt. eigenvalues --    0.03483   0.03944   0.04669   0.04696   0.05809
 Alpha virt. eigenvalues --    0.06598   0.06701   0.07096   0.08483   0.09334
 Alpha virt. eigenvalues --    0.09501   0.10393   0.10682   0.11536   0.13259

 Mulliken charges:
               1
     1  S    0.369730
     2  H    0.025017
     3  C    0.133896
     4  H   -0.170392
     5  H   -0.170392
     6  C    0.202351
     7  H   -0.154180
     8  H   -0.154180
     9  C    0.040089
    10  H   -0.189906
    11  H   -0.189906
    12  C    0.259151
    13  H   -0.147852
    14  H   -0.147852
    15  C    0.528401
    16  H   -0.084848
    17  H   -0.084848
    18  H   -0.064280
 Sum of Mulliken charges =   0.00000

 Dipole moment (field-independent basis, Debye):
    X=              0.4936    Y=             -1.7774    Z=              0.0000  Tot=              1.8447

 Test job not archived.
 1\1\GINC-SE198\SP\RHF\Aug-CC-pVDZ\C5H12S1\OHZDE\05-Apr-2025\0\\#t hf a
 ug-cc-pvdz iop(5/13=1,5/36=2,99/5=2) pseudo=read geom=check guess=(rea
 d,tcheck) scf=(maxcycle=1)\\title\\0,1\S,0,-2.422026,1.676358,0.\H,0,-
 3.662177,1.155548,0.\C,0,-1.499663,0.079993,0.\H,0,-1.784672,-0.487365
 ,0.884633\H,0,-1.784672,-0.487365,-0.884633\C,0,0.,0.354619,0.\H,0,0.2
 57208,0.956252,-0.876062\H,0,0.257208,0.956252,0.876062\C,0,0.830343,-
 0.930799,0.\H,0,0.566953,-1.533496,0.875311\H,0,0.566953,-1.533496,-0.
 875311\C,0,2.338563,-0.676984,0.\H,0,2.601518,-0.074233,0.874144\H,0,2

 Normal termination of Gaussian 16 at Sat Apr  5 22:15:48 2025.
