 Gaussian 16, Revision C.01,

 ----------------------------------------------------------------------
 #t hf aug-cc-pvdz symm=none int=(grid=ultrafine) guess=(read,tcheck) s
 table=(opt,rrhf)
 ----------------------------------------------------------------------
 -----
 title
 -----
 Symbolic Z-matrix:
 Charge =  0 Multiplicity = 1

 SCF Done:  E(RHF) =  -362.672684987     A.U. after   16 cycles
 Normal termination of Gaussian 16 at Sat Apr  5 22:15:59 2025.
 Gaussian 16:  ES64L-G16RevC.01  3-Jul-2019

 ----------------------------------------------------------------------
 #t hf aug-cc-pvdz iop(5/13=1,5/36=2,99/5=2) pseudo=read geom=check gue
 ss=(read,tcheck) scf=(maxcycle=1)
 ----------------------------------------------------------------------
 -----
 title
 -----
 Structure from the checkpoint file:  "1-phenylethanimine.chk"
 Charge =  0 Multiplicity = 1

                         Standard orientation:
 ---------------------------------------------------------------------
 Center     Atomic      Atomic             Coordinates (Angstroms)
 Number     Number       Type             X           Y           Z
 ---------------------------------------------------------------------
      1          6           0       -0.695065   -2.506553    0.000000
      2          6           0        0.640810   -2.129667    0.000000
      3          6           0       -1.686417   -1.527721    0.000000
      4          6           0        0.985096   -0.782121    0.000000
      5          6           0       -1.343694   -0.185795    0.000000
      6          6           0        0.000000    0.209408    0.000000
      7          6           0        0.343826    1.660851    0.000000
      8          6           0        1.805185    2.046442    0.000000
      9          7           0       -0.606615    2.511330    0.000000
     10          1           0       -0.964675   -3.554227    0.000000
     11          1           0        1.418044   -2.881961    0.000000
     12          1           0       -2.729354   -1.815347    0.000000
     13          1           0        2.031257   -0.512617    0.000000
     14          1           0       -2.104187    0.580888    0.000000
     15          1           0        2.317686    1.650451    0.878477
     16          1           0        1.909909    3.129766    0.000000
     17          1           0        2.317686    1.650451   -0.878477
     18          1           0       -0.248508    3.464218    0.000000
 ---------------------------------------------------------------------

 SCF Done:  E(RHF) =  -362.779407383     A.U. after    2 cycles

 The electronic state is 1-A'.
 Alpha  occ. eigenvalues --  -15.60851 -11.30283 -11.25167 -11.25057 -11.24953
 Alpha  occ. eigenvalues --  -11.24731 -11.24595 -11.24375 -11.24191  -1.19456
 Alpha  occ. eigenvalues --   -1.14146  -1.02650  -1.01389  -0.98039  -0.85919
 Alpha  occ. eigenvalues --   -0.83013  -0.76501  -0.70044  -0.66150  -0.63345
 Alpha  occ. eigenvalues --   -0.61732  -0.60446  -0.59767  -0.59405  -0.55183
 Alpha  occ. eigenvalues --   -0.51513  -0.50598  -0.49822  -0.43789  -0.41290
 Alpha  occ. eigenvalues --   -0.34380  -0.33007
 Alpha virt. eigenvalues --    0.03153   0.03528   0.04293   0.05366   0.05438
 Alpha virt. eigenvalues --    0.05611   0.07267   0.08022   0.08136   0.09453
 Alpha virt. eigenvalues --    0.10071   0.10925   0.11817   0.12691   0.13719

 Mulliken charges:
               1
     1  C    0.641859
     2  C    0.313538
     3  C    0.516404
     4  C    0.242570
     5  C    0.024353
     6  C    0.854647
     7  C   -0.248474
     8  C    0.598475
     9  N   -0.368340
    10  H   -0.449929
    11  H   -0.447362
    12  H   -0.442918
    13  H   -0.677874
    14  H   -0.606620
    15  H    0.129699
    16  H   -0.225387
    17  H    0.129699
    18  H    0.015661
 Sum of Mulliken charges =  -0.00000

 Dipole moment (field-independent basis, Debye):
    X=              2.1861    Y=             -0.4284    Z=              0.0000  Tot=              2.2277

 Test job not archived.
 1\1\GINC-SE042\SP\RHF\Aug-CC-pVDZ\C8H9N1\OHZDE\05-Apr-2025\0\\#t hf au
 g-cc-pvdz iop(5/13=1,5/36=2,99/5=2) pseudo=read geom=check guess=(read
 ,tcheck) scf=(maxcycle=1)\\title\\0,1\C,0,-0.695065,-2.506553,0.\C,0,0
 .64081,-2.129667,0.\C,0,-1.686417,-1.527721,0.\C,0,0.985096,-0.782121,
 0.\C,0,-1.343694,-0.185795,0.\C,0,0.,0.209408,0.\C,0,0.343826,1.660851
 ,0.\C,0,1.805185,2.046442,0.\N,0,-0.606615,2.51133,0.\H,0,-0.964675,-3
 .554227,0.\H,0,1.418044,-2.881961,0.\H,0,-2.729354,-1.815347,0.\H,0,2.
 031257,-0.512617,0.\H,0,-2.104187,0.580888,0.\H,0,2.317686,1.650451,0.

 Normal termination of Gaussian 16 at Sat Apr  5 22:16:07 2025.
