 Gaussian 16, Revision C.01,

 ----------------------------------------------------------------------
 #t hf aug-cc-pvdz symm=none int=(grid=ultrafine) guess=(read,tcheck) s
 table=(opt,rrhf)
 ----------------------------------------------------------------------
 -----
 title
 -----
 Symbolic Z-matrix:
 Charge =  0 Multiplicity = 1

 SCF Done:  E(RHF) =  -605.131971682     A.U. after   15 cycles
 Normal termination of Gaussian 16 at Sat Apr  5 22:17:00 2025.
 Gaussian 16:  ES64L-G16RevC.01  3-Jul-2019

 ----------------------------------------------------------------------
 #t hf aug-cc-pvdz iop(5/13=1,5/36=2,99/5=2) pseudo=read geom=check gue
 ss=(read,tcheck) scf=(maxcycle=1)
 ----------------------------------------------------------------------
 -----
 title
 -----
 Structure from the checkpoint file:  "1-propyn-1-yl_thiocyanate.chk"
 Charge =  0 Multiplicity = 1

                         Standard orientation:
 ---------------------------------------------------------------------
 Center     Atomic      Atomic             Coordinates (Angstroms)
 Number     Number       Type             X           Y           Z
 ---------------------------------------------------------------------
      1         16           0       -0.919300   -0.968615   -0.000000
      2          7           0       -2.596878    1.348222   -0.000000
      3          6           0        3.166496    0.507266    0.000001
      4          6           0        1.788843    0.050261    0.000001
      5          6           0        0.640017   -0.308782   -0.000000
      6          6           0       -1.880155    0.442903   -0.000000
      7          1           0        3.698733    0.156257    0.885244
      8          1           0        3.198185    1.598130   -0.000150
      9          1           0        3.698808    0.156014   -0.885101
 ---------------------------------------------------------------------

 SCF Done:  E(RHF) =  -605.220170925     A.U. after    2 cycles

 The electronic state is 1-A.
 Alpha  occ. eigenvalues --  -93.63568 -15.66063 -11.31910 -11.28639 -11.28221
 Alpha  occ. eigenvalues --  -11.28152  -8.93000  -6.27256  -6.26981  -6.26545
 Alpha  occ. eigenvalues --   -1.21259  -1.11468  -1.05775  -0.97100  -0.75947
 Alpha  occ. eigenvalues --   -0.66352  -0.61912  -0.61838  -0.59998  -0.55935
 Alpha  occ. eigenvalues --   -0.54911  -0.48031  -0.46603  -0.42095  -0.36374
 Alpha virt. eigenvalues --    0.02658   0.05202   0.05297   0.05842   0.07792
 Alpha virt. eigenvalues --    0.08641   0.10196   0.10996   0.11632   0.12288
 Alpha virt. eigenvalues --    0.12514   0.13306   0.14270   0.14846   0.14869

 Mulliken charges:
               1
     1  S    0.680666
     2  N   -0.214800
     3  C    0.240627
     4  C   -0.846608
     5  C    0.123484
     6  C   -0.313048
     7  H    0.108023
     8  H    0.113629
     9  H    0.108026
 Sum of Mulliken charges =  -0.00000

 Dipole moment (field-independent basis, Debye):
    X=              4.2237    Y=             -1.6043    Z=             -0.0000  Tot=              4.5181

 Test job not archived.
 1\1\GINC-SE190\SP\RHF\Aug-CC-pVDZ\C4H3N1S1\OHZDE\05-Apr-2025\0\\#t hf
 aug-cc-pvdz iop(5/13=1,5/36=2,99/5=2) pseudo=read geom=check guess=(re
 ad,tcheck) scf=(maxcycle=1)\\title\\0,1\S,0,-0.9193,-0.968615,0.\N,0,-
 2.596878,1.348222,0.\C,0,3.166496,0.507266,0.000001\C,0,1.788843,0.050
 261,0.000001\C,0,0.640017,-0.308782,0.\C,0,-1.880155,0.442903,0.\H,0,3
 .698733,0.156257,0.885244\H,0,3.198185,1.59813,-0.00015\H,0,3.698808,0
 .156014,-0.885101\\Version=ES64L-G16RevC.01\State=1-A\HF=-605.2201709\
 RMSD=1.045e-02\Dipole=1.661736,-0.6311996,-0.0000033\Quadrupole=2.1423

 Normal termination of Gaussian 16 at Sat Apr  5 22:18:01 2025.
