 Gaussian 16, Revision C.01,

 ----------------------------------------------------------------------
 #t hf aug-cc-pvdz symm=none int=(grid=ultrafine) guess=(read,tcheck) s
 table=(opt,rrhf)
 ----------------------------------------------------------------------
 -----
 title
 -----
 Symbolic Z-matrix:
 Charge =  0 Multiplicity = 1

 SCF Done:  E(RHF) =  -173.311276279     A.U. after   12 cycles
 Normal termination of Gaussian 16 at Sat Apr  5 22:14:48 2025.
 Gaussian 16:  ES64L-G16RevC.01  3-Jul-2019

 ----------------------------------------------------------------------
 #t hf aug-cc-pvdz iop(5/13=1,5/36=2,99/5=2) pseudo=read geom=check gue
 ss=(read,tcheck) scf=(maxcycle=1)
 ----------------------------------------------------------------------
 -----
 title
 -----
 Structure from the checkpoint file:  "1-propanamine.chk"
 Charge =  0 Multiplicity = 1

                         Standard orientation:
 ---------------------------------------------------------------------
 Center     Atomic      Atomic             Coordinates (Angstroms)
 Number     Number       Type             X           Y           Z
 ---------------------------------------------------------------------
      1          6           0        1.426873    1.298590    0.000000
      2          6           0        0.000000    0.751500    0.000000
      3          6           0       -0.052657   -0.779459    0.000000
      4          7           0       -1.385423   -1.383272    0.000000
      5          1           0        1.978422    0.962964    0.880677
      6          1           0        1.978422    0.962964   -0.880677
      7          1           0        1.436602    2.389035    0.000000
      8          1           0       -0.539820    1.125120   -0.875744
      9          1           0       -0.539820    1.125120    0.875744
     10          1           0        0.483988   -1.159679    0.873422
     11          1           0        0.483988   -1.159679   -0.873422
     12          1           0       -1.914561   -1.093363   -0.813803
     13          1           0       -1.914561   -1.093363    0.813803
 ---------------------------------------------------------------------

 SCF Done:  E(RHF) =  -173.367755211     A.U. after    2 cycles

 The electronic state is 1-A'.
 Alpha  occ. eigenvalues --  -15.60146 -11.25391 -11.22755 -11.22440  -1.14516
 Alpha  occ. eigenvalues --   -1.02704  -0.89404  -0.80541  -0.67515  -0.60834
 Alpha  occ. eigenvalues --   -0.60517  -0.56291  -0.52215  -0.51864  -0.48876
 Alpha  occ. eigenvalues --   -0.47193  -0.37830
 Alpha virt. eigenvalues --    0.03541   0.04316   0.04577   0.04987   0.07023
 Alpha virt. eigenvalues --    0.07197   0.07567   0.07654   0.10502   0.11698
 Alpha virt. eigenvalues --    0.14104   0.14861   0.15525   0.15830   0.17018

 Mulliken charges:
               1
     1  C    0.307962
     2  C    0.076384
     3  C    0.694698
     4  N   -0.402873
     5  H   -0.060494
     6  H   -0.060494
     7  H   -0.085097
     8  H   -0.085340
     9  H   -0.085340
    10  H   -0.153699
    11  H   -0.153699
    12  H    0.003996
    13  H    0.003996
 Sum of Mulliken charges =  -0.00000

 Dipole moment (field-independent basis, Debye):
    X=             -0.1226    Y=              1.4255    Z=              0.0000  Tot=              1.4308

 Test job not archived.
 1\1\GINC-SE146\SP\RHF\Aug-CC-pVDZ\C3H9N1\OHZDE\05-Apr-2025\0\\#t hf au
 g-cc-pvdz iop(5/13=1,5/36=2,99/5=2) pseudo=read geom=check guess=(read
 ,tcheck) scf=(maxcycle=1)\\title\\0,1\C,0,1.426873,1.29859,0.\C,0,0.,0
 .7515,0.\C,0,-0.052657,-0.779459,0.\N,0,-1.385423,-1.383272,0.\H,0,1.9
 78422,0.962964,0.880677\H,0,1.978422,0.962964,-0.880677\H,0,1.436602,2
 .389035,0.\H,0,-0.53982,1.12512,-0.875744\H,0,-0.53982,1.12512,0.87574
 4\H,0,0.483988,-1.159679,0.873422\H,0,0.483988,-1.159679,-0.873422\H,0
 ,-1.914561,-1.093363,-0.813803\H,0,-1.914561,-1.093363,0.813803\\Versi

 Normal termination of Gaussian 16 at Sat Apr  5 22:15:45 2025.
