 Gaussian 16, Revision C.01,

 ----------------------------------------------------------------------
 #t hf aug-cc-pvdz symm=none int=(grid=ultrafine) guess=(read,tcheck) s
 table=(opt,rrhf)
 ----------------------------------------------------------------------
 -----
 title
 -----
 Symbolic Z-matrix:
 Charge =  0 Multiplicity = 1

 SCF Done:  E(RHF) =  -782.587532792     A.U. after   13 cycles
 Normal termination of Gaussian 16 at Sat Apr  5 22:18:13 2025.
 Gaussian 16:  ES64L-G16RevC.01  3-Jul-2019

 ----------------------------------------------------------------------
 #t hf aug-cc-pvdz iop(5/13=1,5/36=2,99/5=2) pseudo=read geom=check gue
 ss=(read,tcheck) scf=(maxcycle=1)
 ----------------------------------------------------------------------
 -----
 title
 -----
 Structure from the checkpoint file:  "1-propylsulfonylpropane.chk"
 Charge =  0 Multiplicity = 1

                         Standard orientation:
 ---------------------------------------------------------------------
 Center     Atomic      Atomic             Coordinates (Angstroms)
 Number     Number       Type             X           Y           Z
 ---------------------------------------------------------------------
      1          6           0       -0.801844    2.711310   -0.338818
      2          6           0       -1.556490    1.634435    0.440931
      3          6           0       -1.752233    0.321404   -0.321811
      4         16           0       -0.564304   -1.020795    0.008601
      5          8           0       -0.486101   -1.205289    1.457548
      6          6           0        1.079145   -0.500005   -0.592572
      7          6           0        1.950093    0.217261    0.432281
      8          6           0        3.350553    0.492327   -0.118099
      9          8           0       -0.983323   -2.133534   -0.842642
     10          1           0        0.202285    2.392866   -0.619062
     11          1           0       -0.702543    3.619858    0.255426
     12          1           0       -1.332410    2.972547   -1.256124
     13          1           0       -2.546727    2.017284    0.694565
     14          1           0       -1.068499    1.426270    1.394331
     15          1           0       -1.766872    0.450649   -1.403970
     16          1           0       -2.678996   -0.177479   -0.036482
     17          1           0        0.908147    0.085211   -1.496916
     18          1           0        1.520929   -1.450450   -0.895032
     19          1           0        2.010961   -0.398610    1.328781
     20          1           0        1.485259    1.155553    0.736171
     21          1           0        3.854470   -0.434566   -0.397124
     22          1           0        3.316961    1.131141   -1.002632
     23          1           0        3.965955    0.992641    0.629730
 ---------------------------------------------------------------------

 SCF Done:  E(RHF) =  -782.779625415     A.U. after    2 cycles

 The electronic state is 1-A.
 Alpha  occ. eigenvalues --  -93.76654 -20.54716 -20.54529 -11.28569 -11.28538
 Alpha  occ. eigenvalues --  -11.26029 -11.25512 -11.24752 -11.24317  -9.03453
 Alpha  occ. eigenvalues --   -6.38068  -6.37855  -6.37802  -1.39933  -1.28624
 Alpha  occ. eigenvalues --   -1.09752  -1.08162  -0.99630  -0.96648  -0.86678
 Alpha  occ. eigenvalues --   -0.84084  -0.78890  -0.69775  -0.68657  -0.65650
 Alpha  occ. eigenvalues --   -0.64741  -0.63256  -0.61978  -0.59959  -0.59038
 Alpha  occ. eigenvalues --   -0.57138  -0.55295  -0.53455  -0.51844  -0.51628
 Alpha  occ. eigenvalues --   -0.50931  -0.50538  -0.49251  -0.48926  -0.47557
 Alpha  occ. eigenvalues --   -0.42928
 Alpha virt. eigenvalues --    0.02645   0.03637   0.03904   0.04481   0.05535
 Alpha virt. eigenvalues --    0.05909   0.06114   0.07026   0.07252   0.08188
 Alpha virt. eigenvalues --    0.08618   0.08795   0.09346   0.09826   0.12541

 Mulliken charges:
               1
     1  C    0.375486
     2  C    0.402427
     3  C   -0.136382
     4  S    2.806567
     5  O   -1.249254
     6  C   -0.335927
     7  C    0.299848
     8  C    0.531473
     9  O   -1.181102
    10  H   -0.265491
    11  H   -0.053169
    12  H   -0.066590
    13  H   -0.103683
    14  H   -0.146880
    15  H   -0.086990
    16  H   -0.009068
    17  H   -0.196174
    18  H   -0.042308
    19  H   -0.088528
    20  H   -0.227624
    21  H   -0.085381
    22  H   -0.072278
    23  H   -0.068970
 Sum of Mulliken charges =  -0.00000

 Dipole moment (field-independent basis, Debye):
    X=              1.5211    Y=              5.3316    Z=             -1.7066  Tot=              5.8011

 Test job not archived.
 1\1\GINC-SE055\SP\RHF\Aug-CC-pVDZ\C6H14O2S1\OHZDE\05-Apr-2025\0\\#t hf
  aug-cc-pvdz iop(5/13=1,5/36=2,99/5=2) pseudo=read geom=check guess=(r
 ead,tcheck) scf=(maxcycle=1)\\title\\0,1\C,0,-0.801844,2.71131,-0.3388
 18\C,0,-1.55649,1.634435,0.440931\C,0,-1.752233,0.321404,-0.321811\S,0
 ,-0.564304,-1.020795,0.008601\O,0,-0.486101,-1.205289,1.457548\C,0,1.0
 79145,-0.500005,-0.592572\C,0,1.950093,0.217261,0.432281\C,0,3.350553,
 0.492327,-0.118099\O,0,-0.983323,-2.133534,-0.842642\H,0,0.202285,2.39
 2866,-0.619062\H,0,-0.702543,3.619858,0.255426\H,0,-1.33241,2.972547,-

 Normal termination of Gaussian 16 at Sat Apr  5 22:18:30 2025.
