 Gaussian 16, Revision C.01,

 ----------------------------------------------------------------------
 #t hf aug-cc-pvdz symm=none int=(grid=ultrafine) guess=(read,tcheck) s
 table=(opt,rrhf)
 ----------------------------------------------------------------------
 -----
 title
 -----
 Symbolic Z-matrix:
 Charge =  0 Multiplicity = 1

 SCF Done:  E(RHF) =  -193.144335410     A.U. after   12 cycles
 Normal termination of Gaussian 16 at Sat Apr  5 22:14:44 2025.
 Gaussian 16:  ES64L-G16RevC.01  3-Jul-2019

 ----------------------------------------------------------------------
 #t hf aug-cc-pvdz iop(5/13=1,5/36=2,99/5=2) pseudo=read geom=check gue
 ss=(read,tcheck) scf=(maxcycle=1)
 ----------------------------------------------------------------------
 -----
 title
 -----
 Structure from the checkpoint file:  "1-propanol.chk"
 Charge =  0 Multiplicity = 1

                         Standard orientation:
 ---------------------------------------------------------------------
 Center     Atomic      Atomic             Coordinates (Angstroms)
 Number     Number       Type             X           Y           Z
 ---------------------------------------------------------------------
      1          6           0        1.897976   -0.126622    0.018618
      2          6           0        0.516931    0.524551   -0.044771
      3          6           0       -0.613059   -0.494853    0.024012
      4          8           0       -1.909274    0.090322   -0.086974
      5          1           0        2.048829   -0.814819   -0.815272
      6          1           0        2.688867    0.622294   -0.024744
      7          1           0        2.029572   -0.693014    0.942713
      8          1           0        0.411143    1.099907   -0.967085
      9          1           0        0.407044    1.234976    0.781380
     10          1           0       -0.541025   -1.193082   -0.811207
     11          1           0       -0.535151   -1.082893    0.946811
     12          1           0       -2.046169    0.685602    0.656039
 ---------------------------------------------------------------------

 SCF Done:  E(RHF) =  -193.208245270     A.U. after    2 cycles

 The electronic state is 1-A.
 Alpha  occ. eigenvalues --  -20.56828 -11.28282 -11.23260 -11.22953  -1.31559
 Alpha  occ. eigenvalues --   -1.04729  -0.91711  -0.81968  -0.69999  -0.63989
 Alpha  occ. eigenvalues --   -0.60705  -0.59321  -0.55115  -0.50791  -0.50602
 Alpha  occ. eigenvalues --   -0.47559  -0.44808
 Alpha virt. eigenvalues --    0.03462   0.04410   0.04800   0.05201   0.07200
 Alpha virt. eigenvalues --    0.07284   0.07628   0.08398   0.11569   0.13735
 Alpha virt. eigenvalues --    0.15055   0.15479   0.15671   0.16827   0.17061

 Mulliken charges:
               1
     1  C    0.353279
     2  C   -0.049698
     3  C    0.800604
     4  O   -0.558083
     5  H   -0.057544
     6  H   -0.092543
     7  H   -0.057248
     8  H   -0.036376
     9  H   -0.108665
    10  H   -0.194010
    11  H   -0.135187
    12  H    0.135471
 Sum of Mulliken charges =  -0.00000

 Dipole moment (field-independent basis, Debye):
    X=              1.4614    Y=              0.3840    Z=              1.2602  Tot=              1.9675

 Test job not archived.
 1\1\GINC-SE226\SP\RHF\Aug-CC-pVDZ\C3H8O1\OHZDE\05-Apr-2025\0\\#t hf au
 g-cc-pvdz iop(5/13=1,5/36=2,99/5=2) pseudo=read geom=check guess=(read
 ,tcheck) scf=(maxcycle=1)\\title\\0,1\C,0,1.897976,-0.126622,0.018618\
 C,0,0.516931,0.524551,-0.044771\C,0,-0.613059,-0.494853,0.024012\O,0,-
 1.909274,0.090322,-0.086974\H,0,2.048829,-0.814819,-0.815272\H,0,2.688
 867,0.622294,-0.024744\H,0,2.029572,-0.693014,0.942713\H,0,0.411143,1.
 099907,-0.967085\H,0,0.407044,1.234976,0.78138\H,0,-0.541025,-1.193082
 ,-0.811207\H,0,-0.535151,-1.082893,0.946811\H,0,-2.046169,0.685602,0.6

 Normal termination of Gaussian 16 at Sat Apr  5 22:15:46 2025.
