 Gaussian 16, Revision C.01,

 ----------------------------------------------------------------------
 #t hf aug-cc-pvdz symm=none int=(grid=ultrafine) guess=(read,tcheck) s
 table=(opt,rrhf)
 ----------------------------------------------------------------------
 -----
 title
 -----
 Symbolic Z-matrix:
 Charge =  0 Multiplicity = 1

 SCF Done:  E(RHF) =  -310.252358662     A.U. after   11 cycles

 1\1\GINC-SE231\Stability\RHF\Aug-CC-pVDZ\C6H14O1\OHZDE\05-Apr-2025\0\\
 #t hf aug-cc-pvdz symm=none int=(grid=ultrafine) guess=(read,tcheck) s
 table=(opt,rrhf)\\title\\0,1\C,0,0.,3.710922,-0.232233\C,0,0.,-3.71092
 2,-0.232233\C,0,0.,2.389208,0.533807\C,0,0.,-2.389208,0.533807\C,0,0.,
 1.184713,-0.390496\C,0,0.,-1.184713,-0.390496\O,0,0.,0.,0.38534\H,0,-0
 .881297,3.80217,-0.870295\H,0,0.,4.559288,0.452278\H,0,0.881297,3.8021
 7,-0.870295\H,0,0.881297,-3.80217,-0.870295\H,0,0.,-4.559288,0.452278\
 H,0,-0.881297,-3.80217,-0.870295\H,0,-0.875832,2.330147,1.18354\H,0,0.

 Normal termination of Gaussian 16 at Sat Apr  5 22:15:44 2025.
 Gaussian 16:  ES64L-G16RevC.01  3-Jul-2019

 ----------------------------------------------------------------------
 #t hf aug-cc-pvdz iop(5/13=1,5/36=2,99/5=2) pseudo=read geom=check gue
 ss=(read,tcheck) scf=(maxcycle=1)
 ----------------------------------------------------------------------
 -----
 title
 -----
 Structure from the checkpoint file:  "1-propoxypropane.chk"
 Charge =  0 Multiplicity = 1

                         Standard orientation:
 ---------------------------------------------------------------------
 Center     Atomic      Atomic             Coordinates (Angstroms)
 Number     Number       Type             X           Y           Z
 ---------------------------------------------------------------------
      1          6           0        0.000000    3.710922   -0.232233
      2          6           0       -0.000000   -3.710922   -0.232233
      3          6           0        0.000000    2.389208    0.533807
      4          6           0       -0.000000   -2.389208    0.533807
      5          6           0        0.000000    1.184713   -0.390496
      6          6           0       -0.000000   -1.184713   -0.390496
      7          8           0       -0.000000   -0.000000    0.385340
      8          1           0       -0.881297    3.802170   -0.870295
      9          1           0        0.000000    4.559288    0.452278
     10          1           0        0.881297    3.802170   -0.870295
     11          1           0        0.881297   -3.802170   -0.870295
     12          1           0       -0.000000   -4.559288    0.452278
     13          1           0       -0.881297   -3.802170   -0.870295
     14          1           0       -0.875832    2.330147    1.183540
     15          1           0        0.875832    2.330147    1.183540
     16          1           0        0.875832   -2.330147    1.183540
     17          1           0       -0.875832   -2.330147    1.183540
     18          1           0       -0.884755    1.205018   -1.043297
     19          1           0        0.884755    1.205018   -1.043297
     20          1           0        0.884755   -1.205018   -1.043297
     21          1           0       -0.884755   -1.205018   -1.043297
 ---------------------------------------------------------------------

 SCF Done:  E(RHF) =  -310.354352876     A.U. after    2 cycles

 The electronic state is 1-A1.
 Alpha  occ. eigenvalues --  -20.56232 -11.27865 -11.27837 -11.22519 -11.22516
 Alpha  occ. eigenvalues --  -11.22424 -11.22423  -1.32742  -1.06153  -1.03125
 Alpha  occ. eigenvalues --   -0.93768  -0.87923  -0.81403  -0.79780  -0.68544
 Alpha  occ. eigenvalues --   -0.66504  -0.63213  -0.62090  -0.58701  -0.57107
 Alpha  occ. eigenvalues --   -0.53742  -0.53619  -0.51386  -0.49891  -0.48686
 Alpha  occ. eigenvalues --   -0.47047  -0.46949  -0.46843  -0.42829
 Alpha virt. eigenvalues --    0.03591   0.03998   0.04611   0.04759   0.05628
 Alpha virt. eigenvalues --    0.05744   0.06013   0.07224   0.08123   0.08339
 Alpha virt. eigenvalues --    0.08787   0.08906   0.10770   0.11166   0.11807

 Mulliken charges:
               1
     1  C    0.479667
     2  C    0.479667
     3  C    0.319323
     4  C    0.319323
     5  C    0.334552
     6  C    0.334552
     7  O   -0.582784
     8  H   -0.078527
     9  H   -0.074673
    10  H   -0.078527
    11  H   -0.078527
    12  H   -0.074673
    13  H   -0.078527
    14  H   -0.136461
    15  H   -0.136461
    16  H   -0.136461
    17  H   -0.136461
    18  H   -0.168751
    19  H   -0.168751
    20  H   -0.168751
    21  H   -0.168751
 Sum of Mulliken charges =  -0.00000

 Dipole moment (field-independent basis, Debye):
    X=              0.0000    Y=              0.0000    Z=             -1.1932  Tot=              1.1932

 Test job not archived.
 1\1\GINC-SE231\SP\RHF\Aug-CC-pVDZ\C6H14O1\OHZDE\05-Apr-2025\0\\#t hf a
 ug-cc-pvdz iop(5/13=1,5/36=2,99/5=2) pseudo=read geom=check guess=(rea
 d,tcheck) scf=(maxcycle=1)\\title\\0,1\C,0,0.,3.710922,-0.232233\C,0,0
 .,-3.710922,-0.232233\C,0,0.,2.389208,0.533807\C,0,0.,-2.389208,0.5338
 07\C,0,0.,1.184713,-0.390496\C,0,0.,-1.184713,-0.390496\O,0,0.,0.,0.38
 534\H,0,-0.881297,3.80217,-0.870295\H,0,0.,4.559288,0.452278\H,0,0.881
 297,3.80217,-0.870295\H,0,0.881297,-3.80217,-0.870295\H,0,0.,-4.559288
 ,0.452278\H,0,-0.881297,-3.80217,-0.870295\H,0,-0.875832,2.330147,1.18

 Normal termination of Gaussian 16 at Sat Apr  5 22:15:51 2025.
