 Gaussian 16, Revision C.01,

 ----------------------------------------------------------------------
 #t hf aug-cc-pvdz symm=none int=(grid=ultrafine) guess=(read,tcheck) s
 table=(opt,rrhf)
 ----------------------------------------------------------------------
 -----
 title
 -----
 Symbolic Z-matrix:
 Charge =  0 Multiplicity = 1

 SCF Done:  E(RHF) =  -632.921505658     A.U. after   12 cycles

 1\1\GINC-SE028\Stability\RHF\Aug-CC-pVDZ\C6H14S1\OHZDE\05-Apr-2025\0\\
 #t hf aug-cc-pvdz symm=none int=(grid=ultrafine) guess=(read,tcheck) s
 table=(opt,rrhf)\\title\\0,1\C,0,0.,3.930707,-0.592405\C,0,0.,-3.93070
 7,-0.592405\C,0,0.,2.732696,0.357453\C,0,0.,-2.732696,0.357453\C,0,0.,
 1.402662,-0.390073\C,0,0.,-1.402662,-0.390073\S,0,0.,0.,0.786742\H,0,-
 0.881478,3.925924,-1.236374\H,0,0.,4.869546,-0.037529\H,0,0.881478,3.9
 25924,-1.236374\H,0,0.881478,-3.925924,-1.236374\H,0,0.,-4.869546,-0.0
 37529\H,0,-0.881478,-3.925924,-1.236374\H,0,-0.875086,2.77886,1.0096\H

 Normal termination of Gaussian 16 at Sat Apr  5 22:16:59 2025.
 Gaussian 16:  ES64L-G16RevC.01  3-Jul-2019

 ----------------------------------------------------------------------
 #t hf aug-cc-pvdz iop(5/13=1,5/36=2,99/5=2) pseudo=read geom=check gue
 ss=(read,tcheck) scf=(maxcycle=1)
 ----------------------------------------------------------------------
 -----
 title
 -----
 Structure from the checkpoint file:  "1-propylsulfanylpropane.chk"
 Charge =  0 Multiplicity = 1

                         Standard orientation:
 ---------------------------------------------------------------------
 Center     Atomic      Atomic             Coordinates (Angstroms)
 Number     Number       Type             X           Y           Z
 ---------------------------------------------------------------------
      1          6           0        0.000000    3.930707   -0.592405
      2          6           0       -0.000000   -3.930707   -0.592405
      3          6           0        0.000000    2.732696    0.357453
      4          6           0       -0.000000   -2.732696    0.357453
      5          6           0        0.000000    1.402662   -0.390073
      6          6           0       -0.000000   -1.402662   -0.390073
      7         16           0       -0.000000   -0.000000    0.786742
      8          1           0       -0.881478    3.925924   -1.236374
      9          1           0        0.000000    4.869546   -0.037529
     10          1           0        0.881478    3.925924   -1.236374
     11          1           0        0.881478   -3.925924   -1.236374
     12          1           0       -0.000000   -4.869546   -0.037529
     13          1           0       -0.881478   -3.925924   -1.236374
     14          1           0       -0.875086    2.778860    1.009600
     15          1           0        0.875086    2.778860    1.009600
     16          1           0        0.875086   -2.778860    1.009600
     17          1           0       -0.875086   -2.778860    1.009600
     18          1           0       -0.883620    1.324451   -1.026352
     19          1           0        0.883620    1.324451   -1.026352
     20          1           0        0.883620   -1.324451   -1.026352
     21          1           0       -0.883620   -1.324451   -1.026352
 ---------------------------------------------------------------------

 SCF Done:  E(RHF) =  -633.018440638     A.U. after    2 cycles

 The electronic state is 1-A1.
 Alpha  occ. eigenvalues --  -93.51458 -11.26020 -11.26011 -11.23553 -11.23552
 Alpha  occ. eigenvalues --  -11.22746 -11.22746  -8.81210  -6.15385  -6.15149
 Alpha  occ. eigenvalues --   -6.14811  -1.08250  -1.05702  -0.98687  -0.92591
 Alpha  occ. eigenvalues --   -0.84356  -0.80219  -0.78099  -0.65176  -0.63940
 Alpha  occ. eigenvalues --   -0.59239  -0.59162  -0.56938  -0.56538  -0.54554
 Alpha  occ. eigenvalues --   -0.52894  -0.50045  -0.48916  -0.48554  -0.47888
 Alpha  occ. eigenvalues --   -0.44479  -0.41831  -0.32858
 Alpha virt. eigenvalues --    0.03520   0.03760   0.04619   0.04752   0.05716
 Alpha virt. eigenvalues --    0.05741   0.05982   0.07189   0.07572   0.08431
 Alpha virt. eigenvalues --    0.08527   0.08806   0.11035   0.11126   0.11830

 Mulliken charges:
               1
     1  C    0.571953
     2  C    0.571953
     3  C    0.343589
     4  C    0.343589
     5  C   -0.246710
     6  C   -0.246710
     7  S    0.369198
     8  H   -0.087501
     9  H   -0.081368
    10  H   -0.087501
    11  H   -0.087501
    12  H   -0.081368
    13  H   -0.087501
    14  H   -0.126231
    15  H   -0.126231
    16  H   -0.126231
    17  H   -0.126231
    18  H   -0.172299
    19  H   -0.172299
    20  H   -0.172299
    21  H   -0.172299
 Sum of Mulliken charges =  -0.00000

 Dipole moment (field-independent basis, Debye):
    X=             -0.0000    Y=              0.0000    Z=             -1.6669  Tot=              1.6669

 Test job not archived.
 1\1\GINC-SE028\SP\RHF\Aug-CC-pVDZ\C6H14S1\OHZDE\05-Apr-2025\0\\#t hf a
 ug-cc-pvdz iop(5/13=1,5/36=2,99/5=2) pseudo=read geom=check guess=(rea
 d,tcheck) scf=(maxcycle=1)\\title\\0,1\C,0,0.,3.930707,-0.592405\C,0,0
 .,-3.930707,-0.592405\C,0,0.,2.732696,0.357453\C,0,0.,-2.732696,0.3574
 53\C,0,0.,1.402662,-0.390073\C,0,0.,-1.402662,-0.390073\S,0,0.,0.,0.78
 6742\H,0,-0.881478,3.925924,-1.236374\H,0,0.,4.869546,-0.037529\H,0,0.
 881478,3.925924,-1.236374\H,0,0.881478,-3.925924,-1.236374\H,0,0.,-4.8
 69546,-0.037529\H,0,-0.881478,-3.925924,-1.236374\H,0,-0.875086,2.7788

 Normal termination of Gaussian 16 at Sat Apr  5 22:17:06 2025.
