 Gaussian 16, Revision C.01,

 ----------------------------------------------------------------------
 #t hf aug-cc-pvdz symm=none int=(grid=ultrafine) guess=(read,tcheck) s
 table=(opt,rrhf)
 ----------------------------------------------------------------------
 -----
 title
 -----
 Symbolic Z-matrix:
 Charge =  0 Multiplicity = 1

 SCF Done:  E(RHF) =  -515.809746224     A.U. after   12 cycles
 Normal termination of Gaussian 16 at Sat Apr  5 22:15:52 2025.
 Gaussian 16:  ES64L-G16RevC.01  3-Jul-2019

 ----------------------------------------------------------------------
 #t hf aug-cc-pvdz iop(5/13=1,5/36=2,99/5=2) pseudo=read geom=check gue
 ss=(read,tcheck) scf=(maxcycle=1)
 ----------------------------------------------------------------------
 -----
 title
 -----
 Structure from the checkpoint file:  "1-propanethiol.chk"
 Charge =  0 Multiplicity = 1

                         Standard orientation:
 ---------------------------------------------------------------------
 Center     Atomic      Atomic             Coordinates (Angstroms)
 Number     Number       Type             X           Y           Z
 ---------------------------------------------------------------------
      1          6           0       -2.422945    0.072738    0.011279
      2          6           0       -1.009653   -0.506476   -0.070522
      3          6           0        0.062858    0.567077    0.075523
      4         16           0        1.788351   -0.046408   -0.074553
      5          1           0       -2.599612    0.799976   -0.783540
      6          1           0       -3.173192   -0.712674   -0.085709
      7          1           0       -2.591811    0.576633    0.964916
      8          1           0       -0.869677   -1.024388   -1.021039
      9          1           0       -0.874102   -1.257605    0.711730
     10          1           0       -0.023659    1.307679   -0.720627
     11          1           0       -0.038300    1.098518    1.021239
     12          1           0        1.775172   -0.845654    1.008202
 ---------------------------------------------------------------------

 SCF Done:  E(RHF) =  -515.869039282     A.U. after    2 cycles

 The electronic state is 1-A.
 Alpha  occ. eigenvalues --  -93.53026 -11.27081 -11.24027 -11.23162  -8.82759
 Alpha  occ. eigenvalues --   -6.16921  -6.16712  -6.16366  -1.07615  -0.98416
 Alpha  occ. eigenvalues --   -0.87400  -0.80734  -0.65428  -0.59923  -0.57103
 Alpha  occ. eigenvalues --   -0.55731  -0.51610  -0.49676  -0.48573  -0.44012
 Alpha  occ. eigenvalues --   -0.35266
 Alpha virt. eigenvalues --    0.03468   0.04645   0.04804   0.05215   0.06939
 Alpha virt. eigenvalues --    0.07293   0.07709   0.08213   0.10977   0.11420
 Alpha virt. eigenvalues --    0.13357   0.14817   0.15699   0.15743   0.16636

 Mulliken charges:
               1
     1  C    0.335116
     2  C    0.125626
     3  C   -0.237082
     4  S    0.320035
     5  H   -0.067681
     6  H   -0.084967
     7  H   -0.063826
     8  H   -0.076438
     9  H   -0.107015
    10  H   -0.066802
    11  H   -0.118288
    12  H    0.041322
 Sum of Mulliken charges =  -0.00000

 Dipole moment (field-independent basis, Debye):
    X=             -1.7574    Y=             -0.0093    Z=              0.6813  Tot=              1.8849

 Test job not archived.
 1\1\GINC-SE175\SP\RHF\Aug-CC-pVDZ\C3H8S1\OHZDE\05-Apr-2025\0\\#t hf au
 g-cc-pvdz iop(5/13=1,5/36=2,99/5=2) pseudo=read geom=check guess=(read
 ,tcheck) scf=(maxcycle=1)\\title\\0,1\C,0,-2.422945,0.072738,0.011279\
 C,0,-1.009653,-0.506476,-0.070522\C,0,0.062858,0.567077,0.075523\S,0,1
 .788351,-0.046408,-0.074553\H,0,-2.599612,0.799976,-0.78354\H,0,-3.173
 192,-0.712674,-0.085709\H,0,-2.591811,0.576633,0.964916\H,0,-0.869677,
 -1.024388,-1.021039\H,0,-0.874102,-1.257605,0.71173\H,0,-0.023659,1.30
 7679,-0.720627\H,0,-0.0383,1.098518,1.021239\H,0,1.775172,-0.845654,1.

 Normal termination of Gaussian 16 at Sat Apr  5 22:15:55 2025.
