 Gaussian 16, Revision C.01,

 ----------------------------------------------------------------------
 #t hf aug-cc-pvdz symm=none int=(grid=ultrafine) guess=(read,tcheck) s
 table=(opt,rrhf)
 ----------------------------------------------------------------------
 -----
 title
 -----
 Symbolic Z-matrix:
 Charge =  0 Multiplicity = 1

 SCF Done:  E(RHF) =  -414.509192874     A.U. after   15 cycles
 Normal termination of Gaussian 16 at Sat Apr  5 22:18:14 2025.
 Gaussian 16:  ES64L-G16RevC.01  3-Jul-2019

 ----------------------------------------------------------------------
 #t hf aug-cc-pvdz iop(5/13=1,5/36=2,99/5=2) pseudo=read geom=check gue
 ss=(read,tcheck) scf=(maxcycle=1)
 ----------------------------------------------------------------------
 -----
 title
 -----
 Structure from the checkpoint file:  "1-pyrazin-2-ylethanone.chk"
 Charge =  0 Multiplicity = 1

                         Standard orientation:
 ---------------------------------------------------------------------
 Center     Atomic      Atomic             Coordinates (Angstroms)
 Number     Number       Type             X           Y           Z
 ---------------------------------------------------------------------
      1          6           0        0.787546   -2.366357    0.000000
      2          6           0       -0.561033   -2.023230    0.000000
      3          6           0        1.353155   -0.175015    0.000000
      4          6           0        0.000000    0.175622    0.000000
      5          6           0       -0.407656    1.626191    0.000000
      6          6           0       -1.879880    1.940275    0.000000
      7          7           0        1.749484   -1.444574    0.000000
      8          7           0       -0.957273   -0.754759    0.000000
      9          8           0        0.445137    2.489136    0.000000
     10          1           0        1.096738   -3.404743    0.000000
     11          1           0       -1.330829   -2.785557    0.000000
     12          1           0        2.112882    0.594562    0.000000
     13          1           0       -2.362568    1.497437    0.871986
     14          1           0       -2.362568    1.497437   -0.871986
     15          1           0       -2.013020    3.018193    0.000000
 ---------------------------------------------------------------------

 SCF Done:  E(RHF) =  -414.630302852     A.U. after    2 cycles

 The electronic state is 1-A'.
 Alpha  occ. eigenvalues --  -20.57471 -15.67571 -15.66763 -11.35831 -11.31104
 Alpha  occ. eigenvalues --  -11.30790 -11.30674 -11.30659 -11.24546  -1.36756
 Alpha  occ. eigenvalues --   -1.29621  -1.20374  -1.07445  -1.01100  -0.92158
 Alpha  occ. eigenvalues --   -0.90396  -0.79367  -0.73115  -0.72814  -0.68789
 Alpha  occ. eigenvalues --   -0.64830  -0.63063  -0.62390  -0.58178  -0.58086
 Alpha  occ. eigenvalues --   -0.56117  -0.52200  -0.50361  -0.46201  -0.44839
 Alpha  occ. eigenvalues --   -0.41081  -0.37191
 Alpha virt. eigenvalues --    0.02776   0.03610   0.04490   0.04638   0.05192
 Alpha virt. eigenvalues --    0.05706   0.06912   0.07590   0.09303   0.10513
 Alpha virt. eigenvalues --    0.10867   0.11326   0.12265   0.12593   0.13729

 Mulliken charges:
               1
     1  C    0.548522
     2  C    0.746105
     3  C    0.593785
     4  C    0.461380
     5  C   -0.215442
     6  C    0.539671
     7  N   -0.524947
     8  N   -0.685607
     9  O   -0.532208
    10  H   -0.280322
    11  H   -0.334735
    12  H   -0.352176
    13  H    0.077027
    14  H    0.077027
    15  H   -0.118079
 Sum of Mulliken charges =   0.00000

 Dipole moment (field-independent basis, Debye):
    X=             -2.3207    Y=             -2.7959    Z=              0.0000  Tot=              3.6335

 Test job not archived.
 1\1\GINC-SE194\SP\RHF\Aug-CC-pVDZ\C6H6N2O1\OHZDE\05-Apr-2025\0\\#t hf
 aug-cc-pvdz iop(5/13=1,5/36=2,99/5=2) pseudo=read geom=check guess=(re
 ad,tcheck) scf=(maxcycle=1)\\title\\0,1\C,0,0.787546,-2.366357,0.\C,0,
 -0.561033,-2.02323,0.\C,0,1.353155,-0.175015,0.\C,0,0.,0.175622,0.\C,0
 ,-0.407656,1.626191,0.\C,0,-1.87988,1.940275,0.\N,0,1.749484,-1.444574
 ,0.\N,0,-0.957273,-0.754759,0.\O,0,0.445137,2.489136,0.\H,0,1.096738,-
 3.404743,0.\H,0,-1.330829,-2.785557,0.\H,0,2.112882,0.594562,0.\H,0,-2
 .362568,1.497437,0.871986\H,0,-2.362568,1.497437,-0.871986\H,0,-2.0130

 Normal termination of Gaussian 16 at Sat Apr  5 22:18:21 2025.
