 Gaussian 16, Revision C.01,

 ----------------------------------------------------------------------
 #t hf aug-cc-pvdz symm=none int=(grid=ultrafine) guess=(read,tcheck) s
 table=(opt,rrhf)
 ----------------------------------------------------------------------
 -----
 title
 -----
 Symbolic Z-matrix:
 Charge =  0 Multiplicity = 1

 SCF Done:  E(RHF) =  -362.987321378     A.U. after   14 cycles
 Normal termination of Gaussian 16 at Sat Apr  5 22:18:13 2025.
 Gaussian 16:  ES64L-G16RevC.01  3-Jul-2019

 ----------------------------------------------------------------------
 #t hf aug-cc-pvdz iop(5/13=1,5/36=2,99/5=2) pseudo=read geom=check gue
 ss=(read,tcheck) scf=(maxcycle=1)
 ----------------------------------------------------------------------
 -----
 title
 -----
 Structure from the checkpoint file:  "1-pyrrolidin-1-ylethanone.chk"
 Charge =  0 Multiplicity = 1

                         Standard orientation:
 ---------------------------------------------------------------------
 Center     Atomic      Atomic             Coordinates (Angstroms)
 Number     Number       Type             X           Y           Z
 ---------------------------------------------------------------------
      1          6           0        1.450960   -0.211024   -0.011521
      2          6           0       -2.167694   -0.617691    0.265295
      3          6           0       -2.071854    0.820259   -0.260051
      4          6           0       -0.795643   -1.209168   -0.064247
      5          6           0       -0.629862    1.220730    0.068588
      6          6           0        2.289731    1.049920    0.075090
      7          7           0        0.101430   -0.048120   -0.007516
      8          8           0        1.961184   -1.322156   -0.085316
      9          1           0       -2.323362   -0.611690    1.345899
     10          1           0       -2.982362   -1.182603   -0.184363
     11          1           0       -2.222111    0.835109   -1.341119
     12          1           0       -2.800072    1.494779    0.187414
     13          1           0       -0.466604   -1.973381    0.637241
     14          1           0       -0.772611   -1.654471   -1.062577
     15          1           0       -0.232266    1.952833   -0.633874
     16          1           0       -0.563031    1.651531    1.073408
     17          1           0        2.013722    1.662081    0.934901
     18          1           0        2.163330    1.663339   -0.818914
     19          1           0        3.332065    0.758403    0.158197
 ---------------------------------------------------------------------

 SCF Done:  E(RHF) =  -363.100249451     A.U. after    2 cycles

 The electronic state is 1-A.
 Alpha  occ. eigenvalues --  -20.52001 -15.63934 -11.35134 -11.28185 -11.26594
 Alpha  occ. eigenvalues --  -11.24633 -11.24154 -11.24060  -1.33243  -1.22030
 Alpha  occ. eigenvalues --   -1.06418  -1.00461  -0.97708  -0.86624  -0.81324
 Alpha  occ. eigenvalues --   -0.74578  -0.69081  -0.68066  -0.63080  -0.60938
 Alpha  occ. eigenvalues --   -0.60053  -0.58559  -0.56361  -0.55334  -0.53841
 Alpha  occ. eigenvalues --   -0.50566  -0.50216  -0.49682  -0.48206  -0.42598
 Alpha  occ. eigenvalues --   -0.36594
 Alpha virt. eigenvalues --    0.02873   0.03786   0.03919   0.04678   0.06100
 Alpha virt. eigenvalues --    0.06415   0.06793   0.07136   0.07408   0.08921
 Alpha virt. eigenvalues --    0.08959   0.10417   0.12593   0.12850   0.13970

 Mulliken charges:
               1
     1  C    0.085637
     2  C    0.293738
     3  C    0.161816
     4  C    0.801470
     5  C    0.947002
     6  C    0.287618
     7  N   -0.575043
     8  O   -0.565361
     9  H   -0.175019
    10  H   -0.075080
    11  H   -0.152061
    12  H   -0.041530
    13  H   -0.206927
    14  H   -0.237344
    15  H   -0.237841
    16  H   -0.310961
    17  H    0.084115
    18  H    0.052198
    19  H   -0.136427
 Sum of Mulliken charges =  -0.00000

 Dipole moment (field-independent basis, Debye):
    X=             -3.1647    Y=              3.5918    Z=              0.2350  Tot=              4.7929

 Test job not archived.
 1\1\GINC-SE045\SP\RHF\Aug-CC-pVDZ\C6H11N1O1\OHZDE\05-Apr-2025\0\\#t hf
  aug-cc-pvdz iop(5/13=1,5/36=2,99/5=2) pseudo=read geom=check guess=(r
 ead,tcheck) scf=(maxcycle=1)\\title\\0,1\C,0,1.45096,-0.211024,-0.0115
 21\C,0,-2.167694,-0.617691,0.265295\C,0,-2.071854,0.820259,-0.260051\C
 ,0,-0.795643,-1.209168,-0.064247\C,0,-0.629862,1.22073,0.068588\C,0,2.
 289731,1.04992,0.07509\N,0,0.10143,-0.04812,-0.007516\O,0,1.961184,-1.
 322156,-0.085316\H,0,-2.323362,-0.61169,1.345899\H,0,-2.982362,-1.1826
 03,-0.184363\H,0,-2.222111,0.835109,-1.341119\H,0,-2.800072,1.494779,0

 Normal termination of Gaussian 16 at Sat Apr  5 22:18:23 2025.
