 Gaussian 16, Revision C.01,

 ----------------------------------------------------------------------
 #t hf aug-cc-pvdz symm=none int=(grid=ultrafine) guess=(read,tcheck) s
 table=(opt,rrhf)
 ----------------------------------------------------------------------
 -----
 title
 -----
 Symbolic Z-matrix:
 Charge =  0 Multiplicity = 1

 SCF Done:  E(RHF) =  -1074.91702694     A.U. after   15 cycles
 Normal termination of Gaussian 16 at Sat Apr  5 22:18:11 2025.
 Gaussian 16:  ES64L-G16RevC.01  3-Jul-2019

 ----------------------------------------------------------------------
 #t hf aug-cc-pvdz iop(5/13=1,5/36=2,99/5=2) pseudo=read geom=check gue
 ss=(read,tcheck) scf=(maxcycle=1)
 ----------------------------------------------------------------------
 -----
 title
 -----
 Structure from the checkpoint file:  "1-sulfanyl-5-6-dihydro-1-3-5-triazine-21H-thione.chk"
 Charge =  0 Multiplicity = 1

                         Standard orientation:
 ---------------------------------------------------------------------
 Center     Atomic      Atomic             Coordinates (Angstroms)
 Number     Number       Type             X           Y           Z
 ---------------------------------------------------------------------
      1         16           0       -1.343024    1.653778   -0.188507
      2         16           0       -1.672982   -1.441915    0.055760
      3          7           0        0.022233    0.641827   -0.044011
      4          7           0        0.993395   -1.482659    0.024447
      5          7           0        2.446897    0.418854   -0.082676
      6          6           0       -0.052767   -0.722709    0.020912
      7          6           0        1.336826    1.254097    0.292287
      8          6           0        2.209200   -0.831052   -0.160281
      9          1           0       -1.575475    1.878237    1.129449
     10          1           0       -1.161933   -2.687349    0.059929
     11          1           0        1.376602    1.458299    1.372225
     12          1           0        1.387735    2.206582   -0.231409
     13          1           0        3.031951   -1.493749   -0.408073
 ---------------------------------------------------------------------

 SCF Done:  E(RHF) =  -1075.04053125     A.U. after    2 cycles

 The electronic state is 1-A.
 Alpha  occ. eigenvalues --  -93.60393 -93.57381 -15.69948 -15.61941 -15.61908
 Alpha  occ. eigenvalues --  -11.39593 -11.32311 -11.32220  -8.89729  -8.87193
 Alpha  occ. eigenvalues --   -6.23987  -6.23634  -6.23322  -6.21368  -6.21166
 Alpha  occ. eigenvalues --   -6.20769  -1.31721  -1.20383  -1.17136  -1.01716
 Alpha  occ. eigenvalues --   -0.99093  -0.93488  -0.85019  -0.73228  -0.70839
 Alpha  occ. eigenvalues --   -0.69840  -0.64804  -0.59684  -0.58790  -0.56532
 Alpha  occ. eigenvalues --   -0.53486  -0.51886  -0.46638  -0.45825  -0.42734
 Alpha  occ. eigenvalues --   -0.40264  -0.38002  -0.34260
 Alpha virt. eigenvalues --    0.03146   0.04163   0.04620   0.05217   0.06263
 Alpha virt. eigenvalues --    0.07755   0.08573   0.08974   0.09769   0.11466
 Alpha virt. eigenvalues --    0.11676   0.12257   0.12726   0.13550   0.14271

 Mulliken charges:
               1
     1  S    0.375913
     2  S    0.352419
     3  N   -0.916699
     4  N   -0.587077
     5  N   -0.439490
     6  C    0.119934
     7  C    1.082673
     8  C    0.485290
     9  H    0.102978
    10  H    0.113826
    11  H   -0.168293
    12  H   -0.246551
    13  H   -0.274923
 Sum of Mulliken charges =  -0.00000

 Dipole moment (field-independent basis, Debye):
    X=             -2.0646    Y=              0.7932    Z=              1.0992  Tot=              2.4698

 Test job not archived.
 1\1\GINC-SE045\SP\RHF\Aug-CC-pVDZ\C3H5N3S2\OHZDE\05-Apr-2025\0\\#t hf
 aug-cc-pvdz iop(5/13=1,5/36=2,99/5=2) pseudo=read geom=check guess=(re
 ad,tcheck) scf=(maxcycle=1)\\title\\0,1\S,0,-1.343024,1.653778,-0.1885
 07\S,0,-1.672982,-1.441915,0.05576\N,0,0.022233,0.641827,-0.044011\N,0
 ,0.993395,-1.482659,0.024447\N,0,2.446897,0.418854,-0.082676\C,0,-0.05
 2767,-0.722709,0.020912\C,0,1.336826,1.254097,0.292287\C,0,2.2092,-0.8
 31052,-0.160281\H,0,-1.575475,1.878237,1.129449\H,0,-1.161932,-2.68734
 9,0.059929\H,0,1.376602,1.458299,1.372225\H,0,1.387735,2.206582,-0.231

 Normal termination of Gaussian 16 at Sat Apr  5 22:18:19 2025.
