 Gaussian 16, Revision C.01,

 ----------------------------------------------------------------------
 #t hf aug-cc-pvdz symm=none int=(grid=ultrafine) guess=(read,tcheck) s
 table=(opt,rrhf)
 ----------------------------------------------------------------------
 -----
 title
 -----
 Symbolic Z-matrix:
 Charge =  0 Multiplicity = 1

 SCF Done:  E(RHF) =  -644.489077755     A.U. after   14 cycles
 Normal termination of Gaussian 16 at Sat Apr  5 22:17:16 2025.
 Gaussian 16:  ES64L-G16RevC.01  3-Jul-2019

 ----------------------------------------------------------------------
 #t hf aug-cc-pvdz iop(5/13=1,5/36=2,99/5=2) pseudo=read geom=check gue
 ss=(read,tcheck) scf=(maxcycle=1)
 ----------------------------------------------------------------------
 -----
 title
 -----
 Structure from the checkpoint file:  "1-thiazolidine-1-oxide.chk"
 Charge =  0 Multiplicity = 1

                         Standard orientation:
 ---------------------------------------------------------------------
 Center     Atomic      Atomic             Coordinates (Angstroms)
 Number     Number       Type             X           Y           Z
 ---------------------------------------------------------------------
      1          6           0       -1.663197    0.594397    0.145760
      2          6           0       -1.313787   -0.870942    0.411302
      3          6           0       -0.347275    1.331041   -0.152189
      4          7           0       -0.238792   -1.138186   -0.555395
      5          8           0        1.706481   -0.033621    0.889358
      6         16           0        0.987654    0.059920   -0.421492
      7          1           0       -2.320976    0.654478   -0.720214
      8          1           0       -2.180873    1.039573    0.994418
      9          1           0       -0.990263   -1.021403    1.445604
     10          1           0       -2.153939   -1.534638    0.209646
     11          1           0       -0.400188    1.966309   -1.033577
     12          1           0        0.034327    1.907959    0.686849
     13          1           0        0.174694   -2.061706   -0.495193
 ---------------------------------------------------------------------

 SCF Done:  E(RHF) =  -644.608417134     A.U. after    2 cycles

 The electronic state is 1-A.
 Alpha  occ. eigenvalues --  -93.67694 -20.52066 -15.65162 -11.28369 -11.27658
 Alpha  occ. eigenvalues --  -11.25877  -8.95704  -6.29969  -6.29750  -6.29481
 Alpha  occ. eigenvalues --   -1.31376  -1.19757  -1.05146  -0.98283  -0.82867
 Alpha  occ. eigenvalues --   -0.81601  -0.70298  -0.68177  -0.62538  -0.59648
 Alpha  occ. eigenvalues --   -0.56686  -0.56412  -0.54948  -0.51887  -0.50527
 Alpha  occ. eigenvalues --   -0.45657  -0.40672  -0.38370
 Alpha virt. eigenvalues --    0.03039   0.04082   0.04580   0.05094   0.06630
 Alpha virt. eigenvalues --    0.07162   0.07648   0.08930   0.10831   0.12601
 Alpha virt. eigenvalues --    0.13289   0.13642   0.14044   0.14696   0.15357

 Mulliken charges:
               1
     1  C    0.111275
     2  C    0.756042
     3  C   -0.025110
     4  N   -0.814879
     5  O   -1.060599
     6  S    1.608949
     7  H   -0.110212
     8  H   -0.070975
     9  H   -0.145956
    10  H   -0.153474
    11  H   -0.017411
    12  H   -0.038132
    13  H   -0.039518
 Sum of Mulliken charges =  -0.00000

 Dipole moment (field-independent basis, Debye):
    X=             -3.8980    Y=              0.1601    Z=             -1.4828  Tot=              4.1736

 Test job not archived.
 1\1\GINC-SE047\SP\RHF\Aug-CC-pVDZ\C3H7N1O1S1\OHZDE\05-Apr-2025\0\\#t h
 f aug-cc-pvdz iop(5/13=1,5/36=2,99/5=2) pseudo=read geom=check guess=(
 read,tcheck) scf=(maxcycle=1)\\title\\0,1\C,0,-1.663197,0.594398,0.145
 76\C,0,-1.313787,-0.870942,0.411302\C,0,-0.347274,1.331041,-0.152189\N
 ,0,-0.238792,-1.138186,-0.555395\O,0,1.706481,-0.033622,0.889358\S,0,0
 .987654,0.05992,-0.421492\H,0,-2.320976,0.654479,-0.720214\H,0,-2.1808
 73,1.039574,0.994418\H,0,-0.990263,-1.021403,1.445604\H,0,-2.15394,-1.
 534637,0.209646\H,0,-0.400187,1.966309,-1.033577\H,0,0.034328,1.907959

 Normal termination of Gaussian 16 at Sat Apr  5 22:18:02 2025.
