 Gaussian 16, Revision C.01,

 ----------------------------------------------------------------------
 #t hf aug-cc-pvdz symm=none int=(grid=ultrafine) guess=(read,tcheck) s
 table=(opt,rrhf)
 ----------------------------------------------------------------------
 -----
 title
 -----
 Symbolic Z-matrix:
 Charge =  0 Multiplicity = 1

 SCF Done:  E(RHF) =  -702.121163854     A.U. after   14 cycles
 Normal termination of Gaussian 16 at Sat Apr  5 22:17:19 2025.
 Gaussian 16:  ES64L-G16RevC.01  3-Jul-2019

 ----------------------------------------------------------------------
 #t hf aug-cc-pvdz iop(5/13=1,5/36=2,99/5=2) pseudo=read geom=check gue
 ss=(read,tcheck) scf=(maxcycle=1)
 ----------------------------------------------------------------------
 -----
 title
 -----
 Structure from the checkpoint file:  "1-vinylsulfonylethylene.chk"
 Charge =  0 Multiplicity = 1

                         Standard orientation:
 ---------------------------------------------------------------------
 Center     Atomic      Atomic             Coordinates (Angstroms)
 Number     Number       Type             X           Y           Z
 ---------------------------------------------------------------------
      1          6           0        2.237512   -1.080208   -0.077675
      2          6           0        1.403583   -0.280902   -0.719892
      3         16           0       -0.000000    0.441332    0.117731
      4          8           0       -0.000000   -0.012068    1.503955
      5          6           0       -1.403588   -0.280896   -0.719890
      6          6           0       -2.237510   -1.080210   -0.077674
      7          8           0        0.000003    1.864598   -0.204444
      8          1           0        2.063322   -1.347346    0.955947
      9          1           0        3.118409   -1.474130   -0.566836
     10          1           0        1.522477    0.047345   -1.743611
     11          1           0       -1.522490    0.047360   -1.743604
     12          1           0       -2.063312   -1.347358    0.955944
     13          1           0       -3.118410   -1.474129   -0.566832
 ---------------------------------------------------------------------

 SCF Done:  E(RHF) =  -702.289318531     A.U. after    2 cycles

 The electronic state is 1-A.
 Alpha  occ. eigenvalues --  -93.78541 -20.55935 -20.55447 -11.29219 -11.29210
 Alpha  occ. eigenvalues --  -11.28674 -11.28672  -9.05196  -6.39836  -6.39619
 Alpha  occ. eigenvalues --   -6.39548  -1.41278  -1.29938  -1.09965  -1.08130
 Alpha  occ. eigenvalues --   -0.93462  -0.83762  -0.77577  -0.72304  -0.69355
 Alpha  occ. eigenvalues --   -0.68017  -0.65212  -0.63446  -0.58518  -0.58179
 Alpha  occ. eigenvalues --   -0.52015  -0.51284  -0.49561  -0.45663  -0.44477
 Alpha  occ. eigenvalues --   -0.41190
 Alpha virt. eigenvalues --    0.02863   0.03614   0.04294   0.05702   0.06007
 Alpha virt. eigenvalues --    0.06147   0.07642   0.10110   0.10606   0.11340
 Alpha virt. eigenvalues --    0.12765   0.13414   0.13950   0.14577   0.14888

 Mulliken charges:
               1
     1  C    0.513298
     2  C    0.056222
     3  S    2.876295
     4  O   -1.185208
     5  C    0.056224
     6  C    0.513298
     7  O   -1.135267
     8  H   -0.228778
     9  H   -0.229450
    10  H   -0.389202
    11  H   -0.389203
    12  H   -0.228779
    13  H   -0.229450
 Sum of Mulliken charges =  -0.00000

 Dipole moment (field-independent basis, Debye):
    X=             -0.0000    Y=             -4.4621    Z=             -3.1675  Tot=              5.4721

 Test job not archived.
 1\1\GINC-SE146\SP\RHF\Aug-CC-pVDZ\C4H6O2S1\OHZDE\05-Apr-2025\0\\#t hf
 aug-cc-pvdz iop(5/13=1,5/36=2,99/5=2) pseudo=read geom=check guess=(re
 ad,tcheck) scf=(maxcycle=1)\\title\\0,1\C,0,2.237512,-1.080208,-0.0776
 75\C,0,1.403583,-0.280902,-0.719892\S,0,0.,0.441332,0.117731\O,0,0.,-0
 .012068,1.503955\C,0,-1.403588,-0.280896,-0.71989\C,0,-2.23751,-1.0802
 1,-0.077674\O,0,0.000003,1.864598,-0.204444\H,0,2.063322,-1.347346,0.9
 55947\H,0,3.118409,-1.47413,-0.566836\H,0,1.522477,0.047345,-1.743611\
 H,0,-1.52249,0.04736,-1.743604\H,0,-2.063312,-1.347358,0.955944\H,0,-3

 Normal termination of Gaussian 16 at Sat Apr  5 22:18:03 2025.
