 Gaussian 16, Revision C.01,

 ----------------------------------------------------------------------
 #t hf aug-cc-pvdz symm=none int=(grid=ultrafine) guess=(read,tcheck) s
 table=(opt,rrhf)
 ----------------------------------------------------------------------
 -----
 title
 -----
 Symbolic Z-matrix:
 Charge =  0 Multiplicity = 1

 SCF Done:  E(RHF) =  -240.841011019     A.U. after   14 cycles
 Normal termination of Gaussian 16 at Sat Apr  5 22:16:56 2025.
 Gaussian 16:  ES64L-G16RevC.01  3-Jul-2019

 ----------------------------------------------------------------------
 #t hf aug-cc-pvdz iop(5/13=1,5/36=2,99/5=2) pseudo=read geom=check gue
 ss=(read,tcheck) scf=(maxcycle=1)
 ----------------------------------------------------------------------
 -----
 title
 -----
 Structure from the checkpoint file:  "1H-1-2-4-triazole.chk"
 Charge =  0 Multiplicity = 1

                         Standard orientation:
 ---------------------------------------------------------------------
 Center     Atomic      Atomic             Coordinates (Angstroms)
 Number     Number       Type             X           Y           Z
 ---------------------------------------------------------------------
      1          7           0        0.687175   -0.997210    0.000000
      2          6           0       -0.670085   -0.896250    0.000000
      3          1           0       -1.325913   -1.750118    0.000000
      4          7           0       -1.137377    0.337628    0.000000
      5          7           0        0.000000    1.069665    0.000000
      6          1           0       -0.046582    2.073946    0.000000
      7          6           0        1.075604    0.260484    0.000000
      8          1           0        2.090800    0.620191    0.000000
 ---------------------------------------------------------------------

 SCF Done:  E(RHF) =  -240.910323666     A.U. after    2 cycles

 The electronic state is 1-A'.
 Alpha  occ. eigenvalues --  -15.72271 -15.66628 -15.62810 -11.33622 -11.30312
 Alpha  occ. eigenvalues --   -1.38246  -1.16869  -1.09889  -0.86379  -0.83200
 Alpha  occ. eigenvalues --   -0.77198  -0.64252  -0.63816  -0.59986  -0.50118
 Alpha  occ. eigenvalues --   -0.44742  -0.41673  -0.37609
 Alpha virt. eigenvalues --    0.02441   0.04408   0.04620   0.07720   0.10149
 Alpha virt. eigenvalues --    0.10656   0.11989   0.12448   0.14874   0.16101
 Alpha virt. eigenvalues --    0.16666   0.17593   0.17933   0.18810   0.20206

 Mulliken charges:
               1
     1  N   -0.586055
     2  C    0.753778
     3  H   -0.164868
     4  N   -0.416359
     5  N   -0.131384
     6  H    0.001158
     7  C    0.700133
     8  H   -0.156403
 Sum of Mulliken charges =   0.00000

 Dipole moment (field-independent basis, Debye):
    X=              1.2408    Y=              2.6677    Z=              0.0000  Tot=              2.9422

 Test job not archived.
 1\1\GINC-SE180\SP\RHF\Aug-CC-pVDZ\C2H3N3\OHZDE\05-Apr-2025\0\\#t hf au
 g-cc-pvdz iop(5/13=1,5/36=2,99/5=2) pseudo=read geom=check guess=(read
 ,tcheck) scf=(maxcycle=1)\\title\\0,1\N,0,0.687175,-0.99721,0.\C,0,-0.
 670085,-0.89625,0.\H,0,-1.325913,-1.750118,0.\N,0,-1.137377,0.337628,0
 .\N,0,0.,1.069665,0.\H,0,-0.046582,2.073946,0.\C,0,1.075604,0.260484,0
 .\H,0,2.0908,0.620191,0.\\Version=ES64L-G16RevC.01\State=1-A'\HF=-240.
 9103237\RMSD=2.315e-03\Dipole=0.4881733,1.0495645,0.\Quadrupole=-1.037
 5715,2.7426437,-1.7050722,4.6075401,0.,0.\PG=CS [SG(C2H3N3)]\\@

 Normal termination of Gaussian 16 at Sat Apr  5 22:16:59 2025.
