 Gaussian 16, Revision C.01,

 ----------------------------------------------------------------------
 #t hf aug-cc-pvdz symm=none int=(grid=ultrafine) guess=(read,tcheck) s
 table=(opt,rrhf)
 ----------------------------------------------------------------------
 -----
 title
 -----
 Symbolic Z-matrix:
 Charge =  0 Multiplicity = 1

 SCF Done:  E(RHF) =  -559.316348699     A.U. after   16 cycles
 Normal termination of Gaussian 16 at Sat Apr  5 22:18:28 2025.
 Gaussian 16:  ES64L-G16RevC.01  3-Jul-2019

 ----------------------------------------------------------------------
 #t hf aug-cc-pvdz iop(5/13=1,5/36=2,99/5=2) pseudo=read geom=check gue
 ss=(read,tcheck) scf=(maxcycle=1)
 ----------------------------------------------------------------------
 -----
 title
 -----
 Structure from the checkpoint file:  "1H-3H-9H-xanthine.chk"
 Charge =  0 Multiplicity = 1

                         Standard orientation:
 ---------------------------------------------------------------------
 Center     Atomic      Atomic             Coordinates (Angstroms)
 Number     Number       Type             X           Y           Z
 ---------------------------------------------------------------------
      1          6           0       -0.494582   -1.855654    0.000000
      2          7           0        0.801387   -1.341554    0.000000
      3          6           0        1.003289    0.010465    0.000000
      4          6           0        0.000000    0.951847    0.000000
      5          7           0        0.543549    2.219652    0.000000
      6          6           0        1.828513    2.045590    0.000000
      7          7           0        2.176164    0.698429    0.000000
      8          7           0       -1.483837   -0.891134    0.000000
      9          6           0       -1.384973    0.528592    0.000000
     10          8           0       -0.710820   -3.048700    0.000000
     11          1           0        2.579315    2.817576    0.000000
     12          8           0       -2.386498    1.205693    0.000000
     13          1           0       -2.426033   -1.254649    0.000000
     14          1           0        1.543280   -2.021140    0.000000
     15          1           0        3.107654    0.319474    0.000000
 ---------------------------------------------------------------------

 SCF Done:  E(RHF) =  -559.482669998     A.U. after    2 cycles

 The electronic state is 1-A'.
 Alpha  occ. eigenvalues --  -20.56406 -20.55548 -15.72961 -15.71490 -15.68793
 Alpha  occ. eigenvalues --  -15.65085 -11.43756 -11.39356 -11.37699 -11.34309
 Alpha  occ. eigenvalues --  -11.28092  -1.40377  -1.36977  -1.35838  -1.27109
 Alpha  occ. eigenvalues --   -1.21251  -1.17455  -1.05405  -0.92510  -0.90237
 Alpha  occ. eigenvalues --   -0.87244  -0.83339  -0.77748  -0.74029  -0.69965
 Alpha  occ. eigenvalues --   -0.69029  -0.68731  -0.65683  -0.63677  -0.62804
 Alpha  occ. eigenvalues --   -0.62803  -0.58397  -0.50612  -0.50566  -0.46877
 Alpha  occ. eigenvalues --   -0.45940  -0.44169  -0.43734  -0.33404
 Alpha virt. eigenvalues --    0.00628   0.02816   0.04884   0.05686   0.05883
 Alpha virt. eigenvalues --    0.08328   0.09366   0.09497   0.10727   0.11152
 Alpha virt. eigenvalues --    0.11539   0.12281   0.12783   0.12964   0.13939

 Mulliken charges:
               1
     1  C    0.732521
     2  N   -0.526414
     3  C    0.812467
     4  C    0.369273
     5  N   -0.795372
     6  C    0.995129
     7  N   -0.430754
     8  N   -0.474322
     9  C    0.683502
    10  O   -0.458026
    11  H   -0.241603
    12  O   -0.481958
    13  H   -0.002547
    14  H   -0.087112
    15  H   -0.094785
 Sum of Mulliken charges =   0.00000

 Dipole moment (field-independent basis, Debye):
    X=              8.0307    Y=             -1.0435    Z=              0.0000  Tot=              8.0982

 Test job not archived.
 1\1\GINC-SE085\SP\RHF\Aug-CC-pVDZ\C5H4N4O2\OHZDE\05-Apr-2025\0\\#t hf
 aug-cc-pvdz iop(5/13=1,5/36=2,99/5=2) pseudo=read geom=check guess=(re
 ad,tcheck) scf=(maxcycle=1)\\title\\0,1\C,0,-0.494582,-1.855654,0.\N,0
 ,0.801387,-1.341554,0.\C,0,1.003289,0.010465,0.\C,0,0.,0.951847,0.\N,0
 ,0.543549,2.219652,0.\C,0,1.828513,2.04559,0.\N,0,2.176164,0.698429,0.
 \N,0,-1.483837,-0.891134,0.\C,0,-1.384973,0.528592,0.\O,0,-0.71082,-3.
 0487,0.\H,0,2.579315,2.817576,0.\O,0,-2.386498,1.205693,0.\H,0,-2.4260
 33,-1.254649,0.\H,0,1.54328,-2.02114,0.\H,0,3.107654,0.319474,0.\\Vers

 Normal termination of Gaussian 16 at Sat Apr  5 22:18:37 2025.
