 Gaussian 16, Revision C.01,

 ----------------------------------------------------------------------
 #t hf aug-cc-pvdz symm=none int=(grid=ultrafine) guess=(read,tcheck) s
 table=(opt,rrhf)
 ----------------------------------------------------------------------
 -----
 title
 -----
 Symbolic Z-matrix:
 Charge =  0 Multiplicity = 1

 SCF Done:  E(RHF) =  -559.301960198     A.U. after   16 cycles
 Normal termination of Gaussian 16 at Sat Apr  5 22:18:20 2025.
 Gaussian 16:  ES64L-G16RevC.01  3-Jul-2019

 ----------------------------------------------------------------------
 #t hf aug-cc-pvdz iop(5/13=1,5/36=2,99/5=2) pseudo=read geom=check gue
 ss=(read,tcheck) scf=(maxcycle=1)
 ----------------------------------------------------------------------
 -----
 title
 -----
 Structure from the checkpoint file:  "1H-3H-9H-alloxanthine.chk"
 Charge =  0 Multiplicity = 1

                         Standard orientation:
 ---------------------------------------------------------------------
 Center     Atomic      Atomic             Coordinates (Angstroms)
 Number     Number       Type             X           Y           Z
 ---------------------------------------------------------------------
      1          6           0       -0.531875   -1.845904    0.000000
      2          7           0        0.771404   -1.348773    0.000000
      3          6           0        1.003562   -0.002016    0.000000
      4          6           0        0.000000    0.950259    0.000000
      5          6           0        0.690256    2.188187    0.000000
      6          7           0        1.994421    2.015793    0.000000
      7          7           0        2.175035    0.654328    0.000000
      8          7           0       -1.513744   -0.871250    0.000000
      9          6           0       -1.384929    0.539209    0.000000
     10          8           0       -0.763178   -3.034653    0.000000
     11          8           0       -2.371414    1.243358    0.000000
     12          1           0       -2.459834   -1.224597    0.000000
     13          1           0        1.502564   -2.040445    0.000000
     14          1           0        3.109527    0.285765    0.000000
     15          1           0        0.272581    3.180547    0.000000
 ---------------------------------------------------------------------

 SCF Done:  E(RHF) =  -559.467573952     A.U. after    2 cycles

 The electronic state is 1-A'.
 Alpha  occ. eigenvalues --  -20.57214 -20.56401 -15.73884 -15.72087 -15.69554
 Alpha  occ. eigenvalues --  -15.68287 -11.44509 -11.40370 -11.38738 -11.30670
 Alpha  occ. eigenvalues --  -11.26181  -1.41173  -1.37945  -1.37192  -1.28133
 Alpha  occ. eigenvalues --   -1.21820  -1.11919  -1.08592  -0.92908  -0.90941
 Alpha  occ. eigenvalues --   -0.86546  -0.83384  -0.78368  -0.74955  -0.69710
 Alpha  occ. eigenvalues --   -0.69502  -0.68098  -0.65333  -0.64672  -0.63345
 Alpha  occ. eigenvalues --   -0.60901  -0.59252  -0.51348  -0.51242  -0.49223
 Alpha  occ. eigenvalues --   -0.46581  -0.44986  -0.40841  -0.35600
 Alpha virt. eigenvalues --    0.01415   0.04020   0.04236   0.05630   0.05761
 Alpha virt. eigenvalues --    0.08728   0.09521   0.10291   0.10852   0.11104
 Alpha virt. eigenvalues --    0.11334   0.12254   0.13092   0.13267   0.13564

 Mulliken charges:
               1
     1  C    0.698079
     2  N   -0.470820
     3  C    0.553096
     4  C    0.124325
     5  C    1.233361
     6  N   -0.743223
     7  N   -0.119777
     8  N   -0.496188
     9  C    0.593928
    10  O   -0.443947
    11  O   -0.508002
    12  H   -0.012139
    13  H   -0.070352
    14  H   -0.022274
    15  H   -0.316068
 Sum of Mulliken charges =  -0.00000

 Dipole moment (field-independent basis, Debye):
    X=              4.6055    Y=             -1.1428    Z=              0.0000  Tot=              4.7452

 Test job not archived.
 1\1\GINC-SE052\SP\RHF\Aug-CC-pVDZ\C5H4N4O2\OHZDE\05-Apr-2025\0\\#t hf
 aug-cc-pvdz iop(5/13=1,5/36=2,99/5=2) pseudo=read geom=check guess=(re
 ad,tcheck) scf=(maxcycle=1)\\title\\0,1\C,0,-0.531875,-1.845904,0.\N,0
 ,0.771404,-1.348773,0.\C,0,1.003562,-0.002016,0.\C,0,0.,0.950259,0.\C,
 0,0.690256,2.188187,0.\N,0,1.994421,2.015793,0.\N,0,2.175035,0.654328,
 0.\N,0,-1.513744,-0.87125,0.\C,0,-1.384929,0.539209,0.\O,0,-0.763178,-
 3.034653,0.\O,0,-2.371414,1.243358,0.\H,0,-2.459834,-1.224597,0.\H,0,1
 .502564,-2.040445,0.\H,0,3.109527,0.285765,0.\H,0,0.272581,3.180547,0.

 Normal termination of Gaussian 16 at Sat Apr  5 22:18:30 2025.
