 Gaussian 16, Revision C.01,

 ----------------------------------------------------------------------
 #t hf aug-cc-pvdz symm=none int=(grid=ultrafine) guess=(read,tcheck) s
 table=(opt,rrhf)
 ----------------------------------------------------------------------
 -----
 title
 -----
 Symbolic Z-matrix:
 Charge =  0 Multiplicity = 1

 SCF Done:  E(RHF) =  -559.330609821     A.U. after   16 cycles
 Normal termination of Gaussian 16 at Sat Apr  5 22:18:37 2025.
 Gaussian 16:  ES64L-G16RevC.01  3-Jul-2019

 ----------------------------------------------------------------------
 #t hf aug-cc-pvdz iop(5/13=1,5/36=2,99/5=2) pseudo=read geom=check gue
 ss=(read,tcheck) scf=(maxcycle=1)
 ----------------------------------------------------------------------
 -----
 title
 -----
 Structure from the checkpoint file:  "1H-3H-7H-xanthine.chk"
 Charge =  0 Multiplicity = 1

                         Standard orientation:
 ---------------------------------------------------------------------
 Center     Atomic      Atomic             Coordinates (Angstroms)
 Number     Number       Type             X           Y           Z
 ---------------------------------------------------------------------
      1          6           0       -1.932966    1.927138    0.000000
      2          6           0        0.000000    0.897330    0.000000
      3          6           0       -1.047973    0.007447    0.000000
      4          6           0        1.374607    0.492230    0.000000
      5          6           0        0.451293   -1.869624    0.000000
      6          7           0       -2.246899    0.640758    0.000000
      7          7           0       -0.597110    2.140003    0.000000
      8          7           0       -0.830130   -1.346171    0.000000
      9          7           0        1.466665   -0.911751    0.000000
     10          8           0        2.362098    1.204052    0.000000
     11          8           0        0.680205   -3.060162    0.000000
     12          1           0       -2.646470    2.733790    0.000000
     13          1           0       -0.115294    3.023307    0.000000
     14          1           0       -1.595394   -2.001005    0.000000
     15          1           0        2.401286   -1.294218    0.000000
 ---------------------------------------------------------------------

 SCF Done:  E(RHF) =  -559.497137853     A.U. after    2 cycles

 The electronic state is 1-A'.
 Alpha  occ. eigenvalues --  -20.56352 -20.55794 -15.72431 -15.69852 -15.69089
 Alpha  occ. eigenvalues --  -15.65411 -11.43202 -11.40413 -11.36475 -11.35597
 Alpha  occ. eigenvalues --  -11.29323  -1.39913  -1.37363  -1.35819  -1.26838
 Alpha  occ. eigenvalues --   -1.21351  -1.17216  -1.06006  -0.92423  -0.90548
 Alpha  occ. eigenvalues --   -0.86547  -0.83683  -0.78368  -0.73134  -0.69865
 Alpha  occ. eigenvalues --   -0.68801  -0.68604  -0.65245  -0.64247  -0.63191
 Alpha  occ. eigenvalues --   -0.62723  -0.58795  -0.50897  -0.50736  -0.48668
 Alpha  occ. eigenvalues --   -0.46292  -0.44554  -0.42348  -0.33961
 Alpha virt. eigenvalues --    0.01860   0.03905   0.04348   0.05766   0.05851
 Alpha virt. eigenvalues --    0.08007   0.08507   0.09522   0.10553   0.10802
 Alpha virt. eigenvalues --    0.11078   0.12792   0.13043   0.13815   0.14377

 Mulliken charges:
               1
     1  C    0.965454
     2  C    0.640194
     3  C    0.479180
     4  C    0.678712
     5  C    0.763118
     6  N   -0.645019
     7  N   -0.583195
     8  N   -0.461581
     9  N   -0.480959
    10  O   -0.530688
    11  O   -0.456555
    12  H   -0.226330
    13  H   -0.069746
    14  H   -0.067368
    15  H   -0.005217
 Sum of Mulliken charges =  -0.00000

 Dipole moment (field-independent basis, Debye):
    X=             -3.1577    Y=              4.0619    Z=              0.0000  Tot=              5.1449

 Test job not archived.
 1\1\GINC-SE040\SP\RHF\Aug-CC-pVDZ\C5H4N4O2\OHZDE\05-Apr-2025\0\\#t hf
 aug-cc-pvdz iop(5/13=1,5/36=2,99/5=2) pseudo=read geom=check guess=(re
 ad,tcheck) scf=(maxcycle=1)\\title\\0,1\C,0,-1.932966,1.927138,0.\C,0,
 0.,0.89733,0.\C,0,-1.047973,0.007447,0.\C,0,1.374607,0.49223,0.\C,0,0.
 451293,-1.869624,0.\N,0,-2.246899,0.640758,0.\N,0,-0.59711,2.140003,0.
 \N,0,-0.83013,-1.346171,0.\N,0,1.466665,-0.911751,0.\O,0,2.362098,1.20
 4052,0.\O,0,0.680205,-3.060162,0.\H,0,-2.64647,2.73379,0.\H,0,-0.11529
 4,3.023307,0.\H,0,-1.595394,-2.001005,0.\H,0,2.401286,-1.294218,0.\\Ve

 Normal termination of Gaussian 16 at Sat Apr  5 22:19:39 2025.
