 Gaussian 16, Revision C.01,

 ----------------------------------------------------------------------
 #t hf aug-cc-pvdz symm=none int=(grid=ultrafine) guess=(read,tcheck) s
 table=(opt,rrhf)
 ----------------------------------------------------------------------
 -----
 title
 -----
 Symbolic Z-matrix:
 Charge =  0 Multiplicity = 1

 SCF Done:  E(RHF) =  -559.307667714     A.U. after   16 cycles
 Normal termination of Gaussian 16 at Sat Apr  5 22:18:10 2025.
 Gaussian 16:  ES64L-G16RevC.01  3-Jul-2019

 ----------------------------------------------------------------------
 #t hf aug-cc-pvdz iop(5/13=1,5/36=2,99/5=2) pseudo=read geom=check gue
 ss=(read,tcheck) scf=(maxcycle=1)
 ----------------------------------------------------------------------
 -----
 title
 -----
 Structure from the checkpoint file:  "1H-3H-8H-alloxanthine.chk"
 Charge =  0 Multiplicity = 1

                         Standard orientation:
 ---------------------------------------------------------------------
 Center     Atomic      Atomic             Coordinates (Angstroms)
 Number     Number       Type             X           Y           Z
 ---------------------------------------------------------------------
      1          6           0       -0.513595   -1.847902    0.000000
      2          7           0        0.778933   -1.359597    0.000000
      3          6           0        1.042726   -0.011300    0.000000
      4          6           0        0.000000    0.939529    0.000000
      5          6           0        0.650742    2.159172    0.000000
      6          7           0        1.962308    1.874826    0.000000
      7          7           0        2.241607    0.540130    0.000000
      8          7           0       -1.509334   -0.870626    0.000000
      9          6           0       -1.390022    0.528250    0.000000
     10          8           0       -0.770109   -3.032395    0.000000
     11          1           0        2.729469    2.523638    0.000000
     12          8           0       -2.370508    1.243288    0.000000
     13          1           0        0.271382    3.165642    0.000000
     14          1           0       -2.450739   -1.235751    0.000000
     15          1           0        1.521119   -2.040297    0.000000
 ---------------------------------------------------------------------

 SCF Done:  E(RHF) =  -559.473433298     A.U. after    2 cycles

 The electronic state is 1-A'.
 Alpha  occ. eigenvalues --  -20.56441 -20.55988 -15.74371 -15.69617 -15.68922
 Alpha  occ. eigenvalues --  -15.67833 -11.43260 -11.40322 -11.35315 -11.34214
 Alpha  occ. eigenvalues --  -11.26712  -1.40051  -1.37827  -1.37124  -1.26899
 Alpha  occ. eigenvalues --   -1.21001  -1.11005  -1.09399  -0.93599  -0.90064
 Alpha  occ. eigenvalues --   -0.86803  -0.80327  -0.78506  -0.72615  -0.70832
 Alpha  occ. eigenvalues --   -0.68780  -0.68337  -0.65420  -0.64549  -0.63193
 Alpha  occ. eigenvalues --   -0.61073  -0.58919  -0.51027  -0.50803  -0.49374
 Alpha  occ. eigenvalues --   -0.46453  -0.44412  -0.38948  -0.36289
 Alpha virt. eigenvalues --    0.01864   0.03789   0.04275   0.05739   0.05825
 Alpha virt. eigenvalues --    0.08198   0.08736   0.09670   0.10945   0.11106
 Alpha virt. eigenvalues --    0.11324   0.13038   0.13413   0.14153   0.14371

 Mulliken charges:
               1
     1  C    0.749836
     2  N   -0.471680
     3  C    0.599502
     4  C    0.328852
     5  C    1.143291
     6  N   -0.367733
     7  N   -0.487277
     8  N   -0.509199
     9  C    0.421429
    10  O   -0.451930
    11  H   -0.008786
    12  O   -0.512408
    13  H   -0.358208
    14  H   -0.013087
    15  H   -0.062604
 Sum of Mulliken charges =  -0.00000

 Dipole moment (field-independent basis, Debye):
    X=              3.9616    Y=              3.8255    Z=              0.0000  Tot=              5.5071

 Test job not archived.
 1\1\GINC-SE053\SP\RHF\Aug-CC-pVDZ\C5H4N4O2\OHZDE\05-Apr-2025\0\\#t hf
 aug-cc-pvdz iop(5/13=1,5/36=2,99/5=2) pseudo=read geom=check guess=(re
 ad,tcheck) scf=(maxcycle=1)\\title\\0,1\C,0,-0.513595,-1.847902,0.\N,0
 ,0.778933,-1.359597,0.\C,0,1.042726,-0.0113,0.\C,0,0.,0.939529,0.\C,0,
 0.650742,2.159172,0.\N,0,1.962308,1.874826,0.\N,0,2.241607,0.54013,0.\
 N,0,-1.509334,-0.870626,0.\C,0,-1.390022,0.52825,0.\O,0,-0.770109,-3.0
 32395,0.\H,0,2.729469,2.523638,0.\O,0,-2.370508,1.243288,0.\H,0,0.2713
 82,3.165642,0.\H,0,-2.450739,-1.235751,0.\H,0,1.521119,-2.040297,0.\\V

 Normal termination of Gaussian 16 at Sat Apr  5 22:18:22 2025.
