 Gaussian 16, Revision C.01,

 ----------------------------------------------------------------------
 #t hf aug-cc-pvdz symm=none int=(grid=ultrafine) guess=(read,tcheck) s
 table=(opt,rrhf)
 ----------------------------------------------------------------------
 -----
 title
 -----
 Symbolic Z-matrix:
 Charge =  0 Multiplicity = 1

 SCF Done:  E(RHF) =  -484.418805680     A.U. after   16 cycles
 Normal termination of Gaussian 16 at Sat Apr  5 22:18:11 2025.
 Gaussian 16:  ES64L-G16RevC.01  3-Jul-2019

 ----------------------------------------------------------------------
 #t hf aug-cc-pvdz iop(5/13=1,5/36=2,99/5=2) pseudo=read geom=check gue
 ss=(read,tcheck) scf=(maxcycle=1)
 ----------------------------------------------------------------------
 -----
 title
 -----
 Structure from the checkpoint file:  "1H-7H-hypoxanthine.chk"
 Charge =  0 Multiplicity = 1

                         Standard orientation:
 ---------------------------------------------------------------------
 Center     Atomic      Atomic             Coordinates (Angstroms)
 Number     Number       Type             X           Y           Z
 ---------------------------------------------------------------------
      1          6           0       -2.032028    1.358919    0.000000
      2          6           0       -0.000000    0.554262   -0.000000
      3          6           0       -0.943969   -0.466855    0.000000
      4          6           0        0.643022   -2.033412    0.000000
      5          6           0        1.406961    0.316403   -0.000000
      6          7           0       -2.208454    0.057575    0.000000
      7          7           0       -0.625765   -1.795763    0.000000
      8          7           0       -0.718202    1.721541    0.000000
      9          7           0        1.625317   -1.077018   -0.000000
     10          8           0        2.326607    1.119304   -0.000000
     11          1           0       -2.822899    2.090917    0.000000
     12          1           0        0.998376   -3.056608    0.000000
     13          1           0       -0.336554    2.652448   -0.000000
     14          1           0        2.594034   -1.361433   -0.000000
 ---------------------------------------------------------------------

 SCF Done:  E(RHF) =  -484.559094031     A.U. after    2 cycles

 The electronic state is 1-A'.
 Alpha  occ. eigenvalues --  -20.55156 -15.70791 -15.70391 -15.64122 -15.63281
 Alpha  occ. eigenvalues --  -11.39313 -11.36469 -11.34672 -11.32567 -11.28676
 Alpha  occ. eigenvalues --   -1.37224  -1.33958  -1.28931  -1.19457  -1.15341
 Alpha  occ. eigenvalues --   -1.05420  -0.91395  -0.90701  -0.84221  -0.79977
 Alpha  occ. eigenvalues --   -0.75304  -0.72494  -0.69541  -0.66029  -0.64250
 Alpha  occ. eigenvalues --   -0.63796  -0.60873  -0.59613  -0.54031  -0.48706
 Alpha  occ. eigenvalues --   -0.46182  -0.44950  -0.43584  -0.39547  -0.32961
 Alpha virt. eigenvalues --    0.02344   0.02696   0.04811   0.05861   0.06352
 Alpha virt. eigenvalues --    0.08459   0.08525   0.09813   0.10341   0.10942
 Alpha virt. eigenvalues --    0.11309   0.12614   0.12993   0.13901   0.13919

 Mulliken charges:
               1
     1  C    0.971993
     2  C    0.574470
     3  C    0.339272
     4  C    0.847911
     5  C    0.706331
     6  N   -0.671967
     7  N   -0.554516
     8  N   -0.586266
     9  N   -0.470606
    10  O   -0.560095
    11  H   -0.226308
    12  H   -0.291088
    13  H   -0.078381
    14  H   -0.000751
 Sum of Mulliken charges =  -0.00000

 Dipole moment (field-independent basis, Debye):
    X=              0.7645    Y=              0.5851    Z=              0.0000  Tot=              0.9627

 Test job not archived.
 1\1\GINC-SE187\SP\RHF\Aug-CC-pVDZ\C5H4N4O1\OHZDE\05-Apr-2025\0\\#t hf
 aug-cc-pvdz iop(5/13=1,5/36=2,99/5=2) pseudo=read geom=check guess=(re
 ad,tcheck) scf=(maxcycle=1)\\title\\0,1\C,0,-2.032028,1.358919,0.\C,0,
 0.,0.554262,0.\C,0,-0.943969,-0.466855,0.\C,0,0.643023,-2.033412,0.\C,
 0,1.406961,0.316403,0.\N,0,-2.208454,0.057574,0.\N,0,-0.625765,-1.7957
 63,0.\N,0,-0.718202,1.721541,0.\N,0,1.625317,-1.077018,0.\O,0,2.326607
 ,1.119304,0.\H,0,-2.822899,2.090916,0.\H,0,0.998377,-3.056608,0.\H,0,-
 0.336554,2.652448,0.\H,0,2.594034,-1.361433,0.\\Version=ES64L-G16RevC.

 Normal termination of Gaussian 16 at Sat Apr  5 22:18:21 2025.
