 Gaussian 16, Revision C.01,

 ----------------------------------------------------------------------
 #t hf aug-cc-pvdz symm=none int=(grid=ultrafine) guess=(read,tcheck) s
 table=(opt,rrhf)
 ----------------------------------------------------------------------
 -----
 title
 -----
 Symbolic Z-matrix:
 Charge =  0 Multiplicity = 1

 SCF Done:  E(RHF) =  -484.391492797     A.U. after   16 cycles
 Normal termination of Gaussian 16 at Sat Apr  5 22:18:10 2025.
 Gaussian 16:  ES64L-G16RevC.01  3-Jul-2019

 ----------------------------------------------------------------------
 #t hf aug-cc-pvdz iop(5/13=1,5/36=2,99/5=2) pseudo=read geom=check gue
 ss=(read,tcheck) scf=(maxcycle=1)
 ----------------------------------------------------------------------
 -----
 title
 -----
 Structure from the checkpoint file:  "1H-8H-allopurinol.chk"
 Charge =  0 Multiplicity = 1

                         Standard orientation:
 ---------------------------------------------------------------------
 Center     Atomic      Atomic             Coordinates (Angstroms)
 Number     Number       Type             X           Y           Z
 ---------------------------------------------------------------------
      1          6           0        0.728933   -1.997108    0.000000
      2          7           0       -0.543008   -1.810437   -0.000000
      3          6           0       -0.914571   -0.487179   -0.000000
      4          6           0        0.000000    0.605212   -0.000000
      5          6           0       -0.793070    1.736321   -0.000000
      6          7           0       -2.058612    1.279355   -0.000000
      7          7           0       -2.176192   -0.065847   -0.000000
      8          7           0        1.685510   -1.008834    0.000000
      9          6           0        1.424753    0.375734    0.000000
     10          1           0        1.120457   -3.007750    0.000000
     11          8           0        2.329973    1.187587    0.000000
     12          1           0       -0.552002    2.784573   -0.000000
     13          1           0        2.661361   -1.265449    0.000000
     14          1           0       -2.899755    1.830394   -0.000000
 ---------------------------------------------------------------------

 SCF Done:  E(RHF) =  -484.530992363     A.U. after    2 cycles

 The electronic state is 1-A'.
 Alpha  occ. eigenvalues --  -20.55507 -15.73436 -15.69563 -15.66313 -15.63768
 Alpha  occ. eigenvalues --  -11.39304 -11.36499 -11.32438 -11.31901 -11.25407
 Alpha  occ. eigenvalues --   -1.37451  -1.36004  -1.28821  -1.18684  -1.09225
 Alpha  occ. eigenvalues --   -1.08348  -0.94095  -0.89602  -0.81740  -0.78417
 Alpha  occ. eigenvalues --   -0.76040  -0.72433  -0.68866  -0.65504  -0.64396
 Alpha  occ. eigenvalues --   -0.62012  -0.61789  -0.60568  -0.53675  -0.49450
 Alpha  occ. eigenvalues --   -0.46140  -0.44209  -0.43838  -0.37601  -0.33900
 Alpha virt. eigenvalues --    0.02412   0.02758   0.04671   0.05821   0.06101
 Alpha virt. eigenvalues --    0.08360   0.09082   0.09694   0.10279   0.11102
 Alpha virt. eigenvalues --    0.11826   0.13039   0.13132   0.14056   0.14312

 Mulliken charges:
               1
     1  C    0.774038
     2  N   -0.509612
     3  C    0.593001
     4  C    0.222468
     5  C    1.125598
     6  N   -0.349743
     7  N   -0.553631
     8  N   -0.479087
     9  C    0.379711
    10  H   -0.295296
    11  O   -0.526563
    12  H   -0.361086
    13  H   -0.012919
    14  H   -0.006881
 Sum of Mulliken charges =  -0.00000

 Dipole moment (field-independent basis, Debye):
    X=             -0.2015    Y=              0.5225    Z=             -0.0000  Tot=              0.5600

 Test job not archived.
 1\1\GINC-SE198\SP\RHF\Aug-CC-pVDZ\C5H4N4O1\OHZDE\05-Apr-2025\0\\#t hf
 aug-cc-pvdz iop(5/13=1,5/36=2,99/5=2) pseudo=read geom=check guess=(re
 ad,tcheck) scf=(maxcycle=1)\\title\\0,1\C,0,0.728933,-1.997108,0.\N,0,
 -0.543008,-1.810437,0.\C,0,-0.914571,-0.487179,0.\C,0,0.,0.605212,0.\C
 ,0,-0.79307,1.736321,0.\N,0,-2.058612,1.279355,0.\N,0,-2.176192,-0.065
 847,0.\N,0,1.68551,-1.008834,0.\C,0,1.424753,0.375734,0.\H,0,1.120457,
 -3.00775,0.\O,0,2.329973,1.187587,0.\H,0,-0.552002,2.784573,0.\H,0,2.6
 61361,-1.265449,0.\H,0,-2.899755,1.830394,0.\\Version=ES64L-G16RevC.01

 Normal termination of Gaussian 16 at Sat Apr  5 22:18:20 2025.
