 Gaussian 16, Revision C.01,

 ----------------------------------------------------------------------
 #t hf aug-cc-pvdz symm=none int=(grid=ultrafine) guess=(read,tcheck) s
 table=(opt,rrhf)
 ----------------------------------------------------------------------
 -----
 title
 -----
 Symbolic Z-matrix:
 Charge =  0 Multiplicity = 1

 SCF Done:  E(RHF) =  -484.398987684     A.U. after   16 cycles
 Normal termination of Gaussian 16 at Sat Apr  5 22:18:11 2025.
 Gaussian 16:  ES64L-G16RevC.01  3-Jul-2019

 ----------------------------------------------------------------------
 #t hf aug-cc-pvdz iop(5/13=1,5/36=2,99/5=2) pseudo=read geom=check gue
 ss=(read,tcheck) scf=(maxcycle=1)
 ----------------------------------------------------------------------
 -----
 title
 -----
 Structure from the checkpoint file:  "1H-9H-allopurinol.chk"
 Charge =  0 Multiplicity = 1

                         Standard orientation:
 ---------------------------------------------------------------------
 Center     Atomic      Atomic             Coordinates (Angstroms)
 Number     Number       Type             X           Y           Z
 ---------------------------------------------------------------------
      1          6           0        0.743618   -1.988841    0.000000
      2          7           0       -0.536382   -1.791562   -0.000000
      3          6           0       -0.865081   -0.470779   -0.000000
      4          6           0       -0.000000    0.626262   -0.000000
      5          6           0       -0.849694    1.757502   -0.000000
      6          7           0       -2.119175    1.395232   -0.000000
      7          7           0       -2.113501    0.036902   -0.000000
      8          7           0        1.682928   -1.003258    0.000000
      9          6           0        1.418760    0.396955    0.000000
     10          1           0        1.125544   -3.002395    0.000000
     11          8           0        2.336731    1.192002    0.000000
     12          1           0       -0.582351    2.800421   -0.000000
     13          1           0        2.661588   -1.251117    0.000000
     14          1           0       -2.981334   -0.470717   -0.000000
 ---------------------------------------------------------------------

 SCF Done:  E(RHF) =  -484.538656407     A.U. after    2 cycles

 The electronic state is 1-A'.
 Alpha  occ. eigenvalues --  -20.55432 -15.71605 -15.70774 -15.67281 -15.65605
 Alpha  occ. eigenvalues --  -11.39459 -11.38364 -11.34956 -11.29058 -11.25123
 Alpha  occ. eigenvalues --   -1.37645  -1.35713  -1.30064  -1.19779  -1.09928
 Alpha  occ. eigenvalues --   -1.07708  -0.92422  -0.90926  -0.83593  -0.79381
 Alpha  occ. eigenvalues --   -0.75475  -0.72913  -0.67716  -0.66190  -0.64437
 Alpha  occ. eigenvalues --   -0.62806  -0.61571  -0.60395  -0.54345  -0.48291
 Alpha  occ. eigenvalues --   -0.47035  -0.45654  -0.44343  -0.38862  -0.33907
 Alpha virt. eigenvalues --    0.02054   0.03647   0.04397   0.05713   0.05802
 Alpha virt. eigenvalues --    0.08566   0.08785   0.10257   0.11157   0.11181
 Alpha virt. eigenvalues --    0.11578   0.12316   0.12819   0.13420   0.14577

 Mulliken charges:
               1
     1  C    0.762265
     2  N   -0.474267
     3  C    0.404978
     4  C    0.069058
     5  C    1.230112
     6  N   -0.721112
     7  N   -0.174771
     8  N   -0.451055
     9  C    0.505399
    10  H   -0.287717
    11  O   -0.522797
    12  H   -0.314528
    13  H   -0.007685
    14  H   -0.017878
 Sum of Mulliken charges =   0.00000

 Dipole moment (field-independent basis, Debye):
    X=             -0.0678    Y=             -4.4879    Z=              0.0000  Tot=              4.4884

 Test job not archived.
 1\1\GINC-SE107\SP\RHF\Aug-CC-pVDZ\C5H4N4O1\OHZDE\05-Apr-2025\0\\#t hf
 aug-cc-pvdz iop(5/13=1,5/36=2,99/5=2) pseudo=read geom=check guess=(re
 ad,tcheck) scf=(maxcycle=1)\\title\\0,1\C,0,0.743618,-1.988841,0.\N,0,
 -0.536382,-1.791562,0.\C,0,-0.865081,-0.470779,0.\C,0,0.,0.626262,0.\C
 ,0,-0.849694,1.757502,0.\N,0,-2.119175,1.395232,0.\N,0,-2.113501,0.036
 902,0.\N,0,1.682928,-1.003258,0.\C,0,1.41876,0.396955,0.\H,0,1.125544,
 -3.002395,0.\O,0,2.336731,1.192002,0.\H,0,-0.582351,2.800421,0.\H,0,2.
 661588,-1.251117,0.\H,0,-2.981334,-0.470717,0.\\Version=ES64L-G16RevC.

 Normal termination of Gaussian 16 at Sat Apr  5 22:18:20 2025.
