 Gaussian 16, Revision C.01,

 ----------------------------------------------------------------------
 #t hf aug-cc-pvdz symm=none int=(grid=ultrafine) guess=(read,tcheck) s
 table=(opt,rrhf)
 ----------------------------------------------------------------------
 -----
 title
 -----
 Symbolic Z-matrix:
 Charge =  0 Multiplicity = 1

 SCF Done:  E(RHF) =  -484.417694317     A.U. after   16 cycles
 Normal termination of Gaussian 16 at Sat Apr  5 22:18:15 2025.
 Gaussian 16:  ES64L-G16RevC.01  3-Jul-2019

 ----------------------------------------------------------------------
 #t hf aug-cc-pvdz iop(5/13=1,5/36=2,99/5=2) pseudo=read geom=check gue
 ss=(read,tcheck) scf=(maxcycle=1)
 ----------------------------------------------------------------------
 -----
 title
 -----
 Structure from the checkpoint file:  "1H-9H-hypoxanthine.chk"
 Charge =  0 Multiplicity = 1

                         Standard orientation:
 ---------------------------------------------------------------------
 Center     Atomic      Atomic             Coordinates (Angstroms)
 Number     Number       Type             X           Y           Z
 ---------------------------------------------------------------------
      1          6           0        0.682278   -2.011975    0.000000
      2          7           0       -0.594186   -1.780881    0.000000
      3          6           0       -0.879403   -0.454202    0.000000
      4          6           0        0.000000    0.622440    0.000000
      5          7           0       -0.689283    1.811813    0.000000
      6          6           0       -1.948126    1.467994    0.000000
      7          7           0       -2.127037    0.103915    0.000000
      8          7           0        1.638326   -1.045896    0.000000
      9          6           0        1.418524    0.367369    0.000000
     10          1           0        1.040118   -3.033903    0.000000
     11          1           0       -2.782873    2.149310    0.000000
     12          1           0       -2.996743   -0.401694    0.000000
     13          8           0        2.361664    1.128525    0.000000
     14          1           0        2.611808   -1.314335    0.000000
 ---------------------------------------------------------------------

 SCF Done:  E(RHF) =  -484.558013164     A.U. after    2 cycles

 The electronic state is 1-A'.
 Alpha  occ. eigenvalues --  -20.54393 -15.70451 -15.70151 -15.65153 -15.63457
 Alpha  occ. eigenvalues --  -11.38361 -11.37392 -11.34068 -11.33217 -11.27191
 Alpha  occ. eigenvalues --   -1.36742  -1.33998  -1.29050  -1.19329  -1.15505
 Alpha  occ. eigenvalues --   -1.04755  -0.91015  -0.90594  -0.84664  -0.79198
 Alpha  occ. eigenvalues --   -0.74751  -0.72951  -0.69113  -0.65798  -0.63598
 Alpha  occ. eigenvalues --   -0.62392  -0.61616  -0.59502  -0.53735  -0.49519
 Alpha  occ. eigenvalues --   -0.45742  -0.43868  -0.43464  -0.41260  -0.31947
 Alpha virt. eigenvalues --    0.02236   0.02337   0.04492   0.05820   0.06216
 Alpha virt. eigenvalues --    0.08436   0.08503   0.10612   0.10988   0.11229
 Alpha virt. eigenvalues --    0.11277   0.12340   0.13570   0.13966   0.14116

 Mulliken charges:
               1
     1  C    0.844937
     2  N   -0.557290
     3  C    0.550836
     4  C    0.379644
     5  N   -0.812378
     6  C    0.983809
     7  N   -0.438492
     8  N   -0.454634
     9  C    0.634462
    10  H   -0.287917
    11  H   -0.240011
    12  H   -0.094330
    13  O   -0.509453
    14  H    0.000814
 Sum of Mulliken charges =  -0.00000

 Dipole moment (field-independent basis, Debye):
    X=             -3.5303    Y=             -4.9598    Z=              0.0000  Tot=              6.0879

 Test job not archived.
 1\1\GINC-SE231\SP\RHF\Aug-CC-pVDZ\C5H4N4O1\OHZDE\05-Apr-2025\0\\#t hf
 aug-cc-pvdz iop(5/13=1,5/36=2,99/5=2) pseudo=read geom=check guess=(re
 ad,tcheck) scf=(maxcycle=1)\\title\\0,1\C,0,0.682278,-2.011975,0.\N,0,
 -0.594186,-1.780881,0.\C,0,-0.879403,-0.454202,0.\C,0,0.,0.62244,0.\N,
 0,-0.689283,1.811813,0.\C,0,-1.948126,1.467994,0.\N,0,-2.127037,0.1039
 15,0.\N,0,1.638326,-1.045896,0.\C,0,1.418524,0.367369,0.\H,0,1.040118,
 -3.033903,0.\H,0,-2.782873,2.14931,0.\H,0,-2.996743,-0.401694,0.\O,0,2
 .361664,1.128525,0.\H,0,2.611808,-1.314335,0.\\Version=ES64L-G16RevC.0

 Normal termination of Gaussian 16 at Sat Apr  5 22:18:21 2025.
