 Gaussian 16, Revision C.01,

 ----------------------------------------------------------------------
 #t hf aug-cc-pvdz symm=none int=(grid=ultrafine) guess=(read,tcheck) s
 table=(opt,rrhf)
 ----------------------------------------------------------------------
 -----
 title
 -----
 Symbolic Z-matrix:
 Charge =  0 Multiplicity = 1

 SCF Done:  E(RHF) =  -345.499926368     A.U. after   16 cycles
 Normal termination of Gaussian 16 at Sat Apr  5 22:18:14 2025.
 Gaussian 16:  ES64L-G16RevC.01  3-Jul-2019

 ----------------------------------------------------------------------
 #t hf aug-cc-pvdz iop(5/13=1,5/36=2,99/5=2) pseudo=read geom=check gue
 ss=(read,tcheck) scf=(maxcycle=1)
 ----------------------------------------------------------------------
 -----
 title
 -----
 Structure from the checkpoint file:  "1H-indene.chk"
 Charge =  0 Multiplicity = 1

                         Standard orientation:
 ---------------------------------------------------------------------
 Center     Atomic      Atomic             Coordinates (Angstroms)
 Number     Number       Type             X           Y           Z
 ---------------------------------------------------------------------
      1          6           0       -1.855229   -1.337950    0.000000
      2          6           0       -0.499088   -1.653073    0.000000
      3          6           0        0.428036   -0.615933    0.000000
      4          6           0        0.000000    0.724298    0.000000
      5          6           0        1.213119    1.619187    0.000000
      6          6           0        1.890304   -0.626401    0.000000
      7          6           0        2.352575    0.633211    0.000000
      8          6           0       -1.348795    1.031328    0.000000
      9          6           0       -2.277760   -0.010338    0.000000
     10          1           0       -2.590250   -2.131799    0.000000
     11          1           0       -0.176462   -2.686234    0.000000
     12          1           0        1.242418    2.275992    0.875487
     13          1           0        1.242418    2.275992   -0.875487
     14          1           0        2.494096   -1.522542    0.000000
     15          1           0        3.391246    0.927949    0.000000
     16          1           0       -1.686610    2.060169    0.000000
     17          1           0       -3.335828    0.214508    0.000000
 ---------------------------------------------------------------------

 SCF Done:  E(RHF) =  -345.600583562     A.U. after    2 cycles

 The electronic state is 1-A'.
 Alpha  occ. eigenvalues --  -11.24557 -11.24474 -11.24282 -11.24190 -11.24150
 Alpha  occ. eigenvalues --  -11.24067 -11.23999 -11.23903 -11.23806  -1.16976
 Alpha  occ. eigenvalues --   -1.09519  -1.02092  -0.97143  -0.94065  -0.83075
 Alpha  occ. eigenvalues --   -0.79412  -0.76124  -0.69646  -0.65120  -0.63176
 Alpha  occ. eigenvalues --   -0.60443  -0.59065  -0.58826  -0.54543  -0.51601
 Alpha  occ. eigenvalues --   -0.50110  -0.49748  -0.47794  -0.40668  -0.33313
 Alpha  occ. eigenvalues --   -0.29783
 Alpha virt. eigenvalues --    0.03485   0.03784   0.04035   0.05366   0.05462
 Alpha virt. eigenvalues --    0.05644   0.07335   0.07551   0.09488   0.09892
 Alpha virt. eigenvalues --    0.10638   0.11882   0.13178   0.13290   0.13547

 Mulliken charges:
               1
     1  C    0.385960
     2  C    0.732135
     3  C   -0.294618
     4  C   -0.585025
     5  C   -0.059761
     6  C    0.526954
     7  C    0.642370
     8  C    0.932035
     9  C    0.176695
    10  H   -0.468570
    11  H   -0.490716
    12  H    0.142730
    13  H    0.142730
    14  H   -0.462122
    15  H   -0.334159
    16  H   -0.511762
    17  H   -0.474877
 Sum of Mulliken charges =  -0.00000

 Dipole moment (field-independent basis, Debye):
    X=              0.4915    Y=              0.5412    Z=              0.0000  Tot=              0.7311

 Test job not archived.
 1\1\GINC-SE010\SP\RHF\Aug-CC-pVDZ\C9H8\OHZDE\05-Apr-2025\0\\#t hf aug-
 cc-pvdz iop(5/13=1,5/36=2,99/5=2) pseudo=read geom=check guess=(read,t
 check) scf=(maxcycle=1)\\title\\0,1\C,0,-1.855229,-1.33795,0.\C,0,-0.4
 99088,-1.653073,0.\C,0,0.428036,-0.615933,0.\C,0,0.,0.724298,0.\C,0,1.
 213119,1.619187,0.\C,0,1.890304,-0.626401,0.\C,0,2.352575,0.633211,0.\
 C,0,-1.348795,1.031328,0.\C,0,-2.27776,-0.010338,0.\H,0,-2.59025,-2.13
 1799,0.\H,0,-0.176462,-2.686234,0.\H,0,1.242418,2.275992,0.875487\H,0,
 1.242418,2.275992,-0.875487\H,0,2.494096,-1.522542,0.\H,0,3.391246,0.9

 Normal termination of Gaussian 16 at Sat Apr  5 22:18:22 2025.
