 Gaussian 16, Revision C.01,

 ----------------------------------------------------------------------
 #t hf aug-cc-pvdz symm=none int=(grid=ultrafine) guess=(read,tcheck) s
 table=(opt,rrhf)
 ----------------------------------------------------------------------
 -----
 title
 -----
 Symbolic Z-matrix:
 Charge =  0 Multiplicity = 1

 SCF Done:  E(RHF) =  -361.511245963     A.U. after   17 cycles
 Normal termination of Gaussian 16 at Sat Apr  5 22:18:12 2025.
 Gaussian 16:  ES64L-G16RevC.01  3-Jul-2019

 ----------------------------------------------------------------------
 #t hf aug-cc-pvdz iop(5/13=1,5/36=2,99/5=2) pseudo=read geom=check gue
 ss=(read,tcheck) scf=(maxcycle=1)
 ----------------------------------------------------------------------
 -----
 title
 -----
 Structure from the checkpoint file:  "1H-indole.chk"
 Charge =  0 Multiplicity = 1

                         Standard orientation:
 ---------------------------------------------------------------------
 Center     Atomic      Atomic             Coordinates (Angstroms)
 Number     Number       Type             X           Y           Z
 ---------------------------------------------------------------------
      1          6           0        1.780721   -1.390068    0.000000
      2          6           0        2.244479   -0.063173    0.000000
      3          6           0        0.427376   -1.674703    0.000000
      4          6           0        1.363098    1.004249    0.000000
      5          6           0       -1.922320   -0.531592    0.000000
      6          6           0       -2.246341    0.794059    0.000000
      7          6           0       -0.491170   -0.616487    0.000000
      8          6           0        0.000000    0.713959    0.000000
      9          7           0       -1.093515    1.551035    0.000000
     10          1           0        2.498544   -2.199111    0.000000
     11          1           0        3.309164    0.126773    0.000000
     12          1           0        0.081991   -2.700230    0.000000
     13          1           0        1.723021    2.024849    0.000000
     14          1           0       -2.621351   -1.350213    0.000000
     15          1           0       -3.211971    1.269781    0.000000
     16          1           0       -1.059845    2.553449    0.000000
 ---------------------------------------------------------------------

 SCF Done:  E(RHF) =  -361.617090966     A.U. after    2 cycles

 The electronic state is 1-A'.
 Alpha  occ. eigenvalues --  -15.66749 -11.28155 -11.27497 -11.24028 -11.23851
 Alpha  occ. eigenvalues --  -11.23736 -11.23418 -11.22941 -11.22624  -1.26756
 Alpha  occ. eigenvalues --   -1.12181  -1.04972  -0.99317  -0.97299  -0.84546
 Alpha  occ. eigenvalues --   -0.80858  -0.79186  -0.73318  -0.66523  -0.65390
 Alpha  occ. eigenvalues --   -0.60723  -0.60152  -0.58476  -0.58196  -0.55463
 Alpha  occ. eigenvalues --   -0.51307  -0.48654  -0.46808  -0.38853  -0.30386
 Alpha  occ. eigenvalues --   -0.28711
 Alpha virt. eigenvalues --    0.02882   0.03600   0.03984   0.05400   0.05518
 Alpha virt. eigenvalues --    0.07572   0.07676   0.08668   0.11391   0.11543
 Alpha virt. eigenvalues --    0.12415   0.13097   0.13145   0.13275   0.13621

 Mulliken charges:
               1
     1  C    0.584607
     2  C    0.362199
     3  C    0.828446
     4  C    1.050578
     5  C    0.525782
     6  C    0.825777
     7  C   -0.190483
     8  C   -0.664688
     9  N   -0.504805
    10  H   -0.483975
    11  H   -0.459817
    12  H   -0.471868
    13  H   -0.545798
    14  H   -0.407672
    15  H   -0.337228
    16  H   -0.111055
 Sum of Mulliken charges =  -0.00000

 Dipole moment (field-independent basis, Debye):
    X=             -0.8890    Y=              1.9481    Z=              0.0000  Tot=              2.1413

 Test job not archived.
 1\1\GINC-SE014\SP\RHF\Aug-CC-pVDZ\C8H7N1\OHZDE\05-Apr-2025\0\\#t hf au
 g-cc-pvdz iop(5/13=1,5/36=2,99/5=2) pseudo=read geom=check guess=(read
 ,tcheck) scf=(maxcycle=1)\\title\\0,1\C,0,1.780721,-1.390068,0.\C,0,2.
 244479,-0.063173,0.\C,0,0.427376,-1.674703,0.\C,0,1.363098,1.004249,0.
 \C,0,-1.92232,-0.531592,0.\C,0,-2.246341,0.794059,0.\C,0,-0.49117,-0.6
 16487,0.\C,0,0.,0.713959,0.\N,0,-1.093515,1.551035,0.\H,0,2.498544,-2.
 199111,0.\H,0,3.309164,0.126774,0.\H,0,0.081991,-2.70023,0.\H,0,1.7230
 21,2.024849,0.\H,0,-2.621351,-1.350213,0.\H,0,-3.211971,1.269781,0.\H,

 Normal termination of Gaussian 16 at Sat Apr  5 22:18:21 2025.
