 Gaussian 16, Revision C.01,

 ----------------------------------------------------------------------
 #t hf aug-cc-pvdz symm=none int=(grid=ultrafine) guess=(read,tcheck) s
 table=(opt,rrhf)
 ----------------------------------------------------------------------
 -----
 title
 -----
 Symbolic Z-matrix:
 Charge =  0 Multiplicity = 1

 SCF Done:  E(RHF) =  -224.848157193     A.U. after   14 cycles
 Normal termination of Gaussian 16 at Sat Apr  5 22:16:57 2025.
 Gaussian 16:  ES64L-G16RevC.01  3-Jul-2019

 ----------------------------------------------------------------------
 #t hf aug-cc-pvdz iop(5/13=1,5/36=2,99/5=2) pseudo=read geom=check gue
 ss=(read,tcheck) scf=(maxcycle=1)
 ----------------------------------------------------------------------
 -----
 title
 -----
 Structure from the checkpoint file:  "1H-imidazole.chk"
 Charge =  0 Multiplicity = 1

                         Standard orientation:
 ---------------------------------------------------------------------
 Center     Atomic      Atomic             Coordinates (Angstroms)
 Number     Number       Type             X           Y           Z
 ---------------------------------------------------------------------
      1          6           0        0.635171   -0.982628    0.000000
      2          6           0        1.116435    0.296921    0.000000
      3          6           0       -1.089077    0.282717    0.000000
      4          7           0       -0.739829   -0.979874    0.000000
      5          7           0        0.000000    1.101780    0.000000
      6          1           0        1.196253   -1.901176    0.000000
      7          1           0        2.113523    0.697918    0.000000
      8          1           0       -2.097453    0.661493    0.000000
      9          1           0       -0.008690    2.106362    0.000000
 ---------------------------------------------------------------------

 SCF Done:  E(RHF) =  -224.915054444     A.U. after    2 cycles

 The electronic state is 1-A'.
 Alpha  occ. eigenvalues --  -15.68713 -15.61051 -11.30868 -11.27235 -11.25409
 Alpha  occ. eigenvalues --   -1.31164  -1.13531  -1.00437  -0.82530  -0.79813
 Alpha  occ. eigenvalues --   -0.76068  -0.61214  -0.60550  -0.59860  -0.57455
 Alpha  occ. eigenvalues --   -0.43074  -0.39668  -0.32351
 Alpha virt. eigenvalues --    0.02527   0.03655   0.04938   0.06418   0.08315
 Alpha virt. eigenvalues --    0.10331   0.12566   0.12619   0.13340   0.13471
 Alpha virt. eigenvalues --    0.14655   0.15421   0.15904   0.17177   0.17729

 Mulliken charges:
               1
     1  C    0.501813
     2  C    0.635403
     3  C    0.652094
     4  N   -0.648029
     5  N   -0.411225
     6  H   -0.209267
     7  H   -0.253771
     8  H   -0.183244
     9  H   -0.083775
 Sum of Mulliken charges =   0.00000

 Dipole moment (field-independent basis, Debye):
    X=              1.0447    Y=              3.6941    Z=              0.0000  Tot=              3.8390

 Test job not archived.
 1\1\GINC-SE009\SP\RHF\Aug-CC-pVDZ\C3H4N2\OHZDE\05-Apr-2025\0\\#t hf au
 g-cc-pvdz iop(5/13=1,5/36=2,99/5=2) pseudo=read geom=check guess=(read
 ,tcheck) scf=(maxcycle=1)\\title\\0,1\C,0,0.635171,-0.982628,0.\C,0,1.
 116435,0.296921,0.\C,0,-1.089077,0.282717,0.\N,0,-0.739829,-0.979874,0
 .\N,0,0.,1.10178,0.\H,0,1.196253,-1.901176,0.\H,0,2.113523,0.697918,0.
 \H,0,-2.097453,0.661493,0.\H,0,-0.00869,2.106362,0.\\Version=ES64L-G16
 RevC.01\State=1-A'\HF=-224.9150544\RMSD=4.627e-03\Dipole=0.4110244,1.4
 533631,0.\Quadrupole=1.2983012,1.8365856,-3.1348868,-2.6515649,0.,0.\P

 Normal termination of Gaussian 16 at Sat Apr  5 22:17:00 2025.
