 Gaussian 16, Revision C.01,

 ----------------------------------------------------------------------
 #t hf aug-cc-pvdz symm=none int=(grid=ultrafine) guess=(read,tcheck) s
 table=(opt,rrhf)
 ----------------------------------------------------------------------
 -----
 title
 -----
 Symbolic Z-matrix:
 Charge =  0 Multiplicity = 1

 SCF Done:  E(RHF) =  -337.597268951     A.U. after   15 cycles
 Normal termination of Gaussian 16 at Sat Apr  5 22:18:14 2025.
 Gaussian 16:  ES64L-G16RevC.01  3-Jul-2019

 ----------------------------------------------------------------------
 #t hf aug-cc-pvdz iop(5/13=1,5/36=2,99/5=2) pseudo=read geom=check gue
 ss=(read,tcheck) scf=(maxcycle=1)
 ----------------------------------------------------------------------
 -----
 title
 -----
 Structure from the checkpoint file:  "1H-pyrazin-2-one.chk"
 Charge =  0 Multiplicity = 1

                         Standard orientation:
 ---------------------------------------------------------------------
 Center     Atomic      Atomic             Coordinates (Angstroms)
 Number     Number       Type             X           Y           Z
 ---------------------------------------------------------------------
      1          6           0        0.100732   -1.751447    0.000000
      2          6           0       -1.100249   -1.123375    0.000000
      3          6           0        1.230486    0.248996    0.000000
      4          6           0        0.000000    1.043061    0.000000
      5          7           0        1.273925   -1.045277    0.000000
      6          7           0       -1.140617    0.238051    0.000000
      7          8           0       -0.072478    2.260456    0.000000
      8          1           0        0.169795   -2.828181    0.000000
      9          1           0       -2.046117   -1.644386    0.000000
     10          1           0        2.160066    0.806767    0.000000
     11          1           0       -2.022892    0.729333    0.000000
 ---------------------------------------------------------------------

 SCF Done:  E(RHF) =  -337.697815560     A.U. after    2 cycles

 The electronic state is 1-A'.
 Alpha  occ. eigenvalues --  -20.54995 -15.70641 -15.67188 -11.38535 -11.32733
 Alpha  occ. eigenvalues --  -11.30565 -11.28481  -1.36740  -1.28195  -1.21386
 Alpha  occ. eigenvalues --   -1.04848  -0.92908  -0.89415  -0.77885  -0.74289
 Alpha  occ. eigenvalues --   -0.68803  -0.65138  -0.64165  -0.63371  -0.58499
 Alpha  occ. eigenvalues --   -0.52160  -0.49758  -0.47917  -0.42486  -0.33343
 Alpha virt. eigenvalues --    0.02160   0.03929   0.04595   0.05635   0.06315
 Alpha virt. eigenvalues --    0.09345   0.09401   0.10297   0.11173   0.12010
 Alpha virt. eigenvalues --    0.12847   0.13027   0.13785   0.13912   0.15479

 Mulliken charges:
               1
     1  C    0.510930
     2  C    0.867294
     3  C    0.386090
     4  C    0.524520
     5  N   -0.456211
     6  N   -0.405368
     7  O   -0.521816
     8  H   -0.279759
     9  H   -0.328784
    10  H   -0.244515
    11  H   -0.052380
 Sum of Mulliken charges =  -0.00000

 Dipole moment (field-independent basis, Debye):
    X=             -2.9768    Y=             -3.2857    Z=              0.0000  Tot=              4.4336

 Test job not archived.
 1\1\GINC-SE042\SP\RHF\Aug-CC-pVDZ\C4H4N2O1\OHZDE\05-Apr-2025\0\\#t hf
 aug-cc-pvdz iop(5/13=1,5/36=2,99/5=2) pseudo=read geom=check guess=(re
 ad,tcheck) scf=(maxcycle=1)\\title\\0,1\C,0,0.100732,-1.751447,0.\C,0,
 -1.100249,-1.123375,0.\C,0,1.230486,0.248996,0.\C,0,0.,1.043061,0.\N,0
 ,1.273925,-1.045277,0.\N,0,-1.140617,0.238051,0.\O,0,-0.072478,2.26045
 6,0.\H,0,0.169795,-2.828181,0.\H,0,-2.046117,-1.644386,0.\H,0,2.160066
 ,0.806767,0.\H,0,-2.022892,0.729333,0.\\Version=ES64L-G16RevC.01\State
 =1-A'\HF=-337.6978156\RMSD=6.062e-03\Dipole=-1.1711636,-1.2926804,0.\Q

 Normal termination of Gaussian 16 at Sat Apr  5 22:18:20 2025.
