 Gaussian 16, Revision C.01,

 ----------------------------------------------------------------------
 #t hf aug-cc-pvdz symm=none int=(grid=ultrafine) guess=(read,tcheck) s
 table=(opt,rrhf)
 ----------------------------------------------------------------------
 -----
 title
 -----
 Symbolic Z-matrix:
 Charge =  0 Multiplicity = 1

 SCF Done:  E(RHF) =  -376.658630706     A.U. after   15 cycles
 Normal termination of Gaussian 16 at Sat Apr  5 22:18:39 2025.
 Gaussian 16:  ES64L-G16RevC.01  3-Jul-2019

 ----------------------------------------------------------------------
 #t hf aug-cc-pvdz iop(5/13=1,5/36=2,99/5=2) pseudo=read geom=check gue
 ss=(read,tcheck) scf=(maxcycle=1)
 ----------------------------------------------------------------------
 -----
 title
 -----
 Structure from the checkpoint file:  "1H-pyrrole-3-carboxamide.chk"
 Charge =  0 Multiplicity = 1

                         Standard orientation:
 ---------------------------------------------------------------------
 Center     Atomic      Atomic             Coordinates (Angstroms)
 Number     Number       Type             X           Y           Z
 ---------------------------------------------------------------------
      1          6           0       -0.828503    1.164117   -0.040476
      2          6           0       -2.134122    0.751924   -0.019718
      3          6           0       -0.858343   -1.090763    0.034212
      4          6           0       -0.008337   -0.005922   -0.006066
      5          6           0        1.460971   -0.144754   -0.008282
      6          7           0       -2.135628   -0.622343    0.026759
      7          7           0        2.177223    1.021662    0.019301
      8          8           0        2.017893   -1.232462   -0.050329
      9          1           0       -0.508559    2.191256   -0.090948
     10          1           0       -3.051869    1.312081   -0.038511
     11          1           0       -0.625407   -2.139469    0.067307
     12          1           0       -2.958272   -1.197272    0.051277
     13          1           0        1.744712    1.904010    0.219798
     14          1           0        3.175101    0.946245    0.113271
 ---------------------------------------------------------------------

 SCF Done:  E(RHF) =  -376.772715458     A.U. after    2 cycles

 The electronic state is 1-A.
 Alpha  occ. eigenvalues --  -20.52054 -15.69052 -15.63939 -11.36025 -11.28556
 Alpha  occ. eigenvalues --  -11.27985 -11.24218 -11.23601  -1.33325  -1.28239
 Alpha  occ. eigenvalues --   -1.16792  -1.05800  -0.99926  -0.86979  -0.80560
 Alpha  occ. eigenvalues --   -0.76192  -0.75957  -0.70535  -0.64712  -0.60379
 Alpha  occ. eigenvalues --   -0.60334  -0.59761  -0.58752  -0.56017  -0.55233
 Alpha  occ. eigenvalues --   -0.43686  -0.41029  -0.36648  -0.31864
 Alpha virt. eigenvalues --    0.02526   0.03178   0.04098   0.05723   0.06522
 Alpha virt. eigenvalues --    0.07765   0.09043   0.10476   0.11123   0.12010
 Alpha virt. eigenvalues --    0.12768   0.13052   0.13646   0.14277   0.14401

 Mulliken charges:
               1
     1  C    0.531768
     2  C    0.721646
     3  C    0.781169
     4  C    0.097538
     5  C    0.409015
     6  N   -0.497987
     7  N   -0.150357
     8  O   -0.551976
     9  H   -0.556009
    10  H   -0.281743
    11  H   -0.401342
    12  H   -0.087590
    13  H   -0.030760
    14  H    0.016627
 Sum of Mulliken charges =  -0.00000

 Dipole moment (field-independent basis, Debye):
    X=             -3.8592    Y=              2.6020    Z=              0.5879  Tot=              4.6914

 Test job not archived.
 1\1\GINC-SE194\SP\RHF\Aug-CC-pVDZ\C5H6N2O1\OHZDE\05-Apr-2025\0\\#t hf
 aug-cc-pvdz iop(5/13=1,5/36=2,99/5=2) pseudo=read geom=check guess=(re
 ad,tcheck) scf=(maxcycle=1)\\title\\0,1\C,0,-0.828503,1.164117,-0.0404
 76\C,0,-2.134122,0.751924,-0.019718\C,0,-0.858343,-1.090763,0.034212\C
 ,0,-0.008337,-0.005922,-0.006066\C,0,1.460971,-0.144754,-0.008282\N,0,
 -2.135628,-0.622343,0.026759\N,0,2.177223,1.021662,0.019301\O,0,2.0178
 93,-1.232462,-0.050329\H,0,-0.508559,2.191256,-0.090948\H,0,-3.051869,
 1.312081,-0.038511\H,0,-0.625407,-2.139469,0.067307\H,0,-2.958272,-1.1

 Normal termination of Gaussian 16 at Sat Apr  5 22:19:08 2025.
