 Gaussian 16, Revision C.01,

 ----------------------------------------------------------------------
 #t hf aug-cc-pvdz symm=none int=(grid=ultrafine) guess=(read,tcheck) s
 table=(opt,rrhf)
 ----------------------------------------------------------------------
 -----
 title
 -----
 Symbolic Z-matrix:
 Charge =  0 Multiplicity = 1

 SCF Done:  E(RHF) =  -337.602888055     A.U. after   15 cycles
 Normal termination of Gaussian 16 at Sat Apr  5 22:18:13 2025.
 Gaussian 16:  ES64L-G16RevC.01  3-Jul-2019

 ----------------------------------------------------------------------
 #t hf aug-cc-pvdz iop(5/13=1,5/36=2,99/5=2) pseudo=read geom=check gue
 ss=(read,tcheck) scf=(maxcycle=1)
 ----------------------------------------------------------------------
 -----
 title
 -----
 Structure from the checkpoint file:  "1H-pyrimidin-4-one.chk"
 Charge =  0 Multiplicity = 1

                         Standard orientation:
 ---------------------------------------------------------------------
 Center     Atomic      Atomic             Coordinates (Angstroms)
 Number     Number       Type             X           Y           Z
 ---------------------------------------------------------------------
      1          6           0        1.223728    0.268149    0.000000
      2          6           0        1.156706   -1.073788   -0.000000
      3          6           0       -1.203480   -0.921610   -0.000000
      4          6           0       -0.000000    1.076085    0.000000
      5          7           0       -1.223091    0.359317    0.000000
      6          7           0       -0.072567   -1.688836   -0.000000
      7          8           0        0.011892    2.291393    0.000000
      8          1           0        2.174691    0.778052    0.000000
      9          1           0        2.019381   -1.723884   -0.000000
     10          1           0       -2.135162   -1.480194   -0.000000
     11          1           0       -0.146168   -2.691497   -0.000000
 ---------------------------------------------------------------------

 SCF Done:  E(RHF) =  -337.703991687     A.U. after    2 cycles

 The electronic state is 1-A'.
 Alpha  occ. eigenvalues --  -20.52849 -15.71371 -15.63012 -11.36751 -11.35727
 Alpha  occ. eigenvalues --  -11.33338 -11.25773  -1.34123  -1.30656  -1.17897
 Alpha  occ. eigenvalues --   -1.07648  -0.91083  -0.88014  -0.80068  -0.73673
 Alpha  occ. eigenvalues --   -0.69361  -0.65047  -0.62697  -0.61880  -0.59406
 Alpha  occ. eigenvalues --   -0.53773  -0.46577  -0.43672  -0.41208  -0.35647
 Alpha virt. eigenvalues --    0.01126   0.02860   0.04660   0.06331   0.06541
 Alpha virt. eigenvalues --    0.08961   0.09511   0.10736   0.11317   0.11625
 Alpha virt. eigenvalues --    0.12967   0.13124   0.13784   0.14076   0.14539

 Mulliken charges:
               1
     1  C    0.605080
     2  C    0.729282
     3  C    0.733508
     4  C    0.382369
     5  N   -0.502374
     6  N   -0.421887
     7  O   -0.501820
     8  H   -0.383773
     9  H   -0.339545
    10  H   -0.255341
    11  H   -0.045499
 Sum of Mulliken charges =  -0.00000

 Dipole moment (field-independent basis, Debye):
    X=              1.6479    Y=             -8.5842    Z=             -0.0000  Tot=              8.7409

 Test job not archived.
 1\1\GINC-SE185\SP\RHF\Aug-CC-pVDZ\C4H4N2O1\OHZDE\05-Apr-2025\0\\#t hf
 aug-cc-pvdz iop(5/13=1,5/36=2,99/5=2) pseudo=read geom=check guess=(re
 ad,tcheck) scf=(maxcycle=1)\\title\\0,1\C,0,1.223728,0.268149,0.\C,0,1
 .156706,-1.073788,0.\C,0,-1.20348,-0.92161,0.\C,0,0.,1.076085,0.\N,0,-
 1.223091,0.359317,0.\N,0,-0.072567,-1.688836,0.\O,0,0.011892,2.291393,
 0.\H,0,2.174691,0.778052,0.\H,0,2.019381,-1.723884,0.\H,0,-2.135162,-1
 .480194,0.\H,0,-0.146168,-2.691497,0.\\Version=ES64L-G16RevC.01\State=
 1-A'\HF=-337.7039917\RMSD=5.613e-03\Dipole=0.6483188,-3.3772813,0.\Qua

 Normal termination of Gaussian 16 at Sat Apr  5 22:18:20 2025.
