 Gaussian 16, Revision C.01,

 ----------------------------------------------------------------------
 #t hf aug-cc-pvdz symm=none int=(grid=ultrafine) guess=(read,tcheck) s
 table=(opt,rrhf)
 ----------------------------------------------------------------------
 -----
 title
 -----
 Symbolic Z-matrix:
 Charge =  0 Multiplicity = 1

 SCF Done:  E(RHF) =  -318.873176107     A.U. after   15 cycles
 Normal termination of Gaussian 16 at Sat Apr  5 22:18:32 2025.
 Gaussian 16:  ES64L-G16RevC.01  3-Jul-2019

 ----------------------------------------------------------------------
 #t hf aug-cc-pvdz iop(5/13=1,5/36=2,99/5=2) pseudo=read geom=check gue
 ss=(read,tcheck) scf=(maxcycle=1)
 ----------------------------------------------------------------------
 -----
 title
 -----
 Structure from the checkpoint file:  "1H-pyrrol-3-ylhydrazine.chk"
 Charge =  0 Multiplicity = 1

                         Standard orientation:
 ---------------------------------------------------------------------
 Center     Atomic      Atomic             Coordinates (Angstroms)
 Number     Number       Type             X           Y           Z
 ---------------------------------------------------------------------
      1          6           0       -0.375827    1.083218   -0.143727
      2          6           0       -1.730720    0.914545    0.013207
      3          6           0       -0.800510   -1.127958    0.050865
      4          6           0        0.213730   -0.211135   -0.126043
      5          7           0       -1.984695   -0.422966    0.119352
      6          7           0        2.473612    0.408232    0.261342
      7          7           0        1.571203   -0.508797   -0.347613
      8          1           0        0.147064    2.015954   -0.252645
      9          1           0       -2.523634    1.639838    0.060015
     10          1           0       -0.779966   -2.201879    0.108656
     11          1           0       -2.889932   -0.832811    0.250080
     12          1           0        3.335494    0.406023   -0.266084
     13          1           0        2.672619    0.160352    1.227596
     14          1           0        1.777472   -1.474780   -0.124995
 ---------------------------------------------------------------------

 SCF Done:  E(RHF) =  -318.968112136     A.U. after    2 cycles

 The electronic state is 1-A.
 Alpha  occ. eigenvalues --  -15.66005 -15.64339 -15.63761 -11.25964 -11.25273
 Alpha  occ. eigenvalues --  -11.24621 -11.20720  -1.25903  -1.23044  -1.05523
 Alpha  occ. eigenvalues --   -0.99204  -0.94099  -0.79414  -0.74927  -0.72853
 Alpha  occ. eigenvalues --   -0.67782  -0.66543  -0.60018  -0.57963  -0.56553
 Alpha  occ. eigenvalues --   -0.55821  -0.52505  -0.44349  -0.41005  -0.31639
 Alpha  occ. eigenvalues --   -0.27686
 Alpha virt. eigenvalues --    0.03118   0.03504   0.04082   0.05550   0.06067
 Alpha virt. eigenvalues --    0.06161   0.08605   0.10050   0.11987   0.12725
 Alpha virt. eigenvalues --    0.14298   0.14589   0.14846   0.15377   0.16234

 Mulliken charges:
               1
     1  C    0.751422
     2  C    0.355756
     3  C    1.080743
     4  C    0.025345
     5  N   -0.427667
     6  N   -0.163665
     7  N   -0.510641
     8  H   -0.433068
     9  H   -0.289890
    10  H   -0.366692
    11  H   -0.107298
    12  H    0.074917
    13  H    0.044798
    14  H   -0.034060
 Sum of Mulliken charges =   0.00000

 Dipole moment (field-independent basis, Debye):
    X=             -0.4333    Y=             -1.8872    Z=              1.2509  Tot=              2.3052

 Test job not archived.
 1\1\GINC-SE188\SP\RHF\Aug-CC-pVDZ\C4H7N3\OHZDE\05-Apr-2025\0\\#t hf au
 g-cc-pvdz iop(5/13=1,5/36=2,99/5=2) pseudo=read geom=check guess=(read
 ,tcheck) scf=(maxcycle=1)\\title\\0,1\C,0,-0.375827,1.083218,-0.143727
 \C,0,-1.73072,0.914545,0.013207\C,0,-0.80051,-1.127958,0.050865\C,0,0.
 21373,-0.211135,-0.126043\N,0,-1.984695,-0.422966,0.119352\N,0,2.47361
 2,0.408232,0.261342\N,0,1.571203,-0.508797,-0.347613\H,0,0.147064,2.01
 5954,-0.252645\H,0,-2.523634,1.639838,0.060015\H,0,-0.779966,-2.201879
 ,0.108656\H,0,-2.889932,-0.832811,0.25008\H,0,3.335494,0.406023,-0.266

 Normal termination of Gaussian 16 at Sat Apr  5 22:19:31 2025.
