 Gaussian 16, Revision C.01,

 ----------------------------------------------------------------------
 #t hf aug-cc-pvdz symm=none int=(grid=ultrafine) guess=(read,tcheck) s
 table=(opt,rrhf)
 ----------------------------------------------------------------------
 -----
 title
 -----
 Symbolic Z-matrix:
 Charge =  0 Multiplicity = 1

 SCF Done:  E(RHF) =  -697.130969427     A.U. after   15 cycles
 Normal termination of Gaussian 16 at Sat Apr  5 22:18:14 2025.
 Gaussian 16:  ES64L-G16RevC.01  3-Jul-2019

 ----------------------------------------------------------------------
 #t hf aug-cc-pvdz iop(5/13=1,5/36=2,99/5=2) pseudo=read geom=check gue
 ss=(read,tcheck) scf=(maxcycle=1)
 ----------------------------------------------------------------------
 -----
 title
 -----
 Structure from the checkpoint file:  "1H-pyrazole-1-OS-thioperoxol.chk"
 Charge =  0 Multiplicity = 1

                         Standard orientation:
 ---------------------------------------------------------------------
 Center     Atomic      Atomic             Coordinates (Angstroms)
 Number     Number       Type             X           Y           Z
 ---------------------------------------------------------------------
      1         16           0        2.234917   -0.046861   -0.380987
      2          8           0        1.029141    0.354103    0.770290
      3          7           0       -0.255522    0.153491    0.329665
      4          7           0       -0.759156   -1.072879    0.283649
      5          6           0       -1.110151    1.132332   -0.046094
      6          6           0       -2.009920   -0.883942   -0.135575
      7          6           0       -2.285470    0.479908   -0.353541
      8          1           0        2.229010   -1.378082   -0.153039
      9          1           0       -0.817337    2.166144   -0.049950
     10          1           0       -2.661697   -1.731812   -0.260982
     11          1           0       -3.205769    0.926620   -0.684484
 ---------------------------------------------------------------------

 SCF Done:  E(RHF) =  -697.243292648     A.U. after    2 cycles

 The electronic state is 1-A.
 Alpha  occ. eigenvalues --  -93.61160 -20.67818 -15.76999 -15.66524 -11.29969
 Alpha  occ. eigenvalues --  -11.27464 -11.24255  -8.90279  -6.24501  -6.24138
 Alpha  occ. eigenvalues --   -6.23761  -1.45089  -1.30874  -1.08275  -1.04622
 Alpha  occ. eigenvalues --   -0.95355  -0.83449  -0.79764  -0.75216  -0.70143
 Alpha  occ. eigenvalues --   -0.64962  -0.64075  -0.59354  -0.58182  -0.56434
 Alpha  occ. eigenvalues --   -0.50173  -0.47118  -0.39894  -0.36225  -0.35727
 Alpha virt. eigenvalues --    0.03381   0.03988   0.04132   0.05702   0.07113
 Alpha virt. eigenvalues --    0.08818   0.10111   0.11355   0.12117   0.12465
 Alpha virt. eigenvalues --    0.13294   0.13540   0.14251   0.15276   0.15612

 Mulliken charges:
               1
     1  S    0.440411
     2  O   -0.969092
     3  N    0.259625
     4  N   -0.385747
     5  C    0.443561
     6  C    0.501537
     7  C    0.484812
     8  H    0.101047
     9  H   -0.316550
    10  H   -0.263912
    11  H   -0.295690
 Sum of Mulliken charges =  -0.00000

 Dipole moment (field-independent basis, Debye):
    X=             -0.2451    Y=              0.7894    Z=             -1.3213  Tot=              1.5585

 Test job not archived.
 1\1\GINC-SE145\SP\RHF\Aug-CC-pVDZ\C3H4N2O1S1\OHZDE\05-Apr-2025\0\\#t h
 f aug-cc-pvdz iop(5/13=1,5/36=2,99/5=2) pseudo=read geom=check guess=(
 read,tcheck) scf=(maxcycle=1)\\title\\0,1\S,0,2.234917,-0.046861,-0.38
 0987\O,0,1.029141,0.354103,0.77029\N,0,-0.255522,0.153491,0.329665\N,0
 ,-0.759156,-1.072879,0.283649\C,0,-1.110151,1.132332,-0.046094\C,0,-2.
 00992,-0.883942,-0.135575\C,0,-2.28547,0.479908,-0.353541\H,0,2.22901,
 -1.378082,-0.153039\H,0,-0.817337,2.166144,-0.04995\H,0,-2.661697,-1.7
 31812,-0.260982\H,0,-3.205769,0.92662,-0.684484\\Version=ES64L-G16RevC

 Normal termination of Gaussian 16 at Sat Apr  5 22:18:20 2025.
