 Gaussian 16, Revision C.01,

 ----------------------------------------------------------------------
 #t hf aug-cc-pvdz symm=none int=(grid=ultrafine) guess=(read,tcheck) s
 table=(opt,rrhf)
 ----------------------------------------------------------------------
 -----
 title
 -----
 Symbolic Z-matrix:
 Charge =  0 Multiplicity = 1

 SCF Done:  E(RHF) =  -224.826829129     A.U. after   15 cycles
 Normal termination of Gaussian 16 at Sat Apr  5 22:18:14 2025.
 Gaussian 16:  ES64L-G16RevC.01  3-Jul-2019

 ----------------------------------------------------------------------
 #t hf aug-cc-pvdz iop(5/13=1,5/36=2,99/5=2) pseudo=read geom=check gue
 ss=(read,tcheck) scf=(maxcycle=1)
 ----------------------------------------------------------------------
 -----
 title
 -----
 Structure from the checkpoint file:  "1H-pyrazole.chk"
 Charge =  0 Multiplicity = 1

                         Standard orientation:
 ---------------------------------------------------------------------
 Center     Atomic      Atomic             Coordinates (Angstroms)
 Number     Number       Type             X           Y           Z
 ---------------------------------------------------------------------
      1          6           0        0.662598   -0.995432    0.000000
      2          6           0       -0.743268   -0.890370    0.000000
      3          6           0        1.107645    0.307032    0.000000
      4          7           0       -1.142688    0.375589    0.000000
      5          7           0        0.000000    1.085189    0.000000
      6          1           0        1.262650   -1.887482    0.000000
      7          1           0       -1.475618   -1.680369    0.000000
      8          1           0        2.098322    0.726839    0.000000
      9          1           0       -0.048386    2.088195    0.000000
 ---------------------------------------------------------------------

 SCF Done:  E(RHF) =  -224.892830908     A.U. after    2 cycles

 The electronic state is 1-A'.
 Alpha  occ. eigenvalues --  -15.70493 -15.65299 -11.28955 -11.26365 -11.23228
 Alpha  occ. eigenvalues --   -1.33804  -1.07823  -1.04320  -0.82334  -0.80116
 Alpha  occ. eigenvalues --   -0.74355  -0.61415  -0.60625  -0.59485  -0.56909
 Alpha  occ. eigenvalues --   -0.45415  -0.36450  -0.34682
 Alpha virt. eigenvalues --    0.02892   0.03879   0.04719   0.06431   0.09948
 Alpha virt. eigenvalues --    0.10278   0.11997   0.12963   0.13526   0.13858
 Alpha virt. eigenvalues --    0.14038   0.15713   0.16562   0.17600   0.17804

 Mulliken charges:
               1
     1  C    0.502808
     2  C    0.482305
     3  C    0.551387
     4  N   -0.496960
     5  N   -0.153524
     6  H   -0.302070
     7  H   -0.251322
     8  H   -0.305772
     9  H   -0.026852
 Sum of Mulliken charges =  -0.00000

 Dipole moment (field-independent basis, Debye):
    X=              2.2390    Y=              0.8156    Z=              0.0000  Tot=              2.3830

 Test job not archived.
 1\1\GINC-SE180\SP\RHF\Aug-CC-pVDZ\C3H4N2\OHZDE\05-Apr-2025\0\\#t hf au
 g-cc-pvdz iop(5/13=1,5/36=2,99/5=2) pseudo=read geom=check guess=(read
 ,tcheck) scf=(maxcycle=1)\\title\\0,1\C,0,0.662598,-0.995432,0.\C,0,-0
 .743268,-0.89037,0.\C,0,1.107645,0.307032,0.\N,0,-1.142688,0.375589,0.
 \N,0,0.,1.085189,0.\H,0,1.26265,-1.887482,0.\H,0,-1.475618,-1.680369,0
 .\H,0,2.098322,0.726839,0.\H,0,-0.048386,2.088195,0.\\Version=ES64L-G1
 6RevC.01\State=1-A'\HF=-224.8928309\RMSD=6.552e-03\Dipole=0.8809069,0.
 3208777,0.\Quadrupole=-1.2192684,4.5055748,-3.2863065,2.1448955,0.,0.\

 Normal termination of Gaussian 16 at Sat Apr  5 22:18:17 2025.
