 Gaussian 16, Revision C.01,

 ----------------------------------------------------------------------
 #t hf aug-cc-pvdz symm=none int=(grid=ultrafine) guess=(read,tcheck) s
 table=(opt,rrhf)
 ----------------------------------------------------------------------
 -----
 title
 -----
 Symbolic Z-matrix:
 Charge =  0 Multiplicity = 1

 SCF Done:  E(RHF) =  -256.795226427     A.U. after   15 cycles
 Normal termination of Gaussian 16 at Sat Apr  5 22:18:14 2025.
 Gaussian 16:  ES64L-G16RevC.01  3-Jul-2019

 ----------------------------------------------------------------------
 #t hf aug-cc-pvdz iop(5/13=1,5/36=2,99/5=2) pseudo=read geom=check gue
 ss=(read,tcheck) scf=(maxcycle=1)
 ----------------------------------------------------------------------
 -----
 title
 -----
 Structure from the checkpoint file:  "1H-tetrazole.chk"
 Charge =  0 Multiplicity = 1

                         Standard orientation:
 ---------------------------------------------------------------------
 Center     Atomic      Atomic             Coordinates (Angstroms)
 Number     Number       Type             X           Y           Z
 ---------------------------------------------------------------------
      1          6           0        1.064770    0.234648    0.000000
      2          7           0        0.637569   -1.003032    0.000000
      3          7           0       -0.722757   -0.922964    0.000000
      4          7           0       -1.117376    0.298568    0.000000
      5          7           0        0.000000    1.052457    0.000000
      6          1           0        2.089591    0.560077    0.000000
      7          1           0       -0.060257    2.056832    0.000000
 ---------------------------------------------------------------------

 SCF Done:  E(RHF) =  -256.866765018     A.U. after    2 cycles

 The electronic state is 1-A'.
 Alpha  occ. eigenvalues --  -15.74773 -15.73194 -15.71605 -15.67176 -11.35208
 Alpha  occ. eigenvalues --   -1.45383  -1.21767  -1.17033  -0.89846  -0.87852
 Alpha  occ. eigenvalues --   -0.79851  -0.67717  -0.67568  -0.56600  -0.47370
 Alpha  occ. eigenvalues --   -0.46411  -0.44999  -0.41710
 Alpha virt. eigenvalues --    0.01664   0.03858   0.07535   0.08898   0.11483
 Alpha virt. eigenvalues --    0.12430   0.13076   0.13993   0.15996   0.16522
 Alpha virt. eigenvalues --    0.16629   0.18374   0.19986   0.20190   0.21697

 Mulliken charges:
               1
     1  C    0.995930
     2  N   -0.345429
     3  N   -0.212780
     4  N   -0.133061
     5  N   -0.114095
     6  H   -0.184795
     7  H   -0.005770
 Sum of Mulliken charges =  -0.00000

 Dipole moment (field-independent basis, Debye):
    X=              2.5854    Y=              4.8788    Z=              0.0000  Tot=              5.5215

 Test job not archived.
 1\1\GINC-SE199\SP\RHF\Aug-CC-pVDZ\C1H2N4\OHZDE\05-Apr-2025\0\\#t hf au
 g-cc-pvdz iop(5/13=1,5/36=2,99/5=2) pseudo=read geom=check guess=(read
 ,tcheck) scf=(maxcycle=1)\\title\\0,1\C,0,1.06477,0.234648,0.\N,0,0.63
 7569,-1.003032,0.\N,0,-0.722757,-0.922964,0.\N,0,-1.117376,0.298568,0.
 \N,0,0.,1.052457,0.\H,0,2.089591,0.560077,0.\H,0,-0.060257,2.056832,0.
 \\Version=ES64L-G16RevC.01\State=1-A'\HF=-256.866765\RMSD=3.297e-03\Di
 pole=1.0171805,1.9194766,0.\Quadrupole=-0.5161551,1.1411065,-0.6249514
 ,1.560851,0.,0.\PG=CS [SG(C1H2N4)]\\@

 Normal termination of Gaussian 16 at Sat Apr  5 22:18:18 2025.
