 Gaussian 16, Revision C.01,

 ----------------------------------------------------------------------
 #t hf aug-cc-pvdz symm=none int=(grid=ultrafine) guess=(read,tcheck) s
 table=(opt,rrhf)
 ----------------------------------------------------------------------
 -----
 title
 -----
 Symbolic Z-matrix:
 Charge =  0 Multiplicity = 1

 SCF Done:  E(RHF) =  -311.846263778     A.U. after   16 cycles
 Normal termination of Gaussian 16 at Sat Apr  5 22:18:14 2025.
 Gaussian 16:  ES64L-G16RevC.01  3-Jul-2019

 ----------------------------------------------------------------------
 #t hf aug-cc-pvdz iop(5/13=1,5/36=2,99/5=2) pseudo=read geom=check gue
 ss=(read,tcheck) scf=(maxcycle=1)
 ----------------------------------------------------------------------
 -----
 title
 -----
 Structure from the checkpoint file:  "1H-tetrazol-5-amine.chk"
 Charge =  0 Multiplicity = 1

                         Standard orientation:
 ---------------------------------------------------------------------
 Center     Atomic      Atomic             Coordinates (Angstroms)
 Number     Number       Type             X           Y           Z
 ---------------------------------------------------------------------
      1          6           0       -0.621011   -0.043215   -0.003296
      2          1           0        0.001740    2.009175   -0.056030
      3          7           0        0.197961    1.024633   -0.005588
      4          7           0        1.486430    0.574685    0.004451
      5          7           0        1.411372   -0.699900    0.008559
      6          7           0        0.119936   -1.131006    0.009304
      7          1           0       -2.446118    0.747717    0.423321
      8          1           0       -2.419586   -0.896323    0.073092
      9          7           0       -1.988552    0.002833   -0.076813
 ---------------------------------------------------------------------

 SCF Done:  E(RHF) =  -311.934197833     A.U. after    2 cycles

 The electronic state is 1-A.
 Alpha  occ. eigenvalues --  -15.72847 -15.71648 -15.70965 -15.67868 -15.64871
 Alpha  occ. eigenvalues --  -11.38500  -1.44166  -1.24961  -1.20256  -1.12044
 Alpha  occ. eigenvalues --   -0.88516  -0.86875  -0.78971  -0.70824  -0.69024
 Alpha  occ. eigenvalues --   -0.66985  -0.56294  -0.52275  -0.45908  -0.45115
 Alpha  occ. eigenvalues --   -0.44380  -0.36772
 Alpha virt. eigenvalues --    0.01413   0.03226   0.05681   0.08056   0.10554
 Alpha virt. eigenvalues --    0.11382   0.12703   0.14121   0.14721   0.15948
 Alpha virt. eigenvalues --    0.15985   0.17134   0.18048   0.18713   0.19199

 Mulliken charges:
               1
     1  C    1.109157
     2  H   -0.037032
     3  N   -0.093516
     4  N   -0.189968
     5  N   -0.177246
     6  N   -0.391343
     7  H   -0.007181
     8  H    0.039688
     9  N   -0.252558
 Sum of Mulliken charges =  -0.00000

 Dipole moment (field-independent basis, Debye):
    X=             -4.9917    Y=              3.7113    Z=              0.8853  Tot=              6.2829

 Test job not archived.
 1\1\GINC-SE196\SP\RHF\Aug-CC-pVDZ\C1H3N5\OHZDE\05-Apr-2025\0\\#t hf au
 g-cc-pvdz iop(5/13=1,5/36=2,99/5=2) pseudo=read geom=check guess=(read
 ,tcheck) scf=(maxcycle=1)\\title\\0,1\C,0,-0.621011,-0.043215,-0.00329
 6\H,0,0.00174,2.009175,-0.05603\N,0,0.197961,1.024633,-0.005588\N,0,1.
 48643,0.574685,0.004451\N,0,1.411372,-0.6999,0.008559\N,0,0.119936,-1.
 131006,0.009304\H,0,-2.446118,0.747717,0.423321\H,0,-2.419586,-0.89632
 3,0.073092\N,0,-1.988552,0.002833,-0.076813\\Version=ES64L-G16RevC.01\
 State=1-A\HF=-311.9341978\RMSD=3.015e-03\Dipole=-1.9638776,1.4601322,0

 Normal termination of Gaussian 16 at Sat Apr  5 22:18:17 2025.
