 Gaussian 16, Revision C.01,

 ----------------------------------------------------------------------
 #t hf aug-cc-pvdz symm=none int=(grid=ultrafine) guess=(read,tcheck) s
 table=(opt,rrhf)
 ----------------------------------------------------------------------
 -----
 title
 -----
 Symbolic Z-matrix:
 Charge =  0 Multiplicity = 1

 SCF Done:  E(RHF) =  -680.275737762     A.U. after   14 cycles
 Normal termination of Gaussian 16 at Sat Apr  5 22:20:47 2025.
 Gaussian 16:  ES64L-G16RevC.01  3-Jul-2019

 ----------------------------------------------------------------------
 #t hf aug-cc-pvdz iop(5/13=1,5/36=2,99/5=2) pseudo=read geom=check gue
 ss=(read,tcheck) scf=(maxcycle=1)
 ----------------------------------------------------------------------
 -----
 title
 -----
 Structure from the checkpoint file:  "1R-1-2-2-trifluoroethoxybenzene.chk"
 Charge =  0 Multiplicity = 1

                         Standard orientation:
 ---------------------------------------------------------------------
 Center     Atomic      Atomic             Coordinates (Angstroms)
 Number     Number       Type             X           Y           Z
 ---------------------------------------------------------------------
      1          6           0        3.765859    0.209204   -0.140016
      2          6           0        2.871247    1.268614   -0.080295
      3          6           0        3.285014   -1.096397   -0.096293
      4          6           0        1.501209    1.040638    0.021750
      5          6           0        1.922891   -1.340443   -0.004248
      6          6           0        1.037573   -0.269346    0.047854
      7          6           0       -1.259747    0.330131   -0.172330
      8          6           0       -2.570202   -0.417612   -0.421522
      9          8           0       -0.303784   -0.607745    0.144654
     10          9           0       -1.447135    1.227529    0.863041
     11          9           0       -3.502465    0.470307   -0.869796
     12          9           0       -3.033392   -0.973051    0.723910
     13          1           0        4.827889    0.396517   -0.213025
     14          1           0        3.234180    2.287210   -0.099256
     15          1           0        3.972559   -1.930152   -0.137897
     16          1           0        0.820685    1.874043    0.108414
     17          1           0        1.531930   -2.347555    0.026613
     18          1           0       -0.988788    0.912792   -1.057218
     19          1           0       -2.444324   -1.202689   -1.168659
 ---------------------------------------------------------------------

 SCF Done:  E(RHF) =  -680.500182215     A.U. after    2 cycles

 The electronic state is 1-A.
 Alpha  occ. eigenvalues --  -26.15005 -26.14758 -26.13647 -20.63610 -11.44084
 Alpha  occ. eigenvalues --  -11.41820 -11.33080 -11.26248 -11.26186 -11.25805
 Alpha  occ. eigenvalues --  -11.25533 -11.25180  -1.71454  -1.67399  -1.66822
 Alpha  occ. eigenvalues --   -1.41346  -1.16269  -1.08387  -1.03178  -1.01623
 Alpha  occ. eigenvalues --   -0.94655  -0.86406  -0.86002  -0.84061  -0.82372
 Alpha  occ. eigenvalues --   -0.82093  -0.78797  -0.77294  -0.74502  -0.73757
 Alpha  occ. eigenvalues --   -0.71481  -0.70741  -0.68886  -0.67661  -0.64990
 Alpha  occ. eigenvalues --   -0.63253  -0.61140  -0.60127  -0.59099  -0.54857
 Alpha  occ. eigenvalues --   -0.53205  -0.51337  -0.50797  -0.35921  -0.34343
 Alpha virt. eigenvalues --    0.03006   0.03606   0.03869   0.05182   0.05468
 Alpha virt. eigenvalues --    0.06780   0.06998   0.08887   0.09578   0.10053
 Alpha virt. eigenvalues --    0.10663   0.11206   0.11821   0.12558   0.13072

 Mulliken charges:
               1
     1  C    0.541939
     2  C    0.794643
     3  C    0.687908
     4  C    0.001845
     5  C    0.555130
     6  C    0.351760
     7  C    0.597352
     8  C    1.184040
     9  O   -0.720505
    10  F   -0.397123
    11  F   -0.362371
    12  F   -0.363901
    13  H   -0.447719
    14  H   -0.447852
    15  H   -0.428621
    16  H   -0.624791
    17  H   -0.551740
    18  H   -0.200147
    19  H   -0.169848
 Sum of Mulliken charges =  -0.00000

 Dipole moment (field-independent basis, Debye):
    X=              3.2054    Y=             -0.6264    Z=             -2.7946  Tot=              4.2985

 Test job not archived.
 1\1\GINC-SE220\SP\RHF\Aug-CC-pVDZ\C8H7F3O1\OHZDE\05-Apr-2025\0\\#t hf
 aug-cc-pvdz iop(5/13=1,5/36=2,99/5=2) pseudo=read geom=check guess=(re
 ad,tcheck) scf=(maxcycle=1)\\title\\0,1\C,0,3.765859,0.209204,-0.14001
 6\C,0,2.871247,1.268614,-0.080295\C,0,3.285014,-1.096397,-0.096293\C,0
 ,1.501209,1.040638,0.02175\C,0,1.922891,-1.340443,-0.004248\C,0,1.0375
 73,-0.269346,0.047854\C,0,-1.259747,0.330131,-0.17233\C,0,-2.570202,-0
 .417612,-0.421522\O,0,-0.303784,-0.607745,0.144654\F,0,-1.447135,1.227
 529,0.863041\F,0,-3.502465,0.470307,-0.869796\F,0,-3.033392,-0.973051,

 Normal termination of Gaussian 16 at Sat Apr  5 22:21:03 2025.
