 Gaussian 16, Revision C.01,

 ----------------------------------------------------------------------
 #t hf aug-cc-pvdz symm=none int=(grid=ultrafine) guess=(read,tcheck) s
 table=(opt,rrhf)
 ----------------------------------------------------------------------
 -----
 title
 -----
 Symbolic Z-matrix:
 Charge =  0 Multiplicity = 1

 SCF Done:  E(RHF) =  -312.305797211     A.U. after   12 cycles
 Normal termination of Gaussian 16 at Sat Apr  5 22:20:45 2025.
 Gaussian 16:  ES64L-G16RevC.01  3-Jul-2019

 ----------------------------------------------------------------------
 #t hf aug-cc-pvdz iop(5/13=1,5/36=2,99/5=2) pseudo=read geom=check gue
 ss=(read,tcheck) scf=(maxcycle=1)
 ----------------------------------------------------------------------
 -----
 title
 -----
 Structure from the checkpoint file:  "1R-2S-1-2-dimethylcyclohexane.chk"
 Charge =  0 Multiplicity = 1

                         Standard orientation:
 ---------------------------------------------------------------------
 Center     Atomic      Atomic             Coordinates (Angstroms)
 Number     Number       Type             X           Y           Z
 ---------------------------------------------------------------------
      1          6           0       -1.970214    0.143052    0.172978
      2          6           0       -1.480744   -1.307690    0.157221
      3          6           0       -1.121757    1.024428   -0.749887
      4          6           0        0.015884   -1.401750    0.468056
      5          6           0        0.383838    0.959334   -0.431292
      6          6           0        0.859319   -0.515324   -0.460979
      7          6           0        0.725765    1.702133    0.867397
      8          6           0        2.355971   -0.676582   -0.191592
      9          1           0       -3.018288    0.190874   -0.131201
     10          1           0       -1.932318    0.529274    1.195719
     11          1           0       -2.052364   -1.909311    0.867681
     12          1           0       -1.667570   -1.737320   -0.832885
     13          1           0       -1.274482    0.696175   -1.783249
     14          1           0       -1.464303    2.061271   -0.701898
     15          1           0        0.192158   -1.114610    1.509552
     16          1           0        0.350636   -2.438687    0.380000
     17          1           0        0.910384    1.478545   -1.239286
     18          1           0        0.676087   -0.866606   -1.483879
     19          1           0        0.286020    1.232479    1.747768
     20          1           0        1.802459    1.755395    1.027304
     21          1           0        0.352228    2.726827    0.824022
     22          1           0        2.609678   -0.437246    0.842406
     23          1           0        2.671869   -1.705362   -0.374491
     24          1           0        2.949430   -0.027309   -0.838979
 ---------------------------------------------------------------------

 SCF Done:  E(RHF) =  -312.401915034     A.U. after    2 cycles

 The electronic state is 1-A.
 Alpha  occ. eigenvalues --  -11.22626 -11.22552 -11.22019 -11.21953 -11.21870
 Alpha  occ. eigenvalues --  -11.21818 -11.21602 -11.21507  -1.11184  -1.02268
 Alpha  occ. eigenvalues --   -1.01113  -0.93566  -0.89442  -0.81612  -0.79662
 Alpha  occ. eigenvalues --   -0.72199  -0.65020  -0.62299  -0.60469  -0.59409
 Alpha  occ. eigenvalues --   -0.56865  -0.55629  -0.53994  -0.52829  -0.51283
 Alpha  occ. eigenvalues --   -0.49730  -0.48167  -0.47507  -0.46297  -0.43863
 Alpha  occ. eigenvalues --   -0.42101  -0.41697
 Alpha virt. eigenvalues --    0.03523   0.04177   0.04274   0.04463   0.05925
 Alpha virt. eigenvalues --    0.06190   0.06302   0.06549   0.06572   0.08605
 Alpha virt. eigenvalues --    0.08746   0.08843   0.09087   0.09179   0.09769

 Mulliken charges:
               1
     1  C    0.263732
     2  C    0.410416
     3  C    0.606897
     4  C    0.556561
     5  C   -0.955149
     6  C   -0.861858
     7  C    0.863841
     8  C    0.862291
     9  H   -0.111071
    10  H   -0.115167
    11  H   -0.125088
    12  H   -0.097853
    13  H   -0.089836
    14  H   -0.153011
    15  H   -0.081843
    16  H   -0.158389
    17  H   -0.215427
    18  H   -0.190827
    19  H   -0.088831
    20  H   -0.087157
    21  H   -0.061949
    22  H   -0.052760
    23  H   -0.076698
    24  H   -0.040824
 Sum of Mulliken charges =  -0.00000

 Dipole moment (field-independent basis, Debye):
    X=             -0.0501    Y=             -0.0127    Z=             -0.1075  Tot=              0.1193

 Test job not archived.
 1\1\GINC-SE221\SP\RHF\Aug-CC-pVDZ\C8H16\OHZDE\05-Apr-2025\0\\#t hf aug
 -cc-pvdz iop(5/13=1,5/36=2,99/5=2) pseudo=read geom=check guess=(read,
 tcheck) scf=(maxcycle=1)\\title\\0,1\C,0,-1.970214,0.143052,0.172978\C
 ,0,-1.480744,-1.30769,0.157221\C,0,-1.121757,1.024428,-0.749887\C,0,0.
 015884,-1.40175,0.468056\C,0,0.383838,0.959334,-0.431292\C,0,0.859319,
 -0.515324,-0.460979\C,0,0.725765,1.702133,0.867397\C,0,2.355971,-0.676
 582,-0.191592\H,0,-3.018288,0.190873,-0.131201\H,0,-1.932318,0.529274,
 1.195719\H,0,-2.052364,-1.909311,0.867681\H,0,-1.66757,-1.73732,-0.832

 Normal termination of Gaussian 16 at Sat Apr  5 22:21:02 2025.
