 Gaussian 16, Revision C.01,

 ----------------------------------------------------------------------
 #t hf aug-cc-pvdz symm=none int=(grid=ultrafine) guess=(read,tcheck) s
 table=(opt,rrhf)
 ----------------------------------------------------------------------
 -----
 title
 -----
 Symbolic Z-matrix:
 Charge =  0 Multiplicity = 1

 SCF Done:  E(RHF) =  -814.516237277     A.U. after   14 cycles
 Normal termination of Gaussian 16 at Sat Apr  5 22:19:31 2025.
 Gaussian 16:  ES64L-G16RevC.01  3-Jul-2019

 ----------------------------------------------------------------------
 #t hf aug-cc-pvdz iop(5/13=1,5/36=2,99/5=2) pseudo=read geom=check gue
 ss=(read,tcheck) scf=(maxcycle=1)
 ----------------------------------------------------------------------
 -----
 title
 -----
 Structure from the checkpoint file:  "1Z-2-chloroethanimidoylmalononitrile.chk"
 Charge =  0 Multiplicity = 1

                         Standard orientation:
 ---------------------------------------------------------------------
 Center     Atomic      Atomic             Coordinates (Angstroms)
 Number     Number       Type             X           Y           Z
 ---------------------------------------------------------------------
      1         17           0       -2.745853    0.000000   -0.458741
      2          7           0       -0.811909   -0.000003    1.816306
      3          7           0        2.136126    2.181527   -0.641085
      4          7           0        2.136127   -2.181525   -0.641088
      5          6           0       -0.235309    0.000000    0.701571
      6          6           0        1.323138   -0.000000    0.550801
      7          6           0       -0.970811    0.000001   -0.614246
      8          6           0        1.796864    1.210768   -0.129504
      9          6           0        1.796865   -1.210767   -0.129506
     10          1           0       -0.172445   -0.000004    2.608644
     11          1           0        1.744862   -0.000001    1.558684
     12          1           0       -0.689901    0.880301   -1.191176
     13          1           0       -0.689901   -0.880298   -1.191179
 ---------------------------------------------------------------------

 SCF Done:  E(RHF) =  -814.636227425     A.U. after    2 cycles

 The electronic state is 1-A.
 Alpha  occ. eigenvalues -- -103.67173 -15.69129 -15.69129 -15.67526 -11.39370
 Alpha  occ. eigenvalues --  -11.37268 -11.34202 -11.33847 -11.33842 -10.70429
 Alpha  occ. eigenvalues --   -8.36161  -8.35841  -8.35837  -1.27534  -1.24420
 Alpha  occ. eigenvalues --   -1.23864  -1.18008  -1.12347  -0.99964  -0.82042
 Alpha  occ. eigenvalues --   -0.81799  -0.76661  -0.73472  -0.67143  -0.64521
 Alpha  occ. eigenvalues --   -0.59746  -0.59284  -0.57956  -0.53835  -0.52635
 Alpha  occ. eigenvalues --   -0.51070  -0.51023  -0.49188  -0.46960  -0.46387
 Alpha  occ. eigenvalues --   -0.45943
 Alpha virt. eigenvalues --    0.01723   0.04252   0.04717   0.05291   0.07813
 Alpha virt. eigenvalues --    0.08014   0.08211   0.09259   0.09403   0.10195
 Alpha virt. eigenvalues --    0.11072   0.11508   0.11977   0.12871   0.13344

 Mulliken charges:
               1
     1  Cl  -0.007458
     2  N   -0.399888
     3  N   -0.146433
     4  N   -0.146431
     5  C    0.278379
     6  C    0.942309
     7  C   -0.098374
     8  C   -0.368981
     9  C   -0.368983
    10  H    0.014487
    11  H    0.039290
    12  H    0.131041
    13  H    0.131042
 Sum of Mulliken charges =  -0.00000

 Dipole moment (field-independent basis, Debye):
    X=              1.0825    Y=             -0.0000    Z=              2.3748  Tot=              2.6099

 Test job not archived.
 1\1\GINC-SE221\SP\RHF\Aug-CC-pVDZ\C5H4Cl1N3\OHZDE\05-Apr-2025\0\\#t hf
  aug-cc-pvdz iop(5/13=1,5/36=2,99/5=2) pseudo=read geom=check guess=(r
 ead,tcheck) scf=(maxcycle=1)\\title\\0,1\Cl,0,-2.745853,0.,-0.458741\N
 ,0,-0.811909,-0.000003,1.816306\N,0,2.136126,2.181527,-0.641085\N,0,2.
 136127,-2.181525,-0.641088\C,0,-0.235309,0.,0.701571\C,0,1.323138,0.,0
 .550801\C,0,-0.970811,0.000001,-0.614246\C,0,1.796864,1.210768,-0.1295
 04\C,0,1.796865,-1.210767,-0.129506\H,0,-0.172445,-0.000004,2.608644\H
 ,0,1.744862,-0.000001,1.558684\H,0,-0.689901,0.880301,-1.191176\H,0,-0

 Normal termination of Gaussian 16 at Sat Apr  5 22:20:32 2025.
