 Gaussian 16, Revision C.01,

 ----------------------------------------------------------------------
 #t hf aug-cc-pvdz symm=none int=(grid=ultrafine) guess=(read,tcheck) s
 table=(opt,rrhf)
 ----------------------------------------------------------------------
 -----
 title
 -----
 Symbolic Z-matrix:
 Charge =  0 Multiplicity = 1

 SCF Done:  E(RHF) =  -321.610875403     A.U. after   15 cycles
 Normal termination of Gaussian 16 at Sat Apr  5 22:18:22 2025.
 Gaussian 16:  ES64L-G16RevC.01  3-Jul-2019

 ----------------------------------------------------------------------
 #t hf aug-cc-pvdz iop(5/13=1,5/36=2,99/5=2) pseudo=read geom=check gue
 ss=(read,tcheck) scf=(maxcycle=1)
 ----------------------------------------------------------------------
 -----
 title
 -----
 Structure from the checkpoint file:  "2-1H-pyridinone.chk"
 Charge =  0 Multiplicity = 1

                         Standard orientation:
 ---------------------------------------------------------------------
 Center     Atomic      Atomic             Coordinates (Angstroms)
 Number     Number       Type             X           Y           Z
 ---------------------------------------------------------------------
      1          6           0        1.261707   -1.038161   -0.000000
      2          6           0        1.243130    0.321689   -0.000000
      3          6           0        0.059615   -1.797793   -0.000000
      4          6           0       -1.119466   -1.125244    0.000000
      5          6           0       -0.000000    1.062865    0.000000
      6          7           0       -1.136850    0.234049    0.000000
      7          8           0       -0.131026    2.279065    0.000000
      8          1           0        2.211330   -1.558148   -0.000000
      9          1           0        2.150199    0.907306   -0.000000
     10          1           0        0.072270   -2.875784   -0.000000
     11          1           0       -2.082206   -1.615153    0.000000
     12          1           0       -2.015349    0.730776    0.000000
 ---------------------------------------------------------------------

 SCF Done:  E(RHF) =  -321.708347207     A.U. after    2 cycles

 The electronic state is 1-A'.
 Alpha  occ. eigenvalues --  -20.52760 -15.68972 -11.36756 -11.32393 -11.28291
 Alpha  occ. eigenvalues --  -11.25176 -11.24978  -1.34458  -1.24756  -1.10133
 Alpha  occ. eigenvalues --   -1.02753  -0.88945  -0.86442  -0.76084  -0.70365
 Alpha  occ. eigenvalues --   -0.68511  -0.64584  -0.62536  -0.61149  -0.56832
 Alpha  occ. eigenvalues --   -0.54605  -0.49912  -0.44201  -0.42755  -0.32086
 Alpha virt. eigenvalues --    0.02477   0.03328   0.04460   0.06136   0.06672
 Alpha virt. eigenvalues --    0.07057   0.08948   0.11101   0.11876   0.12401
 Alpha virt. eigenvalues --    0.12496   0.13370   0.13439   0.14166   0.14295

 Mulliken charges:
               1
     1  C   -0.197191
     2  C    0.930391
     3  C    0.743180
     4  C    0.742269
     5  C    0.342960
     6  N   -0.338512
     7  O   -0.543206
     8  H   -0.385823
     9  H   -0.444860
    10  H   -0.433554
    11  H   -0.372379
    12  H   -0.043276
 Sum of Mulliken charges =   0.00000

 Dipole moment (field-independent basis, Debye):
    X=             -1.1603    Y=             -4.9038    Z=              0.0000  Tot=              5.0392

 Test job not archived.
 1\1\GINC-SE028\SP\RHF\Aug-CC-pVDZ\C5H5N1O1\OHZDE\05-Apr-2025\0\\#t hf
 aug-cc-pvdz iop(5/13=1,5/36=2,99/5=2) pseudo=read geom=check guess=(re
 ad,tcheck) scf=(maxcycle=1)\\title\\0,1\C,0,1.261707,-1.038161,0.\C,0,
 1.24313,0.321689,0.\C,0,0.059615,-1.797793,0.\C,0,-1.119466,-1.125244,
 0.\C,0,0.,1.062865,0.\N,0,-1.13685,0.234049,0.\O,0,-0.131026,2.279065,
 0.\H,0,2.21133,-1.558148,0.\H,0,2.150199,0.907306,0.\H,0,0.07227,-2.87
 5784,0.\H,0,-2.082206,-1.615153,0.\H,0,-2.015349,0.730776,0.\\Version=
 ES64L-G16RevC.01\State=1-A'\HF=-321.7083472\RMSD=8.876e-03\Dipole=-0.4

 Normal termination of Gaussian 16 at Sat Apr  5 22:18:29 2025.
