 Gaussian 16, Revision C.01,

 ----------------------------------------------------------------------
 #t hf aug-cc-pvdz symm=none int=(grid=ultrafine) guess=(read,tcheck) s
 table=(opt,rrhf)
 ----------------------------------------------------------------------
 -----
 title
 -----
 Symbolic Z-matrix:
 Charge =  0 Multiplicity = 1

 SCF Done:  E(RHF) =  -391.437761802     A.U. after   15 cycles
 Normal termination of Gaussian 16 at Sat Apr  5 22:19:32 2025.
 Gaussian 16:  ES64L-G16RevC.01  3-Jul-2019

 ----------------------------------------------------------------------
 #t hf aug-cc-pvdz iop(5/13=1,5/36=2,99/5=2) pseudo=read geom=check gue
 ss=(read,tcheck) scf=(maxcycle=1)
 ----------------------------------------------------------------------
 -----
 title
 -----
 Structure from the checkpoint file:  "2-1H-1-2-4-triazol-3-yl-ethenone.chk"
 Charge =  0 Multiplicity = 1

                         Standard orientation:
 ---------------------------------------------------------------------
 Center     Atomic      Atomic             Coordinates (Angstroms)
 Number     Number       Type             X           Y           Z
 ---------------------------------------------------------------------
      1          8           0        3.181131   -0.527751   -0.000030
      2          7           0       -0.504861   -0.979797    0.000012
      3          7           0       -1.316186    1.134512    0.000007
      4          7           0       -1.860177   -0.974625    0.000024
      5          6           0       -0.220224    0.316198    0.000000
      6          6           0       -2.321692    0.286099    0.000022
      7          6           0        1.127446    0.850818   -0.000016
      8          6           0        2.212545    0.104559   -0.000024
      9          1           0       -2.366760   -1.842693    0.000036
     10          1           0       -3.369334    0.536264    0.000030
     11          1           0        1.267161    1.921766   -0.000023
 ---------------------------------------------------------------------

 SCF Done:  E(RHF) =  -391.553606099     A.U. after    2 cycles

 The electronic state is 1-A.
 Alpha  occ. eigenvalues --  -20.65668 -15.72392 -15.66110 -15.63045 -11.40828
 Alpha  occ. eigenvalues --  -11.34136 -11.32760 -11.26146  -1.45299  -1.38404
 Alpha  occ. eigenvalues --   -1.17507  -1.12731  -1.04848  -0.87672  -0.83993
 Alpha  occ. eigenvalues --   -0.77749  -0.76551  -0.70061  -0.67165  -0.65441
 Alpha  occ. eigenvalues --   -0.64273  -0.62017  -0.58020  -0.50708  -0.45264
 Alpha  occ. eigenvalues --   -0.44939  -0.40784  -0.32844
 Alpha virt. eigenvalues --    0.02274   0.03783   0.04398   0.07793   0.08062
 Alpha virt. eigenvalues --    0.09270   0.10915   0.11627   0.11759   0.12138
 Alpha virt. eigenvalues --    0.12420   0.12667   0.14028   0.14741   0.14837

 Mulliken charges:
               1
     1  O   -0.212409
     2  N   -0.494120
     3  N   -0.560266
     4  N   -0.151712
     5  C    0.108544
     6  C    0.821609
     7  C    1.609084
     8  C   -0.539995
     9  H    0.000358
    10  H   -0.212638
    11  H   -0.368454
 Sum of Mulliken charges =  -0.00000

 Dipole moment (field-independent basis, Debye):
    X=             -3.6349    Y=             -0.4064    Z=              0.0000  Tot=              3.6576

 Test job not archived.
 1\1\GINC-SE222\SP\RHF\Aug-CC-pVDZ\C4H3N3O1\OHZDE\05-Apr-2025\0\\#t hf
 aug-cc-pvdz iop(5/13=1,5/36=2,99/5=2) pseudo=read geom=check guess=(re
 ad,tcheck) scf=(maxcycle=1)\\title\\0,1\O,0,3.181131,-0.527751,-0.0000
 3\N,0,-0.504861,-0.979797,0.000012\N,0,-1.316186,1.134512,0.000007\N,0
 ,-1.860177,-0.974625,0.000024\C,0,-0.220224,0.316198,0.\C,0,-2.321692,
 0.286099,0.000022\C,0,1.127446,0.850818,-0.000016\C,0,2.212545,0.10455
 9,-0.000024\H,0,-2.36676,-1.842693,0.000036\H,0,-3.369334,0.536264,0.0
 0003\H,0,1.267161,1.921766,-0.000023\\Version=ES64L-G16RevC.01\State=1

 Normal termination of Gaussian 16 at Sat Apr  5 22:20:30 2025.
