 Gaussian 16, Revision C.01,

 ----------------------------------------------------------------------
 #t hf aug-cc-pvdz symm=none int=(grid=ultrafine) guess=(read,tcheck) s
 table=(opt,rrhf)
 ----------------------------------------------------------------------
 -----
 title
 -----
 Symbolic Z-matrix:
 Charge =  0 Multiplicity = 1

 SCF Done:  E(RHF) =  -416.528013953     A.U. after   15 cycles
 Normal termination of Gaussian 16 at Sat Apr  5 22:19:48 2025.
 Gaussian 16:  ES64L-G16RevC.01  3-Jul-2019

 ----------------------------------------------------------------------
 #t hf aug-cc-pvdz iop(5/13=1,5/36=2,99/5=2) pseudo=read geom=check gue
 ss=(read,tcheck) scf=(maxcycle=1)
 ----------------------------------------------------------------------
 -----
 title
 -----
 Structure from the checkpoint file:  "2-1H-pyrrol-2-yl-1H-pyrrole.chk"
 Charge =  0 Multiplicity = 1

                         Standard orientation:
 ---------------------------------------------------------------------
 Center     Atomic      Atomic             Coordinates (Angstroms)
 Number     Number       Type             X           Y           Z
 ---------------------------------------------------------------------
      1          6           0       -0.367218    2.951058    0.128332
      2          6           0        0.367218   -2.951058    0.128332
      3          6           0       -0.964817    1.668994    0.237015
      4          6           0        0.964817   -1.668994    0.237015
      5          6           0        0.964817    2.761561   -0.145704
      6          6           0       -0.964817   -2.761561   -0.145704
      7          6           0        0.021536    0.722146    0.022813
      8          6           0       -0.021536   -0.722146    0.022813
      9          7           0        1.189772    1.410224   -0.205634
     10          7           0       -1.189772   -1.410224   -0.205634
     11          1           0       -0.856131    3.902314    0.249268
     12          1           0        0.856131   -3.902314    0.249268
     13          1           0       -1.992085    1.462515    0.486567
     14          1           0        1.992085   -1.462515    0.486567
     15          1           0        1.761222    3.466788   -0.303118
     16          1           0       -1.761222   -3.466788   -0.303118
     17          1           0        2.062056    0.976796   -0.448014
     18          1           0       -2.062056   -0.976796   -0.448014
 ---------------------------------------------------------------------

 SCF Done:  E(RHF) =  -416.650692528     A.U. after    2 cycles

 The electronic state is 1-A.
 Alpha  occ. eigenvalues --  -15.67143 -15.67142 -11.27785 -11.27706 -11.26653
 Alpha  occ. eigenvalues --  -11.26652 -11.22454 -11.22451 -11.22314 -11.22313
 Alpha  occ. eigenvalues --   -1.27577  -1.25821  -1.04332  -1.03201  -1.02855
 Alpha  occ. eigenvalues --   -0.94334  -0.81320  -0.79725  -0.78143  -0.77799
 Alpha  occ. eigenvalues --   -0.75475  -0.66609  -0.60996  -0.59757  -0.59139
 Alpha  occ. eigenvalues --   -0.57740  -0.57341  -0.55608  -0.55368  -0.54647
 Alpha  occ. eigenvalues --   -0.52535  -0.35480  -0.35479  -0.34865  -0.26016
 Alpha virt. eigenvalues --    0.03182   0.03276   0.03741   0.05071   0.05241
 Alpha virt. eigenvalues --    0.06693   0.06914   0.07492   0.10135   0.11004
 Alpha virt. eigenvalues --    0.11188   0.11887   0.12315   0.12954   0.13597

 Mulliken charges:
               1
     1  C    0.441328
     2  C    0.441328
     3  C    0.386765
     4  C    0.386765
     5  C    0.625704
     6  C    0.625704
     7  C    0.194177
     8  C    0.194177
     9  N   -0.364321
    10  N   -0.364321
    11  H   -0.341577
    12  H   -0.341577
    13  H   -0.479300
    14  H   -0.479300
    15  H   -0.346519
    16  H   -0.346519
    17  H   -0.116257
    18  H   -0.116257
 Sum of Mulliken charges =  -0.00000

 Dipole moment (field-independent basis, Debye):
    X=             -0.0000    Y=              0.0000    Z=             -0.7152  Tot=              0.7152

 Test job not archived.
 1\1\GINC-SE104\SP\RHF\Aug-CC-pVDZ\C8H8N2\OHZDE\05-Apr-2025\0\\#t hf au
 g-cc-pvdz iop(5/13=1,5/36=2,99/5=2) pseudo=read geom=check guess=(read
 ,tcheck) scf=(maxcycle=1)\\title\\0,1\C,0,-0.367218,2.951058,0.128332\
 C,0,0.367218,-2.951058,0.128332\C,0,-0.964817,1.668994,0.237015\C,0,0.
 964817,-1.668994,0.237015\C,0,0.964817,2.761561,-0.145704\C,0,-0.96481
 7,-2.761561,-0.145704\C,0,0.021536,0.722146,0.022813\C,0,-0.021536,-0.
 722146,0.022813\N,0,1.189772,1.410224,-0.205634\N,0,-1.189772,-1.41022
 4,-0.205634\H,0,-0.856131,3.902314,0.249268\H,0,0.856131,-3.902314,0.2

 Normal termination of Gaussian 16 at Sat Apr  5 22:20:32 2025.
