 Gaussian 16, Revision C.01,

 ----------------------------------------------------------------------
 #t hf aug-cc-pvdz symm=none int=(grid=ultrafine) guess=(read,tcheck) s
 table=(opt,rrhf)
 ----------------------------------------------------------------------
 -----
 title
 -----
 Symbolic Z-matrix:
 Charge =  0 Multiplicity = 1

 SCF Done:  E(RHF) =  -456.162592395     A.U. after   15 cycles
 Normal termination of Gaussian 16 at Sat Apr  5 22:19:36 2025.
 Gaussian 16:  ES64L-G16RevC.01  3-Jul-2019

 ----------------------------------------------------------------------
 #t hf aug-cc-pvdz iop(5/13=1,5/36=2,99/5=2) pseudo=read geom=check gue
 ss=(read,tcheck) scf=(maxcycle=1)
 ----------------------------------------------------------------------
 -----
 title
 -----
 Structure from the checkpoint file:  "2-2--bifuran.chk"
 Charge =  0 Multiplicity = 1

                         Standard orientation:
 ---------------------------------------------------------------------
 Center     Atomic      Atomic             Coordinates (Angstroms)
 Number     Number       Type             X           Y           Z
 ---------------------------------------------------------------------
      1          6           0       -0.340935    2.925198    0.000000
      2          6           0        0.340935   -2.925198    0.000000
      3          6           0       -0.990750    1.654854    0.000000
      4          6           0        0.990750   -1.654854    0.000000
      5          6           0        0.990750    2.673861    0.000000
      6          6           0       -0.990750   -2.673861    0.000000
      7          6           0        0.001025    0.717171    0.000000
      8          6           0       -0.001025   -0.717171    0.000000
      9          8           0        1.221122    1.331017    0.000000
     10          8           0       -1.221122   -1.331017    0.000000
     11          1           0       -0.806983    3.895142    0.000000
     12          1           0        0.806983   -3.895142    0.000000
     13          1           0       -2.047458    1.455961    0.000000
     14          1           0        2.047458   -1.455961    0.000000
     15          1           0        1.864288    3.299524    0.000000
     16          1           0       -1.864288   -3.299524    0.000000
 ---------------------------------------------------------------------

 SCF Done:  E(RHF) =  -456.303060074     A.U. after    2 cycles

 The electronic state is 1-AG.
 Alpha  occ. eigenvalues --  -20.64109 -20.64108 -11.31267 -11.31183 -11.30375
 Alpha  occ. eigenvalues --  -11.30374 -11.24446 -11.24444 -11.24355 -11.24353
 Alpha  occ. eigenvalues --   -1.42913  -1.42096  -1.08750  -1.08530  -1.06065
 Alpha  occ. eigenvalues --   -0.97592  -0.83802  -0.83333  -0.79734  -0.76977
 Alpha  occ. eigenvalues --   -0.76314  -0.69294  -0.67057  -0.64431  -0.61975
 Alpha  occ. eigenvalues --   -0.60464  -0.58665  -0.58258  -0.57558  -0.56297
 Alpha  occ. eigenvalues --   -0.54282  -0.41875  -0.41044  -0.37601  -0.27890
 Alpha virt. eigenvalues --    0.03437   0.03682   0.04131   0.04936   0.05407
 Alpha virt. eigenvalues --    0.06810   0.07876   0.10050   0.10506   0.10708
 Alpha virt. eigenvalues --    0.11373   0.11954   0.12176   0.12769   0.13660

 Mulliken charges:
               1
     1  C    0.595643
     2  C    0.595643
     3  C    0.488058
     4  C    0.488058
     5  C    0.516221
     6  C    0.516221
     7  C    0.053333
     8  C    0.053333
     9  O   -0.537141
    10  O   -0.537141
    11  H   -0.329191
    12  H   -0.329191
    13  H   -0.408773
    14  H   -0.408773
    15  H   -0.378151
    16  H   -0.378151
 Sum of Mulliken charges =  -0.00000

 Dipole moment (field-independent basis, Debye):
    X=             -0.0000    Y=              0.0000    Z=              0.0000  Tot=              0.0000

 Test job not archived.
 1\1\GINC-SE013\SP\RHF\Aug-CC-pVDZ\C8H6O2\OHZDE\05-Apr-2025\0\\#t hf au
 g-cc-pvdz iop(5/13=1,5/36=2,99/5=2) pseudo=read geom=check guess=(read
 ,tcheck) scf=(maxcycle=1)\\title\\0,1\C,0,-0.340935,2.925198,0.\C,0,0.
 340935,-2.925198,0.\C,0,-0.99075,1.654854,0.\C,0,0.99075,-1.654854,0.\
 C,0,0.99075,2.673861,0.\C,0,-0.99075,-2.673861,0.\C,0,0.001025,0.71717
 1,0.\C,0,-0.001025,-0.717171,0.\O,0,1.221122,1.331017,0.\O,0,-1.221122
 ,-1.331017,0.\H,0,-0.806983,3.895142,0.\H,0,0.806983,-3.895142,0.\H,0,
 -2.047458,1.455961,0.\H,0,2.047458,-1.455961,0.\H,0,1.864288,3.299524,

 Normal termination of Gaussian 16 at Sat Apr  5 22:20:31 2025.
