 Gaussian 16, Revision C.01,

 ----------------------------------------------------------------------
 #t hf aug-cc-pvdz symm=none int=(grid=ultrafine) guess=(read,tcheck) s
 table=(opt,rrhf)
 ----------------------------------------------------------------------
 -----
 title
 -----
 Symbolic Z-matrix:
 Charge =  0 Multiplicity = 1

 SCF Done:  E(RHF) =  -1109.89876709     A.U. after   13 cycles
 Normal termination of Gaussian 16 at Sat Apr  5 22:20:49 2025.
 Gaussian 16:  ES64L-G16RevC.01  3-Jul-2019

 ----------------------------------------------------------------------
 #t hf aug-cc-pvdz iop(5/13=1,5/36=2,99/5=2) pseudo=read geom=check gue
 ss=(read,tcheck) scf=(maxcycle=1)
 ----------------------------------------------------------------------
 -----
 title
 -----
 Structure from the checkpoint file:  "2-2-difluoro-1-3-dithiolane.chk"
 Charge =  0 Multiplicity = 1

                         Standard orientation:
 ---------------------------------------------------------------------
 Center     Atomic      Atomic             Coordinates (Angstroms)
 Number     Number       Type             X           Y           Z
 ---------------------------------------------------------------------
      1         16           0       -0.180530   -1.510125    0.096697
      2         16           0       -0.180530    1.510125   -0.096698
      3          9           0        1.690299   -0.019073   -1.077617
      4          9           0        1.690298    0.019073    1.077618
      5          6           0        0.856748   -0.000000   -0.000000
      6          6           0       -1.750263   -0.681445   -0.334640
      7          6           0       -1.750262    0.681445    0.334641
      8          1           0       -2.551770   -1.315256    0.043945
      9          1           0       -1.841107   -0.594140   -1.415457
     10          1           0       -2.551770    1.315257   -0.043944
     11          1           0       -1.841105    0.594141    1.415458
 ---------------------------------------------------------------------

 SCF Done:  E(RHF) =  -1110.04614615     A.U. after    2 cycles

 The electronic state is 1-A.
 Alpha  occ. eigenvalues --  -93.56352 -93.56351 -26.14872 -26.14861 -11.48572
 Alpha  occ. eigenvalues --  -11.30449 -11.30391  -8.86185  -8.86178  -6.20295
 Alpha  occ. eigenvalues --   -6.20290  -6.20130  -6.20102  -6.19744  -6.19722
 Alpha  occ. eigenvalues --   -1.71643  -1.66664  -1.14390  -1.02628  -1.00325
 Alpha  occ. eigenvalues --   -0.89034  -0.85786  -0.82575  -0.77963  -0.76414
 Alpha  occ. eigenvalues --   -0.73980  -0.70323  -0.67001  -0.65226  -0.59595
 Alpha  occ. eigenvalues --   -0.57600  -0.50739  -0.49790  -0.44723  -0.39504
 Alpha  occ. eigenvalues --   -0.37459
 Alpha virt. eigenvalues --    0.02825   0.04689   0.04755   0.06307   0.07523
 Alpha virt. eigenvalues --    0.08496   0.09090   0.12021   0.12211   0.12514
 Alpha virt. eigenvalues --    0.12595   0.14072   0.14427   0.14922   0.15543

 Mulliken charges:
               1
     1  S    0.478538
     2  S    0.478538
     3  F   -0.369122
     4  F   -0.369122
     5  C    0.171289
     6  C   -0.109407
     7  C   -0.109411
     8  H   -0.018792
     9  H   -0.066862
    10  H   -0.018789
    11  H   -0.066863
 Sum of Mulliken charges =  -0.00000

 Dipole moment (field-independent basis, Debye):
    X=             -4.6444    Y=              0.0000    Z=             -0.0000  Tot=              4.6444

 Test job not archived.
 1\1\GINC-SE185\SP\RHF\Aug-CC-pVDZ\C3H4F2S2\OHZDE\05-Apr-2025\0\\#t hf
 aug-cc-pvdz iop(5/13=1,5/36=2,99/5=2) pseudo=read geom=check guess=(re
 ad,tcheck) scf=(maxcycle=1)\\title\\0,1\S,0,-0.18053,-1.510125,0.09669
 7\S,0,-0.18053,1.510125,-0.096698\F,0,1.690299,-0.019073,-1.077617\F,0
 ,1.690298,0.019073,1.077618\C,0,0.856748,0.,0.\C,0,-1.750263,-0.681445
 ,-0.33464\C,0,-1.750262,0.681445,0.334641\H,0,-2.55177,-1.315256,0.043
 945\H,0,-1.841107,-0.59414,-1.415457\H,0,-2.55177,1.315257,-0.043944\H
 ,0,-1.841105,0.594141,1.415458\\Version=ES64L-G16RevC.01\State=1-A\HF=

 Normal termination of Gaussian 16 at Sat Apr  5 22:20:54 2025.
