 Gaussian 16, Revision C.01,

 ----------------------------------------------------------------------
 #t hf aug-cc-pvdz symm=none int=(grid=ultrafine) guess=(read,tcheck) s
 table=(opt,rrhf)
 ----------------------------------------------------------------------
 -----
 title
 -----
 Symbolic Z-matrix:
 Charge =  0 Multiplicity = 1

 SCF Done:  E(RHF) =  -443.614036895     A.U. after   14 cycles
 Normal termination of Gaussian 16 at Sat Apr  5 22:20:49 2025.
 Gaussian 16:  ES64L-G16RevC.01  3-Jul-2019

 ----------------------------------------------------------------------
 #t hf aug-cc-pvdz iop(5/13=1,5/36=2,99/5=2) pseudo=read geom=check gue
 ss=(read,tcheck) scf=(maxcycle=1)
 ----------------------------------------------------------------------
 -----
 title
 -----
 Structure from the checkpoint file:  "2-2-difluoro-2-isocyanatoethane.chk"
 Charge =  0 Multiplicity = 1

                         Standard orientation:
 ---------------------------------------------------------------------
 Center     Atomic      Atomic             Coordinates (Angstroms)
 Number     Number       Type             X           Y           Z
 ---------------------------------------------------------------------
      1          9           0       -0.777482   -0.846334    1.091554
      2          9           0       -0.777487   -0.846342   -1.091545
      3          8           0        2.802791    0.007738   -0.000006
      4          7           0        0.529576    0.669815   -0.000003
      5          6           0       -0.715131   -0.014559    0.000002
      6          6           0       -1.891632    0.924090    0.000000
      7          6           0        1.670848    0.263476   -0.000005
      8          1           0       -2.809445    0.341143    0.000005
      9          1           0       -1.854854    1.552140   -0.887058
     10          1           0       -1.854850    1.552146    0.887056
 ---------------------------------------------------------------------

 SCF Done:  E(RHF) =  -443.764642813     A.U. after    2 cycles

 The electronic state is 1-A.
 Alpha  occ. eigenvalues --  -26.15141 -26.15131 -20.65921 -15.67544 -11.49523
 Alpha  occ. eigenvalues --  -11.45375 -11.26605  -1.71841  -1.66950  -1.46403
 Alpha  occ. eigenvalues --   -1.27744  -1.08452  -0.94994  -0.87131  -0.83722
 Alpha  occ. eigenvalues --   -0.79401  -0.77364  -0.74927  -0.73148  -0.70899
 Alpha  occ. eigenvalues --   -0.68557  -0.68058  -0.59215  -0.59157  -0.58795
 Alpha  occ. eigenvalues --   -0.49702  -0.47660
 Alpha virt. eigenvalues --    0.03239   0.05234   0.05331   0.06568   0.09266
 Alpha virt. eigenvalues --    0.09411   0.10003   0.12417   0.12544   0.13523
 Alpha virt. eigenvalues --    0.14600   0.15740   0.16023   0.16333   0.17854

 Mulliken charges:
               1
     1  F   -0.338928
     2  F   -0.338929
     3  O   -0.184172
     4  N   -0.240232
     5  C    0.899498
     6  C    0.301879
     7  C   -0.138104
     8  H   -0.016774
     9  H    0.027879
    10  H    0.027883
 Sum of Mulliken charges =  -0.00000

 Dipole moment (field-independent basis, Debye):
    X=             -2.1140    Y=              2.0561    Z=             -0.0000  Tot=              2.9490

 Test job not archived.
 1\1\GINC-SE185\SP\RHF\Aug-CC-pVDZ\C3H3F2N1O1\OHZDE\05-Apr-2025\0\\#t h
 f aug-cc-pvdz iop(5/13=1,5/36=2,99/5=2) pseudo=read geom=check guess=(
 read,tcheck) scf=(maxcycle=1)\\title\\0,1\F,0,-0.777482,-0.846334,1.09
 1554\F,0,-0.777487,-0.846342,-1.091545\O,0,2.802791,0.007738,-0.000006
 \N,0,0.529576,0.669815,-0.000003\C,0,-0.715131,-0.014559,0.000002\C,0,
 -1.891632,0.92409,0.\C,0,1.670848,0.263476,-0.000005\H,0,-2.809445,0.3
 41143,0.000005\H,0,-1.854854,1.55214,-0.887058\H,0,-1.85485,1.552146,0
 .887056\\Version=ES64L-G16RevC.01\State=1-A\HF=-443.7646428\RMSD=5.773

 Normal termination of Gaussian 16 at Sat Apr  5 22:20:53 2025.
