 Gaussian 16, Revision C.01,

 ----------------------------------------------------------------------
 #t hf aug-cc-pvdz symm=none int=(grid=ultrafine) guess=(read,tcheck) s
 table=(opt,rrhf)
 ----------------------------------------------------------------------
 -----
 title
 -----
 Symbolic Z-matrix:
 Charge =  0 Multiplicity = 1

 SCF Done:  E(RHF) =  -396.273651469     A.U. after   14 cycles
 Normal termination of Gaussian 16 at Sat Apr  5 22:19:30 2025.
 Gaussian 16:  ES64L-G16RevC.01  3-Jul-2019

 ----------------------------------------------------------------------
 #t hf aug-cc-pvdz iop(5/13=1,5/36=2,99/5=2) pseudo=read geom=check gue
 ss=(read,tcheck) scf=(maxcycle=1)
 ----------------------------------------------------------------------
 -----
 title
 -----
 Structure from the checkpoint file:  "2-2--methyliminodiacetylenol.chk"
 Charge =  0 Multiplicity = 1

                         Standard orientation:
 ---------------------------------------------------------------------
 Center     Atomic      Atomic             Coordinates (Angstroms)
 Number     Number       Type             X           Y           Z
 ---------------------------------------------------------------------
      1          8           0        3.378898   -1.121353    0.151039
      2          8           0       -3.378897   -1.121355    0.151039
      3          7           0       -0.000000    0.726298   -0.101503
      4          6           0        1.173373    0.061418   -0.031423
      5          6           0       -1.173373    0.061419   -0.031423
      6          6           0        2.234557   -0.498966   -0.039656
      7          6           0       -2.234557   -0.498966   -0.039656
      8          6           0       -0.000000    2.188036    0.049856
      9          1           0        3.788790   -1.339293   -0.695372
     10          1           0       -3.788797   -1.339280   -0.695372
     11          1           0       -0.000002    2.478463    1.103218
     12          1           0        0.888064    2.590021   -0.432378
     13          1           0       -0.888061    2.590022   -0.432382
 ---------------------------------------------------------------------

 SCF Done:  E(RHF) =  -396.404871091     A.U. after    2 cycles

 The electronic state is 1-A.
 Alpha  occ. eigenvalues --  -20.63998 -20.63998 -15.68347 -11.29299 -11.29297
 Alpha  occ. eigenvalues --  -11.28021 -11.26775 -11.26763  -1.39525  -1.39505
 Alpha  occ. eigenvalues --   -1.24878  -1.02721  -1.00755  -0.93982  -0.83849
 Alpha  occ. eigenvalues --   -0.81203  -0.77545  -0.67851  -0.67368  -0.66563
 Alpha  occ. eigenvalues --   -0.63538  -0.62604  -0.62296  -0.57276  -0.51370
 Alpha  occ. eigenvalues --   -0.40224  -0.38890  -0.36722  -0.30791
 Alpha virt. eigenvalues --    0.02924   0.03293   0.04117   0.05794   0.06438
 Alpha virt. eigenvalues --    0.09688   0.10102   0.10123   0.10596   0.11844
 Alpha virt. eigenvalues --    0.12385   0.13040   0.13959   0.14941   0.15349

 Mulliken charges:
               1
     1  O   -0.371071
     2  O   -0.371072
     3  N    0.183313
     4  C   -0.145757
     5  C   -0.145764
     6  C    0.055433
     7  C    0.055435
     8  C    0.781741
     9  H    0.186466
    10  H    0.186466
    11  H   -0.049587
    12  H   -0.182802
    13  H   -0.182802
 Sum of Mulliken charges =  -0.00000

 Dipole moment (field-independent basis, Debye):
    X=             -0.0000    Y=              0.9072    Z=             -2.8248  Tot=              2.9669

 Test job not archived.
 1\1\GINC-SE009\SP\RHF\Aug-CC-pVDZ\C5H5N1O2\OHZDE\05-Apr-2025\0\\#t hf
 aug-cc-pvdz iop(5/13=1,5/36=2,99/5=2) pseudo=read geom=check guess=(re
 ad,tcheck) scf=(maxcycle=1)\\title\\0,1\O,0,3.378898,-1.121353,0.15103
 9\O,0,-3.378897,-1.121355,0.151039\N,0,0.,0.726298,-0.101503\C,0,1.173
 373,0.061418,-0.031423\C,0,-1.173373,0.061419,-0.031423\C,0,2.234557,-
 0.498966,-0.039656\C,0,-2.234557,-0.498966,-0.039656\C,0,0.,2.188036,0
 .049856\H,0,3.78879,-1.339293,-0.695372\H,0,-3.788797,-1.33928,-0.6953
 72\H,0,-0.000002,2.478463,1.103218\H,0,0.888064,2.590021,-0.432378\H,0

 Normal termination of Gaussian 16 at Sat Apr  5 22:20:30 2025.
