 Gaussian 16, Revision C.01,

 ----------------------------------------------------------------------
 #t hf aug-cc-pvdz symm=none int=(grid=ultrafine) guess=(read,tcheck) s
 table=(opt,rrhf)
 ----------------------------------------------------------------------
 -----
 title
 -----
 Symbolic Z-matrix:
 Charge =  0 Multiplicity = 1

 SCF Done:  E(RHF) =  -593.884073407     A.U. after   13 cycles

 1\1\GINC-SE196\Stability\RHF\Aug-CC-pVDZ\C5H12S1\OHZDE\05-Apr-2025\0\\
 #t hf aug-cc-pvdz symm=none int=(grid=ultrafine) guess=(read,tcheck) s
 table=(opt,rrhf)\\title\\0,1\C,0,0.674889,0.42491,0.\C,0,1.189289,1.87
 5357,0.\H,0,2.280421,1.893123,0.\S,0,-1.677881,-1.162383,0.\H,0,-2.940
 602,-0.701861,0.\C,0,-0.86456,0.499457,0.\C,0,1.189289,-0.290385,1.258
 329\C,0,1.189289,-0.290385,-1.258329\H,0,-1.202991,1.037483,0.88438\H,
 0,-1.202991,1.037483,-0.88438\H,0,2.280323,-0.281639,1.280304\H,0,2.28
 0323,-0.281639,-1.280304\H,0,0.862904,-1.329613,1.294987\H,0,0.862904,

 Normal termination of Gaussian 16 at Sat Apr  5 22:21:23 2025.
 Gaussian 16:  ES64L-G16RevC.01  3-Jul-2019

 ----------------------------------------------------------------------
 #t hf aug-cc-pvdz iop(5/13=1,5/36=2,99/5=2) pseudo=read geom=check gue
 ss=(read,tcheck) scf=(maxcycle=1)
 ----------------------------------------------------------------------
 -----
 title
 -----
 Structure from the checkpoint file:  "2-2-dimethyl-1-propanethiol.chk"
 Charge =  0 Multiplicity = 1

                         Standard orientation:
 ---------------------------------------------------------------------
 Center     Atomic      Atomic             Coordinates (Angstroms)
 Number     Number       Type             X           Y           Z
 ---------------------------------------------------------------------
      1          6           0        0.674889    0.424910    0.000000
      2          6           0        1.189289    1.875357    0.000000
      3          1           0        2.280421    1.893123    0.000000
      4         16           0       -1.677881   -1.162383    0.000000
      5          1           0       -2.940602   -0.701861    0.000000
      6          6           0       -0.864560    0.499457    0.000000
      7          6           0        1.189289   -0.290385    1.258329
      8          6           0        1.189289   -0.290385   -1.258329
      9          1           0       -1.202991    1.037483    0.884380
     10          1           0       -1.202991    1.037483   -0.884380
     11          1           0        2.280323   -0.281639    1.280304
     12          1           0        2.280323   -0.281639   -1.280304
     13          1           0        0.862904   -1.329613    1.294987
     14          1           0        0.862904   -1.329613   -1.294987
     15          1           0        0.831671    0.202325    2.164531
     16          1           0        0.831671    0.202325   -2.164531
     17          1           0        0.846646    2.418019   -0.883096
     18          1           0        0.846646    2.418019    0.883096
 ---------------------------------------------------------------------

 SCF Done:  E(RHF) =  -593.966165792     A.U. after    2 cycles

 The electronic state is 1-A'.
 Alpha  occ. eigenvalues --  -93.52756 -11.26704 -11.25371 -11.22730 -11.22193
 Alpha  occ. eigenvalues --  -11.22183  -8.82488  -6.16688  -6.16446  -6.16113
 Alpha  occ. eigenvalues --   -1.10998  -0.99477  -0.93419  -0.93180  -0.86322
 Alpha  occ. eigenvalues --   -0.73504  -0.63430  -0.63308  -0.60832  -0.57433
 Alpha  occ. eigenvalues --   -0.56165  -0.52831  -0.52710  -0.51899  -0.48390
 Alpha  occ. eigenvalues --   -0.46757  -0.46399  -0.43262  -0.34957
 Alpha virt. eigenvalues --    0.03392   0.04292   0.04801   0.04927   0.06484
 Alpha virt. eigenvalues --    0.06645   0.06938   0.07179   0.07561   0.09033
 Alpha virt. eigenvalues --    0.09216   0.09549   0.11058   0.12931   0.13537

 Mulliken charges:
               1
     1  C   -3.922670
     2  C    1.265371
     3  H   -0.050805
     4  S    0.276912
     5  H    0.020070
     6  C    0.676712
     7  C    1.181635
     8  C    1.181635
     9  H   -0.200087
    10  H   -0.200087
    11  H   -0.011208
    12  H   -0.011208
    13  H   -0.052190
    14  H   -0.052190
    15  H   -0.025448
    16  H   -0.025448
    17  H   -0.025497
    18  H   -0.025497
 Sum of Mulliken charges =  -0.00000

 Dipole moment (field-independent basis, Debye):
    X=              0.3046    Y=              1.6876    Z=              0.0000  Tot=              1.7149

 Test job not archived.
 1\1\GINC-SE196\SP\RHF\Aug-CC-pVDZ\C5H12S1\OHZDE\05-Apr-2025\0\\#t hf a
 ug-cc-pvdz iop(5/13=1,5/36=2,99/5=2) pseudo=read geom=check guess=(rea
 d,tcheck) scf=(maxcycle=1)\\title\\0,1\C,0,0.674889,0.42491,0.\C,0,1.1
 89289,1.875357,0.\H,0,2.280421,1.893123,0.\S,0,-1.677881,-1.162383,0.\
 H,0,-2.940602,-0.701861,0.\C,0,-0.86456,0.499457,0.\C,0,1.189289,-0.29
 0385,1.258329\C,0,1.189289,-0.290385,-1.258329\H,0,-1.202991,1.037483,
 0.88438\H,0,-1.202991,1.037483,-0.88438\H,0,2.280323,-0.281639,1.28030
 4\H,0,2.280323,-0.281639,-1.280304\H,0,0.862904,-1.329613,1.294987\H,0

 Normal termination of Gaussian 16 at Sat Apr  5 22:22:18 2025.
