 Gaussian 16, Revision C.01,

 ----------------------------------------------------------------------
 #t hf aug-cc-pvdz symm=none int=(grid=ultrafine) guess=(read,tcheck) s
 table=(opt,rrhf)
 ----------------------------------------------------------------------
 -----
 title
 -----
 Symbolic Z-matrix:
 Charge =  0 Multiplicity = 1

 SCF Done:  E(RHF) =  -377.151814764     A.U. after   15 cycles
 Normal termination of Gaussian 16 at Sat Apr  5 22:18:28 2025.
 Gaussian 16:  ES64L-G16RevC.01  3-Jul-2019

 ----------------------------------------------------------------------
 #t hf aug-cc-pvdz iop(5/13=1,5/36=2,99/5=2) pseudo=read geom=check gue
 ss=(read,tcheck) scf=(maxcycle=1)
 ----------------------------------------------------------------------
 -----
 title
 -----
 Structure from the checkpoint file:  "2-2--oxodiethenone.chk"
 Charge =  0 Multiplicity = 1

                         Standard orientation:
 ---------------------------------------------------------------------
 Center     Atomic      Atomic             Coordinates (Angstroms)
 Number     Number       Type             X           Y           Z
 ---------------------------------------------------------------------
      1          8           0        0.000000    0.000000    0.648088
      2          8           0        0.000000    3.317523   -0.078152
      3          8           0       -0.000000   -3.317523   -0.078152
      4          6           0       -0.698728    0.939522   -0.114391
      5          6           0        0.698728   -0.939522   -0.114391
      6          6           0       -0.313392    2.199290   -0.102139
      7          6           0        0.313392   -2.199290   -0.102139
      8          1           0       -1.576390    0.640518   -0.667959
      9          1           0        1.576390   -0.640518   -0.667959
 ---------------------------------------------------------------------

 SCF Done:  E(RHF) =  -377.273465435     A.U. after    2 cycles

 The electronic state is 1-A.
 Alpha  occ. eigenvalues --  -20.66149 -20.66149 -20.64144 -11.40776 -11.40776
 Alpha  occ. eigenvalues --  -11.32228 -11.32202  -1.45447  -1.45367  -1.39348
 Alpha  occ. eigenvalues --   -1.08592  -1.01599  -0.81023  -0.78085  -0.75094
 Alpha  occ. eigenvalues --   -0.74086  -0.72825  -0.68072  -0.67473  -0.64914
 Alpha  occ. eigenvalues --   -0.61400  -0.60328  -0.54408  -0.38314  -0.36770
 Alpha virt. eigenvalues --    0.02927   0.04203   0.05843   0.05961   0.08411
 Alpha virt. eigenvalues --    0.09708   0.09853   0.10656   0.11106   0.11801
 Alpha virt. eigenvalues --    0.12450   0.12673   0.14100   0.14639   0.14815

 Mulliken charges:
               1
     1  O   -0.693293
     2  O   -0.177997
     3  O   -0.177997
     4  C    1.243281
     5  C    1.243281
     6  C   -0.515207
     7  C   -0.515207
     8  H   -0.203431
     9  H   -0.203431
 Sum of Mulliken charges =  -0.00000

 Dipole moment (field-independent basis, Debye):
    X=             -0.0000    Y=             -0.0000    Z=             -1.5134  Tot=              1.5134

 Test job not archived.
 1\1\GINC-SE129\SP\RHF\Aug-CC-pVDZ\C4H2O3\OHZDE\05-Apr-2025\0\\#t hf au
 g-cc-pvdz iop(5/13=1,5/36=2,99/5=2) pseudo=read geom=check guess=(read
 ,tcheck) scf=(maxcycle=1)\\title\\0,1\O,0,0.,0.,0.648088\O,0,0.,3.3175
 23,-0.078152\O,0,0.,-3.317523,-0.078152\C,0,-0.698728,0.939522,-0.1143
 91\C,0,0.698728,-0.939522,-0.114391\C,0,-0.313392,2.19929,-0.102139\C,
 0,0.313392,-2.19929,-0.102139\H,0,-1.57639,0.640518,-0.667959\H,0,1.57
 639,-0.640518,-0.667959\\Version=ES64L-G16RevC.01\State=1-A\HF=-377.27
 34654\RMSD=4.612e-03\Dipole=0.,0.,-0.5954071\Quadrupole=5.9422191,-8.3

 Normal termination of Gaussian 16 at Sat Apr  5 22:18:32 2025.
