 Gaussian 16, Revision C.01,

 ----------------------------------------------------------------------
 #t hf aug-cc-pvdz symm=none int=(grid=ultrafine) guess=(read,tcheck) s
 table=(opt,rrhf)
 ----------------------------------------------------------------------
 -----
 title
 -----
 Symbolic Z-matrix:
 Charge =  0 Multiplicity = 1

 SCF Done:  E(RHF) =  -391.471712331     A.U. after   16 cycles
 Normal termination of Gaussian 16 at Sat Apr  5 22:20:49 2025.
 Gaussian 16:  ES64L-G16RevC.01  3-Jul-2019

 ----------------------------------------------------------------------
 #t hf aug-cc-pvdz iop(5/13=1,5/36=2,99/5=2) pseudo=read geom=check gue
 ss=(read,tcheck) scf=(maxcycle=1)
 ----------------------------------------------------------------------
 -----
 title
 -----
 Structure from the checkpoint file:  "2-2-dicyanoacetamide.chk"
 Charge =  0 Multiplicity = 1

                         Standard orientation:
 ---------------------------------------------------------------------
 Center     Atomic      Atomic             Coordinates (Angstroms)
 Number     Number       Type             X           Y           Z
 ---------------------------------------------------------------------
      1          8           0       -2.033652    0.612085   -0.561323
      2          7           0       -1.365161   -1.096228    0.782146
      3          7           0        1.209015    2.325639    0.584750
      4          7           0        1.852386   -1.914576   -0.073469
      5          6           0        0.319024    0.144506   -0.545846
      6          6           0       -1.174935   -0.099454   -0.102612
      7          6           0        0.820960    1.367479    0.085232
      8          6           0        1.211307   -0.986419   -0.292477
      9          1           0        0.261923    0.314072   -1.623641
     10          1           0       -0.620034   -1.690701    1.101554
     11          1           0       -2.304489   -1.280566    1.092902
 ---------------------------------------------------------------------

 SCF Done:  E(RHF) =  -391.588251702     A.U. after    2 cycles

 The electronic state is 1-A.
 Alpha  occ. eigenvalues --  -20.58872 -15.69832 -15.69262 -15.67859 -11.43299
 Alpha  occ. eigenvalues --  -11.38436 -11.33961 -11.32779  -1.40748  -1.25761
 Alpha  occ. eigenvalues --   -1.23095  -1.23057  -1.12191  -0.87315  -0.81427
 Alpha  occ. eigenvalues --   -0.79618  -0.76018  -0.70112  -0.66435  -0.62182
 Alpha  occ. eigenvalues --   -0.59762  -0.58128  -0.54411  -0.52064  -0.50947
 Alpha  occ. eigenvalues --   -0.50018  -0.47269  -0.46480
 Alpha virt. eigenvalues --    0.02275   0.03155   0.05296   0.06908   0.08358
 Alpha virt. eigenvalues --    0.08698   0.10446   0.10915   0.10956   0.11396
 Alpha virt. eigenvalues --    0.12332   0.12753   0.13283   0.14008   0.14109

 Mulliken charges:
               1
     1  O   -0.497674
     2  N   -0.113778
     3  N   -0.134807
     4  N   -0.161654
     5  C    0.552188
     6  C    0.621196
     7  C   -0.355382
     8  C   -0.119719
     9  H    0.197203
    10  H    0.017154
    11  H   -0.004726
 Sum of Mulliken charges =  -0.00000

 Dipole moment (field-independent basis, Debye):
    X=             -1.3490    Y=             -3.2726    Z=              0.0435  Tot=              3.5400

 Test job not archived.
 1\1\GINC-SE053\SP\RHF\Aug-CC-pVDZ\C4H3N3O1\OHZDE\05-Apr-2025\0\\#t hf
 aug-cc-pvdz iop(5/13=1,5/36=2,99/5=2) pseudo=read geom=check guess=(re
 ad,tcheck) scf=(maxcycle=1)\\title\\0,1\O,0,-2.033653,0.612083,-0.5613
 23\N,0,-1.36516,-1.096229,0.782146\N,0,1.209013,2.32564,0.58475\N,0,1.
 852388,-1.914574,-0.073469\C,0,0.319024,0.144506,-0.545846\C,0,-1.1749
 35,-0.099455,-0.102612\C,0,0.820959,1.36748,0.085232\C,0,1.211308,-0.9
 86418,-0.292477\H,0,0.261923,0.314072,-1.623641\H,0,-0.620032,-1.69070
 2,1.101554\H,0,-2.304488,-1.280568,1.092902\\Version=ES64L-G16RevC.01\

 Normal termination of Gaussian 16 at Sat Apr  5 22:20:54 2025.
