 Gaussian 16, Revision C.01,

 ----------------------------------------------------------------------
 #t hf aug-cc-pvdz symm=none int=(grid=ultrafine) guess=(read,tcheck) s
 table=(opt,rrhf)
 ----------------------------------------------------------------------
 -----
 title
 -----
 Symbolic Z-matrix:
 Charge =  0 Multiplicity = 1

 SCF Done:  E(RHF) =  -848.101209218     A.U. after   17 cycles
 Normal termination of Gaussian 16 at Sat Apr  5 22:21:26 2025.
 Gaussian 16:  ES64L-G16RevC.01  3-Jul-2019

 ----------------------------------------------------------------------
 #t hf aug-cc-pvdz iop(5/13=1,5/36=2,99/5=2) pseudo=read geom=check gue
 ss=(read,tcheck) scf=(maxcycle=1)
 ----------------------------------------------------------------------
 -----
 title
 -----
 Structure from the checkpoint file:  "2-2-nitrosoamino-3-sulfanylpropanoic_acid.chk"
 Charge =  0 Multiplicity = 1

                         Standard orientation:
 ---------------------------------------------------------------------
 Center     Atomic      Atomic             Coordinates (Angstroms)
 Number     Number       Type             X           Y           Z
 ---------------------------------------------------------------------
      1         16           0       -2.712144   -0.669689    0.037222
      2          8           0        0.933734    2.198989    0.455731
      3          8           0       -0.813212    1.753882   -0.838351
      4          8           0        3.132632   -1.292924   -0.368579
      5          7           0        1.364274   -0.584057    0.618722
      6          7           0        2.135784   -0.617459   -0.478845
      7          6           0        0.002543   -0.066606    0.511530
      8          6           0       -0.932563   -0.985226   -0.286130
      9          6           0       -0.000890    1.370282   -0.050456
     10          1           0       -0.365039    0.012010    1.536683
     11          1           0       -0.768377   -0.838439   -1.350349
     12          1           0       -0.717791   -2.023048   -0.047362
     13          1           0        1.618464   -1.240568    1.355307
     14          1           0       -2.888807   -1.681240    0.906858
     15          1           0        1.575666    1.706649    0.984110
 ---------------------------------------------------------------------

 SCF Done:  E(RHF) =  -848.257696806     A.U. after    2 cycles

 The electronic state is 1-A.
 Alpha  occ. eigenvalues --  -93.55295 -20.64257 -20.64139 -20.58279 -15.83092
 Alpha  occ. eigenvalues --  -15.72719 -11.42199 -11.34668 -11.30222  -8.84975
 Alpha  occ. eigenvalues --   -6.19139  -6.18915  -6.18578  -1.50586  -1.44266
 Alpha  occ. eigenvalues --   -1.35463  -1.27646  -1.09888  -1.00280  -0.92705
 Alpha  occ. eigenvalues --   -0.88484  -0.85116  -0.77846  -0.77349  -0.72300
 Alpha  occ. eigenvalues --   -0.70108  -0.67313  -0.65893  -0.65557  -0.62991
 Alpha  occ. eigenvalues --   -0.59871  -0.58586  -0.54689  -0.51806  -0.50003
 Alpha  occ. eigenvalues --   -0.47359  -0.45796  -0.44670  -0.37420
 Alpha virt. eigenvalues --    0.01642   0.03147   0.04451   0.05043   0.06133
 Alpha virt. eigenvalues --    0.07159   0.07848   0.09193   0.10007   0.10610
 Alpha virt. eigenvalues --    0.11923   0.12718   0.13079   0.13289   0.14100

 Mulliken charges:
               1
     1  S    0.351945
     2  O   -0.490906
     3  O   -0.413781
     4  O   -0.480389
     5  N   -0.091635
     6  N    0.113577
     7  C    0.397411
     8  C    0.146332
     9  C    0.603367
    10  H   -0.123838
    11  H   -0.043220
    12  H   -0.153292
    13  H   -0.066152
    14  H    0.036197
    15  H    0.214385
 Sum of Mulliken charges =  -0.00000

 Dipole moment (field-independent basis, Debye):
    X=              0.2190    Y=             -3.2867    Z=              4.6115  Tot=              5.6672

 Test job not archived.
 1\1\GINC-SE223\SP\RHF\Aug-CC-pVDZ\C3H6N2O3S1\OHZDE\05-Apr-2025\0\\#t h
 f aug-cc-pvdz iop(5/13=1,5/36=2,99/5=2) pseudo=read geom=check guess=(
 read,tcheck) scf=(maxcycle=1)\\title\\0,1\S,0,-2.712144,-0.669688,0.03
 7222\O,0,0.933735,2.198989,0.455731\O,0,-0.813211,1.753882,-0.838351\O
 ,0,3.132632,-1.292925,-0.368579\N,0,1.364274,-0.584057,0.618722\N,0,2.
 135784,-0.61746,-0.478845\C,0,0.002543,-0.066606,0.51153\C,0,-0.932563
 ,-0.985226,-0.28613\C,0,-0.00089,1.370282,-0.050456\H,0,-0.365039,0.01
 201,1.536683\H,0,-0.768377,-0.838439,-1.350349\H,0,-0.717791,-2.023048

 Normal termination of Gaussian 16 at Sat Apr  5 22:22:20 2025.
