 Gaussian 16, Revision C.01,

 ----------------------------------------------------------------------
 #t hf aug-cc-pvdz symm=none int=(grid=ultrafine) guess=(read,tcheck) s
 table=(opt,rrhf)
 ----------------------------------------------------------------------
 -----
 title
 -----
 Symbolic Z-matrix:
 Charge =  0 Multiplicity = 1

 SCF Done:  E(RHF) =  -196.355001592     A.U. after   10 cycles
 Normal termination of Gaussian 16 at Sat Apr  5 22:21:07 2025.
 Gaussian 16:  ES64L-G16RevC.01  3-Jul-2019

 ----------------------------------------------------------------------
 #t hf aug-cc-pvdz iop(5/13=1,5/36=2,99/5=2) pseudo=read geom=check gue
 ss=(read,tcheck) scf=(maxcycle=1)
 ----------------------------------------------------------------------
 -----
 title
 -----
 Structure from the checkpoint file:  "2-2-dimethylpropane.chk"
 Charge =  0 Multiplicity = 1

                         Standard orientation:
 ---------------------------------------------------------------------
 Center     Atomic      Atomic             Coordinates (Angstroms)
 Number     Number       Type             X           Y           Z
 ---------------------------------------------------------------------
      1          6           0        0.000000    0.000000    0.000000
      2          6           0        0.886726    0.886726    0.886726
      3          6           0       -0.886726   -0.886726    0.886726
      4          6           0        0.886726   -0.886726   -0.886726
      5          6           0       -0.886726    0.886726   -0.886726
      6          1           0       -1.529798    0.282357   -1.529798
      7          1           0        1.529798    1.529798    0.282357
      8          1           0        1.529798   -0.282357   -1.529798
      9          1           0        1.529798    0.282357    1.529798
     10          1           0       -1.529798   -0.282357    1.529798
     11          1           0        1.529798   -1.529798   -0.282357
     12          1           0       -0.282357    1.529798   -1.529798
     13          1           0        0.282357    1.529798    1.529798
     14          1           0        0.282357   -1.529798   -1.529798
     15          1           0       -0.282357   -1.529798    1.529798
     16          1           0       -1.529798    1.529798   -0.282357
     17          1           0       -1.529798   -1.529798    0.282357
 ---------------------------------------------------------------------

 SCF Done:  E(RHF) =  -196.419752423     A.U. after    2 cycles

 The electronic state is 1-A1.
 Alpha  occ. eigenvalues --  -11.23886 -11.21673 -11.21673 -11.21673 -11.21658
 Alpha  occ. eigenvalues --   -1.09196  -0.92456  -0.92456  -0.92456  -0.73190
 Alpha  occ. eigenvalues --   -0.61266  -0.61266  -0.61266  -0.55473  -0.55473
 Alpha  occ. eigenvalues --   -0.51148  -0.51148  -0.51148  -0.45468  -0.45468
 Alpha  occ. eigenvalues --   -0.45468
 Alpha virt. eigenvalues --    0.03544   0.04815   0.04815   0.04815   0.06967
 Alpha virt. eigenvalues --    0.06967   0.06967   0.07292   0.07292   0.09462
 Alpha virt. eigenvalues --    0.09462   0.09462   0.12090   0.14226   0.14226

 Mulliken charges:
               1
     1  C   -4.865455
     2  C    1.312570
     3  C    1.312570
     4  C    1.312570
     5  C    1.312570
     6  H   -0.032069
     7  H   -0.032069
     8  H   -0.032069
     9  H   -0.032069
    10  H   -0.032069
    11  H   -0.032069
    12  H   -0.032069
    13  H   -0.032069
    14  H   -0.032069
    15  H   -0.032069
    16  H   -0.032069
    17  H   -0.032069
 Sum of Mulliken charges =  -0.00000

 Dipole moment (field-independent basis, Debye):
    X=             -0.0000    Y=              0.0000    Z=              0.0000  Tot=              0.0000

 Test job not archived.
 1\1\GINC-SE179\SP\RHF\Aug-CC-pVDZ\C5H12\OHZDE\05-Apr-2025\0\\#t hf aug
 -cc-pvdz iop(5/13=1,5/36=2,99/5=2) pseudo=read geom=check guess=(read,
 tcheck) scf=(maxcycle=1)\\title\\0,1\C,0,0.,0.,0.\C,0,0.886726,0.88672
 6,0.886726\C,0,-0.886726,-0.886726,0.886726\C,0,0.886726,-0.886726,-0.
 886726\C,0,-0.886726,0.886726,-0.886726\H,0,-1.529798,0.282357,-1.5297
 98\H,0,1.529798,1.529798,0.282357\H,0,1.529798,-0.282357,-1.529798\H,0
 ,1.529798,0.282357,1.529798\H,0,-1.529798,-0.282357,1.529798\H,0,1.529
 798,-1.529798,-0.282357\H,0,-0.282357,1.529798,-1.529798\H,0,0.282357,

 Normal termination of Gaussian 16 at Sat Apr  5 22:22:18 2025.
