 Gaussian 16, Revision C.01,

 ----------------------------------------------------------------------
 #t hf aug-cc-pvdz symm=none int=(grid=ultrafine) guess=(read,tcheck) s
 table=(opt,rrhf)
 ----------------------------------------------------------------------
 -----
 title
 -----
 Symbolic Z-matrix:
 Charge =  0 Multiplicity = 1

 SCF Done:  E(RHF) =  -432.174330428     A.U. after   17 cycles
 Normal termination of Gaussian 16 at Sat Apr  5 22:19:32 2025.
 Gaussian 16:  ES64L-G16RevC.01  3-Jul-2019

 ----------------------------------------------------------------------
 #t hf aug-cc-pvdz iop(5/13=1,5/36=2,99/5=2) pseudo=read geom=check gue
 ss=(read,tcheck) scf=(maxcycle=1)
 ----------------------------------------------------------------------
 -----
 title
 -----
 Structure from the checkpoint file:  "2-2-oxoethylideneaminooxyethenone.chk"
 Charge =  0 Multiplicity = 1

                         Standard orientation:
 ---------------------------------------------------------------------
 Center     Atomic      Atomic             Coordinates (Angstroms)
 Number     Number       Type             X           Y           Z
 ---------------------------------------------------------------------
      1          8           0       -0.632058    0.672130   -0.429729
      2          8           0       -3.588830   -0.935067   -0.145234
      3          8           0        3.802898   -0.381162   -0.172489
      4          7           0        0.433297    0.185855    0.340131
      5          6           0       -1.809404    0.727301    0.307417
      6          6           0        1.516191    0.170796   -0.329905
      7          6           0       -2.745700   -0.171725    0.074575
      8          6           0        2.724311   -0.315122    0.366593
      9          1           0       -1.953915    1.509033    1.036401
     10          1           0        1.584308    0.490399   -1.366547
     11          1           0        2.568061   -0.615137    1.416763
 ---------------------------------------------------------------------

 SCF Done:  E(RHF) =  -432.308987384     A.U. after    2 cycles

 The electronic state is 1-A.
 Alpha  occ. eigenvalues --  -20.66947 -20.66798 -20.60126 -15.74578 -11.41448
 Alpha  occ. eigenvalues --  -11.37160 -11.32375 -11.32194  -1.46269  -1.43733
 Alpha  occ. eigenvalues --   -1.38601  -1.20794  -1.04823  -0.93181  -0.81843
 Alpha  occ. eigenvalues --   -0.79746  -0.75352  -0.75011  -0.72646  -0.68119
 Alpha  occ. eigenvalues --   -0.67026  -0.65975  -0.63112  -0.60842  -0.57403
 Alpha  occ. eigenvalues --   -0.50071  -0.47181  -0.44413  -0.38123
 Alpha virt. eigenvalues --    0.03114   0.04227   0.04514   0.04778   0.06228
 Alpha virt. eigenvalues --    0.07556   0.09527   0.10078   0.10564   0.10765
 Alpha virt. eigenvalues --    0.11370   0.12896   0.13099   0.14022   0.14554

 Mulliken charges:
               1
     1  O   -0.575776
     2  O   -0.185598
     3  O   -0.424642
     4  N   -0.083528
     5  C    1.195769
     6  C    0.577049
     7  C   -0.444410
     8  C    0.518382
     9  H   -0.180649
    10  H   -0.259261
    11  H   -0.137338
 Sum of Mulliken charges =  -0.00000

 Dipole moment (field-independent basis, Debye):
    X=             -1.4006    Y=              1.4416    Z=              1.3017  Tot=              2.3946

 Test job not archived.
 1\1\GINC-SE145\SP\RHF\Aug-CC-pVDZ\C4H3N1O3\OHZDE\05-Apr-2025\0\\#t hf
 aug-cc-pvdz iop(5/13=1,5/36=2,99/5=2) pseudo=read geom=check guess=(re
 ad,tcheck) scf=(maxcycle=1)\\title\\0,1\O,0,-0.632058,0.67213,-0.42972
 9\O,0,-3.58883,-0.935067,-0.145234\O,0,3.802898,-0.381162,-0.172489\N,
 0,0.433297,0.185855,0.340131\C,0,-1.809404,0.727301,0.307417\C,0,1.516
 191,0.170796,-0.329905\C,0,-2.7457,-0.171725,0.074575\C,0,2.724311,-0.
 315122,0.366593\H,0,-1.953915,1.509033,1.036401\H,0,1.584308,0.490399,
 -1.366547\H,0,2.568061,-0.615137,1.416763\\Version=ES64L-G16RevC.01\St

 Normal termination of Gaussian 16 at Sat Apr  5 22:20:30 2025.
