 Gaussian 16, Revision C.01,

 ----------------------------------------------------------------------
 #t hf aug-cc-pvdz symm=none int=(grid=ultrafine) guess=(read,tcheck) s
 table=(opt,rrhf)
 ----------------------------------------------------------------------
 -----
 title
 -----
 Symbolic Z-matrix:
 Charge =  0 Multiplicity = 1

 SCF Done:  E(RHF) =  -1056.57187594     A.U. after   16 cycles
 Normal termination of Gaussian 16 at Sat Apr  5 22:20:47 2025.
 Gaussian 16:  ES64L-G16RevC.01  3-Jul-2019

 ----------------------------------------------------------------------
 #t hf aug-cc-pvdz iop(5/13=1,5/36=2,99/5=2) pseudo=read geom=check gue
 ss=(read,tcheck) scf=(maxcycle=1)
 ----------------------------------------------------------------------
 -----
 title
 -----
 Structure from the checkpoint file:  "2-2-dicyanoethanedithioicacid.chk"
 Charge =  0 Multiplicity = 1

                         Standard orientation:
 ---------------------------------------------------------------------
 Center     Atomic      Atomic             Coordinates (Angstroms)
 Number     Number       Type             X           Y           Z
 ---------------------------------------------------------------------
      1         16           0        2.003409    0.770859    0.144997
      2         16           0        0.824434   -1.874911   -0.296043
      3          7           0       -2.788831   -1.286739    0.056249
      4          7           0       -1.196262    2.646561   -0.557680
      5          6           0       -0.747144    0.287249    0.481702
      6          6           0        0.630661   -0.307408    0.072187
      7          6           0       -1.869388   -0.620646    0.224187
      8          6           0       -1.016190    1.603166   -0.112117
      9          1           0       -0.695773    0.434643    1.567730
     10          1           0        1.358300    1.937262    0.363284
 ---------------------------------------------------------------------

 SCF Done:  E(RHF) =  -1056.68417975     A.U. after    2 cycles

 The electronic state is 1-A.
 Alpha  occ. eigenvalues --  -93.61074 -93.56108 -15.69356 -15.67902 -11.41485
 Alpha  occ. eigenvalues --  -11.40060 -11.34101 -11.32695  -8.90861  -8.86001
 Alpha  occ. eigenvalues --   -6.25012  -6.24786  -6.24430  -6.20165  -6.19765
 Alpha  occ. eigenvalues --   -6.19535  -1.25856  -1.23181  -1.18061  -1.08171
 Alpha  occ. eigenvalues --   -1.00314  -0.81456  -0.80538  -0.74307  -0.69471
 Alpha  occ. eigenvalues --   -0.59857  -0.58566  -0.56919  -0.54351  -0.52983
 Alpha  occ. eigenvalues --   -0.52082  -0.50387  -0.49803  -0.49062  -0.38819
 Alpha  occ. eigenvalues --   -0.38277
 Alpha virt. eigenvalues --    0.00335   0.02544   0.04368   0.06627   0.07084
 Alpha virt. eigenvalues --    0.07757   0.08610   0.09175   0.09934   0.11130
 Alpha virt. eigenvalues --    0.11219   0.12534   0.12850   0.13057   0.13848

 Mulliken charges:
               1
     1  S    0.392161
     2  S    0.156292
     3  N   -0.091234
     4  N   -0.179404
     5  C    0.346489
     6  C   -0.386625
     7  C   -0.340421
     8  C   -0.212966
     9  H    0.256317
    10  H    0.059392
 Sum of Mulliken charges =  -0.00000

 Dipole moment (field-independent basis, Debye):
    X=              2.7287    Y=              1.3114    Z=              2.3835  Tot=              3.8532

 Test job not archived.
 1\1\GINC-SE115\SP\RHF\Aug-CC-pVDZ\C4H2N2S2\OHZDE\05-Apr-2025\0\\#t hf
 aug-cc-pvdz iop(5/13=1,5/36=2,99/5=2) pseudo=read geom=check guess=(re
 ad,tcheck) scf=(maxcycle=1)\\title\\0,1\S,0,2.003409,0.770859,0.144997
 \S,0,0.824434,-1.874911,-0.296043\N,0,-2.788831,-1.286739,0.056249\N,0
 ,-1.196262,2.646561,-0.55768\C,0,-0.747144,0.287249,0.481702\C,0,0.630
 661,-0.307408,0.072187\C,0,-1.869388,-0.620646,0.224187\C,0,-1.01619,1
 .603166,-0.112117\H,0,-0.695773,0.434643,1.56773\H,0,1.3583,1.937262,0
 .363284\\Version=ES64L-G16RevC.01\State=1-A\HF=-1056.6841798\RMSD=8.56

 Normal termination of Gaussian 16 at Sat Apr  5 22:20:54 2025.
