 Gaussian 16, Revision C.01,

 ----------------------------------------------------------------------
 #t hf aug-cc-pvdz symm=none int=(grid=ultrafine) guess=(read,tcheck) s
 table=(opt,rrhf)
 ----------------------------------------------------------------------
 -----
 title
 -----
 Symbolic Z-matrix:
 Charge =  0 Multiplicity = 1

 SCF Done:  E(RHF) =  -1992.99313943     A.U. after   12 cycles

 1\1\GINC-SE040\Stability\RHF\Aug-CC-pVDZ\C4H6Cl4\OHZDE\05-Apr-2025\0\\
 #t hf aug-cc-pvdz symm=none int=(grid=ultrafine) guess=(read,tcheck) s
 table=(opt,rrhf)\\title\\0,1\C,0,1.119788,1.638607,0.\C,0,-1.119788,-1
 .638607,0.\C,0,-0.125681,0.772915,0.\C,0,0.125681,-0.772915,0.\Cl,0,-1
 .119788,1.196241,1.462338\Cl,0,-1.119788,1.196241,-1.462338\Cl,0,1.119
 788,-1.196241,-1.462338\Cl,0,1.119788,-1.196241,1.462338\H,0,1.713774,
 1.435038,0.887218\H,0,1.713774,1.435038,-0.887218\H,0,0.825079,2.68419
 9,0.\H,0,-0.825079,-2.684199,0.\H,0,-1.713774,-1.435038,-0.887218\H,0,

 Normal termination of Gaussian 16 at Sat Apr  5 22:19:36 2025.
 Gaussian 16:  ES64L-G16RevC.01  3-Jul-2019

 ----------------------------------------------------------------------
 #t hf aug-cc-pvdz iop(5/13=1,5/36=2,99/5=2) pseudo=read geom=check gue
 ss=(read,tcheck) scf=(maxcycle=1)
 ----------------------------------------------------------------------
 -----
 title
 -----
 Structure from the checkpoint file:  "2-2-3-3-tetrachlorobutane.chk"
 Charge =  0 Multiplicity = 1

                         Standard orientation:
 ---------------------------------------------------------------------
 Center     Atomic      Atomic             Coordinates (Angstroms)
 Number     Number       Type             X           Y           Z
 ---------------------------------------------------------------------
      1          6           0        1.119788    1.638607   -0.000000
      2          6           0       -1.119788   -1.638607   -0.000000
      3          6           0       -0.125681    0.772915   -0.000000
      4          6           0        0.125681   -0.772915   -0.000000
      5         17           0       -1.119788    1.196241    1.462338
      6         17           0       -1.119788    1.196241   -1.462338
      7         17           0        1.119788   -1.196241   -1.462338
      8         17           0        1.119788   -1.196241    1.462338
      9          1           0        1.713774    1.435038    0.887218
     10          1           0        1.713774    1.435038   -0.887218
     11          1           0        0.825079    2.684199   -0.000000
     12          1           0       -0.825079   -2.684199   -0.000000
     13          1           0       -1.713774   -1.435038   -0.887218
     14          1           0       -1.713774   -1.435038    0.887218
 ---------------------------------------------------------------------

 SCF Done:  E(RHF) =  -1993.11008802     A.U. after    2 cycles

 The electronic state is 1-AG.
 Alpha  occ. eigenvalues -- -103.67825-103.67825-103.67825-103.67825 -11.41379
 Alpha  occ. eigenvalues --  -11.41332 -11.26183 -11.26183 -10.71126 -10.71122
 Alpha  occ. eigenvalues --  -10.71117 -10.71115  -8.36836  -8.36832  -8.36829
 Alpha  occ. eigenvalues --   -8.36827  -8.36536  -8.36532  -8.36531  -8.36530
 Alpha  occ. eigenvalues --   -8.36524  -8.36519  -8.36519  -8.36515  -1.25895
 Alpha  occ. eigenvalues --   -1.20261  -1.15364  -1.13554  -1.03050  -1.02629
 Alpha  occ. eigenvalues --   -0.90042  -0.76605  -0.68480  -0.66675  -0.65074
 Alpha  occ. eigenvalues --   -0.63535  -0.58590  -0.58228  -0.55556  -0.55141
 Alpha  occ. eigenvalues --   -0.53380  -0.49823  -0.49556  -0.48889  -0.48450
 Alpha  occ. eigenvalues --   -0.47372  -0.47135  -0.45741  -0.44668
 Alpha virt. eigenvalues --    0.03963   0.04391   0.05807   0.05859   0.06608
 Alpha virt. eigenvalues --    0.06776   0.08778   0.08855   0.09499   0.10092
 Alpha virt. eigenvalues --    0.12073   0.12413   0.13860   0.14520   0.14815

 Mulliken charges:
               1
     1  C    0.865210
     2  C    0.865210
     3  C   -0.630656
     4  C   -0.630656
     5  Cl  -0.112225
     6  Cl  -0.112225
     7  Cl  -0.112225
     8  Cl  -0.112225
     9  H    0.003721
    10  H    0.003721
    11  H   -0.017546
    12  H   -0.017546
    13  H    0.003721
    14  H    0.003721
 Sum of Mulliken charges =  -0.00000

 Dipole moment (field-independent basis, Debye):
    X=              0.0000    Y=             -0.0000    Z=              0.0000  Tot=              0.0000

 Test job not archived.
 1\1\GINC-SE040\SP\RHF\Aug-CC-pVDZ\C4H6Cl4\OHZDE\05-Apr-2025\0\\#t hf a
 ug-cc-pvdz iop(5/13=1,5/36=2,99/5=2) pseudo=read geom=check guess=(rea
 d,tcheck) scf=(maxcycle=1)\\title\\0,1\C,0,1.119788,1.638607,0.\C,0,-1
 .119788,-1.638607,0.\C,0,-0.125681,0.772915,0.\C,0,0.125681,-0.772915,
 0.\Cl,0,-1.119788,1.196241,1.462338\Cl,0,-1.119788,1.196241,-1.462338\
 Cl,0,1.119788,-1.196241,-1.462338\Cl,0,1.119788,-1.196241,1.462338\H,0
 ,1.713774,1.435038,0.887218\H,0,1.713774,1.435038,-0.887218\H,0,0.8250
 79,2.684199,0.\H,0,-0.825079,-2.684199,0.\H,0,-1.713774,-1.435038,-0.8

 Normal termination of Gaussian 16 at Sat Apr  5 22:20:31 2025.
