 Gaussian 16, Revision C.01,

 ----------------------------------------------------------------------
 #t hf aug-cc-pvdz symm=none int=(grid=ultrafine) guess=(read,tcheck) s
 table=(opt,rrhf)
 ----------------------------------------------------------------------
 -----
 title
 -----
 Symbolic Z-matrix:
 Charge =  0 Multiplicity = 1

 SCF Done:  E(RHF) =  -1105.98495895     A.U. after   14 cycles
 Normal termination of Gaussian 16 at Sat Apr  5 22:19:32 2025.
 Gaussian 16:  ES64L-G16RevC.01  3-Jul-2019

 ----------------------------------------------------------------------
 #t hf aug-cc-pvdz iop(5/13=1,5/36=2,99/5=2) pseudo=read geom=check gue
 ss=(read,tcheck) scf=(maxcycle=1)
 ----------------------------------------------------------------------
 -----
 title
 -----
 Structure from the checkpoint file:  "2-2-dichloroethanimidamide.chk"
 Charge =  0 Multiplicity = 1

                         Standard orientation:
 ---------------------------------------------------------------------
 Center     Atomic      Atomic             Coordinates (Angstroms)
 Number     Number       Type             X           Y           Z
 ---------------------------------------------------------------------
      1         17           0       -0.526261    1.700246   -0.274259
      2         17           0       -1.582682   -1.029631    0.088524
      3          7           0        2.158124    0.361416    0.398415
      4          7           0        1.210053   -1.612357   -0.532489
      5          6           0       -0.238755    0.057016    0.456190
      6          6           0        1.125544   -0.473564    0.016892
      7          1           0       -0.244149    0.225219    1.527203
      8          1           0        1.958781    1.347470    0.456439
      9          1           0        3.066064    0.149392    0.018031
     10          1           0        2.173372   -1.866659   -0.744155
 ---------------------------------------------------------------------

 SCF Done:  E(RHF) =  -1106.07730436     A.U. after    2 cycles

 The electronic state is 1-A.
 Alpha  occ. eigenvalues -- -103.68092-103.67098 -15.66205 -15.61689 -11.39096
 Alpha  occ. eigenvalues --  -11.36126 -10.71372 -10.70389  -8.37083  -8.36788
 Alpha  occ. eigenvalues --   -8.36766  -8.36120  -8.35786  -8.35777  -1.27055
 Alpha  occ. eigenvalues --   -1.20685  -1.15099  -1.12750  -0.95487  -0.79501
 Alpha  occ. eigenvalues --   -0.73450  -0.72038  -0.65453  -0.60991  -0.59455
 Alpha  occ. eigenvalues --   -0.54230  -0.48889  -0.48775  -0.46185  -0.45977
 Alpha  occ. eigenvalues --   -0.43778  -0.39109
 Alpha virt. eigenvalues --    0.02586   0.04198   0.04869   0.06694   0.08445
 Alpha virt. eigenvalues --    0.09408   0.10270   0.12116   0.13165   0.14110
 Alpha virt. eigenvalues --    0.14412   0.15146   0.15793   0.16973   0.17091

 Mulliken charges:
               1
     1  Cl  -0.044201
     2  Cl   0.017677
     3  N   -0.242416
     4  N   -0.345502
     5  C   -0.514687
     6  C    0.943032
     7  H    0.208153
     8  H    0.032988
     9  H   -0.028204
    10  H   -0.026841
 Sum of Mulliken charges =   0.00000

 Dipole moment (field-independent basis, Debye):
    X=              3.3639    Y=              1.7557    Z=              1.0752  Tot=              3.9439

 Test job not archived.
 1\1\GINC-SE055\SP\RHF\Aug-CC-pVDZ\C2H4Cl2N2\OHZDE\05-Apr-2025\0\\#t hf
  aug-cc-pvdz iop(5/13=1,5/36=2,99/5=2) pseudo=read geom=check guess=(r
 ead,tcheck) scf=(maxcycle=1)\\title\\0,1\Cl,0,-0.526261,1.700246,-0.27
 4259\Cl,0,-1.582683,-1.02963,0.088524\N,0,2.158124,0.361415,0.398415\N
 ,0,1.210052,-1.612358,-0.532489\C,0,-0.238755,0.057016,0.45619\C,0,1.1
 25544,-0.473565,0.016892\H,0,-0.244149,0.225219,1.527203\H,0,1.958781,
 1.347469,0.456439\H,0,3.066064,0.149391,0.018031\H,0,2.173371,-1.86666
 ,-0.744155\\Version=ES64L-G16RevC.01\State=1-A\HF=-1106.0773044\RMSD=4

 Normal termination of Gaussian 16 at Sat Apr  5 22:20:30 2025.
