 Gaussian 16, Revision C.01,

 ----------------------------------------------------------------------
 #t hf aug-cc-pvdz symm=none int=(grid=ultrafine) guess=(read,tcheck) s
 table=(opt,rrhf)
 ----------------------------------------------------------------------
 -----
 title
 -----
 Symbolic Z-matrix:
 Charge =  0 Multiplicity = 1

 SCF Done:  E(RHF) =  -1057.77223330     A.U. after   14 cycles
 Normal termination of Gaussian 16 at Sat Apr  5 22:18:29 2025.
 Gaussian 16:  ES64L-G16RevC.01  3-Jul-2019

 ----------------------------------------------------------------------
 #t hf aug-cc-pvdz iop(5/13=1,5/36=2,99/5=2) pseudo=read geom=check gue
 ss=(read,tcheck) scf=(maxcycle=1)
 ----------------------------------------------------------------------
 -----
 title
 -----
 Structure from the checkpoint file:  "2-2--disulfanediyldiacetonitrile.chk"
 Charge =  0 Multiplicity = 1

                         Standard orientation:
 ---------------------------------------------------------------------
 Center     Atomic      Atomic             Coordinates (Angstroms)
 Number     Number       Type             X           Y           Z
 ---------------------------------------------------------------------
      1         16           0        0.406791    0.942610    0.784578
      2         16           0       -0.406791   -0.942610    0.784578
      3          7           0        0.183607    4.290300   -0.635604
      4          7           0       -0.183607   -4.290300   -0.635604
      5          6           0       -0.625549    1.822703   -0.494613
      6          6           0        0.625549   -1.822703   -0.494613
      7          6           0       -0.183607    3.202009   -0.580957
      8          6           0        0.183607   -3.202009   -0.580957
      9          1           0       -0.505885    1.334775   -1.459501
     10          1           0       -1.669096    1.778086   -0.191095
     11          1           0        0.505885   -1.334775   -1.459501
     12          1           0        1.669096   -1.778086   -0.191095
 ---------------------------------------------------------------------

 SCF Done:  E(RHF) =  -1057.89060305     A.U. after    2 cycles

 The electronic state is 1-A.
 Alpha  occ. eigenvalues --  -93.60906 -93.60903 -15.66650 -15.66650 -11.35096
 Alpha  occ. eigenvalues --  -11.35096 -11.31485 -11.31485  -8.90415  -8.90396
 Alpha  occ. eigenvalues --   -6.24569  -6.24472  -6.24264  -6.24226  -6.23905
 Alpha  occ. eigenvalues --   -6.23899  -1.22313  -1.22228  -1.12837  -1.08412
 Alpha  occ. eigenvalues --   -0.99344  -0.85012  -0.73490  -0.73286  -0.68340
 Alpha  occ. eigenvalues --   -0.67925  -0.62110  -0.57176  -0.57020  -0.56406
 Alpha  occ. eigenvalues --   -0.49612  -0.49100  -0.48604  -0.48251  -0.48162
 Alpha  occ. eigenvalues --   -0.40334  -0.40302
 Alpha virt. eigenvalues --    0.02199   0.03565   0.04291   0.05494   0.06605
 Alpha virt. eigenvalues --    0.06968   0.07599   0.08261   0.09184   0.10282
 Alpha virt. eigenvalues --    0.10799   0.11182   0.11483   0.12357   0.12682

 Mulliken charges:
               1
     1  S    0.182142
     2  S    0.182142
     3  N   -0.111358
     4  N   -0.111358
     5  C    0.279154
     6  C    0.279154
     7  C   -0.417057
     8  C   -0.417057
     9  H    0.008587
    10  H    0.058532
    11  H    0.008587
    12  H    0.058532
 Sum of Mulliken charges =   0.00000

 Dipole moment (field-independent basis, Debye):
    X=             -0.0000    Y=             -0.0000    Z=             -1.0815  Tot=              1.0815

 Test job not archived.
 1\1\GINC-SE108\SP\RHF\Aug-CC-pVDZ\C4H4N2S2\OHZDE\05-Apr-2025\0\\#t hf
 aug-cc-pvdz iop(5/13=1,5/36=2,99/5=2) pseudo=read geom=check guess=(re
 ad,tcheck) scf=(maxcycle=1)\\title\\0,1\S,0,0.406791,0.94261,0.784578\
 S,0,-0.406791,-0.94261,0.784578\N,0,0.183607,4.2903,-0.635604\N,0,-0.1
 83607,-4.2903,-0.635604\C,0,-0.625549,1.822703,-0.494613\C,0,0.625549,
 -1.822703,-0.494613\C,0,-0.183607,3.202009,-0.580957\C,0,0.183607,-3.2
 02009,-0.580957\H,0,-0.505885,1.334775,-1.459501\H,0,-1.669096,1.77808
 6,-0.191095\H,0,0.505885,-1.334775,-1.459501\H,0,1.669096,-1.778086,-0

 Normal termination of Gaussian 16 at Sat Apr  5 22:18:36 2025.
