 Gaussian 16, Revision C.01,

 ----------------------------------------------------------------------
 #t hf aug-cc-pvdz symm=none int=(grid=ultrafine) guess=(read,tcheck) s
 table=(opt,rrhf)
 ----------------------------------------------------------------------
 -----
 title
 -----
 Symbolic Z-matrix:
 Charge =  0 Multiplicity = 1

 SCF Done:  E(RHF) =  -352.502447530     A.U. after   12 cycles
 Normal termination of Gaussian 16 at Sat Apr  5 22:23:48 2025.
 Gaussian 16:  ES64L-G16RevC.01  3-Jul-2019

 ----------------------------------------------------------------------
 #t hf aug-cc-pvdz iop(5/13=1,5/36=2,99/5=2) pseudo=read geom=check gue
 ss=(read,tcheck) scf=(maxcycle=1)
 ----------------------------------------------------------------------
 -----
 title
 -----
 Structure from the checkpoint file:  "2-2-5-trimethylhexane.chk"
 Charge =  0 Multiplicity = 1

                         Standard orientation:
 ---------------------------------------------------------------------
 Center     Atomic      Atomic             Coordinates (Angstroms)
 Number     Number       Type             X           Y           Z
 ---------------------------------------------------------------------
      1          6           0        0.261359    2.728775    1.263761
      2          6           0        0.261359    2.728775   -1.263761
      3          6           0        0.261359   -2.190212   -1.255251
      4          6           0        0.261359   -2.190212    1.255251
      5          6           0       -1.897219   -2.110279    0.000000
      6          6           0        0.930924    0.602207   -0.000000
      7          6           0       -0.435871   -0.089408    0.000000
      8          6           0        0.902632    2.145688   -0.000000
      9          6           0       -0.433736   -1.639048    0.000000
     10          1           0        0.722844    2.323751    2.166617
     11          1           0       -0.807615    2.513614    1.310589
     12          1           0        0.375647    3.813898    1.290358
     13          1           0       -0.807615    2.513614   -1.310589
     14          1           0        0.375647    3.813898   -1.290358
     15          1           0        0.722844    2.323751   -2.166617
     16          1           0       -0.197356   -1.795095   -2.164364
     17          1           0        1.321852   -1.937870   -1.278005
     18          1           0        0.183154   -3.278767   -1.290423
     19          1           0        1.321852   -1.937870    1.278005
     20          1           0       -0.197356   -1.795095    2.164364
     21          1           0        0.183154   -3.278767    1.290423
     22          1           0       -2.428479   -1.746411   -0.882025
     23          1           0       -2.428479   -1.746411    0.882025
     24          1           0       -1.958193   -3.200485    0.000000
     25          1           0        1.502655    0.279924   -0.874023
     26          1           0        1.502655    0.279924    0.874023
     27          1           0       -1.005955    0.238235   -0.873903
     28          1           0       -1.005955    0.238235    0.873903
     29          1           0        1.951716    2.460219   -0.000000
 ---------------------------------------------------------------------

 SCF Done:  E(RHF) =  -352.614668869     A.U. after    2 cycles

 The electronic state is 1-A'.
 Alpha  occ. eigenvalues --  -11.23755 -11.23048 -11.21908 -11.21796 -11.21650
 Alpha  occ. eigenvalues --  -11.21642 -11.21546 -11.21531 -11.21522  -1.10127
 Alpha  occ. eigenvalues --   -1.06579  -0.96777  -0.92445  -0.92381  -0.92220
 Alpha  occ. eigenvalues --   -0.86394  -0.75668  -0.72214  -0.63884  -0.63149
 Alpha  occ. eigenvalues --   -0.60549  -0.59583  -0.59513  -0.58156  -0.55365
 Alpha  occ. eigenvalues --   -0.54473  -0.53387  -0.51692  -0.51166  -0.51016
 Alpha  occ. eigenvalues --   -0.48890  -0.47644  -0.46764  -0.46127  -0.44630
 Alpha  occ. eigenvalues --   -0.43473  -0.42820
 Alpha virt. eigenvalues --    0.03321   0.03991   0.04246   0.04354   0.05598
 Alpha virt. eigenvalues --    0.05809   0.05940   0.06338   0.06396   0.07690
 Alpha virt. eigenvalues --    0.08015   0.08124   0.08680   0.08993   0.09246

 Mulliken charges:
               1
     1  C    0.816066
     2  C    0.816066
     3  C    1.311724
     4  C    1.311724
     5  C    1.564080
     6  C    0.402471
     7  C    1.175669
     8  C   -0.994131
     9  C   -4.588516
    10  H   -0.060771
    11  H   -0.057356
    12  H   -0.115063
    13  H   -0.057356
    14  H   -0.115063
    15  H   -0.060771
    16  H   -0.001801
    17  H   -0.071867
    18  H   -0.046628
    19  H   -0.071867
    20  H   -0.001801
    21  H   -0.046628
    22  H   -0.019858
    23  H   -0.019858
    24  H   -0.031633
    25  H   -0.214344
    26  H   -0.214344
    27  H   -0.262088
    28  H   -0.262088
    29  H   -0.083972
 Sum of Mulliken charges =  -0.00000

 Dipole moment (field-independent basis, Debye):
    X=              0.1372    Y=              0.0488    Z=             -0.0000  Tot=              0.1456

 Test job not archived.
 1\1\GINC-SE042\SP\RHF\Aug-CC-pVDZ\C9H20\OHZDE\05-Apr-2025\0\\#t hf aug
 -cc-pvdz iop(5/13=1,5/36=2,99/5=2) pseudo=read geom=check guess=(read,
 tcheck) scf=(maxcycle=1)\\title\\0,1\C,0,0.261359,2.728775,1.263761\C,
 0,0.261359,2.728775,-1.263761\C,0,0.261359,-2.190212,-1.255251\C,0,0.2
 61359,-2.190212,1.255251\C,0,-1.897219,-2.110279,0.\C,0,0.930924,0.602
 207,0.\C,0,-0.435871,-0.089408,0.\C,0,0.902632,2.145688,0.\C,0,-0.4337
 36,-1.639048,0.\H,0,0.722844,2.323751,2.166617\H,0,-0.807615,2.513614,
 1.310589\H,0,0.375647,3.813898,1.290358\H,0,-0.807615,2.513614,-1.3105

 Normal termination of Gaussian 16 at Sat Apr  5 22:24:01 2025.
