 Gaussian 16, Revision C.01,

 ----------------------------------------------------------------------
 #t hf aug-cc-pvdz symm=none int=(grid=ultrafine) guess=(read,tcheck) s
 table=(opt,rrhf)
 ----------------------------------------------------------------------
 -----
 title
 -----
 Symbolic Z-matrix:
 Charge =  0 Multiplicity = 1

 SCF Done:  E(RHF) =  -235.389758088     A.U. after   11 cycles
 Normal termination of Gaussian 16 at Sat Apr  5 22:19:59 2025.
 Gaussian 16:  ES64L-G16RevC.01  3-Jul-2019

 ----------------------------------------------------------------------
 #t hf aug-cc-pvdz iop(5/13=1,5/36=2,99/5=2) pseudo=read geom=check gue
 ss=(read,tcheck) scf=(maxcycle=1)
 ----------------------------------------------------------------------
 -----
 title
 -----
 Structure from the checkpoint file:  "2-2-dimethylbutane.chk"
 Charge =  0 Multiplicity = 1

                         Standard orientation:
 ---------------------------------------------------------------------
 Center     Atomic      Atomic             Coordinates (Angstroms)
 Number     Number       Type             X           Y           Z
 ---------------------------------------------------------------------
      1          6           0       -1.909658   -1.067465    0.000000
      2          6           0        0.899358   -0.498996    1.255256
      3          6           0        0.899358    1.663266    0.000000
      4          6           0        0.899358   -0.498996   -1.255256
      5          6           0       -1.169008    0.270451    0.000000
      6          6           0        0.377490    0.217634    0.000000
      7          1           0       -1.674987   -1.665724    0.881080
      8          1           0       -2.987965   -0.901561    0.000000
      9          1           0       -1.674987   -1.665724   -0.881080
     10          1           0        0.598153   -1.546802    1.280112
     11          1           0        0.527055   -0.021077    2.164092
     12          1           0        1.990351   -0.471536    1.288745
     13          1           0        0.553781    2.206619   -0.882017
     14          1           0        0.553781    2.206619    0.882017
     15          1           0        1.990950    1.686803    0.000000
     16          1           0        0.598153   -1.546802   -1.280112
     17          1           0        1.990351   -0.471536   -1.288745
     18          1           0        0.527055   -0.021077   -2.164092
     19          1           0       -1.486539    0.848219    0.873569
     20          1           0       -1.486539    0.848219   -0.873569
 ---------------------------------------------------------------------

 SCF Done:  E(RHF) =  -235.466400425     A.U. after    2 cycles

 The electronic state is 1-A'.
 Alpha  occ. eigenvalues --  -11.23736 -11.22219 -11.21814 -11.21583 -11.21579
 Alpha  occ. eigenvalues --  -11.21568  -1.09657  -0.99056  -0.92450  -0.92424
 Alpha  occ. eigenvalues --   -0.84868  -0.72445  -0.62609  -0.62529  -0.59903
 Alpha  occ. eigenvalues --   -0.58323  -0.55316  -0.53296  -0.52707  -0.51129
 Alpha  occ. eigenvalues --   -0.50279  -0.48718  -0.45040  -0.44802  -0.44015
 Alpha virt. eigenvalues --    0.03570   0.04418   0.04681   0.04786   0.06479
 Alpha virt. eigenvalues --    0.06624   0.06749   0.06881   0.06984   0.09167
 Alpha virt. eigenvalues --    0.09224   0.09454   0.09699   0.10103   0.12793

 Mulliken charges:
               1
     1  C    0.485658
     2  C    1.282525
     3  C    1.434792
     4  C    1.282525
     5  C    1.018937
     6  C   -4.667804
     7  H   -0.078345
     8  H   -0.056461
     9  H   -0.078345
    10  H   -0.089539
    11  H   -0.004084
    12  H   -0.019790
    13  H   -0.037274
    14  H   -0.037274
    15  H   -0.047223
    16  H   -0.089539
    17  H   -0.019790
    18  H   -0.004084
    19  H   -0.137442
    20  H   -0.137442
 Sum of Mulliken charges =  -0.00000

 Dipole moment (field-independent basis, Debye):
    X=             -0.0504    Y=              0.0089    Z=             -0.0000  Tot=              0.0512

 Test job not archived.
 1\1\GINC-SE177\SP\RHF\Aug-CC-pVDZ\C6H14\OHZDE\05-Apr-2025\0\\#t hf aug
 -cc-pvdz iop(5/13=1,5/36=2,99/5=2) pseudo=read geom=check guess=(read,
 tcheck) scf=(maxcycle=1)\\title\\0,1\C,0,-1.909658,-1.067465,0.\C,0,0.
 899358,-0.498996,1.255256\C,0,0.899358,1.663266,0.\C,0,0.899358,-0.498
 996,-1.255256\C,0,-1.169008,0.270451,0.\C,0,0.37749,0.217634,0.\H,0,-1
 .674987,-1.665724,0.88108\H,0,-2.987965,-0.901561,0.\H,0,-1.674987,-1.
 665724,-0.88108\H,0,0.598153,-1.546802,1.280112\H,0,0.527055,-0.021077
 ,2.164092\H,0,1.990351,-0.471536,1.288745\H,0,0.553781,2.206619,-0.882

 Normal termination of Gaussian 16 at Sat Apr  5 22:20:33 2025.
