 Gaussian 16, Revision C.01,

 ----------------------------------------------------------------------
 #t hf aug-cc-pvdz symm=none int=(grid=ultrafine) guess=(read,tcheck) s
 table=(opt,rrhf)
 ----------------------------------------------------------------------
 -----
 title
 -----
 Symbolic Z-matrix:
 Charge =  0 Multiplicity = 1

 SCF Done:  E(RHF) =  -1036.12720677     A.U. after   12 cycles

 1\1\GINC-SE158\Stability\RHF\Aug-CC-pVDZ\C3H6Cl2\OHZDE\05-Apr-2025\0\\
 #t hf aug-cc-pvdz symm=none int=(grid=ultrafine) guess=(read,tcheck) s
 table=(opt,rrhf)\\title\\0,1\C,0,0.,0.,0.352403\Cl,0,1.474178,0.,-0.72
 2182\Cl,0,-1.474178,0.,-0.722182\C,0,0.,1.271429,1.177208\C,0,0.,-1.27
 1429,1.177208\H,0,0.,2.149972,0.537521\H,0,0.,-2.149972,0.537521\H,0,-
 0.887342,1.294212,1.80956\H,0,0.887342,1.294212,1.80956\H,0,0.887342,-
 1.294212,1.80956\H,0,-0.887342,-1.294212,1.80956\\Version=ES64L-G16Rev
 C.01\HF=-1036.1272068\RMSD=5.264e-09\Dipole=0.,0.,1.0428145\Quadrupole

 Normal termination of Gaussian 16 at Sat Apr  5 22:20:48 2025.
 Gaussian 16:  ES64L-G16RevC.01  3-Jul-2019

 ----------------------------------------------------------------------
 #t hf aug-cc-pvdz iop(5/13=1,5/36=2,99/5=2) pseudo=read geom=check gue
 ss=(read,tcheck) scf=(maxcycle=1)
 ----------------------------------------------------------------------
 -----
 title
 -----
 Structure from the checkpoint file:  "2-2-dichloropropane.chk"
 Charge =  0 Multiplicity = 1

                         Standard orientation:
 ---------------------------------------------------------------------
 Center     Atomic      Atomic             Coordinates (Angstroms)
 Number     Number       Type             X           Y           Z
 ---------------------------------------------------------------------
      1          6           0        0.000000    0.000000    0.352403
      2         17           0        1.474178   -0.000000   -0.722182
      3         17           0       -1.474178    0.000000   -0.722182
      4          6           0       -0.000000    1.271429    1.177208
      5          6           0       -0.000000   -1.271429    1.177208
      6          1           0       -0.000000    2.149972    0.537521
      7          1           0       -0.000000   -2.149972    0.537521
      8          1           0       -0.887342    1.294212    1.809560
      9          1           0        0.887342    1.294212    1.809560
     10          1           0        0.887342   -1.294212    1.809560
     11          1           0       -0.887342   -1.294212    1.809560
 ---------------------------------------------------------------------

 SCF Done:  E(RHF) =  -1036.20032476     A.U. after    2 cycles

 The electronic state is 1-A1.
 Alpha  occ. eigenvalues -- -103.66139-103.66139 -11.38760 -11.25821 -11.25809
 Alpha  occ. eigenvalues --  -10.69438 -10.69433  -8.35147  -8.35142  -8.34850
 Alpha  occ. eigenvalues --   -8.34850  -8.34847  -8.34846  -1.21587  -1.12754
 Alpha  occ. eigenvalues --   -1.03733  -0.97441  -0.78670  -0.65495  -0.64621
 Alpha  occ. eigenvalues --   -0.62998  -0.58152  -0.54793  -0.54007  -0.52013
 Alpha  occ. eigenvalues --   -0.47378  -0.46767  -0.45366  -0.44618
 Alpha virt. eigenvalues --    0.03353   0.04755   0.05440   0.06080   0.07341
 Alpha virt. eigenvalues --    0.07457   0.08770   0.09896   0.11194   0.13984
 Alpha virt. eigenvalues --    0.14268   0.15240   0.15671   0.17014   0.17151

 Mulliken charges:
               1
     1  C   -1.454842
     2  Cl  -0.141760
     3  Cl  -0.141760
     4  C    0.888943
     5  C    0.888943
     6  H   -0.042039
     7  H   -0.042039
     8  H    0.011139
     9  H    0.011139
    10  H    0.011139
    11  H    0.011139
 Sum of Mulliken charges =   0.00000

 Dipole moment (field-independent basis, Debye):
    X=              0.0000    Y=              0.0000    Z=              2.7377  Tot=              2.7377

 Test job not archived.
 1\1\GINC-SE158\SP\RHF\Aug-CC-pVDZ\C3H6Cl2\OHZDE\05-Apr-2025\0\\#t hf a
 ug-cc-pvdz iop(5/13=1,5/36=2,99/5=2) pseudo=read geom=check guess=(rea
 d,tcheck) scf=(maxcycle=1)\\title\\0,1\C,0,0.,0.,0.352403\Cl,0,1.47417
 8,0.,-0.722182\Cl,0,-1.474178,0.,-0.722182\C,0,0.,1.271429,1.177208\C,
 0,0.,-1.271429,1.177208\H,0,0.,2.149972,0.537521\H,0,0.,-2.149972,0.53
 7521\H,0,-0.887342,1.294212,1.80956\H,0,0.887342,1.294212,1.80956\H,0,
 0.887342,-1.294212,1.80956\H,0,-0.887342,-1.294212,1.80956\\Version=ES
 64L-G16RevC.01\State=1-A1\HF=-1036.2003248\RMSD=5.619e-03\Dipole=0.,0.

 Normal termination of Gaussian 16 at Sat Apr  5 22:20:52 2025.
