 Gaussian 16, Revision C.01,

 ----------------------------------------------------------------------
 #t hf aug-cc-pvdz symm=none int=(grid=ultrafine) guess=(read,tcheck) s
 table=(opt,rrhf)
 ----------------------------------------------------------------------
 -----
 title
 -----
 Symbolic Z-matrix:
 Charge =  0 Multiplicity = 1

 SCF Done:  E(RHF) =  -568.270706922     A.U. after   15 cycles
 Normal termination of Gaussian 16 at Sat Apr  5 22:26:44 2025.
 Gaussian 16:  ES64L-G16RevC.01  3-Jul-2019

 ----------------------------------------------------------------------
 #t hf aug-cc-pvdz iop(5/13=1,5/36=2,99/5=2) pseudo=read geom=check gue
 ss=(read,tcheck) scf=(maxcycle=1)
 ----------------------------------------------------------------------
 -----
 title
 -----
 Structure from the checkpoint file:  "2-2-furylcyclopropyl-3H-imidazole.chk"
 Charge =  0 Multiplicity = 1

                         Standard orientation:
 ---------------------------------------------------------------------
 Center     Atomic      Atomic             Coordinates (Angstroms)
 Number     Number       Type             X           Y           Z
 ---------------------------------------------------------------------
      1          6           0        4.003632    0.781182   -0.318561
      2          6           0        2.827443    1.218501    0.371503
      3          6           0       -2.371864    1.192790   -0.026218
      4          6           0        3.730184   -0.458141   -0.785971
      5          6           0       -4.074244   -0.047206   -0.382089
      6          6           0       -1.871478   -0.079363   -0.130780
      7          6           0        1.920234    0.210847    0.273998
      8          6           0        0.008227   -1.281057    1.209323
      9          6           0       -0.510143   -0.639727   -0.057973
     10          6           0        0.549025    0.058342    0.769007
     11          7           0       -3.738614    1.201606   -0.180938
     12          7           0       -2.984446   -0.866017   -0.361682
     13          8           0        2.461749   -0.825836   -0.433788
     14          1           0        4.925307    1.321844   -0.446217
     15          1           0        2.677596    2.159109    0.872631
     16          1           0       -1.821739    2.102483    0.144386
     17          1           0        4.287911   -1.179392   -1.354371
     18          1           0       -5.072787   -0.417046   -0.546593
     19          1           0       -0.640952   -1.290605    2.073149
     20          1           0        0.657884   -2.137778    1.105053
     21          1           0       -0.139037   -1.085527   -0.973867
     22          1           0        0.211409    0.911932    1.338833
     23          1           0       -2.984259   -1.864464   -0.477790
 ---------------------------------------------------------------------

 SCF Done:  E(RHF) =  -568.439482257     A.U. after    2 cycles

 The electronic state is 1-A.
 Alpha  occ. eigenvalues --  -20.63634 -15.68163 -15.60773 -11.30768 -11.30577
 Alpha  occ. eigenvalues --  -11.29679 -11.27560 -11.26535 -11.26439 -11.25141
 Alpha  occ. eigenvalues --  -11.24883 -11.24068 -11.23473  -1.41931  -1.30903
 Alpha  occ. eigenvalues --   -1.16631  -1.13095  -1.07873  -1.02459  -0.99721
 Alpha  occ. eigenvalues --   -0.87203  -0.85496  -0.82070  -0.81654  -0.79037
 Alpha  occ. eigenvalues --   -0.76567  -0.73644  -0.72943  -0.65475  -0.65128
 Alpha  occ. eigenvalues --   -0.64405  -0.61132  -0.59782  -0.58595  -0.57574
 Alpha  occ. eigenvalues --   -0.57149  -0.55598  -0.54837  -0.53892  -0.46950
 Alpha  occ. eigenvalues --   -0.45968  -0.42156  -0.40414  -0.39285  -0.31358
 Alpha  occ. eigenvalues --   -0.30718
 Alpha virt. eigenvalues --    0.02669   0.03241   0.03978   0.04286   0.04917
 Alpha virt. eigenvalues --    0.05072   0.06407   0.06713   0.07129   0.08240
 Alpha virt. eigenvalues --    0.09301   0.10631   0.11263   0.11325   0.11915

 Mulliken charges:
               1
     1  C    0.465422
     2  C    1.140518
     3  C    1.032538
     4  C    0.752588
     5  C    0.731674
     6  C   -0.473041
     7  C   -1.075328
     8  C    0.857392
     9  C    0.933054
    10  C    0.977263
    11  N   -0.772699
    12  N   -0.424455
    13  O   -0.522909
    14  H   -0.337358
    15  H   -0.413413
    16  H   -0.349448
    17  H   -0.428663
    18  H   -0.282472
    19  H   -0.388937
    20  H   -0.387005
    21  H   -0.482124
    22  H   -0.437723
    23  H   -0.114876
 Sum of Mulliken charges =  -0.00000

 Dipole moment (field-independent basis, Debye):
    X=              1.4006    Y=             -3.0425    Z=              0.0892  Tot=              3.3506

 Test job not archived.
 1\1\GINC-SE188\SP\RHF\Aug-CC-pVDZ\C10H10N2O1\OHZDE\05-Apr-2025\0\\#t h
 f aug-cc-pvdz iop(5/13=1,5/36=2,99/5=2) pseudo=read geom=check guess=(
 read,tcheck) scf=(maxcycle=1)\\title\\0,1\C,0,4.003632,0.781182,-0.318
 561\C,0,2.827443,1.218501,0.371503\C,0,-2.371864,1.19279,-0.026218\C,0
 ,3.730184,-0.458141,-0.785971\C,0,-4.074244,-0.047206,-0.382089\C,0,-1
 .871478,-0.079363,-0.13078\C,0,1.920234,0.210847,0.273998\C,0,0.008227
 ,-1.281057,1.209323\C,0,-0.510143,-0.639727,-0.057973\C,0,0.549025,0.0
 58342,0.769007\N,0,-3.738614,1.201606,-0.180938\N,0,-2.984446,-0.86601

 Normal termination of Gaussian 16 at Sat Apr  5 22:27:03 2025.
