 Gaussian 16, Revision C.01,

 ----------------------------------------------------------------------
 #t hf aug-cc-pvdz symm=none int=(grid=ultrafine) guess=(read,tcheck) s
 table=(opt,rrhf)
 ----------------------------------------------------------------------
 -----
 title
 -----
 Symbolic Z-matrix:
 Charge =  0 Multiplicity = 1

 SCF Done:  E(RHF) =  -552.808131376     A.U. after   12 cycles
 Normal termination of Gaussian 16 at Sat Apr  5 22:19:32 2025.
 Gaussian 16:  ES64L-G16RevC.01  3-Jul-2019

 ----------------------------------------------------------------------
 #t hf aug-cc-pvdz iop(5/13=1,5/36=2,99/5=2) pseudo=read geom=check gue
 ss=(read,tcheck) scf=(maxcycle=1)
 ----------------------------------------------------------------------
 -----
 title
 -----
 Structure from the checkpoint file:  "2-2-3-3-tetrafluorobutane.chk"
 Charge =  0 Multiplicity = 1

                         Standard orientation:
 ---------------------------------------------------------------------
 Center     Atomic      Atomic             Coordinates (Angstroms)
 Number     Number       Type             X           Y           Z
 ---------------------------------------------------------------------
      1          6           0        0.328548    1.572029    1.131282
      2          6           0       -0.328548   -1.572029    1.131282
      3          6           0       -0.204552    0.748232   -0.013408
      4          6           0        0.204552   -0.748232   -0.013408
      5          9           0       -1.578360    0.789917   -0.017302
      6          9           0        0.204552    1.293625   -1.195961
      7          9           0       -0.204552   -1.293625   -1.195961
      8          9           0        1.578360   -0.789917   -0.017302
      9          1           0       -0.001444    2.599626    0.991670
     10          1           0       -0.053588    1.204459    2.080962
     11          1           0        1.415266    1.540080    1.139481
     12          1           0       -1.415266   -1.540080    1.139481
     13          1           0        0.001444   -2.599626    0.991670
     14          1           0        0.053588   -1.204459    2.080962
 ---------------------------------------------------------------------

 SCF Done:  E(RHF) =  -552.999442805     A.U. after    2 cycles

 The electronic state is 1-A.
 Alpha  occ. eigenvalues --  -26.14694 -26.14693 -26.14281 -26.14279 -11.44449
 Alpha  occ. eigenvalues --  -11.44398 -11.26415 -11.26413  -1.71643  -1.70134
 Alpha  occ. eigenvalues --   -1.66398  -1.66179  -1.11875  -1.04742  -0.96608
 Alpha  occ. eigenvalues --   -0.90765  -0.85225  -0.83214  -0.81894  -0.78690
 Alpha  occ. eigenvalues --   -0.78536  -0.75485  -0.73963  -0.73242  -0.70368
 Alpha  occ. eigenvalues --   -0.70259  -0.66799  -0.60167  -0.60141  -0.58715
 Alpha  occ. eigenvalues --   -0.58572  -0.57801  -0.52741
 Alpha virt. eigenvalues --    0.03102   0.04156   0.05139   0.05411   0.06730
 Alpha virt. eigenvalues --    0.07994   0.08733   0.11166   0.11618   0.11946
 Alpha virt. eigenvalues --    0.14240   0.14779   0.14828   0.15507   0.16105

 Mulliken charges:
               1
     1  C    0.301122
     2  C    0.301122
     3  C    0.390980
     4  C    0.390980
     5  F   -0.425062
     6  F   -0.386503
     7  F   -0.386503
     8  F   -0.425062
     9  H    0.002746
    10  H    0.024395
    11  H    0.092322
    12  H    0.092322
    13  H    0.002746
    14  H    0.024395
 Sum of Mulliken charges =  -0.00000

 Dipole moment (field-independent basis, Debye):
    X=              0.0000    Y=             -0.0000    Z=              4.1768  Tot=              4.1768

 Test job not archived.
 1\1\GINC-SE041\SP\RHF\Aug-CC-pVDZ\C4H6F4\OHZDE\05-Apr-2025\0\\#t hf au
 g-cc-pvdz iop(5/13=1,5/36=2,99/5=2) pseudo=read geom=check guess=(read
 ,tcheck) scf=(maxcycle=1)\\title\\0,1\C,0,0.328548,1.572029,1.131282\C
 ,0,-0.328548,-1.572029,1.131282\C,0,-0.204552,0.748232,-0.013408\C,0,0
 .204552,-0.748232,-0.013408\F,0,-1.57836,0.789917,-0.017302\F,0,0.2045
 52,1.293625,-1.195961\F,0,-0.204552,-1.293625,-1.195961\F,0,1.57836,-0
 .789917,-0.017302\H,0,-0.001444,2.599626,0.99167\H,0,-0.053588,1.20445
 9,2.080962\H,0,1.415266,1.54008,1.139481\H,0,-1.415266,-1.54008,1.1394

 Normal termination of Gaussian 16 at Sat Apr  5 22:20:29 2025.
