 Gaussian 16, Revision C.01,

 ----------------------------------------------------------------------
 #t hf aug-cc-pvdz symm=none int=(grid=ultrafine) guess=(read,tcheck) s
 table=(opt,rrhf)
 ----------------------------------------------------------------------
 -----
 title
 -----
 Symbolic Z-matrix:
 Charge =  0 Multiplicity = 1

 SCF Done:  E(RHF) =  -450.729328181     A.U. after   12 cycles
 Normal termination of Gaussian 16 at Sat Apr  5 22:18:28 2025.
 Gaussian 16:  ES64L-G16RevC.01  3-Jul-2019

 ----------------------------------------------------------------------
 #t hf aug-cc-pvdz iop(5/13=1,5/36=2,99/5=2) pseudo=read geom=check gue
 ss=(read,tcheck) scf=(maxcycle=1)
 ----------------------------------------------------------------------
 -----
 title
 -----
 Structure from the checkpoint file:  "2-2-2-trifluoroethanol.chk"
 Charge =  0 Multiplicity = 1

                         Standard orientation:
 ---------------------------------------------------------------------
 Center     Atomic      Atomic             Coordinates (Angstroms)
 Number     Number       Type             X           Y           Z
 ---------------------------------------------------------------------
      1          6           0        0.903475    0.760982   -0.089733
      2          6           0       -0.418912    0.014271    0.005675
      3          8           0        2.010756   -0.082096    0.112517
      4          9           0       -0.478794   -0.982705   -0.908971
      5          9           0       -1.449314    0.849658   -0.237742
      6          9           0       -0.616843   -0.540066    1.211194
      7          1           0        0.924062    1.263938   -1.060758
      8          1           0        0.919466    1.514977    0.695005
      9          1           0        2.067608   -0.715645   -0.610367
 ---------------------------------------------------------------------

 SCF Done:  E(RHF) =  -450.888335906     A.U. after    2 cycles

 The electronic state is 1-A.
 Alpha  occ. eigenvalues --  -26.17140 -26.17056 -26.16747 -20.60900 -11.52735
 Alpha  occ. eigenvalues --  -11.33477  -1.76453  -1.69512  -1.69330  -1.36306
 Alpha  occ. eigenvalues --   -1.07612  -0.96375  -0.88450  -0.88330  -0.83982
 Alpha  occ. eigenvalues --   -0.77962  -0.77791  -0.73811  -0.73368  -0.72333
 Alpha  occ. eigenvalues --   -0.72041  -0.65188  -0.64793  -0.55498  -0.51087
 Alpha virt. eigenvalues --    0.03308   0.04852   0.05539   0.07971   0.10955
 Alpha virt. eigenvalues --    0.11288   0.11881   0.11917   0.15113   0.16392
 Alpha virt. eigenvalues --    0.19849   0.20448   0.20950   0.25297   0.25871

 Mulliken charges:
               1
     1  C    0.576109
     2  C    0.855469
     3  O   -0.513232
     4  F   -0.333716
     5  F   -0.318536
     6  F   -0.294053
     7  H   -0.037376
     8  H   -0.086107
     9  H    0.151443
 Sum of Mulliken charges =  -0.00000

 Dipole moment (field-independent basis, Debye):
    X=              1.2300    Y=              1.1298    Z=             -1.4710  Tot=              2.2256

 Test job not archived.
 1\1\GINC-SE190\SP\RHF\Aug-CC-pVDZ\C2H3F3O1\OHZDE\05-Apr-2025\0\\#t hf
 aug-cc-pvdz iop(5/13=1,5/36=2,99/5=2) pseudo=read geom=check guess=(re
 ad,tcheck) scf=(maxcycle=1)\\title\\0,1\C,0,0.903475,0.760982,-0.08973
 3\C,0,-0.418912,0.014271,0.005675\O,0,2.010756,-0.082096,0.112517\F,0,
 -0.478794,-0.982705,-0.908971\F,0,-1.449314,0.849658,-0.237742\F,0,-0.
 616843,-0.540066,1.211194\H,0,0.924062,1.263938,-1.060758\H,0,0.919466
 ,1.514977,0.695005\H,0,2.067608,-0.715645,-0.610367\\Version=ES64L-G16
 RevC.01\State=1-A\HF=-450.8883359\RMSD=6.168e-03\Dipole=0.4839062,0.44

 Normal termination of Gaussian 16 at Sat Apr  5 22:18:31 2025.
