 Gaussian 16, Revision C.01,

 ----------------------------------------------------------------------
 #t hf aug-cc-pvdz symm=none int=(grid=ultrafine) guess=(read,tcheck) s
 table=(opt,rrhf)
 ----------------------------------------------------------------------
 -----
 title
 -----
 Symbolic Z-matrix:
 Charge =  0 Multiplicity = 1

 SCF Done:  E(RHF) =  -313.460817111     A.U. after   12 cycles
 Normal termination of Gaussian 16 at Sat Apr  5 22:21:24 2025.
 Gaussian 16:  ES64L-G16RevC.01  3-Jul-2019

 ----------------------------------------------------------------------
 #t hf aug-cc-pvdz iop(5/13=1,5/36=2,99/5=2) pseudo=read geom=check gue
 ss=(read,tcheck) scf=(maxcycle=1)
 ----------------------------------------------------------------------
 -----
 title
 -----
 Structure from the checkpoint file:  "2-2-4-trimethylpentane.chk"
 Charge =  0 Multiplicity = 1

                         Standard orientation:
 ---------------------------------------------------------------------
 Center     Atomic      Atomic             Coordinates (Angstroms)
 Number     Number       Type             X           Y           Z
 ---------------------------------------------------------------------
      1          6           0       -1.846468    1.363840   -0.077215
      2          6           0       -2.662406   -1.005759   -0.096294
      3          6           0        2.238415   -1.049347   -0.534903
      4          6           0        1.347049    0.062739    1.517236
      5          6           0        1.470851    1.310380   -0.660535
      6          6           0       -0.206189   -0.619162   -0.388682
      7          6           0       -1.491679   -0.085189    0.274492
      8          6           0        1.189357   -0.053191   -0.006364
      9          1           0       -1.878530    1.507566   -1.160137
     10          1           0       -2.830639    1.621044    0.318884
     11          1           0       -1.136791    2.079950    0.332372
     12          1           0       -2.842778   -0.992361   -1.174393
     13          1           0       -3.583115   -0.688469    0.396236
     14          1           0       -2.465759   -2.039230    0.193579
     15          1           0        2.126690   -2.027904   -0.064042
     16          1           0        3.250825   -0.693599   -0.333918
     17          1           0        2.141559   -1.185634   -1.614225
     18          1           0        2.366909    0.355952    1.774490
     19          1           0        0.675201    0.809842    1.941318
     20          1           0        1.141903   -0.890029    2.010264
     21          1           0        0.817786    2.095891   -0.286579
     22          1           0        2.499514    1.619425   -0.462797
     23          1           0        1.343993    1.257474   -1.743806
     24          1           0       -0.175142   -1.692454   -0.177183
     25          1           0       -0.319174   -0.537597   -1.476057
     26          1           0       -1.366031   -0.145726    1.359582
 ---------------------------------------------------------------------

 SCF Done:  E(RHF) =  -313.561032232     A.U. after    2 cycles

 The electronic state is 1-A.
 Alpha  occ. eigenvalues --  -11.23880 -11.23045 -11.21928 -11.21710 -11.21658
 Alpha  occ. eigenvalues --  -11.21650 -11.21576 -11.21445  -1.10134  -1.05060
 Alpha  occ. eigenvalues --   -0.93043  -0.92531  -0.91756  -0.91238  -0.77873
 Alpha  occ. eigenvalues --   -0.72483  -0.64160  -0.61940  -0.61314  -0.59478
 Alpha  occ. eigenvalues --   -0.57311  -0.55732  -0.54325  -0.53725  -0.52918
 Alpha  occ. eigenvalues --   -0.51223  -0.50779  -0.49286  -0.47161  -0.46636
 Alpha  occ. eigenvalues --   -0.44793  -0.43962  -0.42892
 Alpha virt. eigenvalues --    0.03435   0.04176   0.04392   0.04491   0.05982
 Alpha virt. eigenvalues --    0.06056   0.06214   0.06502   0.06728   0.08298
 Alpha virt. eigenvalues --    0.08505   0.08538   0.08842   0.09242   0.09412

 Mulliken charges:
               1
     1  C    0.873639
     2  C    0.804610
     3  C    1.499940
     4  C    1.343055
     5  C    1.263797
     6  C    1.054645
     7  C   -1.106400
     8  C   -4.349088
     9  H   -0.024021
    10  H   -0.146342
    11  H   -0.134451
    12  H   -0.004014
    13  H   -0.063633
    14  H   -0.094074
    15  H   -0.068432
    16  H   -0.076643
    17  H    0.008552
    18  H   -0.071933
    19  H   -0.061418
    20  H   -0.002975
    21  H   -0.128757
    22  H    0.012207
    23  H   -0.030842
    24  H   -0.146535
    25  H   -0.150211
    26  H   -0.200677
 Sum of Mulliken charges =  -0.00000

 Dipole moment (field-independent basis, Debye):
    X=             -0.0116    Y=             -0.0112    Z=              0.1135  Tot=              0.1147

 Test job not archived.
 1\1\GINC-SE014\SP\RHF\Aug-CC-pVDZ\C8H18\OHZDE\05-Apr-2025\0\\#t hf aug
 -cc-pvdz iop(5/13=1,5/36=2,99/5=2) pseudo=read geom=check guess=(read,
 tcheck) scf=(maxcycle=1)\\title\\0,1\C,0,-1.846468,1.36384,-0.077215\C
 ,0,-2.662406,-1.005759,-0.096294\C,0,2.238415,-1.049347,-0.534903\C,0,
 1.347049,0.062739,1.517236\C,0,1.470851,1.31038,-0.660535\C,0,-0.20618
 9,-0.619162,-0.388682\C,0,-1.491679,-0.085189,0.274492\C,0,1.189357,-0
 .053191,-0.006364\H,0,-1.87853,1.507566,-1.160137\H,0,-2.830639,1.6210
 44,0.318884\H,0,-1.136791,2.07995,0.332372\H,0,-2.842778,-0.992361,-1.

 Normal termination of Gaussian 16 at Sat Apr  5 22:22:29 2025.
