 Gaussian 16, Revision C.01,

 ----------------------------------------------------------------------
 #t hf aug-cc-pvdz symm=none int=(grid=ultrafine) guess=(read,tcheck) s
 table=(opt,rrhf)
 ----------------------------------------------------------------------
 -----
 title
 -----
 Symbolic Z-matrix:
 Charge =  0 Multiplicity = 1

 SCF Done:  E(RHF) =  -357.243937004     A.U. after   14 cycles
 Normal termination of Gaussian 16 at Sat Apr  5 22:18:16 2025.
 Gaussian 16:  ES64L-G16RevC.01  3-Jul-2019

 ----------------------------------------------------------------------
 #t hf aug-cc-pvdz iop(5/13=1,5/36=2,99/5=2) pseudo=read geom=check gue
 ss=(read,tcheck) scf=(maxcycle=1)
 ----------------------------------------------------------------------
 -----
 title
 -----
 Structure from the checkpoint file:  "2-2--iminodiacetylenol.chk"
 Charge =  0 Multiplicity = 1

                         Standard orientation:
 ---------------------------------------------------------------------
 Center     Atomic      Atomic             Coordinates (Angstroms)
 Number     Number       Type             X           Y           Z
 ---------------------------------------------------------------------
      1          8           0       -3.400108   -0.733442   -0.118928
      2          8           0        3.400112   -0.733432   -0.118929
      3          7           0       -0.000000    1.083109    0.012803
      4          6           0       -1.191775    0.449091   -0.005616
      5          6           0        1.191770    0.449084   -0.005610
      6          6           0       -2.247386   -0.118373    0.033472
      7          6           0        2.247401   -0.118342    0.033478
      8          1           0       -3.781620   -0.952804    0.740381
      9          1           0        3.781529   -0.952982    0.740374
     10          1           0        0.000002    2.090260   -0.001864
 ---------------------------------------------------------------------

 SCF Done:  E(RHF) =  -357.361905050     A.U. after    2 cycles

 The electronic state is 1-A.
 Alpha  occ. eigenvalues --  -20.64259 -20.64259 -15.68852 -11.29674 -11.29671
 Alpha  occ. eigenvalues --  -11.27274 -11.27262  -1.39832  -1.39806  -1.23800
 Alpha  occ. eigenvalues --   -1.03035  -0.99344  -0.83945  -0.81978  -0.77358
 Alpha  occ. eigenvalues --   -0.75371  -0.67812  -0.67614  -0.62883  -0.62790
 Alpha  occ. eigenvalues --   -0.56919  -0.40604  -0.38968  -0.37602  -0.31744
 Alpha virt. eigenvalues --    0.02850   0.03313   0.04188   0.09301   0.09698
 Alpha virt. eigenvalues --    0.10260   0.11660   0.12146   0.12568   0.12989
 Alpha virt. eigenvalues --    0.13498   0.13603   0.15655   0.16328   0.18379

 Mulliken charges:
               1
     1  O   -0.344602
     2  O   -0.344600
     3  N   -0.064086
     4  C    0.059050
     5  C    0.059086
     6  C    0.131950
     7  C    0.131931
     8  H    0.183886
     9  H    0.183886
    10  H    0.003499
 Sum of Mulliken charges =  -0.00000

 Dipole moment (field-independent basis, Debye):
    X=             -0.0002    Y=              0.5449    Z=              2.9896  Tot=              3.0388

 Test job not archived.
 1\1\GINC-SE158\SP\RHF\Aug-CC-pVDZ\C4H3N1O2\OHZDE\05-Apr-2025\0\\#t hf
 aug-cc-pvdz iop(5/13=1,5/36=2,99/5=2) pseudo=read geom=check guess=(re
 ad,tcheck) scf=(maxcycle=1)\\title\\0,1\O,0,-3.400108,-0.733442,-0.118
 928\O,0,3.400112,-0.733432,-0.118929\N,0,0.,1.083109,0.012803\C,0,-1.1
 91775,0.449091,-0.005616\C,0,1.19177,0.449084,-0.00561\C,0,-2.247386,-
 0.118373,0.033472\C,0,2.247401,-0.118342,0.033478\H,0,-3.78162,-0.9528
 04,0.740381\H,0,3.781529,-0.952982,0.740374\H,0,0.000002,2.09026,-0.00
 1864\\Version=ES64L-G16RevC.01\State=1-A\HF=-357.361905\RMSD=6.470e-03

 Normal termination of Gaussian 16 at Sat Apr  5 22:18:20 2025.
