 Gaussian 16, Revision C.01,

 ----------------------------------------------------------------------
 #t hf aug-cc-pvdz symm=none int=(grid=ultrafine) guess=(read,tcheck) s
 table=(opt,rrhf)
 ----------------------------------------------------------------------
 -----
 title
 -----
 Symbolic Z-matrix:
 Charge =  0 Multiplicity = 1

 SCF Done:  E(RHF) =  -702.155392565     A.U. after   13 cycles
 Normal termination of Gaussian 16 at Sat Apr  5 22:20:57 2025.
 Gaussian 16:  ES64L-G16RevC.01  3-Jul-2019

 ----------------------------------------------------------------------
 #t hf aug-cc-pvdz iop(5/13=1,5/36=2,99/5=2) pseudo=read geom=check gue
 ss=(read,tcheck) scf=(maxcycle=1)
 ----------------------------------------------------------------------
 -----
 title
 -----
 Structure from the checkpoint file:  "2-3-dihydrothiophene-1-1-dioxide.chk"
 Charge =  0 Multiplicity = 1

                         Standard orientation:
 ---------------------------------------------------------------------
 Center     Atomic      Atomic             Coordinates (Angstroms)
 Number     Number       Type             X           Y           Z
 ---------------------------------------------------------------------
      1          8           0        1.368073   -0.041927    1.328654
      2         16           0        0.744052    0.002026    0.009543
      3          8           0        1.597344    0.012383   -1.173724
      4          6           0       -0.537812   -1.301973   -0.132311
      5          6           0       -1.894471   -0.605338    0.038088
      6          6           0       -1.683857    0.887280   -0.028918
      7          6           0       -0.438708    1.331798   -0.052416
      8          1           0       -0.319493   -2.041155    0.632439
      9          1           0       -0.409741   -1.736972   -1.119449
     10          1           0       -2.352765   -0.862446    0.995568
     11          1           0       -2.595132   -0.923617   -0.735185
     12          1           0       -2.540636    1.548631   -0.035815
     13          1           0       -0.081319    2.348887   -0.076348
 ---------------------------------------------------------------------

 SCF Done:  E(RHF) =  -702.320596231     A.U. after    2 cycles

 The electronic state is 1-A.
 Alpha  occ. eigenvalues --  -93.77847 -20.55392 -20.55322 -11.30027 -11.29458
 Alpha  occ. eigenvalues --  -11.28978 -11.28875  -9.04583  -6.39184  -6.39022
 Alpha  occ. eigenvalues --   -6.38926  -1.40822  -1.29279  -1.15867  -1.03366
 Alpha  occ. eigenvalues --   -0.97068  -0.83639  -0.78747  -0.72287  -0.68795
 Alpha  occ. eigenvalues --   -0.65629  -0.64766  -0.63575  -0.58856  -0.57124
 Alpha  occ. eigenvalues --   -0.56196  -0.51359  -0.50141  -0.49083  -0.44539
 Alpha  occ. eigenvalues --   -0.41549
 Alpha virt. eigenvalues --    0.02334   0.03807   0.04445   0.04641   0.06158
 Alpha virt. eigenvalues --    0.07001   0.09089   0.09909   0.10938   0.12148
 Alpha virt. eigenvalues --    0.12647   0.13778   0.14283   0.14335   0.14723

 Mulliken charges:
               1
     1  O   -1.143782
     2  S    2.802228
     3  O   -1.148209
     4  C   -0.085252
     5  C    0.050940
     6  C    0.089587
     7  C    0.019757
     8  H    0.014541
     9  H   -0.008110
    10  H    0.009782
    11  H   -0.010667
    12  H   -0.307677
    13  H   -0.283137
 Sum of Mulliken charges =  -0.00000

 Dipole moment (field-independent basis, Debye):
    X=             -6.6216    Y=             -0.2504    Z=             -0.4147  Tot=              6.6392

 Test job not archived.
 1\1\GINC-SE129\SP\RHF\Aug-CC-pVDZ\C4H6O2S1\OHZDE\05-Apr-2025\0\\#t hf
 aug-cc-pvdz iop(5/13=1,5/36=2,99/5=2) pseudo=read geom=check guess=(re
 ad,tcheck) scf=(maxcycle=1)\\title\\0,1\O,0,1.368073,-0.041927,1.32865
 4\S,0,0.744052,0.002026,0.009543\O,0,1.597344,0.012383,-1.173724\C,0,-
 0.537812,-1.301973,-0.132311\C,0,-1.894471,-0.605338,0.038088\C,0,-1.6
 83857,0.88728,-0.028918\C,0,-0.438708,1.331798,-0.052416\H,0,-0.319494
 ,-2.041155,0.632439\H,0,-0.409741,-1.736972,-1.119449\H,0,-2.352765,-0
 .862446,0.995568\H,0,-2.595132,-0.923617,-0.735185\H,0,-2.540636,1.548

 Normal termination of Gaussian 16 at Sat Apr  5 22:21:03 2025.
