 Gaussian 16, Revision C.01,

 ----------------------------------------------------------------------
 #t hf aug-cc-pvdz symm=none int=(grid=ultrafine) guess=(read,tcheck) s
 table=(opt,rrhf)
 ----------------------------------------------------------------------
 -----
 title
 -----
 Symbolic Z-matrix:
 Charge =  0 Multiplicity = 1

 SCF Done:  E(RHF) =  -313.459218829     A.U. after   12 cycles
 Normal termination of Gaussian 16 at Sat Apr  5 22:23:39 2025.
 Gaussian 16:  ES64L-G16RevC.01  3-Jul-2019

 ----------------------------------------------------------------------
 #t hf aug-cc-pvdz iop(5/13=1,5/36=2,99/5=2) pseudo=read geom=check gue
 ss=(read,tcheck) scf=(maxcycle=1)
 ----------------------------------------------------------------------
 -----
 title
 -----
 Structure from the checkpoint file:  "2-3-4-trimethylpentane.chk"
 Charge =  0 Multiplicity = 1

                         Standard orientation:
 ---------------------------------------------------------------------
 Center     Atomic      Atomic             Coordinates (Angstroms)
 Number     Number       Type             X           Y           Z
 ---------------------------------------------------------------------
      1          6           0       -1.643780   -0.744140    1.267860
      2          6           0       -2.416221    0.092866   -0.979081
      3          6           0        1.568432   -1.626417   -0.343229
      4          6           0        2.566669    0.643816   -0.042519
      5          6           0       -0.183821    1.829717    0.314524
      6          6           0       -1.228311   -0.457857   -0.180043
      7          6           0        1.328673   -0.222989    0.228474
      8          6           0        0.031928    0.441798   -0.307623
      9          1           0       -2.484667   -1.439569    1.291217
     10          1           0       -0.835389   -1.189503    1.848803
     11          1           0       -1.961332    0.164639    1.782113
     12          1           0       -2.136078    0.303073   -2.013245
     13          1           0       -2.813834    1.012725   -0.547434
     14          1           0       -3.231892   -0.632223   -0.997675
     15          1           0        2.532205   -2.012895   -0.007877
     16          1           0        0.808890   -2.343326   -0.035097
     17          1           0        1.585518   -1.607030   -1.436276
     18          1           0        2.520811    1.609052    0.458909
     19          1           0        2.684972    0.828086   -1.113860
     20          1           0        3.469540    0.139486    0.305210
     21          1           0       -1.127132    2.269864   -0.006227
     22          1           0        0.602929    2.524328    0.025850
     23          1           0       -0.194597    1.779952    1.405178
     24          1           0       -0.977247   -1.415409   -0.640316
     25          1           0        1.230226   -0.318172    1.315434
     26          1           0        0.185662    0.586165   -1.384882
 ---------------------------------------------------------------------

 SCF Done:  E(RHF) =  -313.559740106     A.U. after    2 cycles

 The electronic state is 1-A.
 Alpha  occ. eigenvalues --  -11.22954 -11.22778 -11.22727 -11.21651 -11.21614
 Alpha  occ. eigenvalues --  -11.21605 -11.21602 -11.21416  -1.10004  -1.03814
 Alpha  occ. eigenvalues --   -0.97286  -0.92286  -0.92002  -0.86309  -0.79083
 Alpha  occ. eigenvalues --   -0.73069  -0.64874  -0.62180  -0.60452  -0.59355
 Alpha  occ. eigenvalues --   -0.56651  -0.55649  -0.54600  -0.53468  -0.52851
 Alpha  occ. eigenvalues --   -0.51729  -0.50291  -0.48893  -0.48034  -0.46862
 Alpha  occ. eigenvalues --   -0.44468  -0.43242  -0.42752
 Alpha virt. eigenvalues --    0.03478   0.04179   0.04276   0.04529   0.05993
 Alpha virt. eigenvalues --    0.06096   0.06336   0.06369   0.06687   0.08131
 Alpha virt. eigenvalues --    0.08562   0.08612   0.08761   0.09132   0.09810

 Mulliken charges:
               1
     1  C    0.937271
     2  C    0.943040
     3  C    0.957750
     4  C    0.900300
     5  C    0.982037
     6  C   -1.148674
     7  C   -1.191020
     8  C   -0.436900
     9  H   -0.080653
    10  H   -0.123349
    11  H   -0.036879
    12  H   -0.064222
    13  H   -0.086721
    14  H   -0.068349
    15  H   -0.128906
    16  H   -0.046656
    17  H   -0.018269
    18  H   -0.107065
    19  H   -0.007532
    20  H   -0.055358
    21  H   -0.120596
    22  H   -0.108530
    23  H   -0.066909
    24  H   -0.216792
    25  H   -0.300928
    26  H   -0.306092
 Sum of Mulliken charges =  -0.00000

 Dipole moment (field-independent basis, Debye):
    X=              0.0272    Y=             -0.0885    Z=             -0.0021  Tot=              0.0926

 Test job not archived.
 1\1\GINC-SE225\SP\RHF\Aug-CC-pVDZ\C8H18\OHZDE\05-Apr-2025\0\\#t hf aug
 -cc-pvdz iop(5/13=1,5/36=2,99/5=2) pseudo=read geom=check guess=(read,
 tcheck) scf=(maxcycle=1)\\title\\0,1\C,0,-1.64378,-0.74414,1.26786\C,0
 ,-2.416221,0.092866,-0.979081\C,0,1.568432,-1.626417,-0.343229\C,0,2.5
 66669,0.643816,-0.042519\C,0,-0.183821,1.829717,0.314524\C,0,-1.228311
 ,-0.457857,-0.180043\C,0,1.328673,-0.222989,0.228474\C,0,0.031928,0.44
 1798,-0.307623\H,0,-2.484667,-1.439569,1.291217\H,0,-0.835389,-1.18950
 3,1.848803\H,0,-1.961332,0.164639,1.782113\H,0,-2.136078,0.303073,-2.0

 Normal termination of Gaussian 16 at Sat Apr  5 22:23:55 2025.
