 Gaussian 16, Revision C.01,

 ----------------------------------------------------------------------
 #t hf aug-cc-pvdz symm=none int=(grid=ultrafine) guess=(read,tcheck) s
 table=(opt,rrhf)
 ----------------------------------------------------------------------
 -----
 title
 -----
 Symbolic Z-matrix:
 Charge =  0 Multiplicity = 1

 SCF Done:  E(RHF) =  -324.808225430     A.U. after   15 cycles
 Normal termination of Gaussian 16 at Sat Apr  5 22:23:39 2025.
 Gaussian 16:  ES64L-G16RevC.01  3-Jul-2019

 ----------------------------------------------------------------------
 #t hf aug-cc-pvdz iop(5/13=1,5/36=2,99/5=2) pseudo=read geom=check gue
 ss=(read,tcheck) scf=(maxcycle=1)
 ----------------------------------------------------------------------
 -----
 title
 -----
 Structure from the checkpoint file:  "2-3-dimethylpyridine.chk"
 Charge =  0 Multiplicity = 1

                         Standard orientation:
 ---------------------------------------------------------------------
 Center     Atomic      Atomic             Coordinates (Angstroms)
 Number     Number       Type             X           Y           Z
 ---------------------------------------------------------------------
      1          6           0        1.299716   -1.582465    0.000000
      2          6           0       -0.088674   -1.564388    0.000000
      3          6           0        1.965699   -0.367634    0.000000
      4          6           0       -0.770283   -0.353502    0.000000
      5          6           0        0.000000    0.825444    0.000000
      6          6           0       -2.273731   -0.308186    0.000000
      7          6           0       -0.652970    2.180273    0.000000
      8          7           0        1.335751    0.807581    0.000000
      9          1           0        1.849802   -2.513184    0.000000
     10          1           0       -0.646412   -2.492987    0.000000
     11          1           0        3.049088   -0.329331    0.000000
     12          1           0       -2.693885   -1.312990    0.000000
     13          1           0       -2.659868    0.216687    0.876553
     14          1           0       -2.659868    0.216687   -0.876553
     15          1           0       -1.290044    2.316709    0.877173
     16          1           0        0.112433    2.951380    0.000000
     17          1           0       -1.290044    2.316709   -0.877173
 ---------------------------------------------------------------------

 SCF Done:  E(RHF) =  -324.905145412     A.U. after    2 cycles

 The electronic state is 1-A'.
 Alpha  occ. eigenvalues --  -15.61983 -11.28400 -11.27451 -11.25741 -11.24971
 Alpha  occ. eigenvalues --  -11.24119 -11.24025 -11.22993  -1.22755  -1.08471
 Alpha  occ. eigenvalues --   -1.05786  -0.96894  -0.92944  -0.83509  -0.81493
 Alpha  occ. eigenvalues --   -0.69383  -0.67905  -0.61978  -0.60484  -0.57792
 Alpha  occ. eigenvalues --   -0.56829  -0.55988  -0.55658  -0.53346  -0.51433
 Alpha  occ. eigenvalues --   -0.50112  -0.40270  -0.37381  -0.32869
 Alpha virt. eigenvalues --    0.03197   0.03679   0.04296   0.05500   0.05682
 Alpha virt. eigenvalues --    0.06085   0.07714   0.08020   0.08867   0.10018
 Alpha virt. eigenvalues --    0.10117   0.10876   0.11569   0.12218   0.13528

 Mulliken charges:
               1
     1  C    0.523834
     2  C    0.226617
     3  C    0.621295
     4  C   -0.170076
     5  C   -0.603168
     6  C    0.551814
     7  C    0.614504
     8  N   -0.566153
     9  H   -0.424019
    10  H   -0.547193
    11  H   -0.379997
    12  H   -0.267656
    13  H    0.139551
    14  H    0.139551
    15  H    0.149763
    16  H   -0.158429
    17  H    0.149763
 Sum of Mulliken charges =  -0.00000

 Dipole moment (field-independent basis, Debye):
    X=             -1.6884    Y=             -1.3438    Z=             -0.0000  Tot=              2.1579

 Test job not archived.
 1\1\GINC-SE055\SP\RHF\Aug-CC-pVDZ\C7H9N1\OHZDE\05-Apr-2025\0\\#t hf au
 g-cc-pvdz iop(5/13=1,5/36=2,99/5=2) pseudo=read geom=check guess=(read
 ,tcheck) scf=(maxcycle=1)\\title\\0,1\C,0,1.299716,-1.582465,0.\C,0,-0
 .088674,-1.564388,0.\C,0,1.965699,-0.367634,0.\C,0,-0.770283,-0.353502
 ,0.\C,0,0.,0.825444,0.\C,0,-2.273731,-0.308186,0.\C,0,-0.65297,2.18027
 3,0.\N,0,1.335751,0.807581,0.\H,0,1.849802,-2.513184,0.\H,0,-0.646412,
 -2.492987,0.\H,0,3.049088,-0.329331,0.\H,0,-2.693885,-1.31299,0.\H,0,-
 2.659868,0.216687,0.876553\H,0,-2.659868,0.216687,-0.876553\H,0,-1.290

 Normal termination of Gaussian 16 at Sat Apr  5 22:23:45 2025.
