 Gaussian 16, Revision C.01,

 ----------------------------------------------------------------------
 #t hf aug-cc-pvdz symm=none int=(grid=ultrafine) guess=(read,tcheck) s
 table=(opt,rrhf)
 ----------------------------------------------------------------------
 -----
 title
 -----
 Symbolic Z-matrix:
 Charge =  0 Multiplicity = 1

 SCF Done:  E(RHF) =  -233.020848736     A.U. after   12 cycles
 Normal termination of Gaussian 16 at Sat Apr  5 22:21:04 2025.
 Gaussian 16:  ES64L-G16RevC.01  3-Jul-2019

 ----------------------------------------------------------------------
 #t hf aug-cc-pvdz iop(5/13=1,5/36=2,99/5=2) pseudo=read geom=check gue
 ss=(read,tcheck) scf=(maxcycle=1)
 ----------------------------------------------------------------------
 -----
 title
 -----
 Structure from the checkpoint file:  "2-3-dimethylbutadiene.chk"
 Charge =  0 Multiplicity = 1

                         Standard orientation:
 ---------------------------------------------------------------------
 Center     Atomic      Atomic             Coordinates (Angstroms)
 Number     Number       Type             X           Y           Z
 ---------------------------------------------------------------------
      1          6           0        0.046940    0.737664    0.000000
      2          6           0       -0.046940   -0.737664    0.000000
      3          6           0        1.229298   -1.540526    0.000000
      4          6           0       -1.229298   -1.365802   -0.000001
      5          6           0       -1.229298    1.540526    0.000000
      6          6           0        1.229298    1.365802   -0.000001
      7          1           0        1.011005   -2.606697    0.000002
      8          1           0        1.839074   -1.319891   -0.878346
      9          1           0        1.839074   -1.319889    0.878347
     10          1           0       -1.285187   -2.445953   -0.000001
     11          1           0       -2.170393   -0.836461   -0.000001
     12          1           0       -1.839074    1.319889    0.878347
     13          1           0       -1.011005    2.606697    0.000002
     14          1           0       -1.839074    1.319891   -0.878346
     15          1           0        2.170393    0.836461   -0.000001
     16          1           0        1.285187    2.445953   -0.000001
 ---------------------------------------------------------------------

 SCF Done:  E(RHF) =  -233.095213061     A.U. after    2 cycles

 The electronic state is 1-A.
 Alpha  occ. eigenvalues --  -11.25137 -11.25071 -11.22911 -11.22909 -11.22904
 Alpha  occ. eigenvalues --  -11.22903  -1.11061  -1.02187  -0.94961  -0.91271
 Alpha  occ. eigenvalues --   -0.80948  -0.69254  -0.66281  -0.62298  -0.58386
 Alpha  occ. eigenvalues --   -0.56332  -0.56277  -0.55035  -0.53512  -0.51011
 Alpha  occ. eigenvalues --   -0.47511  -0.40698  -0.32354
 Alpha virt. eigenvalues --    0.03597   0.04201   0.04389   0.05464   0.05623
 Alpha virt. eigenvalues --    0.06233   0.07168   0.08303   0.08604   0.08920
 Alpha virt. eigenvalues --    0.10126   0.11506   0.12521   0.12941   0.14237

 Mulliken charges:
               1
     1  C   -0.592824
     2  C   -0.592824
     3  C    0.136260
     4  C    1.306293
     5  C    0.136260
     6  C    1.306293
     7  H   -0.260969
     8  H    0.173969
     9  H    0.173972
    10  H   -0.419589
    11  H   -0.517111
    12  H    0.173972
    13  H   -0.260969
    14  H    0.173969
    15  H   -0.517111
    16  H   -0.419589
 Sum of Mulliken charges =   0.00000

 Dipole moment (field-independent basis, Debye):
    X=              0.0000    Y=              0.0000    Z=             -0.0000  Tot=              0.0000

 Test job not archived.
 1\1\GINC-SE188\SP\RHF\Aug-CC-pVDZ\C6H10\OHZDE\05-Apr-2025\0\\#t hf aug
 -cc-pvdz iop(5/13=1,5/36=2,99/5=2) pseudo=read geom=check guess=(read,
 tcheck) scf=(maxcycle=1)\\title\\0,1\C,0,0.04694,0.737664,0.\C,0,-0.04
 694,-0.737664,0.\C,0,1.229298,-1.540526,0.\C,0,-1.229298,-1.365802,-0.
 000001\C,0,-1.229298,1.540526,0.\C,0,1.229298,1.365802,-0.000001\H,0,1
 .011005,-2.606697,0.000002\H,0,1.839074,-1.319891,-0.878346\H,0,1.8390
 74,-1.319889,0.878347\H,0,-1.285187,-2.445953,-0.000001\H,0,-2.170393,
 -0.836461,-0.000001\H,0,-1.839074,1.319889,0.878347\H,0,-1.011005,2.60

 Normal termination of Gaussian 16 at Sat Apr  5 22:21:08 2025.
