 Gaussian 16, Revision C.01,

 ----------------------------------------------------------------------
 #t hf aug-cc-pvdz symm=none int=(grid=ultrafine) guess=(read,tcheck) s
 table=(opt,rrhf)
 ----------------------------------------------------------------------
 -----
 title
 -----
 Symbolic Z-matrix:
 Charge =  0 Multiplicity = 1

 SCF Done:  E(RHF) =  -584.431978912     A.U. after   15 cycles
 Normal termination of Gaussian 16 at Sat Apr  5 22:20:48 2025.
 Gaussian 16:  ES64L-G16RevC.01  3-Jul-2019

 ----------------------------------------------------------------------
 #t hf aug-cc-pvdz iop(5/13=1,5/36=2,99/5=2) pseudo=read geom=check gue
 ss=(read,tcheck) scf=(maxcycle=1)
 ----------------------------------------------------------------------
 -----
 title
 -----
 Structure from the checkpoint file:  "2-3-dihydro-1-2-3-thiadiazole.chk"
 Charge =  0 Multiplicity = 1

                         Standard orientation:
 ---------------------------------------------------------------------
 Center     Atomic      Atomic             Coordinates (Angstroms)
 Number     Number       Type             X           Y           Z
 ---------------------------------------------------------------------
      1         16           0       -1.237044    0.001448   -0.107671
      2          7           0        0.008561   -1.244800    0.162871
      3          7           0        1.291262   -0.667661   -0.105066
      4          6           0       -0.008423    1.263519    0.104972
      5          6           0        1.217607    0.751160    0.046079
      6          1           0       -0.002263   -1.404163    1.165699
      7          1           0        1.571441   -0.928185   -1.047847
      8          1           0       -0.273152    2.302314    0.208260
      9          1           0        2.142819    1.306025    0.085693
 ---------------------------------------------------------------------

 SCF Done:  E(RHF) =  -584.509619472     A.U. after    2 cycles

 The electronic state is 1-A.
 Alpha  occ. eigenvalues --  -93.56662 -15.68391 -15.67062 -11.28842 -11.27513
 Alpha  occ. eigenvalues --   -8.86164  -6.20275  -6.20110  -6.19672  -1.28451
 Alpha  occ. eigenvalues --   -1.06755  -1.04999  -0.86436  -0.78345  -0.70925
 Alpha  occ. eigenvalues --   -0.67388  -0.61234  -0.57339  -0.50286  -0.48099
 Alpha  occ. eigenvalues --   -0.43882  -0.39900  -0.30930
 Alpha virt. eigenvalues --    0.03320   0.04403   0.05086   0.05221   0.08732
 Alpha virt. eigenvalues --    0.09472   0.11338   0.12197   0.13285   0.13887
 Alpha virt. eigenvalues --    0.14612   0.15131   0.16517   0.16890   0.18184

 Mulliken charges:
               1
     1  S    0.592782
     2  N   -0.641332
     3  N   -0.249037
     4  C    0.097091
     5  C    0.613890
     6  H    0.125934
     7  H    0.078492
     8  H   -0.380910
     9  H   -0.236910
 Sum of Mulliken charges =  -0.00000

 Dipole moment (field-independent basis, Debye):
    X=              1.2597    Y=              1.4736    Z=              0.0987  Tot=              1.9411

 Test job not archived.
 1\1\GINC-SE047\SP\RHF\Aug-CC-pVDZ\C2H4N2S1\OHZDE\05-Apr-2025\0\\#t hf
 aug-cc-pvdz iop(5/13=1,5/36=2,99/5=2) pseudo=read geom=check guess=(re
 ad,tcheck) scf=(maxcycle=1)\\title\\0,1\S,0,-1.237044,0.001448,-0.1076
 71\N,0,0.008561,-1.2448,0.162871\N,0,1.291262,-0.667661,-0.105066\C,0,
 -0.008423,1.263519,0.104972\C,0,1.217607,0.75116,0.046079\H,0,-0.00226
 3,-1.404163,1.165699\H,0,1.571441,-0.928185,-1.047847\H,0,-0.273152,2.
 302314,0.20826\H,0,2.142819,1.306025,0.085693\\Version=ES64L-G16RevC.0
 1\State=1-A\HF=-584.5096195\RMSD=6.986e-03\Dipole=0.4955967,0.5797535,

 Normal termination of Gaussian 16 at Sat Apr  5 22:20:52 2025.
