 Gaussian 16, Revision C.01,

 ----------------------------------------------------------------------
 #t hf aug-cc-pvdz symm=none int=(grid=ultrafine) guess=(read,tcheck) s
 table=(opt,rrhf)
 ----------------------------------------------------------------------
 -----
 title
 -----
 Symbolic Z-matrix:
 Charge =  0 Multiplicity = 1

 SCF Done:  E(RHF) =  -627.364046593     A.U. after   14 cycles
 Normal termination of Gaussian 16 at Sat Apr  5 22:20:54 2025.
 Gaussian 16:  ES64L-G16RevC.01  3-Jul-2019

 ----------------------------------------------------------------------
 #t hf aug-cc-pvdz iop(5/13=1,5/36=2,99/5=2) pseudo=read geom=check gue
 ss=(read,tcheck) scf=(maxcycle=1)
 ----------------------------------------------------------------------
 -----
 title
 -----
 Structure from the checkpoint file:  "2-3-dihydrothiophene-2-ol.chk"
 Charge =  0 Multiplicity = 1

                         Standard orientation:
 ---------------------------------------------------------------------
 Center     Atomic      Atomic             Coordinates (Angstroms)
 Number     Number       Type             X           Y           Z
 ---------------------------------------------------------------------
      1         16           0       -0.392973   -1.265072    0.210669
      2          6           0        0.940796    0.017802    0.413655
      3          6           0        0.214760    1.365119    0.480256
      4          6           0       -1.100527    1.217509   -0.232047
      5          6           0       -1.506870   -0.035216   -0.406130
      6          8           0        1.821436    0.051739   -0.690597
      7          1           0        1.477232   -0.222621    1.331943
      8          1           0        0.856680    2.126103    0.033990
      9          1           0       -1.678393    2.075103   -0.546595
     10          1           0       -2.430535   -0.355575   -0.862849
     11          1           0        0.048225    1.648671    1.524486
     12          1           0        2.153911   -0.835726   -0.861306
 ---------------------------------------------------------------------

 SCF Done:  E(RHF) =  -627.454647889     A.U. after    2 cycles

 The electronic state is 1-A.
 Alpha  occ. eigenvalues --  -93.53567 -20.58616 -11.33599 -11.27045 -11.25131
 Alpha  occ. eigenvalues --  -11.24725  -8.83429  -6.17549  -6.17396  -6.17025
 Alpha  occ. eigenvalues --   -1.34160  -1.12540  -0.98422  -0.96142  -0.80930
 Alpha  occ. eigenvalues --   -0.75719  -0.72159  -0.68002  -0.61475  -0.58839
 Alpha  occ. eigenvalues --   -0.57262  -0.54892  -0.49815  -0.47722  -0.43938
 Alpha  occ. eigenvalues --   -0.42998  -0.31567
 Alpha virt. eigenvalues --    0.03569   0.04274   0.04866   0.05281   0.06488
 Alpha virt. eigenvalues --    0.06838   0.08716   0.11715   0.11933   0.12309
 Alpha virt. eigenvalues --    0.12837   0.14142   0.14808   0.15542   0.15910

 Mulliken charges:
               1
     1  S    0.479601
     2  C    0.446964
     3  C   -0.010261
     4  C    0.360842
     5  C   -0.052950
     6  O   -0.590159
     7  H   -0.112952
     8  H   -0.005384
     9  H   -0.293173
    10  H   -0.372145
    11  H   -0.002678
    12  H    0.152294
 Sum of Mulliken charges =  -0.00000

 Dipole moment (field-independent basis, Debye):
    X=             -0.0196    Y=              0.4995    Z=              0.7075  Tot=              0.8662

 Test job not archived.
 1\1\GINC-SE104\SP\RHF\Aug-CC-pVDZ\C4H6O1S1\OHZDE\05-Apr-2025\0\\#t hf
 aug-cc-pvdz iop(5/13=1,5/36=2,99/5=2) pseudo=read geom=check guess=(re
 ad,tcheck) scf=(maxcycle=1)\\title\\0,1\S,0,-0.392972,-1.265072,0.2106
 69\C,0,0.940796,0.017803,0.413655\C,0,0.214759,1.365119,0.480256\C,0,-
 1.100528,1.217508,-0.232047\C,0,-1.50687,-0.035217,-0.40613\O,0,1.8214
 36,0.05174,-0.690597\H,0,1.477232,-0.22262,1.331943\H,0,0.856678,2.126
 104,0.03399\H,0,-1.678395,2.075102,-0.546595\H,0,-2.430535,-0.355577,-
 0.862849\H,0,0.048224,1.648671,1.524486\H,0,2.153911,-0.835724,-0.8613

 Normal termination of Gaussian 16 at Sat Apr  5 22:20:59 2025.
