 Gaussian 16, Revision C.01,

 ----------------------------------------------------------------------
 #t hf aug-cc-pvdz symm=none int=(grid=ultrafine) guess=(read,tcheck) s
 table=(opt,rrhf)
 ----------------------------------------------------------------------
 -----
 title
 -----
 Symbolic Z-matrix:
 Charge =  0 Multiplicity = 1

 SCF Done:  E(RHF) =  -235.388230937     A.U. after   11 cycles
 Normal termination of Gaussian 16 at Sat Apr  5 22:22:13 2025.
 Gaussian 16:  ES64L-G16RevC.01  3-Jul-2019

 ----------------------------------------------------------------------
 #t hf aug-cc-pvdz iop(5/13=1,5/36=2,99/5=2) pseudo=read geom=check gue
 ss=(read,tcheck) scf=(maxcycle=1)
 ----------------------------------------------------------------------
 -----
 title
 -----
 Structure from the checkpoint file:  "2-3-dimethylbutane.chk"
 Charge =  0 Multiplicity = 1

                         Standard orientation:
 ---------------------------------------------------------------------
 Center     Atomic      Atomic             Coordinates (Angstroms)
 Number     Number       Type             X           Y           Z
 ---------------------------------------------------------------------
      1          6           0       -0.230967    0.739015    0.000000
      2          6           0        0.230967    1.496803    1.250954
      3          6           0        0.230967    1.496803   -1.250954
      4          1           0       -0.181582    1.079091    2.167949
      5          1           0        1.320994    1.480162    1.335695
      6          1           0        1.320994    1.480162   -1.335695
      7          1           0       -0.181582    1.079091   -2.167949
      8          1           0       -0.077437    2.542265    1.200790
      9          1           0       -0.077437    2.542265   -1.200790
     10          1           0       -1.328230    0.732224    0.000000
     11          6           0        0.230967   -0.739015    0.000000
     12          6           0       -0.230967   -1.496803    1.250954
     13          6           0       -0.230967   -1.496803   -1.250954
     14          1           0        0.181582   -1.079091    2.167949
     15          1           0       -1.320994   -1.480162    1.335695
     16          1           0       -1.320994   -1.480162   -1.335695
     17          1           0        0.077437   -2.542265   -1.200790
     18          1           0        0.181582   -1.079091   -2.167949
     19          1           0        0.077437   -2.542265    1.200790
     20          1           0        1.328230   -0.732224    0.000000
 ---------------------------------------------------------------------

 SCF Done:  E(RHF) =  -235.465181678     A.U. after    2 cycles

 The electronic state is 1-AG.
 Alpha  occ. eigenvalues --  -11.23018 -11.22968 -11.21636 -11.21634 -11.21627
 Alpha  occ. eigenvalues --  -11.21627  -1.09047  -1.00458  -0.93469  -0.90677
 Alpha  occ. eigenvalues --   -0.83003  -0.75016  -0.62670  -0.62344  -0.59293
 Alpha  occ. eigenvalues --   -0.58072  -0.54629  -0.54064  -0.52843  -0.51087
 Alpha  occ. eigenvalues --   -0.50060  -0.48221  -0.45413  -0.44634  -0.43916
 Alpha virt. eigenvalues --    0.03686   0.04378   0.04560   0.04724   0.06324
 Alpha virt. eigenvalues --    0.06487   0.06910   0.06913   0.07058   0.08639
 Alpha virt. eigenvalues --    0.09335   0.09362   0.09420   0.11931   0.13052

 Mulliken charges:
               1
     1  C   -1.037357
     2  C    0.819416
     3  C    0.819416
     4  H   -0.107983
     5  H   -0.021317
     6  H   -0.021317
     7  H   -0.107983
     8  H   -0.067521
     9  H   -0.067521
    10  H   -0.207830
    11  C   -1.037357
    12  C    0.819416
    13  C    0.819416
    14  H   -0.107983
    15  H   -0.021317
    16  H   -0.021317
    17  H   -0.067521
    18  H   -0.107983
    19  H   -0.067521
    20  H   -0.207830
 Sum of Mulliken charges =  -0.00000

 Dipole moment (field-independent basis, Debye):
    X=             -0.0000    Y=              0.0000    Z=             -0.0000  Tot=              0.0000

 Test job not archived.
 1\1\GINC-SE194\SP\RHF\Aug-CC-pVDZ\C6H14\OHZDE\05-Apr-2025\0\\#t hf aug
 -cc-pvdz iop(5/13=1,5/36=2,99/5=2) pseudo=read geom=check guess=(read,
 tcheck) scf=(maxcycle=1)\\title\\0,1\C,0,-0.230967,0.739015,0.\C,0,0.2
 30967,1.496803,1.250954\C,0,0.230967,1.496803,-1.250954\H,0,-0.181582,
 1.079091,2.167949\H,0,1.320994,1.480162,1.335695\H,0,1.320994,1.480162
 ,-1.335695\H,0,-0.181582,1.079091,-2.167949\H,0,-0.077437,2.542265,1.2
 0079\H,0,-0.077437,2.542265,-1.20079\H,0,-1.32823,0.732224,0.\C,0,0.23
 0967,-0.739015,0.\C,0,-0.230967,-1.496803,1.250954\C,0,-0.230967,-1.49

 Normal termination of Gaussian 16 at Sat Apr  5 22:22:21 2025.
