 Gaussian 16, Revision C.01,

 ----------------------------------------------------------------------
 #t hf aug-cc-pvdz symm=none int=(grid=ultrafine) guess=(read,tcheck) s
 table=(opt,rrhf)
 ----------------------------------------------------------------------
 -----
 title
 -----
 Symbolic Z-matrix:
 Charge =  0 Multiplicity = 1

 SCF Done:  E(RHF) =  -774.652649395     A.U. after   17 cycles
 Normal termination of Gaussian 16 at Sat Apr  5 22:22:31 2025.
 Gaussian 16:  ES64L-G16RevC.01  3-Jul-2019

 ----------------------------------------------------------------------
 #t hf aug-cc-pvdz iop(5/13=1,5/36=2,99/5=2) pseudo=read geom=check gue
 ss=(read,tcheck) scf=(maxcycle=1)
 ----------------------------------------------------------------------
 -----
 title
 -----
 Structure from the checkpoint file:  "2-3-furo-1-3-2-dioxathiole.chk"
 Charge =  0 Multiplicity = 1

                         Standard orientation:
 ---------------------------------------------------------------------
 Center     Atomic      Atomic             Coordinates (Angstroms)
 Number     Number       Type             X           Y           Z
 ---------------------------------------------------------------------
      1         16           0        1.989323   -0.009549   -0.145290
      2          8           0        0.854042   -1.274861    0.212013
      3          8           0        0.929171    1.296398    0.203214
      4          8           0       -1.541919   -1.139480   -0.026054
      5          6           0       -0.315704   -0.615131   -0.021948
      6          6           0       -0.319252    0.726214   -0.022953
      7          6           0       -1.682955    1.131606   -0.022667
      8          6           0       -2.386914   -0.036529   -0.038427
      9          1           0       -2.098136    2.123419   -0.033853
     10          1           0       -3.432428   -0.264049   -0.118917
 ---------------------------------------------------------------------

 SCF Done:  E(RHF) =  -774.796617825     A.U. after    2 cycles

 The electronic state is 1-A.
 Alpha  occ. eigenvalues --  -93.66902 -20.66800 -20.66015 -20.65023 -11.37252
 Alpha  occ. eigenvalues --  -11.32125 -11.30917 -11.27432  -8.95353  -6.29462
 Alpha  occ. eigenvalues --   -6.29269  -6.28619  -1.46772  -1.41633  -1.35797
 Alpha  occ. eigenvalues --   -1.10604  -1.02178  -0.93601  -0.85999  -0.81947
 Alpha  occ. eigenvalues --   -0.75879  -0.71876  -0.69421  -0.65200  -0.64371
 Alpha  occ. eigenvalues --   -0.62883  -0.61024  -0.59787  -0.58933  -0.53567
 Alpha  occ. eigenvalues --   -0.42680  -0.38789  -0.31642
 Alpha virt. eigenvalues --    0.03342   0.04348   0.05607   0.06224   0.07757
 Alpha virt. eigenvalues --    0.09584   0.10130   0.10278   0.11671   0.12488
 Alpha virt. eigenvalues --    0.13297   0.13979   0.14555   0.14823   0.15181

 Mulliken charges:
               1
     1  S    0.970432
     2  O   -0.848509
     3  O   -0.902845
     4  O   -0.499405
     5  C    0.747916
     6  C   -0.067015
     7  C    0.804590
     8  C    0.379174
     9  H   -0.271948
    10  H   -0.312390
 Sum of Mulliken charges =  -0.00000

 Dipole moment (field-independent basis, Debye):
    X=             -1.0967    Y=              1.1471    Z=             -0.5329  Tot=              1.6741

 Test job not archived.
 1\1\GINC-SE104\SP\RHF\Aug-CC-pVDZ\C4H2O3S1\OHZDE\05-Apr-2025\0\\#t hf
 aug-cc-pvdz iop(5/13=1,5/36=2,99/5=2) pseudo=read geom=check guess=(re
 ad,tcheck) scf=(maxcycle=1)\\title\\0,1\S,0,1.989323,-0.009549,-0.1452
 9\O,0,0.854042,-1.274861,0.212013\O,0,0.929171,1.296398,0.203214\O,0,-
 1.541919,-1.13948,-0.026054\C,0,-0.315704,-0.615131,-0.021948\C,0,-0.3
 19252,0.726214,-0.022953\C,0,-1.682955,1.131606,-0.022667\C,0,-2.38691
 4,-0.036529,-0.038427\H,0,-2.098136,2.123419,-0.033853\H,0,-3.432428,-
 0.264049,-0.118917\\Version=ES64L-G16RevC.01\State=1-A\HF=-774.7966178

 Normal termination of Gaussian 16 at Sat Apr  5 22:22:36 2025.
