 Gaussian 16, Revision C.01,

 ----------------------------------------------------------------------
 #t hf aug-cc-pvdz symm=none int=(grid=ultrafine) guess=(read,tcheck) s
 table=(opt,rrhf)
 ----------------------------------------------------------------------
 -----
 title
 -----
 Symbolic Z-matrix:
 Charge =  0 Multiplicity = 1

 SCF Done:  E(RHF) =  -643.293755187     A.U. after   15 cycles
 Normal termination of Gaussian 16 at Sat Apr  5 22:19:32 2025.
 Gaussian 16:  ES64L-G16RevC.01  3-Jul-2019

 ----------------------------------------------------------------------
 #t hf aug-cc-pvdz iop(5/13=1,5/36=2,99/5=2) pseudo=read geom=check gue
 ss=(read,tcheck) scf=(maxcycle=1)
 ----------------------------------------------------------------------
 -----
 title
 -----
 Structure from the checkpoint file:  "2-3-dihydro-1-2-thiazole-1-oxide.chk"
 Charge =  0 Multiplicity = 1

                         Standard orientation:
 ---------------------------------------------------------------------
 Center     Atomic      Atomic             Coordinates (Angstroms)
 Number     Number       Type             X           Y           Z
 ---------------------------------------------------------------------
      1          6           0       -1.470654    0.825217    0.180286
      2          6           0       -1.553390   -0.662462    0.294602
      3          6           0       -0.306511    1.283031   -0.252180
      4          7           0       -0.356943   -1.153514   -0.388425
      5          8           0        1.719592    0.003041    0.864117
      6         16           0        0.944753   -0.019129   -0.414780
      7          1           0       -2.309000    1.451695    0.454288
      8          1           0       -1.613318   -0.957897    1.349242
      9          1           0       -2.442883   -1.050971   -0.208260
     10          1           0        0.004141    2.307754   -0.379815
     11          1           0       -0.029788   -2.068961   -0.109186
 ---------------------------------------------------------------------

 SCF Done:  E(RHF) =  -643.413402000     A.U. after    2 cycles

 The electronic state is 1-A.
 Alpha  occ. eigenvalues --  -93.68794 -20.52537 -15.65442 -11.29972 -11.28401
 Alpha  occ. eigenvalues --  -11.27871  -8.96689  -6.30949  -6.30751  -6.30446
 Alpha  occ. eigenvalues --   -1.31934  -1.20962  -1.07011  -0.98676  -0.84212
 Alpha  occ. eigenvalues --   -0.78375  -0.72757  -0.65904  -0.61940  -0.60425
 Alpha  occ. eigenvalues --   -0.59429  -0.56700  -0.55423  -0.46795  -0.41297
 Alpha  occ. eigenvalues --   -0.40492  -0.38779
 Alpha virt. eigenvalues --    0.02768   0.03951   0.04738   0.05089   0.06309
 Alpha virt. eigenvalues --    0.08805   0.09089   0.10694   0.12453   0.12537
 Alpha virt. eigenvalues --    0.12975   0.13897   0.14346   0.14662   0.16039

 Mulliken charges:
               1
     1  C    0.286936
     2  C    0.726310
     3  C   -0.205495
     4  N   -0.806255
     5  O   -1.017975
     6  S    1.657406
     7  H   -0.257772
     8  H   -0.014492
     9  H   -0.061015
    10  H   -0.284371
    11  H   -0.023278
 Sum of Mulliken charges =  -0.00000

 Dipole moment (field-independent basis, Debye):
    X=             -4.3564    Y=             -0.0853    Z=             -1.1344  Tot=              4.5024

 Test job not archived.
 1\1\GINC-SE155\SP\RHF\Aug-CC-pVDZ\C3H5N1O1S1\OHZDE\05-Apr-2025\0\\#t h
 f aug-cc-pvdz iop(5/13=1,5/36=2,99/5=2) pseudo=read geom=check guess=(
 read,tcheck) scf=(maxcycle=1)\\title\\0,1\C,0,-1.470654,0.825217,0.180
 286\C,0,-1.55339,-0.662462,0.294602\C,0,-0.306511,1.283031,-0.25218\N,
 0,-0.356943,-1.153514,-0.388425\O,0,1.719592,0.003041,0.864117\S,0,0.9
 44753,-0.019129,-0.41478\H,0,-2.309,1.451695,0.454288\H,0,-1.613318,-0
 .957897,1.349242\H,0,-2.442883,-1.050971,-0.20826\H,0,0.004141,2.30775
 4,-0.379815\H,0,-0.029788,-2.068961,-0.109186\\Version=ES64L-G16RevC.0

 Normal termination of Gaussian 16 at Sat Apr  5 22:20:30 2025.
