 Gaussian 16, Revision C.01,

 ----------------------------------------------------------------------
 #t hf aug-cc-pvdz symm=none int=(grid=ultrafine) guess=(read,tcheck) s
 table=(opt,rrhf)
 ----------------------------------------------------------------------
 -----
 title
 -----
 Symbolic Z-matrix:
 Charge =  0 Multiplicity = 1

 SCF Done:  E(RHF) =  -2216.13544418     A.U. after   15 cycles
 Normal termination of Gaussian 16 at Sat Apr  5 22:22:15 2025.
 Gaussian 16:  ES64L-G16RevC.01  3-Jul-2019

 ----------------------------------------------------------------------
 #t hf aug-cc-pvdz iop(5/13=1,5/36=2,99/5=2) pseudo=read geom=check gue
 ss=(read,tcheck) scf=(maxcycle=1)
 ----------------------------------------------------------------------
 -----
 title
 -----
 Structure from the checkpoint file:  "2-3-5-6-tetrachlorobenzene-1-4-diol.chk"
 Charge =  0 Multiplicity = 1

                         Standard orientation:
 ---------------------------------------------------------------------
 Center     Atomic      Atomic             Coordinates (Angstroms)
 Number     Number       Type             X           Y           Z
 ---------------------------------------------------------------------
      1         17           0        0.000000    1.591361    2.692912
      2          6           0        0.000000    0.696756    1.212282
      3          6           0       -0.000000   -0.696756    1.212282
      4         17           0       -0.000000   -1.591361    2.692912
      5          6           0        0.000000   -1.409756    0.008295
      6          8           0        0.000000   -2.759999    0.052901
      7          6           0        0.000000   -0.695960   -1.189657
      8         17           0        0.000000   -1.601358   -2.678734
      9          6           0        0.000000    0.695960   -1.189657
     10          6           0        0.000000    1.409756    0.008295
     11          8           0        0.000000    2.759999    0.052901
     12         17           0        0.000000    1.601358   -2.678734
     13          1           0        0.000000   -3.106114   -0.849754
     14          1           0        0.000000    3.106114   -0.849754
 ---------------------------------------------------------------------

 SCF Done:  E(RHF) =  -2216.32317028     A.U. after    2 cycles

 The electronic state is 1-A1.
 Alpha  occ. eigenvalues -- -103.70926-103.70925-103.68453-103.68452 -20.63427
 Alpha  occ. eigenvalues --  -20.63427 -11.36154 -11.36144 -11.35326 -11.35212
 Alpha  occ. eigenvalues --  -11.34644 -11.34531 -10.74199 -10.74196 -10.71732
 Alpha  occ. eigenvalues --  -10.71728  -8.39936  -8.39929  -8.39636  -8.39632
 Alpha  occ. eigenvalues --   -8.39593  -8.39591  -8.37479  -8.37471  -8.37141
 Alpha  occ. eigenvalues --   -8.37135  -8.37130  -8.37128  -1.40837  -1.40571
 Alpha  occ. eigenvalues --   -1.25660  -1.23494  -1.20560  -1.18574  -1.13472
 Alpha  occ. eigenvalues --   -1.02940  -1.01059  -0.88753  -0.87388  -0.80450
 Alpha  occ. eigenvalues --   -0.76934  -0.73959  -0.67077  -0.66178  -0.64647
 Alpha  occ. eigenvalues --   -0.63803  -0.63801  -0.62373  -0.60754  -0.57305
 Alpha  occ. eigenvalues --   -0.56017  -0.55644  -0.52946  -0.52650  -0.50670
 Alpha  occ. eigenvalues --   -0.50443  -0.49775  -0.47130  -0.46440  -0.36657
 Alpha  occ. eigenvalues --   -0.34126
 Alpha virt. eigenvalues --    0.03494   0.04233   0.06522   0.06759   0.07430
 Alpha virt. eigenvalues --    0.08719   0.09756   0.09794   0.09843   0.11222
 Alpha virt. eigenvalues --    0.11300   0.11898   0.11964   0.12603   0.13860

 Mulliken charges:
               1
     1  Cl  -0.333283
     2  C    0.037569
     3  C    0.037569
     4  Cl  -0.333283
     5  C    0.817513
     6  O   -0.532412
     7  C    0.289985
     8  Cl  -0.464891
     9  C    0.289985
    10  C    0.817513
    11  O   -0.532412
    12  Cl  -0.464891
    13  H    0.185520
    14  H    0.185520
 Sum of Mulliken charges =  -0.00000

 Dipole moment (field-independent basis, Debye):
    X=              0.0000    Y=             -0.0000    Z=             -2.8823  Tot=              2.8823

 Test job not archived.
 1\1\GINC-SE226\SP\RHF\Aug-CC-pVDZ\C6H2Cl4O2\OHZDE\05-Apr-2025\0\\#t hf
  aug-cc-pvdz iop(5/13=1,5/36=2,99/5=2) pseudo=read geom=check guess=(r
 ead,tcheck) scf=(maxcycle=1)\\title\\0,1\Cl,0,0.,1.591361,2.692912\C,0
 ,0.,0.696756,1.212282\C,0,0.,-0.696756,1.212282\Cl,0,0.,-1.591361,2.69
 2912\C,0,0.,-1.409756,0.008295\O,0,0.,-2.759999,0.052901\C,0,0.,-0.695
 96,-1.189657\Cl,0,0.,-1.601358,-2.678734\C,0,0.,0.69596,-1.189657\C,0,
 0.,1.409756,0.008295\O,0,0.,2.759999,0.052901\Cl,0,0.,1.601358,-2.6787
 34\H,0,0.,-3.106114,-0.849754\H,0,0.,3.106114,-0.849754\\Version=ES64L

 Normal termination of Gaussian 16 at Sat Apr  5 22:22:22 2025.
