 Gaussian 16, Revision C.01,

 ----------------------------------------------------------------------
 #t hf aug-cc-pvdz symm=none int=(grid=ultrafine) guess=(read,tcheck) s
 table=(opt,rrhf)
 ----------------------------------------------------------------------
 -----
 title
 -----
 Symbolic Z-matrix:
 Charge =  0 Multiplicity = 1

 SCF Done:  E(RHF) =  -412.397843294     A.U. after   15 cycles
 Normal termination of Gaussian 16 at Sat Apr  5 22:20:46 2025.
 Gaussian 16:  ES64L-G16RevC.01  3-Jul-2019

 ----------------------------------------------------------------------
 #t hf aug-cc-pvdz iop(5/13=1,5/36=2,99/5=2) pseudo=read geom=check gue
 ss=(read,tcheck) scf=(maxcycle=1)
 ----------------------------------------------------------------------
 -----
 title
 -----
 Structure from the checkpoint file:  "2-3-diamino-1-3-butadiene-1-4-dione.chk"
 Charge =  0 Multiplicity = 1

                         Standard orientation:
 ---------------------------------------------------------------------
 Center     Atomic      Atomic             Coordinates (Angstroms)
 Number     Number       Type             X           Y           Z
 ---------------------------------------------------------------------
      1          8           0        0.662791    2.150274   -1.440821
      2          8           0       -0.662791   -2.150274   -1.440821
      3          7           0       -1.126502    1.290107    1.322386
      4          7           0        1.126502   -1.290107    1.322386
      5          6           0       -0.235728    0.702221    0.369706
      6          6           0        0.235728   -0.702221    0.369706
      7          6           0        0.235728    1.488873   -0.589450
      8          6           0       -0.235728   -1.488873   -0.589450
      9          1           0       -0.752204    1.293584    2.261984
     10          1           0       -2.038657    0.851873    1.326339
     11          1           0        0.752204   -1.293584    2.261984
     12          1           0        2.038657   -0.851873    1.326339
 ---------------------------------------------------------------------

 SCF Done:  E(RHF) =  -412.525963427     A.U. after    2 cycles

 The electronic state is 1-A.
 Alpha  occ. eigenvalues --  -20.65111 -20.65111 -15.64226 -15.64225 -11.40152
 Alpha  occ. eigenvalues --  -11.40152 -11.29883 -11.29820  -1.44777  -1.44658
 Alpha  occ. eigenvalues --   -1.21191  -1.16915  -1.04830  -0.97596  -0.78651
 Alpha  occ. eigenvalues --   -0.76222  -0.72271  -0.70259  -0.70031  -0.67764
 Alpha  occ. eigenvalues --   -0.66629  -0.65631  -0.65356  -0.61667  -0.59749
 Alpha  occ. eigenvalues --   -0.45570  -0.41937  -0.38638  -0.34597
 Alpha virt. eigenvalues --    0.02260   0.03712   0.05012   0.05042   0.07714
 Alpha virt. eigenvalues --    0.08167   0.10220   0.10491   0.10934   0.11077
 Alpha virt. eigenvalues --    0.11906   0.13595   0.13645   0.14809   0.14996

 Mulliken charges:
               1
     1  O   -0.193910
     2  O   -0.193910
     3  N   -0.362070
     4  N   -0.362070
     5  C    1.032623
     6  C    1.032623
     7  C   -0.462254
     8  C   -0.462254
     9  H   -0.011996
    10  H   -0.002392
    11  H   -0.011996
    12  H   -0.002392
 Sum of Mulliken charges =  -0.00000

 Dipole moment (field-independent basis, Debye):
    X=              0.0000    Y=             -0.0000    Z=              3.9799  Tot=              3.9799

 Test job not archived.
 1\1\GINC-SE107\SP\RHF\Aug-CC-pVDZ\C4H4N2O2\OHZDE\05-Apr-2025\0\\#t hf
 aug-cc-pvdz iop(5/13=1,5/36=2,99/5=2) pseudo=read geom=check guess=(re
 ad,tcheck) scf=(maxcycle=1)\\title\\0,1\O,0,0.662791,2.150274,-1.44082
 1\O,0,-0.662791,-2.150274,-1.440821\N,0,-1.126502,1.290107,1.322386\N,
 0,1.126502,-1.290107,1.322386\C,0,-0.235728,0.702221,0.369706\C,0,0.23
 5728,-0.702221,0.369706\C,0,0.235728,1.488873,-0.58945\C,0,-0.235728,-
 1.488873,-0.58945\H,0,-0.752204,1.293584,2.261984\H,0,-2.038657,0.8518
 73,1.326339\H,0,0.752204,-1.293584,2.261984\H,0,2.038657,-0.851873,1.3

 Normal termination of Gaussian 16 at Sat Apr  5 22:20:51 2025.
