 Gaussian 16, Revision C.01,

 ----------------------------------------------------------------------
 #t hf aug-cc-pvdz symm=none int=(grid=ultrafine) guess=(read,tcheck) s
 table=(opt,rrhf)
 ----------------------------------------------------------------------
 -----
 title
 -----
 Symbolic Z-matrix:
 Charge =  0 Multiplicity = 1

 SCF Done:  E(RHF) =  -383.680502859     A.U. after   15 cycles

 1\1\GINC-SE231\Stability\RHF\Aug-CC-pVDZ\C8H10O1\OHZDE\05-Apr-2025\0\\
 #t hf aug-cc-pvdz symm=none int=(grid=ultrafine) guess=(read,tcheck) s
 table=(opt,rrhf)\\title\\0,1\C,0,-0.213058,2.110789,-0.000013\C,0,1.04
 2586,1.522127,0.000007\C,0,-1.349117,1.31482,-0.000027\C,0,1.187094,0.
 132469,-0.000047\C,0,0.04657,-0.684289,-0.000161\C,0,-1.210519,-0.0679
 72,-0.000041\C,0,2.574664,-0.460211,0.000086\C,0,0.106756,-2.189188,-0
 .000088\O,0,-2.303561,-0.899154,0.000146\H,0,-0.310027,3.188042,0.0000
 26\H,0,1.926806,2.145506,0.000092\H,0,-2.337118,1.760334,0.000039\H,0,

 Normal termination of Gaussian 16 at Sat Apr  5 22:22:29 2025.
 Gaussian 16:  ES64L-G16RevC.01  3-Jul-2019

 ----------------------------------------------------------------------
 #t hf aug-cc-pvdz iop(5/13=1,5/36=2,99/5=2) pseudo=read geom=check gue
 ss=(read,tcheck) scf=(maxcycle=1)
 ----------------------------------------------------------------------
 -----
 title
 -----
 Structure from the checkpoint file:  "2-3-dimethylphenol.chk"
 Charge =  0 Multiplicity = 1

                         Standard orientation:
 ---------------------------------------------------------------------
 Center     Atomic      Atomic             Coordinates (Angstroms)
 Number     Number       Type             X           Y           Z
 ---------------------------------------------------------------------
      1          6           0       -0.213057    2.110789   -0.000013
      2          6           0        1.042587    1.522126    0.000007
      3          6           0       -1.349116    1.314821   -0.000027
      4          6           0        1.187094    0.132468   -0.000047
      5          6           0        0.046570   -0.684289   -0.000161
      6          6           0       -1.210519   -0.067971   -0.000041
      7          6           0        2.574664   -0.460213    0.000086
      8          6           0        0.106755   -2.189188   -0.000088
      9          8           0       -2.303562   -0.899153    0.000146
     10          1           0       -0.310025    3.188042    0.000026
     11          1           0        1.926807    2.145505    0.000092
     12          1           0       -2.337117    1.760335    0.000039
     13          1           0        2.748532   -1.085832    0.877800
     14          1           0        2.749166   -1.084720   -0.878307
     15          1           0        3.326642    0.326981    0.000827
     16          1           0       -0.398379   -2.599980    0.876317
     17          1           0       -0.408083   -2.600325   -0.870566
     18          1           0        1.128273   -2.557540   -0.005554
     19          1           0       -3.107182   -0.370499   -0.000145
 ---------------------------------------------------------------------

 SCF Done:  E(RHF) =  -383.797583134     A.U. after    2 cycles

 The electronic state is 1-A.
 Alpha  occ. eigenvalues --  -20.60128 -11.30541 -11.24951 -11.24290 -11.23841
 Alpha  occ. eigenvalues --  -11.23558 -11.23183 -11.22730 -11.22439  -1.36299
 Alpha  occ. eigenvalues --   -1.14263  -1.04669  -1.01963  -0.94456  -0.91597
 Alpha  occ. eigenvalues --   -0.83059  -0.80163  -0.71839  -0.68150  -0.66188
 Alpha  occ. eigenvalues --   -0.61277  -0.60700  -0.57861  -0.57568  -0.56558
 Alpha  occ. eigenvalues --   -0.54913  -0.54774  -0.53436  -0.49958  -0.48097
 Alpha  occ. eigenvalues --   -0.47261  -0.32633  -0.31243
 Alpha virt. eigenvalues --    0.03226   0.03886   0.04106   0.05267   0.05594
 Alpha virt. eigenvalues --    0.05738   0.07787   0.07869   0.08037   0.08397
 Alpha virt. eigenvalues --    0.11586   0.12098   0.12148   0.12699   0.12761

 Mulliken charges:
               1
     1  C   -0.026638
     2  C    0.749589
     3  C    0.805519
     4  C    0.181744
     5  C   -0.469990
     6  C   -0.132408
     7  C    0.212503
     8  C    0.640114
     9  O   -0.650091
    10  H   -0.458515
    11  H   -0.605159
    12  H   -0.615914
    13  H    0.226790
    14  H    0.226882
    15  H   -0.263458
    16  H    0.129167
    17  H    0.127325
    18  H   -0.240707
    19  H    0.163246
 Sum of Mulliken charges =   0.00000

 Dipole moment (field-independent basis, Debye):
    X=             -0.2410    Y=              0.7545    Z=             -0.0002  Tot=              0.7921

 Test job not archived.
 1\1\GINC-SE231\SP\RHF\Aug-CC-pVDZ\C8H10O1\OHZDE\05-Apr-2025\0\\#t hf a
 ug-cc-pvdz iop(5/13=1,5/36=2,99/5=2) pseudo=read geom=check guess=(rea
 d,tcheck) scf=(maxcycle=1)\\title\\0,1\C,0,-0.213058,2.110789,-0.00001
 3\C,0,1.042586,1.522127,0.000007\C,0,-1.349117,1.31482,-0.000027\C,0,1
 .187094,0.132469,-0.000047\C,0,0.04657,-0.684289,-0.000161\C,0,-1.2105
 19,-0.067972,-0.000041\C,0,2.574664,-0.460211,0.000086\C,0,0.106756,-2
 .189188,-0.000088\O,0,-2.303561,-0.899154,0.000146\H,0,-0.310027,3.188
 042,0.000026\H,0,1.926806,2.145506,0.000092\H,0,-2.337118,1.760334,0.0

 Normal termination of Gaussian 16 at Sat Apr  5 22:22:39 2025.
