 Gaussian 16, Revision C.01,

 ----------------------------------------------------------------------
 #t hf aug-cc-pvdz symm=none int=(grid=ultrafine) guess=(read,tcheck) s
 table=(opt,rrhf)
 ----------------------------------------------------------------------
 -----
 title
 -----
 Symbolic Z-matrix:
 Charge =  0 Multiplicity = 1

 SCF Done:  E(RHF) =  -981.995433738     A.U. after   15 cycles
 Normal termination of Gaussian 16 at Sat Apr  5 22:20:49 2025.
 Gaussian 16:  ES64L-G16RevC.01  3-Jul-2019

 ----------------------------------------------------------------------
 #t hf aug-cc-pvdz iop(5/13=1,5/36=2,99/5=2) pseudo=read geom=check gue
 ss=(read,tcheck) scf=(maxcycle=1)
 ----------------------------------------------------------------------
 -----
 title
 -----
 Structure from the checkpoint file:  "2-3-dihydro-1-3-4-thiadiazole-2-thiol.chk"
 Charge =  0 Multiplicity = 1

                         Standard orientation:
 ---------------------------------------------------------------------
 Center     Atomic      Atomic             Coordinates (Angstroms)
 Number     Number       Type             X           Y           Z
 ---------------------------------------------------------------------
      1         16           0        0.807257   -1.220346    0.197198
      2         16           0       -1.948226   -0.076614   -0.421874
      3          7           0        0.326375    1.278014    0.589110
      4          7           0        1.350166    1.260862   -0.340449
      5          6           0       -0.427430    0.038051    0.678459
      6          6           0        1.721627    0.074068   -0.599627
      7          1           0       -2.794969    0.485791    0.462355
      8          1           0       -0.239031    2.107672    0.478029
      9          1           0       -0.761306   -0.139902    1.694067
     10          1           0        2.549843   -0.147039   -1.253252
 ---------------------------------------------------------------------

 SCF Done:  E(RHF) =  -982.088098198     A.U. after    2 cycles

 The electronic state is 1-A.
 Alpha  occ. eigenvalues --  -93.56790 -93.54960 -15.68329 -15.67816 -11.36174
 Alpha  occ. eigenvalues --  -11.32099  -8.86633  -8.84707  -6.20737  -6.20602
 Alpha  occ. eigenvalues --   -6.20199  -6.18831  -6.18623  -6.18284  -1.32066
 Alpha  occ. eigenvalues --   -1.11511  -1.05999  -0.95691  -0.83535  -0.81031
 Alpha  occ. eigenvalues --   -0.71227  -0.65668  -0.63311  -0.56954  -0.54650
 Alpha  occ. eigenvalues --   -0.50418  -0.47850  -0.44784  -0.43011  -0.37315
 Alpha  occ. eigenvalues --   -0.32638
 Alpha virt. eigenvalues --    0.03214   0.03960   0.05044   0.05943   0.08211
 Alpha virt. eigenvalues --    0.08969   0.09548   0.10804   0.11574   0.12531
 Alpha virt. eigenvalues --    0.12721   0.13521   0.14977   0.15563   0.16030

 Mulliken charges:
               1
     1  S    0.499038
     2  S    0.197973
     3  N   -0.331325
     4  N   -0.231342
     5  C    0.119502
     6  C    0.178293
     7  H    0.055258
     8  H    0.039061
     9  H   -0.288942
    10  H   -0.237517
 Sum of Mulliken charges =  -0.00000

 Dipole moment (field-independent basis, Debye):
    X=             -0.7229    Y=              0.0885    Z=              0.9840  Tot=              1.2242

 Test job not archived.
 1\1\GINC-SE152\SP\RHF\Aug-CC-pVDZ\C2H4N2S2\OHZDE\05-Apr-2025\0\\#t hf
 aug-cc-pvdz iop(5/13=1,5/36=2,99/5=2) pseudo=read geom=check guess=(re
 ad,tcheck) scf=(maxcycle=1)\\title\\0,1\S,0,0.807257,-1.220346,0.19719
 8\S,0,-1.948226,-0.076615,-0.421874\N,0,0.326375,1.278014,0.58911\N,0,
 1.350166,1.260862,-0.340449\C,0,-0.42743,0.038051,0.678459\C,0,1.72162
 7,0.074068,-0.599627\H,0,-2.794969,0.48579,0.462355\H,0,-0.239031,2.10
 7672,0.478029\H,0,-0.761306,-0.139902,1.694067\H,0,2.549843,-0.147039,
 -1.253252\\Version=ES64L-G16RevC.01\State=1-A\HF=-982.0880982\RMSD=5.8

 Normal termination of Gaussian 16 at Sat Apr  5 22:20:53 2025.
