 Gaussian 16, Revision C.01,

 ----------------------------------------------------------------------
 #t hf aug-cc-pvdz symm=none int=(grid=ultrafine) guess=(read,tcheck) s
 table=(opt,rrhf)
 ----------------------------------------------------------------------
 -----
 title
 -----
 Symbolic Z-matrix:
 Charge =  0 Multiplicity = 1

 SCF Done:  E(RHF) =  -234.203060122     A.U. after   13 cycles
 Normal termination of Gaussian 16 at Sat Apr  5 22:21:23 2025.
 Gaussian 16:  ES64L-G16RevC.01  3-Jul-2019

 ----------------------------------------------------------------------
 #t hf aug-cc-pvdz iop(5/13=1,5/36=2,99/5=2) pseudo=read geom=check gue
 ss=(read,tcheck) scf=(maxcycle=1)
 ----------------------------------------------------------------------
 -----
 title
 -----
 Structure from the checkpoint file:  "2-3-dimethyl-1-butene.chk"
 Charge =  0 Multiplicity = 1

                         Standard orientation:
 ---------------------------------------------------------------------
 Center     Atomic      Atomic             Coordinates (Angstroms)
 Number     Number       Type             X           Y           Z
 ---------------------------------------------------------------------
      1          6           0       -1.071798    1.395295   -0.516943
      2          1           0       -2.097308    1.655846   -0.745207
      3          1           0       -0.324065    2.139068   -0.752121
      4          6           0       -1.846494   -0.781611    0.354048
      5          1           0       -1.822725   -1.041562    1.416022
      6          1           0       -2.835490   -0.389471    0.122101
      7          1           0       -1.717430   -1.714418   -0.199086
      8          6           0       -0.767616    0.217558    0.024788
      9          6           0        1.126951   -1.341248   -0.574524
     10          1           0        2.119063   -1.686706   -0.279687
     11          1           0        0.459313   -2.201864   -0.554699
     12          1           0        1.185647   -0.984025   -1.604310
     13          6           0        0.651228   -0.212141    0.359200
     14          1           0        0.614475   -0.630270    1.372557
     15          6           0        1.673172    0.925370    0.370849
     16          1           0        1.815739    1.345990   -0.626310
     17          1           0        1.368190    1.732615    1.036949
     18          1           0        2.641935    0.555459    0.709287
 ---------------------------------------------------------------------

 SCF Done:  E(RHF) =  -234.278807675     A.U. after    2 cycles

 The electronic state is 1-A.
 Alpha  occ. eigenvalues --  -11.24286 -11.23944 -11.22707 -11.22318 -11.21988
 Alpha  occ. eigenvalues --  -11.21619  -1.09956  -1.01287  -0.93809  -0.91378
 Alpha  occ. eigenvalues --   -0.82815  -0.70631  -0.64661  -0.62055  -0.59516
 Alpha  occ. eigenvalues --   -0.57156  -0.56071  -0.53968  -0.53073  -0.51498
 Alpha  occ. eigenvalues --   -0.48162  -0.47004  -0.45844  -0.34926
 Alpha virt. eigenvalues --    0.03566   0.04307   0.04510   0.04962   0.06162
 Alpha virt. eigenvalues --    0.06342   0.07004   0.07377   0.07745   0.08905
 Alpha virt. eigenvalues --    0.09331   0.10466   0.12282   0.12814   0.13923

 Mulliken charges:
               1
     1  C    1.228635
     2  H   -0.459636
     3  H   -0.457701
     4  C    0.237427
     5  H    0.042655
     6  H   -0.180225
     7  H   -0.014400
     8  C   -0.473676
     9  C    0.663159
    10  H   -0.091521
    11  H   -0.162519
    12  H   -0.045739
    13  C   -0.801298
    14  H   -0.066117
    15  C    0.729317
    16  H    0.028429
    17  H   -0.046354
    18  H   -0.130436
 Sum of Mulliken charges =  -0.00000

 Dipole moment (field-independent basis, Debye):
    X=              0.1716    Y=             -0.5097    Z=              0.2678  Tot=              0.6008

 Test job not archived.
 1\1\GINC-SE225\SP\RHF\Aug-CC-pVDZ\C6H12\OHZDE\05-Apr-2025\0\\#t hf aug
 -cc-pvdz iop(5/13=1,5/36=2,99/5=2) pseudo=read geom=check guess=(read,
 tcheck) scf=(maxcycle=1)\\title\\0,1\C,0,-1.071798,1.395295,-0.516943\
 H,0,-2.097308,1.655846,-0.745207\H,0,-0.324065,2.139068,-0.752121\C,0,
 -1.846494,-0.781611,0.354048\H,0,-1.822725,-1.041562,1.416022\H,0,-2.8
 3549,-0.389471,0.122101\H,0,-1.71743,-1.714418,-0.199086\C,0,-0.767616
 ,0.217558,0.024788\C,0,1.126951,-1.341248,-0.574524\H,0,2.119063,-1.68
 6706,-0.279687\H,0,0.459313,-2.201864,-0.554699\H,0,1.185647,-0.984025

 Normal termination of Gaussian 16 at Sat Apr  5 22:22:20 2025.
