 Gaussian 16, Revision C.01,

 ----------------------------------------------------------------------
 #t hf aug-cc-pvdz symm=none int=(grid=ultrafine) guess=(read,tcheck) s
 table=(opt,rrhf)
 ----------------------------------------------------------------------
 -----
 title
 -----
 Symbolic Z-matrix:
 Charge =  0 Multiplicity = 1

 SCF Done:  E(RHF) =  -1147.24591473     A.U. after   14 cycles

 1\1\GINC-SE047\Stability\RHF\Aug-CC-pVDZ\C6H2Cl2\OHZDE\05-Apr-2025\0\\
 #t hf aug-cc-pvdz symm=none int=(grid=ultrafine) guess=(read,tcheck) s
 table=(opt,rrhf)\\title\\0,1\Cl,0,1.404145,1.587201,0.\Cl,0,1.404145,-
 1.5872,0.\C,0,-0.099467,0.708116,0.\C,0,-0.099467,-0.708116,0.\C,0,-1.
 288023,1.457987,0.\C,0,-1.288023,-1.457988,0.\C,0,-2.378023,0.619733,0
 .\C,0,-2.378023,-0.619734,0.\H,0,-1.277395,2.536568,0.\H,0,-1.277395,-
 2.536568,0.\\Version=ES64L-G16RevC.01\HF=-1147.2459147\RMSD=7.356e-09\
 Dipole=-0.4015299,-0.0000007,0.\Quadrupole=-2.2223848,4.2798342,-2.057

 Normal termination of Gaussian 16 at Sat Apr  5 22:19:32 2025.
 Gaussian 16:  ES64L-G16RevC.01  3-Jul-2019

 ----------------------------------------------------------------------
 #t hf aug-cc-pvdz iop(5/13=1,5/36=2,99/5=2) pseudo=read geom=check gue
 ss=(read,tcheck) scf=(maxcycle=1)
 ----------------------------------------------------------------------
 -----
 title
 -----
 Structure from the checkpoint file:  "2-3-dichloro-1-3-cyclohexadien-5-yne.chk"
 Charge =  0 Multiplicity = 1

                         Standard orientation:
 ---------------------------------------------------------------------
 Center     Atomic      Atomic             Coordinates (Angstroms)
 Number     Number       Type             X           Y           Z
 ---------------------------------------------------------------------
      1         17           0        1.404145    1.587201    0.000000
      2         17           0        1.404145   -1.587200    0.000000
      3          6           0       -0.099467    0.708116    0.000000
      4          6           0       -0.099467   -0.708116    0.000000
      5          6           0       -1.288023    1.457987    0.000000
      6          6           0       -1.288023   -1.457988    0.000000
      7          6           0       -2.378023    0.619733    0.000000
      8          6           0       -2.378023   -0.619734    0.000000
      9          1           0       -1.277395    2.536568    0.000000
     10          1           0       -1.277395   -2.536568    0.000000
 ---------------------------------------------------------------------

 SCF Done:  E(RHF) =  -1147.35033204     A.U. after    2 cycles

 The electronic state is 1-A'.
 Alpha  occ. eigenvalues -- -103.68388-103.68387 -11.34771 -11.34669 -11.31318
 Alpha  occ. eigenvalues --  -11.31311 -11.28842 -11.28526 -10.71678 -10.71674
 Alpha  occ. eigenvalues --   -8.37418  -8.37411  -8.37096  -8.37088  -8.37077
 Alpha  occ. eigenvalues --   -8.37075  -1.24488  -1.18601  -1.16563  -1.04642
 Alpha  occ. eigenvalues --   -1.00706  -0.88550  -0.79964  -0.70460  -0.69451
 Alpha  occ. eigenvalues --   -0.67914  -0.59848  -0.58778  -0.58675  -0.51347
 Alpha  occ. eigenvalues --   -0.50684  -0.50261  -0.47428  -0.40543  -0.37887
 Alpha  occ. eigenvalues --   -0.36733
 Alpha virt. eigenvalues --    0.02336   0.03663   0.04383   0.06229   0.06842
 Alpha virt. eigenvalues --    0.08868   0.08961   0.09819   0.10979   0.11284
 Alpha virt. eigenvalues --    0.11795   0.12995   0.13200   0.14344   0.14632

 Mulliken charges:
               1
     1  Cl  -0.319037
     2  Cl  -0.319037
     3  C    0.303868
     4  C    0.303867
     5  C    0.602796
     6  C    0.602801
     7  C   -0.269887
     8  C   -0.269887
     9  H   -0.317741
    10  H   -0.317743
 Sum of Mulliken charges =  -0.00000

 Dipole moment (field-independent basis, Debye):
    X=             -1.1569    Y=             -0.0000    Z=              0.0000  Tot=              1.1569

 Test job not archived.
 1\1\GINC-SE047\SP\RHF\Aug-CC-pVDZ\C6H2Cl2\OHZDE\05-Apr-2025\0\\#t hf a
 ug-cc-pvdz iop(5/13=1,5/36=2,99/5=2) pseudo=read geom=check guess=(rea
 d,tcheck) scf=(maxcycle=1)\\title\\0,1\Cl,0,1.404145,1.587201,0.\Cl,0,
 1.404145,-1.5872,0.\C,0,-0.099467,0.708116,0.\C,0,-0.099467,-0.708116,
 0.\C,0,-1.288023,1.457987,0.\C,0,-1.288023,-1.457988,0.\C,0,-2.378023,
 0.619733,0.\C,0,-2.378023,-0.619734,0.\H,0,-1.277395,2.536568,0.\H,0,-
 1.277395,-2.536568,0.\\Version=ES64L-G16RevC.01\State=1-A'\HF=-1147.35
 0332\RMSD=1.320e-02\Dipole=-0.4551582,-0.0000003,0.\Quadrupole=-2.1728

 Normal termination of Gaussian 16 at Sat Apr  5 22:20:31 2025.
