 Gaussian 16, Revision C.01,

 ----------------------------------------------------------------------
 #t hf aug-cc-pvdz symm=none int=(grid=ultrafine) guess=(read,tcheck) s
 table=(opt,rrhf)
 ----------------------------------------------------------------------
 -----
 title
 -----
 Symbolic Z-matrix:
 Charge =  0 Multiplicity = 1

 SCF Done:  E(RHF) =  -1097.33627500     A.U. after   17 cycles
 Normal termination of Gaussian 16 at Sat Apr  5 22:22:35 2025.
 Gaussian 16:  ES64L-G16RevC.01  3-Jul-2019

 ----------------------------------------------------------------------
 #t hf aug-cc-pvdz iop(5/13=1,5/36=2,99/5=2) pseudo=read geom=check gue
 ss=(read,tcheck) scf=(maxcycle=1)
 ----------------------------------------------------------------------
 -----
 title
 -----
 Structure from the checkpoint file:  "2-3-thieno-1-3-2-dioxathiole.chk"
 Charge =  0 Multiplicity = 1

                         Standard orientation:
 ---------------------------------------------------------------------
 Center     Atomic      Atomic             Coordinates (Angstroms)
 Number     Number       Type             X           Y           Z
 ---------------------------------------------------------------------
      1         16           0        1.786816   -0.999206   -0.026846
      2         16           0       -2.245223   -0.148491   -0.179660
      3          8           0       -1.005016   -1.270226    0.235149
      4          8           0       -1.330231    1.236629    0.220211
      5          6           0        0.134146   -0.525701    0.028191
      6          6           0       -0.017500    0.819744    0.026189
      7          6           0        1.196636    1.540976   -0.022378
      8          6           0        2.258331    0.681032   -0.056911
      9          1           0        1.283391    2.615343   -0.042028
     10          1           0        3.303414    0.920280   -0.147308
 ---------------------------------------------------------------------

 SCF Done:  E(RHF) =  -1097.47776561     A.U. after    2 cycles

 The electronic state is 1-A.
 Alpha  occ. eigenvalues --  -93.66400 -93.59018 -20.65378 -20.64771 -11.34088
 Alpha  occ. eigenvalues --  -11.31838 -11.29241 -11.27487  -8.94873  -8.88738
 Alpha  occ. eigenvalues --   -6.28999  -6.28798  -6.28156  -6.22871  -6.22737
 Alpha  occ. eigenvalues --   -6.22340  -1.43142  -1.35423  -1.17798  -1.00405
 Alpha  occ. eigenvalues --   -0.99916  -0.92640  -0.81649  -0.79474  -0.71708
 Alpha  occ. eigenvalues --   -0.68889  -0.63803  -0.62935  -0.62565  -0.60292
 Alpha  occ. eigenvalues --   -0.58213  -0.53279  -0.51844  -0.49795  -0.38770
 Alpha  occ. eigenvalues --   -0.36552  -0.32153
 Alpha virt. eigenvalues --    0.03428   0.04465   0.05707   0.06478   0.07320
 Alpha virt. eigenvalues --    0.08733   0.09666   0.09910   0.10986   0.12438
 Alpha virt. eigenvalues --    0.12921   0.13479   0.14138   0.14690   0.15190

 Mulliken charges:
               1
     1  S    0.859540
     2  S    0.970789
     3  O   -0.957326
     4  O   -0.933822
     5  C    0.223316
     6  C   -0.003212
     7  C    0.542100
     8  C   -0.050580
     9  H   -0.291980
    10  H   -0.358824
 Sum of Mulliken charges =  -0.00000

 Dipole moment (field-independent basis, Debye):
    X=              1.2585    Y=              0.9234    Z=             -0.5908  Tot=              1.6690

 Test job not archived.
 1\1\GINC-SE180\SP\RHF\Aug-CC-pVDZ\C4H2O2S2\OHZDE\05-Apr-2025\0\\#t hf
 aug-cc-pvdz iop(5/13=1,5/36=2,99/5=2) pseudo=read geom=check guess=(re
 ad,tcheck) scf=(maxcycle=1)\\title\\0,1\S,0,1.786816,-0.999206,-0.0268
 46\S,0,-2.245223,-0.148491,-0.17966\O,0,-1.005016,-1.270226,0.235149\O
 ,0,-1.330231,1.236629,0.220211\C,0,0.134146,-0.525701,0.028191\C,0,-0.
 0175,0.819744,0.026189\C,0,1.196636,1.540976,-0.022378\C,0,2.258331,0.
 681032,-0.056911\H,0,1.283391,2.615343,-0.042028\H,0,3.303414,0.92028,
 -0.147308\\Version=ES64L-G16RevC.01\State=1-A\HF=-1097.4777656\RMSD=1.

 Normal termination of Gaussian 16 at Sat Apr  5 22:22:41 2025.
