 Gaussian 16, Revision C.01,

 ----------------------------------------------------------------------
 #t hf aug-cc-pvdz symm=none int=(grid=ultrafine) guess=(read,tcheck) s
 table=(opt,rrhf)
 ----------------------------------------------------------------------
 -----
 title
 -----
 Symbolic Z-matrix:
 Charge =  0 Multiplicity = 1

 SCF Done:  E(RHF) =  -268.868409677     A.U. after   14 cycles
 Normal termination of Gaussian 16 at Sat Apr  5 22:19:32 2025.
 Gaussian 16:  ES64L-G16RevC.01  3-Jul-2019

 ----------------------------------------------------------------------
 #t hf aug-cc-pvdz iop(5/13=1,5/36=2,99/5=2) pseudo=read geom=check gue
 ss=(read,tcheck) scf=(maxcycle=1)
 ----------------------------------------------------------------------
 -----
 title
 -----
 Structure from the checkpoint file:  "2-3-dihydro-5-methylfuran.chk"
 Charge =  0 Multiplicity = 1

                         Standard orientation:
 ---------------------------------------------------------------------
 Center     Atomic      Atomic             Coordinates (Angstroms)
 Number     Number       Type             X           Y           Z
 ---------------------------------------------------------------------
      1          6           0       -1.368345   -0.812936    0.080163
      2          1           0       -1.906003   -1.388570   -0.670058
      3          1           0       -1.661689   -1.161174    1.072427
      4          8           0        0.046311   -1.092004   -0.079668
      5          6           0       -1.532303    0.714437   -0.061297
      6          1           0       -2.174500    1.121723    0.721203
      7          1           0       -1.979486    0.993680   -1.020378
      8          6           0       -0.096949    1.168984    0.041568
      9          1           0        0.227483    2.195282    0.084198
     10          6           0        2.190006    0.000476    0.008583
     11          1           0        2.539202   -0.503258   -0.895119
     12          1           0        2.646994    0.986271    0.059826
     13          1           0        2.528636   -0.591735    0.860936
     14          6           0        0.709071    0.109674    0.001700
 ---------------------------------------------------------------------

 SCF Done:  E(RHF) =  -268.953477980     A.U. after    2 cycles

 The electronic state is 1-A.
 Alpha  occ. eigenvalues --  -20.58163 -11.29627 -11.28861 -11.23840 -11.23624
 Alpha  occ. eigenvalues --  -11.21541  -1.35716  -1.05587  -1.03207  -0.92781
 Alpha  occ. eigenvalues --   -0.82910  -0.74479  -0.68104  -0.67343  -0.60715
 Alpha  occ. eigenvalues --   -0.58187  -0.55257  -0.54687  -0.53581  -0.51855
 Alpha  occ. eigenvalues --   -0.49152  -0.48793  -0.32218
 Alpha virt. eigenvalues --    0.03582   0.04284   0.04727   0.05101   0.06355
 Alpha virt. eigenvalues --    0.06898   0.07049   0.07502   0.10631   0.12188
 Alpha virt. eigenvalues --    0.12380   0.13846   0.14565   0.14791   0.16088

 Mulliken charges:
               1
     1  C    0.911675
     2  H   -0.213134
     3  H   -0.182407
     4  O   -0.753583
     5  C    0.000623
     6  H   -0.008870
     7  H   -0.037953
     8  C    0.387161
     9  H   -0.353776
    10  C    0.357702
    11  H    0.037226
    12  H   -0.035228
    13  H    0.047920
    14  C   -0.157355
 Sum of Mulliken charges =   0.00000

 Dipole moment (field-independent basis, Debye):
    X=             -0.5079    Y=              0.9381    Z=              0.1302  Tot=              1.0746

 Test job not archived.
 1\1\GINC-SE154\SP\RHF\Aug-CC-pVDZ\C5H8O1\OHZDE\05-Apr-2025\0\\#t hf au
 g-cc-pvdz iop(5/13=1,5/36=2,99/5=2) pseudo=read geom=check guess=(read
 ,tcheck) scf=(maxcycle=1)\\title\\0,1\C,0,-1.368345,-0.812936,0.080163
 \H,0,-1.906003,-1.38857,-0.670058\H,0,-1.661689,-1.161174,1.072427\O,0
 ,0.046311,-1.092004,-0.079668\C,0,-1.532303,0.714437,-0.061297\H,0,-2.
 1745,1.121723,0.721203\H,0,-1.979486,0.99368,-1.020378\C,0,-0.096949,1
 .168984,0.041568\H,0,0.227483,2.195282,0.084198\C,0,2.190006,0.000476,
 0.008583\H,0,2.539202,-0.503258,-0.895119\H,0,2.646994,0.986271,0.0598

 Normal termination of Gaussian 16 at Sat Apr  5 22:20:30 2025.
