 Gaussian 16, Revision C.01,

 ----------------------------------------------------------------------
 #t hf aug-cc-pvdz symm=none int=(grid=ultrafine) guess=(read,tcheck) s
 table=(opt,rrhf)
 ----------------------------------------------------------------------
 -----
 title
 -----
 Symbolic Z-matrix:
 Charge =  0 Multiplicity = 1

 SCF Done:  E(RHF) =  -186.914252211     A.U. after   11 cycles
 Normal termination of Gaussian 16 at Sat Apr  5 22:20:48 2025.
 Gaussian 16:  ES64L-G16RevC.01  3-Jul-2019

 ----------------------------------------------------------------------
 #t hf aug-cc-pvdz iop(5/13=1,5/36=2,99/5=2) pseudo=read geom=check gue
 ss=(read,tcheck) scf=(maxcycle=1)
 ----------------------------------------------------------------------
 -----
 title
 -----
 Structure from the checkpoint file:  "2-3-diazabutadiene.chk"
 Charge =  0 Multiplicity = 1

                         Standard orientation:
 ---------------------------------------------------------------------
 Center     Atomic      Atomic             Coordinates (Angstroms)
 Number     Number       Type             X           Y           Z
 ---------------------------------------------------------------------
      1          6           0        0.655134    1.533738    0.000000
      2          7           0        0.655134    0.265229    0.000000
      3          7           0       -0.655134   -0.265229    0.000000
      4          6           0       -0.655134   -1.533738    0.000000
      5          1           0       -0.265958    2.114793    0.000000
      6          1           0        1.612147    2.041686    0.000000
      7          1           0        0.265958   -2.114793    0.000000
      8          1           0       -1.612147   -2.041686    0.000000
 ---------------------------------------------------------------------

 SCF Done:  E(RHF) =  -186.969678832     A.U. after    2 cycles

 The electronic state is 1-AG.
 Alpha  occ. eigenvalues --  -15.66523 -15.66475 -11.29169 -11.29167  -1.27854
 Alpha  occ. eigenvalues --   -1.12162  -0.87013  -0.77831  -0.68637  -0.67513
 Alpha  occ. eigenvalues --   -0.57230  -0.53885  -0.51192  -0.39063  -0.38526
 Alpha virt. eigenvalues --    0.03871   0.03980   0.04673   0.06290   0.06867
 Alpha virt. eigenvalues --    0.10806   0.11223   0.12964   0.13547   0.16191
 Alpha virt. eigenvalues --    0.16901   0.17632   0.17669   0.19204   0.20661

 Mulliken charges:
               1
     1  C    0.657306
     2  N   -0.272847
     3  N   -0.272847
     4  C    0.657306
     5  H   -0.135433
     6  H   -0.249025
     7  H   -0.135433
     8  H   -0.249025
 Sum of Mulliken charges =  -0.00000

 Dipole moment (field-independent basis, Debye):
    X=              0.0000    Y=             -0.0000    Z=              0.0000  Tot=              0.0000

 Test job not archived.
 1\1\GINC-SE107\SP\RHF\Aug-CC-pVDZ\C2H4N2\OHZDE\05-Apr-2025\0\\#t hf au
 g-cc-pvdz iop(5/13=1,5/36=2,99/5=2) pseudo=read geom=check guess=(read
 ,tcheck) scf=(maxcycle=1)\\title\\0,1\C,0,0.655134,1.533738,0.\N,0,0.6
 55134,0.265229,0.\N,0,-0.655134,-0.265229,0.\C,0,-0.655134,-1.533738,0
 .\H,0,-0.265958,2.114793,0.\H,0,1.612147,2.041686,0.\H,0,0.265958,-2.1
 14793,0.\H,0,-1.612147,-2.041686,0.\\Version=ES64L-G16RevC.01\State=1-
 AG\HF=-186.9696788\RMSD=1.743e-03\Dipole=0.,0.,0.\Quadrupole=-2.169021
 ,4.6225047,-2.4534837,2.3233613,0.,0.\PG=C02H [SGH(C2H4N2)]\\@

 Normal termination of Gaussian 16 at Sat Apr  5 22:20:50 2025.
