 Gaussian 16, Revision C.01,

 ----------------------------------------------------------------------
 #t hf aug-cc-pvdz symm=none int=(grid=ultrafine) guess=(read,tcheck) s
 table=(opt,rrhf)
 ----------------------------------------------------------------------
 -----
 title
 -----
 Symbolic Z-matrix:
 Charge =  0 Multiplicity = 1

 SCF Done:  E(RHF) =  -244.517440681     A.U. after   14 cycles
 Normal termination of Gaussian 16 at Sat Apr  5 22:19:32 2025.
 Gaussian 16:  ES64L-G16RevC.01  3-Jul-2019

 ----------------------------------------------------------------------
 #t hf aug-cc-pvdz iop(5/13=1,5/36=2,99/5=2) pseudo=read geom=check gue
 ss=(read,tcheck) scf=(maxcycle=1)
 ----------------------------------------------------------------------
 -----
 title
 -----
 Structure from the checkpoint file:  "2-3-dihydro-1-3-oxazole.chk"
 Charge =  0 Multiplicity = 1

                         Standard orientation:
 ---------------------------------------------------------------------
 Center     Atomic      Atomic             Coordinates (Angstroms)
 Number     Number       Type             X           Y           Z
 ---------------------------------------------------------------------
      1          8           0       -0.353454   -1.104461    0.000000
      2          7           0        0.000000    1.089677    0.000000
      3          6           0       -1.093179    0.134053    0.000000
      4          6           0        0.952187   -0.943381    0.000000
      5          6           0        1.214335    0.602031    0.000000
      6          1           0       -0.198428    2.081953    0.000000
      7          1           0       -1.707000    0.184886    0.898569
      8          1           0       -1.707000    0.184886   -0.898569
 ---------------------------------------------------------------------

 SCF Done:  E(RHF) =  -244.590565113     A.U. after    2 cycles

 The electronic state is 1-A'.
 Alpha  occ. eigenvalues --  -20.66287 -15.71228 -11.37345 -11.31640 -11.27596
 Alpha  occ. eigenvalues --   -1.44599  -1.25338  -1.03380  -0.88562  -0.83050
 Alpha  occ. eigenvalues --   -0.72961  -0.72893  -0.65332  -0.60406  -0.56598
 Alpha  occ. eigenvalues --   -0.49131  -0.38513  -0.36415
 Alpha virt. eigenvalues --    0.01916   0.03478   0.04093   0.05220   0.07945
 Alpha virt. eigenvalues --    0.09768   0.10475   0.11802   0.13226   0.14526
 Alpha virt. eigenvalues --    0.14544   0.15254   0.15811   0.16065   0.17828

 Mulliken charges:
               1
     1  O   -0.495514
     2  N   -0.248682
     3  C    1.086884
     4  C    0.083462
     5  C   -0.085614
     6  H   -0.061962
     7  H   -0.139287
     8  H   -0.139287
 Sum of Mulliken charges =   0.00000

 Dipole moment (field-independent basis, Debye):
    X=             -5.2150    Y=              3.2000    Z=             -0.0000  Tot=              6.1185

 Test job not archived.
 1\1\GINC-SE153\SP\RHF\Aug-CC-pVDZ\C3H3N1O1\OHZDE\05-Apr-2025\0\\#t hf
 aug-cc-pvdz iop(5/13=1,5/36=2,99/5=2) pseudo=read geom=check guess=(re
 ad,tcheck) scf=(maxcycle=1)\\title\\0,1\O,0,-0.353454,-1.104461,0.\N,0
 ,0.,1.089677,0.\C,0,-1.093179,0.134053,0.\C,0,0.952187,-0.943381,0.\C,
 0,1.214335,0.602031,0.\H,0,-0.198428,2.081953,0.\H,0,-1.707,0.184886,0
 .898569\H,0,-1.707,0.184886,-0.898569\\Version=ES64L-G16RevC.01\State=
 1-A'\HF=-244.5905651\RMSD=3.059e-03\Dipole=-2.0517289,1.2589932,0.\Qua
 drupole=-2.1867678,-0.3022087,2.4889765,-1.492185,0.,0.\PG=CS [SG(C3H1

 Normal termination of Gaussian 16 at Sat Apr  5 22:20:28 2025.
