 Gaussian 16, Revision C.01,

 ----------------------------------------------------------------------
 #t hf aug-cc-pvdz symm=none int=(grid=ultrafine) guess=(read,tcheck) s
 table=(opt,rrhf)
 ----------------------------------------------------------------------
 -----
 title
 -----
 Symbolic Z-matrix:
 Charge =  0 Multiplicity = 1

 SCF Done:  E(RHF) =  -234.202053432     A.U. after   11 cycles
 Normal termination of Gaussian 16 at Sat Apr  5 22:22:15 2025.
 Gaussian 16:  ES64L-G16RevC.01  3-Jul-2019

 ----------------------------------------------------------------------
 #t hf aug-cc-pvdz iop(5/13=1,5/36=2,99/5=2) pseudo=read geom=check gue
 ss=(read,tcheck) scf=(maxcycle=1)
 ----------------------------------------------------------------------
 -----
 title
 -----
 Structure from the checkpoint file:  "2-3-dimethyl-2-butene.chk"
 Charge =  0 Multiplicity = 1

                         Standard orientation:
 ---------------------------------------------------------------------
 Center     Atomic      Atomic             Coordinates (Angstroms)
 Number     Number       Type             X           Y           Z
 ---------------------------------------------------------------------
      1          6           0        0.671348   -0.000000   -0.000000
      2          6           0       -0.671348    0.000000   -0.000000
      3          6           0        1.522644    1.246022    0.000000
      4          6           0        1.522644   -1.246022   -0.000000
      5          6           0       -1.522644   -1.246022    0.000000
      6          6           0       -1.522644    1.246022   -0.000000
      7          1           0        2.179680    1.256485    0.874962
      8          1           0        2.179680    1.256485   -0.874962
      9          1           0        0.958985    2.173276    0.000000
     10          1           0        2.179680   -1.256485    0.874962
     11          1           0        0.958985   -2.173276   -0.000000
     12          1           0        2.179680   -1.256485   -0.874962
     13          1           0       -2.179680   -1.256485   -0.874962
     14          1           0       -2.179680   -1.256485    0.874962
     15          1           0       -0.958985   -2.173276    0.000000
     16          1           0       -2.179680    1.256485   -0.874962
     17          1           0       -2.179680    1.256485    0.874962
     18          1           0       -0.958985    2.173276   -0.000000
 ---------------------------------------------------------------------

 SCF Done:  E(RHF) =  -234.278120302     A.U. after    2 cycles

 The electronic state is 1-AG.
 Alpha  occ. eigenvalues --  -11.23266 -11.23115 -11.22187 -11.22183 -11.22181
 Alpha  occ. eigenvalues --  -11.22177  -1.09439  -1.00506  -0.94347  -0.91233
 Alpha  occ. eigenvalues --   -0.85458  -0.67511  -0.64276  -0.60087  -0.59995
 Alpha  occ. eigenvalues --   -0.57178  -0.53708  -0.53142  -0.52700  -0.52464
 Alpha  occ. eigenvalues --   -0.51079  -0.50218  -0.45388  -0.32319
 Alpha virt. eigenvalues --    0.03580   0.04164   0.04633   0.05450   0.05614
 Alpha virt. eigenvalues --    0.06535   0.06823   0.07633   0.08795   0.08978
 Alpha virt. eigenvalues --    0.09102   0.10668   0.11384   0.13491   0.14064

 Mulliken charges:
               1
     1  C   -0.885962
     2  C   -0.885962
     3  C    0.429440
     4  C    0.429440
     5  C    0.429440
     6  C    0.429440
     7  H    0.116827
     8  H    0.116827
     9  H   -0.220113
    10  H    0.116827
    11  H   -0.220113
    12  H    0.116827
    13  H    0.116827
    14  H    0.116827
    15  H   -0.220113
    16  H    0.116827
    17  H    0.116827
    18  H   -0.220113
 Sum of Mulliken charges =  -0.00000

 Dipole moment (field-independent basis, Debye):
    X=             -0.0000    Y=             -0.0000    Z=              0.0000  Tot=              0.0000

 Test job not archived.
 1\1\GINC-SE177\SP\RHF\Aug-CC-pVDZ\C6H12\OHZDE\05-Apr-2025\0\\#t hf aug
 -cc-pvdz iop(5/13=1,5/36=2,99/5=2) pseudo=read geom=check guess=(read,
 tcheck) scf=(maxcycle=1)\\title\\0,1\C,0,0.671348,0.,0.\C,0,-0.671348,
 0.,0.\C,0,1.522644,1.246022,0.\C,0,1.522644,-1.246022,0.\C,0,-1.522644
 ,-1.246022,0.\C,0,-1.522644,1.246022,0.\H,0,2.17968,1.256485,0.874962\
 H,0,2.17968,1.256485,-0.874962\H,0,0.958985,2.173276,0.\H,0,2.17968,-1
 .256485,0.874962\H,0,0.958985,-2.173276,0.\H,0,2.17968,-1.256485,-0.87
 4962\H,0,-2.17968,-1.256485,-0.874962\H,0,-2.17968,-1.256485,0.874962\

 Normal termination of Gaussian 16 at Sat Apr  5 22:22:23 2025.
