 Gaussian 16, Revision C.01,

 ----------------------------------------------------------------------
 #t hf aug-cc-pvdz symm=none int=(grid=ultrafine) guess=(read,tcheck) s
 table=(opt,rrhf)
 ----------------------------------------------------------------------
 -----
 title
 -----
 Symbolic Z-matrix:
 Charge =  0 Multiplicity = 1

 SCF Done:  E(RHF) =  -229.819606046     A.U. after   13 cycles
 Normal termination of Gaussian 16 at Sat Apr  5 22:19:33 2025.
 Gaussian 16:  ES64L-G16RevC.01  3-Jul-2019

 ----------------------------------------------------------------------
 #t hf aug-cc-pvdz iop(5/13=1,5/36=2,99/5=2) pseudo=read geom=check gue
 ss=(read,tcheck) scf=(maxcycle=1)
 ----------------------------------------------------------------------
 -----
 title
 -----
 Structure from the checkpoint file:  "2-3-dihydrofuran.chk"
 Charge =  0 Multiplicity = 1

                         Standard orientation:
 ---------------------------------------------------------------------
 Center     Atomic      Atomic             Coordinates (Angstroms)
 Number     Number       Type             X           Y           Z
 ---------------------------------------------------------------------
      1          1           0        1.090371    2.042313    0.076465
      2          6           0        0.596543    1.086225    0.038981
      3          1           0        2.249849   -0.338569    0.019187
      4          6           0        1.198765   -0.096250    0.008788
      5          8           0        0.365292   -1.176016   -0.062866
      6          1           0       -1.297408    1.237766   -1.005784
      7          1           0       -1.452900    1.372802    0.739281
      8          6           0       -0.896856    0.873536   -0.055484
      9          1           0       -1.592746   -1.131235   -0.710934
     10          1           0       -1.364628   -0.974544    1.041627
     11          6           0       -0.990930   -0.663578    0.064896
 ---------------------------------------------------------------------

 SCF Done:  E(RHF) =  -229.892595069     A.U. after    2 cycles

 The electronic state is 1-A.
 Alpha  occ. eigenvalues --  -20.58629 -11.29518 -11.29282 -11.24403 -11.22571
 Alpha  occ. eigenvalues --   -1.36061  -1.05787  -0.99689  -0.83241  -0.77318
 Alpha  occ. eigenvalues --   -0.71181  -0.67471  -0.60162  -0.56212  -0.54823
 Alpha  occ. eigenvalues --   -0.53176  -0.50455  -0.49896  -0.33207
 Alpha virt. eigenvalues --    0.03550   0.04597   0.04832   0.05200   0.06473
 Alpha virt. eigenvalues --    0.07243   0.10499   0.11362   0.12388   0.13732
 Alpha virt. eigenvalues --    0.13985   0.14132   0.15110   0.16248   0.16638

 Mulliken charges:
               1
     1  H   -0.307625
     2  C    0.320467
     3  H   -0.287341
     4  C    0.519164
     5  O   -0.641374
     6  H   -0.050500
     7  H   -0.030156
     8  C   -0.002669
     9  H   -0.197424
    10  H   -0.180665
    11  C    0.858122
 Sum of Mulliken charges =  -0.00000

 Dipole moment (field-independent basis, Debye):
    X=             -0.8393    Y=              1.2444    Z=              0.1064  Tot=              1.5048

 Test job not archived.
 1\1\GINC-SE085\SP\RHF\Aug-CC-pVDZ\C4H6O1\OHZDE\05-Apr-2025\0\\#t hf au
 g-cc-pvdz iop(5/13=1,5/36=2,99/5=2) pseudo=read geom=check guess=(read
 ,tcheck) scf=(maxcycle=1)\\title\\0,1\H,0,1.090374,2.042312,0.076465\C
 ,0,0.596544,1.086224,0.038981\H,0,2.249849,-0.338572,0.019187\C,0,1.19
 8765,-0.096252,0.008788\O,0,0.36529,-1.176016,-0.062866\H,0,-1.297406,
 1.237768,-1.005784\H,0,-1.452898,1.372804,0.739281\C,0,-0.896855,0.873
 537,-0.055484\H,0,-1.592748,-1.131233,-0.710934\H,0,-1.364629,-0.97454
 2,1.041627\C,0,-0.990931,-0.663577,0.064896\\Version=ES64L-G16RevC.01\

 Normal termination of Gaussian 16 at Sat Apr  5 22:20:29 2025.
