 Gaussian 16, Revision C.01,

 ----------------------------------------------------------------------
 #t hf aug-cc-pvdz symm=none int=(grid=ultrafine) guess=(read,tcheck) s
 table=(opt,rrhf)
 ----------------------------------------------------------------------
 -----
 title
 -----
 Symbolic Z-matrix:
 Charge =  0 Multiplicity = 1

 SCF Done:  E(RHF) =  -413.685070199     A.U. after   13 cycles
 Normal termination of Gaussian 16 at Sat Apr  5 22:19:33 2025.
 Gaussian 16:  ES64L-G16RevC.01  3-Jul-2019

 ----------------------------------------------------------------------
 #t hf aug-cc-pvdz iop(5/13=1,5/36=2,99/5=2) pseudo=read geom=check gue
 ss=(read,tcheck) scf=(maxcycle=1)
 ----------------------------------------------------------------------
 -----
 title
 -----
 Structure from the checkpoint file:  "2-3-3-trifluoropropene.chk"
 Charge =  0 Multiplicity = 1

                         Standard orientation:
 ---------------------------------------------------------------------
 Center     Atomic      Atomic             Coordinates (Angstroms)
 Number     Number       Type             X           Y           Z
 ---------------------------------------------------------------------
      1          6           0       -1.639261    1.150479    0.000000
      2          1           0       -2.490302    0.487611    0.000000
      3          1           0       -1.809141    2.216402    0.000000
      4          6           0       -0.417478    0.652524    0.000000
      5          9           0        0.670083    1.440552    0.000000
      6          6           0       -0.079576   -0.806625    0.000000
      7          1           0       -0.974900   -1.428241    0.000000
      8          9           0        0.670083   -1.123278    1.097373
      9          9           0        0.670083   -1.123278   -1.097373
 ---------------------------------------------------------------------

 SCF Done:  E(RHF) =  -413.831215108     A.U. after    2 cycles

 The electronic state is 1-A'.
 Alpha  occ. eigenvalues --  -26.15380 -26.14721 -26.14713 -11.44703 -11.36718
 Alpha  occ. eigenvalues --  -11.27640  -1.71254  -1.69274  -1.66474  -1.11764
 Alpha  occ. eigenvalues --   -1.00684  -0.89458  -0.83489  -0.82417  -0.82381
 Alpha  occ. eigenvalues --   -0.76887  -0.75692  -0.73480  -0.72590  -0.70427
 Alpha  occ. eigenvalues --   -0.65019  -0.61502  -0.57194  -0.42293
 Alpha virt. eigenvalues --    0.02940   0.04296   0.05670   0.08456   0.09323
 Alpha virt. eigenvalues --    0.09796   0.10423   0.13890   0.14002   0.14824
 Alpha virt. eigenvalues --    0.15338   0.15872   0.16597   0.17661   0.20798

 Mulliken charges:
               1
     1  C    0.689689
     2  H   -0.237500
     3  H   -0.274542
     4  C    0.204878
     5  F   -0.327188
     6  C    0.897480
     7  H   -0.227844
     8  F   -0.362487
     9  F   -0.362487
 Sum of Mulliken charges =  -0.00000

 Dipole moment (field-independent basis, Debye):
    X=             -4.0415    Y=              0.2525    Z=             -0.0000  Tot=              4.0494

 Test job not archived.
 1\1\GINC-SE225\SP\RHF\Aug-CC-pVDZ\C3H3F3\OHZDE\05-Apr-2025\0\\#t hf au
 g-cc-pvdz iop(5/13=1,5/36=2,99/5=2) pseudo=read geom=check guess=(read
 ,tcheck) scf=(maxcycle=1)\\title\\0,1\C,0,-1.639261,1.150479,0.\H,0,-2
 .490302,0.487611,0.\H,0,-1.809141,2.216402,0.\C,0,-0.417478,0.652524,0
 .\F,0,0.670083,1.440552,0.\C,0,-0.079576,-0.806625,0.\H,0,-0.9749,-1.4
 28241,0.\F,0,0.670083,-1.123278,1.097373\F,0,0.670083,-1.123278,-1.097
 373\\Version=ES64L-G16RevC.01\State=1-A'\HF=-413.8312151\RMSD=7.759e-0
 3\Dipole=-1.5900391,0.099334,0.\Quadrupole=2.155408,0.4981325,-2.65354

 Normal termination of Gaussian 16 at Sat Apr  5 22:20:29 2025.
