 Gaussian 16, Revision C.01,

 ----------------------------------------------------------------------
 #t hf aug-cc-pvdz symm=none int=(grid=ultrafine) guess=(read,tcheck) s
 table=(opt,rrhf)
 ----------------------------------------------------------------------
 -----
 title
 -----
 Symbolic Z-matrix:
 Charge =  0 Multiplicity = 1

 SCF Done:  E(RHF) =  -470.361956946     A.U. after   15 cycles
 Normal termination of Gaussian 16 at Sat Apr  5 22:20:50 2025.
 Gaussian 16:  ES64L-G16RevC.01  3-Jul-2019

 ----------------------------------------------------------------------
 #t hf aug-cc-pvdz iop(5/13=1,5/36=2,99/5=2) pseudo=read geom=check gue
 ss=(read,tcheck) scf=(maxcycle=1)
 ----------------------------------------------------------------------
 -----
 title
 -----
 Structure from the checkpoint file:  "2-3-2--3--dipyrrolopyrrole.chk"
 Charge =  0 Multiplicity = 1

                         Standard orientation:
 ---------------------------------------------------------------------
 Center     Atomic      Atomic             Coordinates (Angstroms)
 Number     Number       Type             X           Y           Z
 ---------------------------------------------------------------------
      1          6           0        2.531827    0.838284    0.000719
      2          6           0       -2.531828    0.838284    0.000727
      3          6           0        2.945670   -0.478119    0.001541
      4          6           0       -2.945670   -0.478119    0.001498
      5          6           0        1.115603    0.798316   -0.000163
      6          6           0       -1.115604    0.798316   -0.000047
      7          6           0        0.708404   -0.539305    0.000275
      8          6           0       -0.708404   -0.539305    0.000396
      9          7           0        1.844970   -1.314880    0.000405
     10          7           0       -1.844969   -1.314880    0.000310
     11          7           0       -0.000000    1.623424   -0.012899
     12          1           0        3.182514    1.695453    0.001317
     13          1           0       -3.182515    1.695453    0.001272
     14          1           0        3.941593   -0.883817    0.003112
     15          1           0       -3.941593   -0.883818    0.003098
     16          1           0        1.888002   -2.315552   -0.003863
     17          1           0       -1.887996   -2.315553   -0.003452
     18          1           0        0.000005    2.622059    0.054138
 ---------------------------------------------------------------------

 SCF Done:  E(RHF) =  -470.498587698     A.U. after    2 cycles

 The electronic state is 1-A.
 Alpha  occ. eigenvalues --  -15.66280 -15.66278 -15.64576 -11.26476 -11.26476
 Alpha  occ. eigenvalues --  -11.25387 -11.25307 -11.24891 -11.24890 -11.22281
 Alpha  occ. eigenvalues --  -11.22277  -1.27802  -1.24464  -1.20504  -1.03102
 Alpha  occ. eigenvalues --   -1.01676  -1.00597  -0.92788  -0.81818  -0.79554
 Alpha  occ. eigenvalues --   -0.76793  -0.76142  -0.75790  -0.65499  -0.64303
 Alpha  occ. eigenvalues --   -0.60878  -0.60502  -0.58391  -0.57991  -0.56055
 Alpha  occ. eigenvalues --   -0.54801  -0.51930  -0.51209  -0.49657  -0.35291
 Alpha  occ. eigenvalues --   -0.35207  -0.28253  -0.23266
 Alpha virt. eigenvalues --    0.02561   0.03351   0.03613   0.05124   0.05274
 Alpha virt. eigenvalues --    0.07295   0.07402   0.09901   0.11068   0.12097
 Alpha virt. eigenvalues --    0.12317   0.12389   0.12645   0.12989   0.13238

 Mulliken charges:
               1
     1  C    1.430204
     2  C    1.430212
     3  C    0.727371
     4  C    0.727376
     5  C   -0.516840
     6  C   -0.516818
     7  C    0.267503
     8  C    0.267443
     9  N   -0.483970
    10  N   -0.483966
    11  N   -0.820103
    12  H   -0.422783
    13  H   -0.422783
    14  H   -0.365531
    15  H   -0.365531
    16  H   -0.144776
    17  H   -0.144778
    18  H   -0.162230
 Sum of Mulliken charges =  -0.00000

 Dipole moment (field-independent basis, Debye):
    X=              0.0000    Y=             -1.8554    Z=              0.0898  Tot=              1.8575

 Test job not archived.
 1\1\GINC-SE199\SP\RHF\Aug-CC-pVDZ\C8H7N3\OHZDE\05-Apr-2025\0\\#t hf au
 g-cc-pvdz iop(5/13=1,5/36=2,99/5=2) pseudo=read geom=check guess=(read
 ,tcheck) scf=(maxcycle=1)\\title\\0,1\C,0,2.531827,0.838284,0.000719\C
 ,0,-2.531828,0.838284,0.000727\C,0,2.94567,-0.478119,0.001541\C,0,-2.9
 4567,-0.478119,0.001498\C,0,1.115603,0.798316,-0.000163\C,0,-1.115604,
 0.798316,-0.000047\C,0,0.708404,-0.539305,0.000275\C,0,-0.708404,-0.53
 9305,0.000396\N,0,1.84497,-1.31488,0.000405\N,0,-1.844969,-1.31488,0.0
 0031\N,0,0.,1.623424,-0.012899\H,0,3.182514,1.695453,0.001317\H,0,-3.1

 Normal termination of Gaussian 16 at Sat Apr  5 22:21:01 2025.
