 Gaussian 16, Revision C.01,

 ----------------------------------------------------------------------
 #t hf aug-cc-pvdz symm=none int=(grid=ultrafine) guess=(read,tcheck) s
 table=(opt,rrhf)
 ----------------------------------------------------------------------
 -----
 title
 -----
 Symbolic Z-matrix:
 Charge =  0 Multiplicity = 1

 SCF Done:  E(RHF) =  -304.730876985     A.U. after   12 cycles
 Normal termination of Gaussian 16 at Sat Apr  5 22:19:33 2025.
 Gaussian 16:  ES64L-G16RevC.01  3-Jul-2019

 ----------------------------------------------------------------------
 #t hf aug-cc-pvdz iop(5/13=1,5/36=2,99/5=2) pseudo=read geom=check gue
 ss=(read,tcheck) scf=(maxcycle=1)
 ----------------------------------------------------------------------
 -----
 title
 -----
 Structure from the checkpoint file:  "2-3-butanedione.chk"
 Charge =  0 Multiplicity = 1

                         Standard orientation:
 ---------------------------------------------------------------------
 Center     Atomic      Atomic             Coordinates (Angstroms)
 Number     Number       Type             X           Y           Z
 ---------------------------------------------------------------------
      1          6           0        1.188334   -1.577198    0.000000
      2          1           0        1.793080   -1.322397    0.871672
      3          1           0        0.948796   -2.636600    0.000000
      4          1           0        1.793080   -1.322397   -0.871672
      5          6           0       -1.188334    1.577198    0.000000
      6          1           0       -1.793080    1.322397    0.871672
      7          1           0       -0.948796    2.636600    0.000000
      8          1           0       -1.793080    1.322397   -0.871672
      9          6           0        0.078985    0.772271    0.000000
     10          8           0        1.188334    1.252788    0.000000
     11          6           0       -0.078985   -0.772271    0.000000
     12          8           0       -1.188334   -1.252788    0.000000
 ---------------------------------------------------------------------

 SCF Done:  E(RHF) =  -304.827124873     A.U. after    2 cycles

 The electronic state is 1-AG.
 Alpha  occ. eigenvalues --  -20.59536 -20.59536 -11.36487 -11.36440 -11.25257
 Alpha  occ. eigenvalues --  -11.25257  -1.39262  -1.37462  -1.03086  -1.01925
 Alpha  occ. eigenvalues --   -0.87240  -0.73959  -0.71171  -0.67613  -0.64131
 Alpha  occ. eigenvalues --   -0.62780  -0.59734  -0.59122  -0.55805  -0.53161
 Alpha  occ. eigenvalues --   -0.52532  -0.52399  -0.42283
 Alpha virt. eigenvalues --    0.03430   0.04094   0.05076   0.05833   0.05883
 Alpha virt. eigenvalues --    0.06525   0.06625   0.08893   0.11348   0.12344
 Alpha virt. eigenvalues --    0.12766   0.13341   0.15308   0.15619   0.15777

 Mulliken charges:
               1
     1  C    0.437969
     2  H    0.066942
     3  H   -0.086093
     4  H    0.066942
     5  C    0.437969
     6  H    0.066942
     7  H   -0.086093
     8  H    0.066942
     9  C    0.017101
    10  O   -0.502861
    11  C    0.017101
    12  O   -0.502861
 Sum of Mulliken charges =  -0.00000

 Dipole moment (field-independent basis, Debye):
    X=             -0.0000    Y=             -0.0000    Z=             -0.0000  Tot=              0.0000

 Test job not archived.
 1\1\GINC-SE232\SP\RHF\Aug-CC-pVDZ\C4H6O2\OHZDE\05-Apr-2025\0\\#t hf au
 g-cc-pvdz iop(5/13=1,5/36=2,99/5=2) pseudo=read geom=check guess=(read
 ,tcheck) scf=(maxcycle=1)\\title\\0,1\C,0,1.188334,-1.577198,0.\H,0,1.
 79308,-1.322397,0.871672\H,0,0.948796,-2.6366,0.\H,0,1.79308,-1.322397
 ,-0.871672\C,0,-1.188334,1.577198,0.\H,0,-1.79308,1.322397,0.871672\H,
 0,-0.948796,2.6366,0.\H,0,-1.79308,1.322397,-0.871672\C,0,0.078985,0.7
 72271,0.\O,0,1.188334,1.252788,0.\C,0,-0.078985,-0.772271,0.\O,0,-1.18
 8334,-1.252788,0.\\Version=ES64L-G16RevC.01\State=1-AG\HF=-304.8271249

 Normal termination of Gaussian 16 at Sat Apr  5 22:20:29 2025.
