 Gaussian 16, Revision C.01,

 ----------------------------------------------------------------------
 #t hf aug-cc-pvdz symm=none int=(grid=ultrafine) guess=(read,tcheck) s
 table=(opt,rrhf)
 ----------------------------------------------------------------------
 -----
 title
 -----
 Symbolic Z-matrix:
 Charge =  0 Multiplicity = 1

 SCF Done:  E(RHF) =  -461.474947099     A.U. after   16 cycles
 Normal termination of Gaussian 16 at Sat Apr  5 22:25:39 2025.
 Gaussian 16:  ES64L-G16RevC.01  3-Jul-2019

 ----------------------------------------------------------------------
 #t hf aug-cc-pvdz iop(5/13=1,5/36=2,99/5=2) pseudo=read geom=check gue
 ss=(read,tcheck) scf=(maxcycle=1)
 ----------------------------------------------------------------------
 -----
 title
 -----
 Structure from the checkpoint file:  "2-3-dimethylnaphthalene.chk"
 Charge =  0 Multiplicity = 1

                         Standard orientation:
 ---------------------------------------------------------------------
 Center     Atomic      Atomic             Coordinates (Angstroms)
 Number     Number       Type             X           Y           Z
 ---------------------------------------------------------------------
      1          6           0        0.000000    0.705545    3.172599
      2          6           0       -0.000000   -0.705545    3.172599
      3          6           0        0.000000    1.396736    1.988558
      4          6           0       -0.000000   -1.396736    1.988558
      5          6           0        0.000000    1.384878   -0.494217
      6          6           0       -0.000000   -1.384878   -0.494217
      7          6           0        0.000000    0.711893    0.749997
      8          6           0       -0.000000   -0.711893    0.749997
      9          6           0        0.000000    0.714904   -1.692605
     10          6           0       -0.000000   -0.714904   -1.692605
     11          6           0        0.000000    1.476613   -2.990942
     12          6           0       -0.000000   -1.476613   -2.990942
     13          1           0        0.000000    1.240249    4.113143
     14          1           0       -0.000000   -1.240249    4.113143
     15          1           0        0.000000    2.479711    1.986908
     16          1           0       -0.000000   -2.479711    1.986908
     17          1           0        0.000000    2.468780   -0.491189
     18          1           0       -0.000000   -2.468780   -0.491189
     19          1           0       -0.876451    1.238572   -3.598523
     20          1           0        0.000000    2.550606   -2.812154
     21          1           0        0.876451    1.238572   -3.598523
     22          1           0       -0.876451   -1.238572   -3.598523
     23          1           0        0.876451   -1.238572   -3.598523
     24          1           0       -0.000000   -2.550606   -2.812154
 ---------------------------------------------------------------------

 SCF Done:  E(RHF) =  -461.610393389     A.U. after    2 cycles

 The electronic state is 1-A1.
 Alpha  occ. eigenvalues --  -11.24861 -11.24769 -11.24540 -11.24443 -11.24122
 Alpha  occ. eigenvalues --  -11.24098 -11.23991 -11.23921 -11.23664 -11.23654
 Alpha  occ. eigenvalues --  -11.23443 -11.23440  -1.16630  -1.11244  -1.04731
 Alpha  occ. eigenvalues --   -1.02915  -1.00204  -0.93276  -0.93005  -0.83040
 Alpha  occ. eigenvalues --   -0.81333  -0.81293  -0.70401  -0.68519  -0.66649
 Alpha  occ. eigenvalues --   -0.62184  -0.62087  -0.59744  -0.58485  -0.58457
 Alpha  occ. eigenvalues --   -0.55641  -0.54940  -0.54453  -0.54311  -0.52528
 Alpha  occ. eigenvalues --   -0.51058  -0.48206  -0.47261  -0.43497  -0.38360
 Alpha  occ. eigenvalues --   -0.30986  -0.28675
 Alpha virt. eigenvalues --    0.03413   0.03609   0.03616   0.04948   0.05216
 Alpha virt. eigenvalues --    0.05660   0.06567   0.07167   0.07538   0.08090
 Alpha virt. eigenvalues --    0.08430   0.08945   0.10459   0.10480   0.10724

 Mulliken charges:
               1
     1  C    0.240752
     2  C    0.240752
     3  C    0.773457
     4  C    0.773457
     5  C    0.940635
     6  C    0.940635
     7  C    0.037530
     8  C    0.037530
     9  C   -0.976348
    10  C   -0.976348
    11  C    0.566410
    12  C    0.566410
    13  H   -0.475496
    14  H   -0.475496
    15  H   -0.569811
    16  H   -0.569811
    17  H   -0.631574
    18  H   -0.631574
    19  H    0.172430
    20  H   -0.250415
    21  H    0.172430
    22  H    0.172430
    23  H    0.172430
    24  H   -0.250415
 Sum of Mulliken charges =  -0.00000

 Dipole moment (field-independent basis, Debye):
    X=              0.0000    Y=              0.0000    Z=             -0.9280  Tot=              0.9280

 Test job not archived.
 1\1\GINC-SE221\SP\RHF\Aug-CC-pVDZ\C12H12\OHZDE\05-Apr-2025\0\\#t hf au
 g-cc-pvdz iop(5/13=1,5/36=2,99/5=2) pseudo=read geom=check guess=(read
 ,tcheck) scf=(maxcycle=1)\\title\\0,1\C,0,0.,0.705545,3.172599\C,0,0.,
 -0.705545,3.172599\C,0,0.,1.396736,1.988558\C,0,0.,-1.396736,1.988558\
 C,0,0.,1.384878,-0.494217\C,0,0.,-1.384878,-0.494217\C,0,0.,0.711893,0
 .749997\C,0,0.,-0.711893,0.749997\C,0,0.,0.714904,-1.692605\C,0,0.,-0.
 714904,-1.692605\C,0,0.,1.476613,-2.990942\C,0,0.,-1.476613,-2.990942\
 H,0,0.,1.240249,4.113143\H,0,0.,-1.240249,4.113143\H,0,0.,2.479711,1.9

 Normal termination of Gaussian 16 at Sat Apr  5 22:26:57 2025.
