 Gaussian 16, Revision C.01,

 ----------------------------------------------------------------------
 #t hf aug-cc-pvdz symm=none int=(grid=ultrafine) guess=(read,tcheck) s
 table=(opt,rrhf)
 ----------------------------------------------------------------------
 -----
 title
 -----
 Symbolic Z-matrix:
 Charge =  0 Multiplicity = 1

 SCF Done:  E(RHF) =  -193.959539274     A.U. after   12 cycles
 Normal termination of Gaussian 16 at Sat Apr  5 22:22:29 2025.
 Gaussian 16:  ES64L-G16RevC.01  3-Jul-2019

 ----------------------------------------------------------------------
 #t hf aug-cc-pvdz iop(5/13=1,5/36=2,99/5=2) pseudo=read geom=check gue
 ss=(read,tcheck) scf=(maxcycle=1)
 ----------------------------------------------------------------------
 -----
 title
 -----
 Structure from the checkpoint file:  "2-3-pentadiene.chk"
 Charge =  0 Multiplicity = 1

                         Standard orientation:
 ---------------------------------------------------------------------
 Center     Atomic      Atomic             Coordinates (Angstroms)
 Number     Number       Type             X           Y           Z
 ---------------------------------------------------------------------
      1          6           0       -0.000000    0.000000    0.410032
      2          6           0       -0.000000    1.303082    0.410018
      3          6           0       -0.000000   -1.303082    0.410018
      4          6           0       -0.871882    2.172515   -0.457285
      5          6           0        0.871882   -2.172515   -0.457285
      6          1           0        0.676863    1.817656    1.088068
      7          1           0       -0.676863   -1.817656    1.088068
      8          1           0       -1.504967    2.819715    0.154671
      9          1           0       -0.264433    2.825078   -1.089145
     10          1           0       -1.514184    1.573281   -1.100088
     11          1           0        1.504967   -2.819715    0.154671
     12          1           0        0.264433   -2.825078   -1.089145
     13          1           0        1.514184   -1.573281   -1.100088
 ---------------------------------------------------------------------

 SCF Done:  E(RHF) =  -194.023326254     A.U. after    2 cycles

 The electronic state is 1-A.
 Alpha  occ. eigenvalues --  -11.24802 -11.24534 -11.24425 -11.23443 -11.23442
 Alpha  occ. eigenvalues --   -1.08262  -1.02231  -0.92988  -0.86219  -0.69510
 Alpha  occ. eigenvalues --   -0.64847  -0.58550  -0.57676  -0.56591  -0.56018
 Alpha  occ. eigenvalues --   -0.52892  -0.52254  -0.35735  -0.35718
 Alpha virt. eigenvalues --    0.03509   0.04152   0.04937   0.04937   0.06624
 Alpha virt. eigenvalues --    0.06650   0.07266   0.07513   0.11813   0.12031
 Alpha virt. eigenvalues --    0.12123   0.12668   0.13670   0.14541   0.15775

 Mulliken charges:
               1
     1  C   -0.748434
     2  C    0.646878
     3  C    0.646878
     4  C    0.196305
     5  C    0.196305
     6  H   -0.341666
     7  H   -0.341666
     8  H    0.007645
     9  H    0.015446
    10  H   -0.150390
    11  H    0.007645
    12  H    0.015446
    13  H   -0.150390
 Sum of Mulliken charges =  -0.00000

 Dipole moment (field-independent basis, Debye):
    X=             -0.0000    Y=              0.0000    Z=             -0.2301  Tot=              0.2301

 Test job not archived.
 1\1\GINC-SE158\SP\RHF\Aug-CC-pVDZ\C5H8\OHZDE\05-Apr-2025\0\\#t hf aug-
 cc-pvdz iop(5/13=1,5/36=2,99/5=2) pseudo=read geom=check guess=(read,t
 check) scf=(maxcycle=1)\\title\\0,1\C,0,0.,0.,0.410032\C,0,0.,1.303082
 ,0.410018\C,0,0.,-1.303082,0.410018\C,0,-0.871882,2.172515,-0.457285\C
 ,0,0.871882,-2.172515,-0.457285\H,0,0.676863,1.817656,1.088068\H,0,-0.
 676863,-1.817656,1.088068\H,0,-1.504967,2.819715,0.154671\H,0,-0.26443
 3,2.825078,-1.089145\H,0,-1.514184,1.573281,-1.100088\H,0,1.504967,-2.
 819715,0.154671\H,0,0.264433,-2.825078,-1.089145\H,0,1.514184,-1.57328

 Normal termination of Gaussian 16 at Sat Apr  5 22:22:32 2025.
