 Gaussian 16, Revision C.01,

 ----------------------------------------------------------------------
 #t hf aug-cc-pvdz symm=none int=(grid=ultrafine) guess=(read,tcheck) s
 table=(opt,rrhf)
 ----------------------------------------------------------------------
 -----
 title
 -----
 Symbolic Z-matrix:
 Charge =  0 Multiplicity = 1

 SCF Done:  E(RHF) =  -447.301185779     A.U. after   13 cycles
 Normal termination of Gaussian 16 at Sat Apr  5 22:21:22 2025.
 Gaussian 16:  ES64L-G16RevC.01  3-Jul-2019

 ----------------------------------------------------------------------
 #t hf aug-cc-pvdz iop(5/13=1,5/36=2,99/5=2) pseudo=read geom=check gue
 ss=(read,tcheck) scf=(maxcycle=1)
 ----------------------------------------------------------------------
 -----
 title
 -----
 Structure from the checkpoint file:  "2-3-6-7-tetraazanaphthalene.chk"
 Charge =  0 Multiplicity = 1

                         Standard orientation:
 ---------------------------------------------------------------------
 Center     Atomic      Atomic             Coordinates (Angstroms)
 Number     Number       Type             X           Y           Z
 ---------------------------------------------------------------------
      1          6           0        0.000000    0.000000    0.697725
      2          6           0        0.000000    1.263786    1.332760
      3          6           0        0.000000    0.000000   -0.697725
      4          7           0        0.000000    2.398784    0.679888
      5          6           0        0.000000    1.263786   -1.332760
      6          7           0        0.000000    2.398784   -0.679888
      7          6           0       -0.000000   -1.263786   -1.332760
      8          7           0       -0.000000   -2.398784   -0.679888
      9          6           0       -0.000000   -1.263786    1.332760
     10          7           0       -0.000000   -2.398784    0.679888
     11          1           0        0.000000   -1.340928   -2.414429
     12          1           0        0.000000    1.340928    2.414429
     13          1           0       -0.000000   -1.340928    2.414429
     14          1           0        0.000000    1.340928   -2.414429
 ---------------------------------------------------------------------

 SCF Done:  E(RHF) =  -447.424628937     A.U. after    2 cycles

 The electronic state is 1-AG.
 Alpha  occ. eigenvalues --  -15.69878 -15.69877 -15.69816 -15.69816 -11.32508
 Alpha  occ. eigenvalues --  -11.32506 -11.32501 -11.32500 -11.31074 -11.30961
 Alpha  occ. eigenvalues --   -1.33558  -1.31990  -1.14930  -1.14678  -1.12070
 Alpha  occ. eigenvalues --   -0.95233  -0.95119  -0.89307  -0.76861  -0.76709
 Alpha  occ. eigenvalues --   -0.76215  -0.68442  -0.67976  -0.64441  -0.62631
 Alpha  occ. eigenvalues --   -0.62285  -0.56676  -0.49478  -0.48794  -0.45556
 Alpha  occ. eigenvalues --   -0.44802  -0.42079  -0.41173  -0.37780
 Alpha virt. eigenvalues --    0.02543   0.02972   0.03764   0.03825   0.04992
 Alpha virt. eigenvalues --    0.05431   0.06161   0.08831   0.09542   0.09723
 Alpha virt. eigenvalues --    0.10390   0.11659   0.12469   0.12601   0.13711

 Mulliken charges:
               1
     1  C   -0.118453
     2  C    0.920662
     3  C   -0.118453
     4  N   -0.513465
     5  C    0.920662
     6  N   -0.513465
     7  C    0.920662
     8  N   -0.513465
     9  C    0.920662
    10  N   -0.513465
    11  H   -0.347971
    12  H   -0.347971
    13  H   -0.347971
    14  H   -0.347971
 Sum of Mulliken charges =   0.00000

 Dipole moment (field-independent basis, Debye):
    X=              0.0000    Y=              0.0000    Z=             -0.0000  Tot=              0.0000

 Test job not archived.
 1\1\GINC-SE226\SP\RHF\Aug-CC-pVDZ\C6H4N4\OHZDE\05-Apr-2025\0\\#t hf au
 g-cc-pvdz iop(5/13=1,5/36=2,99/5=2) pseudo=read geom=check guess=(read
 ,tcheck) scf=(maxcycle=1)\\title\\0,1\C,0,0.,0.,0.697725\C,0,0.,1.2637
 86,1.33276\C,0,0.,0.,-0.697725\N,0,0.,2.398784,0.679888\C,0,0.,1.26378
 6,-1.33276\N,0,0.,2.398784,-0.679888\C,0,0.,-1.263786,-1.33276\N,0,0.,
 -2.398784,-0.679888\C,0,0.,-1.263786,1.33276\N,0,0.,-2.398784,0.679888
 \H,0,0.,-1.340928,-2.414429\H,0,0.,1.340928,2.414429\H,0,0.,-1.340928,
 2.414429\H,0,0.,1.340928,-2.414429\\Version=ES64L-G16RevC.01\State=1-A

 Normal termination of Gaussian 16 at Sat Apr  5 22:22:18 2025.
