 Gaussian 16, Revision C.01,

 ----------------------------------------------------------------------
 #t hf aug-cc-pvdz symm=none int=(grid=ultrafine) guess=(read,tcheck) s
 table=(opt,rrhf)
 ----------------------------------------------------------------------
 -----
 title
 -----
 Symbolic Z-matrix:
 Charge =  0 Multiplicity = 1

 SCF Done:  E(RHF) =  -627.304698985     A.U. after   14 cycles
 Normal termination of Gaussian 16 at Sat Apr  5 22:20:48 2025.
 Gaussian 16:  ES64L-G16RevC.01  3-Jul-2019

 ----------------------------------------------------------------------
 #t hf aug-cc-pvdz iop(5/13=1,5/36=2,99/5=2) pseudo=read geom=check gue
 ss=(read,tcheck) scf=(maxcycle=1)
 ----------------------------------------------------------------------
 -----
 title
 -----
 Structure from the checkpoint file:  "2-3-dihydrothiophene-1-oxide.chk"
 Charge =  0 Multiplicity = 1

                         Standard orientation:
 ---------------------------------------------------------------------
 Center     Atomic      Atomic             Coordinates (Angstroms)
 Number     Number       Type             X           Y           Z
 ---------------------------------------------------------------------
      1          6           0       -1.465797    0.872297    0.156005
      2          6           0       -1.620855   -0.609455    0.335459
      3          6           0       -0.276897    1.302884   -0.242595
      4          6           0       -0.393911   -1.261059   -0.306555
      5          8           0        1.765599   -0.030829    0.858773
      6         16           0        0.967718    0.002094   -0.419379
      7          1           0       -2.288404    1.542754    0.376595
      8          1           0       -1.699412   -0.844109    1.400319
      9          1           0       -2.540491   -0.970775   -0.129233
     10          1           0        0.033909    2.327308   -0.379703
     11          1           0        0.024673   -2.096585    0.248885
     12          1           0       -0.593786   -1.573461   -1.330850
 ---------------------------------------------------------------------

 SCF Done:  E(RHF) =  -627.415538394     A.U. after    2 cycles

 The electronic state is 1-A.
 Alpha  occ. eigenvalues --  -93.65568 -20.51332 -11.28157 -11.28067 -11.27430
 Alpha  occ. eigenvalues --  -11.27003  -8.93916  -6.28174  -6.27997  -6.27716
 Alpha  occ. eigenvalues --   -1.29193  -1.13807  -1.00796  -0.96396  -0.81703
 Alpha  occ. eigenvalues --   -0.76397  -0.70188  -0.66521  -0.59534  -0.57103
 Alpha  occ. eigenvalues --   -0.56397  -0.55770  -0.53756  -0.53140  -0.42536
 Alpha  occ. eigenvalues --   -0.39984  -0.37474
 Alpha virt. eigenvalues --    0.02772   0.04103   0.04503   0.05239   0.06122
 Alpha virt. eigenvalues --    0.06857   0.08806   0.09535   0.11453   0.12330
 Alpha virt. eigenvalues --    0.12893   0.13513   0.14608   0.14831   0.15230

 Mulliken charges:
               1
     1  C    0.232137
     2  C    0.030090
     3  C    0.048802
     4  C    0.066907
     5  O   -1.058775
     6  S    1.340618
     7  H   -0.291463
     8  H    0.004673
     9  H   -0.000991
    10  H   -0.329961
    11  H   -0.029631
    12  H   -0.012404
 Sum of Mulliken charges =   0.00000

 Dipole moment (field-independent basis, Debye):
    X=             -4.8769    Y=             -0.2557    Z=             -2.1500  Tot=              5.3359

 Test job not archived.
 1\1\GINC-SE055\SP\RHF\Aug-CC-pVDZ\C4H6O1S1\OHZDE\05-Apr-2025\0\\#t hf
 aug-cc-pvdz iop(5/13=1,5/36=2,99/5=2) pseudo=read geom=check guess=(re
 ad,tcheck) scf=(maxcycle=1)\\title\\0,1\C,0,-1.465797,0.872297,0.15600
 5\C,0,-1.620855,-0.609455,0.335459\C,0,-0.276897,1.302884,-0.242595\C,
 0,-0.393911,-1.261059,-0.306555\O,0,1.765599,-0.030829,0.858773\S,0,0.
 967718,0.002094,-0.419379\H,0,-2.288404,1.542755,0.376595\H,0,-1.69941
 2,-0.844109,1.400319\H,0,-2.540491,-0.970774,-0.129233\H,0,0.03391,2.3
 27308,-0.379703\H,0,0.024673,-2.096585,0.248885\H,0,-0.593786,-1.57346

 Normal termination of Gaussian 16 at Sat Apr  5 22:20:53 2025.
