 Gaussian 16, Revision C.01,

 ----------------------------------------------------------------------
 #t hf aug-cc-pvdz symm=none int=(grid=ultrafine) guess=(read,tcheck) s
 table=(opt,rrhf)
 ----------------------------------------------------------------------
 -----
 title
 -----
 Symbolic Z-matrix:
 Charge =  0 Multiplicity = 1

 SCF Done:  E(RHF) =  -552.492214528     A.U. after   14 cycles
 Normal termination of Gaussian 16 at Sat Apr  5 22:20:47 2025.
 Gaussian 16:  ES64L-G16RevC.01  3-Jul-2019

 ----------------------------------------------------------------------
 #t hf aug-cc-pvdz iop(5/13=1,5/36=2,99/5=2) pseudo=read geom=check gue
 ss=(read,tcheck) scf=(maxcycle=1)
 ----------------------------------------------------------------------
 -----
 title
 -----
 Structure from the checkpoint file:  "2-3-dihydrothiophene.chk"
 Charge =  0 Multiplicity = 1

                         Standard orientation:
 ---------------------------------------------------------------------
 Center     Atomic      Atomic             Coordinates (Angstroms)
 Number     Number       Type             X           Y           Z
 ---------------------------------------------------------------------
      1          6           0       -0.078596   -1.271647    0.190282
      2          1           0       -0.054339   -1.558641    1.240593
      3          1           0        0.112578   -2.148979   -0.421154
      4          6           0       -1.395081   -0.560009   -0.160033
      5          1           0       -2.213837   -0.949245    0.447464
      6          1           0       -1.665515   -0.738605   -1.207404
      7          6           0        0.114747    1.280233    0.074877
      8          1           0        0.490719    2.289118    0.151229
      9          6           0       -1.163345    0.913938    0.056193
     10          1           0       -1.979816    1.619897    0.117529
     11         16           0        1.277741   -0.043040   -0.081011
 ---------------------------------------------------------------------

 SCF Done:  E(RHF) =  -552.560296506     A.U. after    2 cycles

 The electronic state is 1-A.
 Alpha  occ. eigenvalues --  -93.53074 -11.27199 -11.26811 -11.25114 -11.24367
 Alpha  occ. eigenvalues --   -8.82874  -6.16991  -6.16842  -6.16457  -1.12901
 Alpha  occ. eigenvalues --   -0.98606  -0.96034  -0.80180  -0.74051  -0.67517
 Alpha  occ. eigenvalues --   -0.64353  -0.55168  -0.53473  -0.51889  -0.49434
 Alpha  occ. eigenvalues --   -0.44623  -0.42736  -0.30395
 Alpha virt. eigenvalues --    0.03474   0.04422   0.05026   0.05197   0.06484
 Alpha virt. eigenvalues --    0.07214   0.08855   0.11851   0.12457   0.12829
 Alpha virt. eigenvalues --    0.13234   0.14176   0.15331   0.15640   0.16047

 Mulliken charges:
               1
     1  C    0.021689
     2  H   -0.074021
     3  H   -0.048250
     4  C    0.091681
     5  H   -0.017093
     6  H   -0.029533
     7  C   -0.032598
     8  H   -0.375298
     9  C    0.291124
    10  H   -0.303200
    11  S    0.475498
 Sum of Mulliken charges =  -0.00000

 Dipole moment (field-independent basis, Debye):
    X=             -1.8253    Y=             -0.3833    Z=              0.1771  Tot=              1.8735

 Test job not archived.
 1\1\GINC-SE115\SP\RHF\Aug-CC-pVDZ\C4H6S1\OHZDE\05-Apr-2025\0\\#t hf au
 g-cc-pvdz iop(5/13=1,5/36=2,99/5=2) pseudo=read geom=check guess=(read
 ,tcheck) scf=(maxcycle=1)\\title\\0,1\C,0,-0.078596,-1.271647,0.190282
 \H,0,-0.054339,-1.558641,1.240593\H,0,0.112578,-2.148979,-0.421154\C,0
 ,-1.395081,-0.560009,-0.160033\H,0,-2.213837,-0.949245,0.447464\H,0,-1
 .665515,-0.738605,-1.207404\C,0,0.114747,1.280233,0.074877\H,0,0.49071
 9,2.289118,0.151229\C,0,-1.163345,0.913938,0.056193\H,0,-1.979816,1.61
 9897,0.117529\S,0,1.277741,-0.04304,-0.081011\\Version=ES64L-G16RevC.0

 Normal termination of Gaussian 16 at Sat Apr  5 22:20:52 2025.
