 Gaussian 16, Revision C.01,

 ----------------------------------------------------------------------
 #t hf aug-cc-pvdz symm=none int=(grid=ultrafine) guess=(read,tcheck) s
 table=(opt,rrhf)
 ----------------------------------------------------------------------
 -----
 title
 -----
 Symbolic Z-matrix:
 Charge =  0 Multiplicity = 1

 SCF Done:  E(RHF) =  -321.578109109     A.U. after   15 cycles
 Normal termination of Gaussian 16 at Sat Apr  5 22:21:25 2025.
 Gaussian 16:  ES64L-G16RevC.01  3-Jul-2019

 ----------------------------------------------------------------------
 #t hf aug-cc-pvdz iop(5/13=1,5/36=2,99/5=2) pseudo=read geom=check gue
 ss=(read,tcheck) scf=(maxcycle=1)
 ----------------------------------------------------------------------
 -----
 title
 -----
 Structure from the checkpoint file:  "2-3H-pyridinone.chk"
 Charge =  0 Multiplicity = 1

                         Standard orientation:
 ---------------------------------------------------------------------
 Center     Atomic      Atomic             Coordinates (Angstroms)
 Number     Number       Type             X           Y           Z
 ---------------------------------------------------------------------
      1          7           0        0.359121   -1.270880    0.172755
      2          6           0        1.043903   -0.042270    0.020425
      3          6           0        0.260787    1.248686    0.217829
      4          6           0       -1.197071    1.126889   -0.072399
      5          6           0       -1.753015   -0.083323   -0.174172
      6          6           0       -0.920479   -1.259790    0.050067
      7          8           0        2.221256   -0.028129   -0.243650
      8          1           0        0.736325    2.029916   -0.376191
      9          1           0       -1.785070    2.030930   -0.170963
     10          1           0       -2.808335   -0.220042   -0.363668
     11          1           0       -1.424810   -2.220985    0.136930
     12          1           0        0.393242    1.560219    1.263311
 ---------------------------------------------------------------------

 SCF Done:  E(RHF) =  -321.673581008     A.U. after    2 cycles

 The electronic state is 1-A.
 Alpha  occ. eigenvalues --  -20.55757 -15.63791 -11.36915 -11.33114 -11.29645
 Alpha  occ. eigenvalues --  -11.27286 -11.27062  -1.36222  -1.22948  -1.10406
 Alpha  occ. eigenvalues --   -1.01731  -0.89172  -0.83886  -0.72307  -0.69734
 Alpha  occ. eigenvalues --   -0.68788  -0.64220  -0.62109  -0.60250  -0.55917
 Alpha  occ. eigenvalues --   -0.53992  -0.48919  -0.47499  -0.40779  -0.37746
 Alpha virt. eigenvalues --    0.02264   0.03408   0.04003   0.04647   0.05411
 Alpha virt. eigenvalues --    0.05970   0.09152   0.10594   0.11124   0.12481
 Alpha virt. eigenvalues --    0.12630   0.13203   0.13477   0.13823   0.14310

 Mulliken charges:
               1
     1  N   -0.447680
     2  C    0.541911
     3  C    0.057674
     4  C    0.009203
     5  C    0.676581
     6  C    0.472759
     7  O   -0.478422
     8  H    0.065089
     9  H   -0.345105
    10  H   -0.393770
    11  H   -0.309723
    12  H    0.151483
 Sum of Mulliken charges =  -0.00000

 Dipole moment (field-independent basis, Debye):
    X=             -5.6361    Y=              2.2860    Z=              0.5367  Tot=              6.1056

 Test job not archived.
 1\1\GINC-SE194\SP\RHF\Aug-CC-pVDZ\C5H5N1O1\OHZDE\05-Apr-2025\0\\#t hf
 aug-cc-pvdz iop(5/13=1,5/36=2,99/5=2) pseudo=read geom=check guess=(re
 ad,tcheck) scf=(maxcycle=1)\\title\\0,1\N,0,0.359121,-1.27088,0.172755
 \C,0,1.043903,-0.04227,0.020425\C,0,0.260787,1.248686,0.217829\C,0,-1.
 197071,1.126889,-0.072399\C,0,-1.753015,-0.083323,-0.174172\C,0,-0.920
 479,-1.25979,0.050067\O,0,2.221256,-0.028129,-0.24365\H,0,0.736325,2.0
 29916,-0.376191\H,0,-1.78507,2.03093,-0.170963\H,0,-2.808335,-0.220042
 ,-0.363668\H,0,-1.42481,-2.220985,0.13693\H,0,0.393242,1.560219,1.2633

 Normal termination of Gaussian 16 at Sat Apr  5 22:22:18 2025.
