 Gaussian 16, Revision C.01,

 ----------------------------------------------------------------------
 #t hf aug-cc-pvdz symm=none int=(grid=ultrafine) guess=(read,tcheck) s
 table=(opt,rrhf)
 ----------------------------------------------------------------------
 -----
 title
 -----
 Symbolic Z-matrix:
 Charge =  0 Multiplicity = 1

 SCF Done:  E(RHF) =  -1678.52860660     A.U. after   15 cycles
 Normal termination of Gaussian 16 at Sat Apr  5 22:23:33 2025.
 Gaussian 16:  ES64L-G16RevC.01  3-Jul-2019

 ----------------------------------------------------------------------
 #t hf aug-cc-pvdz iop(5/13=1,5/36=2,99/5=2) pseudo=read geom=check gue
 ss=(read,tcheck) scf=(maxcycle=1)
 ----------------------------------------------------------------------
 -----
 title
 -----
 Structure from the checkpoint file:  "2-4-5-trichloro-6-methylpyrimidine.chk"
 Charge =  0 Multiplicity = 1

                         Standard orientation:
 ---------------------------------------------------------------------
 Center     Atomic      Atomic             Coordinates (Angstroms)
 Number     Number       Type             X           Y           Z
 ---------------------------------------------------------------------
      1          6           0        1.021460    0.038369    0.000000
      2          6           0        0.640074   -1.308976    0.000000
      3          6           0        0.000000    0.987794    0.000000
      4          6           0       -1.528760   -0.650022    0.000000
      5          6           0        1.636021   -2.424461    0.000000
      6          7           0       -0.656618   -1.639019    0.000000
      7          7           0       -1.273552    0.646231    0.000000
      8         17           0        2.695285    0.484019    0.000000
      9         17           0        0.352375    2.685355    0.000000
     10         17           0       -3.211246   -1.098954    0.000000
     11          1           0        2.284076   -2.364524    0.875642
     12          1           0        1.111227   -3.374788    0.000000
     13          1           0        2.284076   -2.364524   -0.875642
 ---------------------------------------------------------------------

 SCF Done:  E(RHF) =  -1678.67142050     A.U. after    2 cycles

 The electronic state is 1-A'.
 Alpha  occ. eigenvalues -- -103.69781-103.69759-103.68480 -15.67543 -15.66977
 Alpha  occ. eigenvalues --  -11.41516 -11.40368 -11.35678 -11.34323 -11.26555
 Alpha  occ. eigenvalues --  -10.73075 -10.73067 -10.71802  -8.38815  -8.38807
 Alpha  occ. eigenvalues --   -8.38487  -8.38474  -8.38468  -8.38467  -8.37541
 Alpha  occ. eigenvalues --   -8.37208  -8.37200  -1.34872  -1.24785  -1.22760
 Alpha  occ. eigenvalues --   -1.18587  -1.16738  -1.06461  -1.00994  -0.89525
 Alpha  occ. eigenvalues --   -0.87593  -0.78238  -0.70838  -0.66178  -0.64811
 Alpha  occ. eigenvalues --   -0.62566  -0.60184  -0.60099  -0.57835  -0.55841
 Alpha  occ. eigenvalues --   -0.52480  -0.51949  -0.51088  -0.49648  -0.48881
 Alpha  occ. eigenvalues --   -0.48746  -0.44037  -0.43900  -0.37962
 Alpha virt. eigenvalues --    0.03123   0.05129   0.05356   0.06364   0.06417
 Alpha virt. eigenvalues --    0.07292   0.07651   0.08662   0.08953   0.09422
 Alpha virt. eigenvalues --    0.10565   0.11784   0.13483   0.13652   0.14191

 Mulliken charges:
               1
     1  C    0.431916
     2  C    0.322445
     3  C   -0.014937
     4  C    0.037417
     5  C    0.675219
     6  N   -0.498434
     7  N   -0.383197
     8  Cl  -0.373165
     9  Cl  -0.187739
    10  Cl  -0.064635
    11  H    0.080900
    12  H   -0.106692
    13  H    0.080900
 Sum of Mulliken charges =   0.00000

 Dipole moment (field-independent basis, Debye):
    X=              2.4510    Y=             -1.4384    Z=              0.0000  Tot=              2.8419

 Test job not archived.
 1\1\GINC-SE232\SP\RHF\Aug-CC-pVDZ\C5H3Cl3N2\OHZDE\05-Apr-2025\0\\#t hf
  aug-cc-pvdz iop(5/13=1,5/36=2,99/5=2) pseudo=read geom=check guess=(r
 ead,tcheck) scf=(maxcycle=1)\\title\\0,1\C,0,1.02146,0.038369,0.\C,0,0
 .640074,-1.308976,0.\C,0,0.,0.987794,0.\C,0,-1.52876,-0.650022,0.\C,0,
 1.636021,-2.424461,0.\N,0,-0.656618,-1.639019,0.\N,0,-1.273552,0.64623
 1,0.\Cl,0,2.695285,0.484019,0.\Cl,0,0.352375,2.685355,0.\Cl,0,-3.21124
 6,-1.098954,0.\H,0,2.284076,-2.364524,0.875642\H,0,1.111227,-3.374788,
 0.\H,0,2.284076,-2.364524,-0.875642\\Version=ES64L-G16RevC.01\State=1-

 Normal termination of Gaussian 16 at Sat Apr  5 22:23:47 2025.
