 Gaussian 16, Revision C.01,

 ----------------------------------------------------------------------
 #t hf aug-cc-pvdz symm=none int=(grid=ultrafine) guess=(read,tcheck) s
 table=(opt,rrhf)
 ----------------------------------------------------------------------
 -----
 title
 -----
 Symbolic Z-matrix:
 Charge =  0 Multiplicity = 1

 SCF Done:  E(RHF) =  -734.807319401     A.U. after   17 cycles
 Normal termination of Gaussian 16 at Sat Apr  5 22:22:46 2025.
 Gaussian 16:  ES64L-G16RevC.01  3-Jul-2019

 ----------------------------------------------------------------------
 #t hf aug-cc-pvdz iop(5/13=1,5/36=2,99/5=2) pseudo=read geom=check gue
 ss=(read,tcheck) scf=(maxcycle=1)
 ----------------------------------------------------------------------
 -----
 title
 -----
 Structure from the checkpoint file:  "2-4-dicyanothiophene.chk"
 Charge =  0 Multiplicity = 1

                         Standard orientation:
 ---------------------------------------------------------------------
 Center     Atomic      Atomic             Coordinates (Angstroms)
 Number     Number       Type             X           Y           Z
 ---------------------------------------------------------------------
      1         16           0       -0.785680    1.458954   -0.000008
      2          7           0       -3.431367   -1.222926    0.000007
      3          7           0        3.697033   -0.916364    0.000004
      4          6           0       -1.052269   -0.263674    0.000002
      5          6           0        1.258799   -0.088174    0.000000
      6          6           0        0.130306   -0.953110    0.000005
      7          6           0        0.907286    1.241520   -0.000007
      8          6           0       -2.359652   -0.797434    0.000005
      9          6           0        2.606930   -0.544009    0.000002
     10          1           0        0.193528   -2.029602    0.000011
     11          1           0        1.569280    2.090663   -0.000012
 ---------------------------------------------------------------------

 SCF Done:  E(RHF) =  -734.926430861     A.U. after    2 cycles

 The electronic state is 1-A.
 Alpha  occ. eigenvalues --  -93.63001 -15.66951 -15.66552 -11.34924 -11.34706
 Alpha  occ. eigenvalues --  -11.33048 -11.32190 -11.31903 -11.31441  -8.92759
 Alpha  occ. eigenvalues --   -6.26862  -6.26744  -6.26367  -1.24753  -1.22140
 Alpha  occ. eigenvalues --   -1.20629  -1.07722  -1.05437  -0.90322  -0.86386
 Alpha  occ. eigenvalues --   -0.78950  -0.70935  -0.64180  -0.63038  -0.61300
 Alpha  occ. eigenvalues --   -0.57335  -0.57277  -0.54481  -0.53863  -0.49665
 Alpha  occ. eigenvalues --   -0.49478  -0.48475  -0.40200  -0.37735
 Alpha virt. eigenvalues --    0.02440   0.02497   0.03668   0.05860   0.07033
 Alpha virt. eigenvalues --    0.07271   0.08278   0.08529   0.08873   0.10078
 Alpha virt. eigenvalues --    0.11078   0.11376   0.12142   0.12485   0.13281

 Mulliken charges:
               1
     1  S    0.844834
     2  N   -0.046877
     3  N   -0.100452
     4  C    0.985031
     5  C    1.356459
     6  C    0.083875
     7  C   -0.198394
     8  C   -1.104242
     9  C   -0.931292
    10  H   -0.466242
    11  H   -0.422701
 Sum of Mulliken charges =  -0.00000

 Dipole moment (field-independent basis, Debye):
    X=              0.3338    Y=              2.8438    Z=             -0.0000  Tot=              2.8633

 Test job not archived.
 1\1\GINC-SE040\SP\RHF\Aug-CC-pVDZ\C6H2N2S1\OHZDE\05-Apr-2025\0\\#t hf
 aug-cc-pvdz iop(5/13=1,5/36=2,99/5=2) pseudo=read geom=check guess=(re
 ad,tcheck) scf=(maxcycle=1)\\title\\0,1\S,0,-0.78568,1.458954,-0.00000
 8\N,0,-3.431367,-1.222926,0.000007\N,0,3.697033,-0.916364,0.000004\C,0
 ,-1.052269,-0.263674,0.000002\C,0,1.258799,-0.088174,0.\C,0,0.130306,-
 0.95311,0.000005\C,0,0.907286,1.24152,-0.000007\C,0,-2.359652,-0.79743
 4,0.000005\C,0,2.60693,-0.544009,0.000002\H,0,0.193528,-2.029602,0.000
 011\H,0,1.56928,2.090663,-0.000012\\Version=ES64L-G16RevC.01\State=1-A

 Normal termination of Gaussian 16 at Sat Apr  5 22:23:34 2025.
