 Gaussian 16, Revision C.01,

 ----------------------------------------------------------------------
 #t hf aug-cc-pvdz symm=none int=(grid=ultrafine) guess=(read,tcheck) s
 table=(opt,rrhf)
 ----------------------------------------------------------------------
 -----
 title
 -----
 Symbolic Z-matrix:
 Charge =  0 Multiplicity = 1

 SCF Done:  E(RHF) =  -324.811673945     A.U. after   15 cycles
 Normal termination of Gaussian 16 at Sat Apr  5 22:23:34 2025.
 Gaussian 16:  ES64L-G16RevC.01  3-Jul-2019

 ----------------------------------------------------------------------
 #t hf aug-cc-pvdz iop(5/13=1,5/36=2,99/5=2) pseudo=read geom=check gue
 ss=(read,tcheck) scf=(maxcycle=1)
 ----------------------------------------------------------------------
 -----
 title
 -----
 Structure from the checkpoint file:  "2-4-dimethylpyridine.chk"
 Charge =  0 Multiplicity = 1

                         Standard orientation:
 ---------------------------------------------------------------------
 Center     Atomic      Atomic             Coordinates (Angstroms)
 Number     Number       Type             X           Y           Z
 ---------------------------------------------------------------------
      1          6           0        1.153465    1.135016   -0.007007
      2          6           0        0.013587   -0.948032   -0.008764
      3          6           0       -0.091847    1.747296    0.002284
      4          6           0        1.221900   -0.256301   -0.010428
      5          6           0       -1.196914   -0.255109    0.000772
      6          6           0        2.541088   -0.977755    0.007212
      7          6           0       -2.516394   -0.975301    0.001562
      8          7           0       -1.245756    1.082383    0.006775
      9          1           0        2.053167    1.736401   -0.014432
     10          1           0        0.010024   -2.030698   -0.017846
     11          1           0       -0.165664    2.829419    0.003732
     12          1           0        2.444441   -1.995475   -0.368921
     13          1           0        3.285505   -0.457038   -0.595106
     14          1           0        2.932172   -1.038201    1.025756
     15          1           0       -2.388031   -2.056557   -0.001058
     16          1           0       -3.098551   -0.693608    0.880030
     17          1           0       -3.102079   -0.689810   -0.873359
 ---------------------------------------------------------------------

 SCF Done:  E(RHF) =  -324.908668306     A.U. after    2 cycles

 The electronic state is 1-A.
 Alpha  occ. eigenvalues --  -15.61517 -11.28600 -11.27894 -11.26979 -11.24429
 Alpha  occ. eigenvalues --  -11.23656 -11.23645 -11.22988  -1.22685  -1.09353
 Alpha  occ. eigenvalues --   -1.04693  -0.96380  -0.94332  -0.84403  -0.79811
 Alpha  occ. eigenvalues --   -0.68510  -0.67893  -0.63578  -0.59587  -0.57863
 Alpha  occ. eigenvalues --   -0.57735  -0.56566  -0.55269  -0.53335  -0.50793
 Alpha  occ. eigenvalues --   -0.50180  -0.40329  -0.36552  -0.33684
 Alpha virt. eigenvalues --    0.03161   0.03761   0.04237   0.05143   0.05721
 Alpha virt. eigenvalues --    0.06008   0.06734   0.07798   0.08404   0.10193
 Alpha virt. eigenvalues --    0.10781   0.11339   0.12460   0.12599   0.12890

 Mulliken charges:
               1
     1  C    0.983934
     2  C    0.988761
     3  C    0.407026
     4  C   -1.035364
     5  C   -0.429243
     6  C    0.519042
     7  C    0.505661
     8  N   -0.535040
     9  H   -0.534034
    10  H   -0.549188
    11  H   -0.366981
    12  H   -0.115042
    13  H   -0.033840
    14  H    0.113013
    15  H   -0.095483
    16  H    0.086460
    17  H    0.090318
 Sum of Mulliken charges =  -0.00000

 Dipole moment (field-independent basis, Debye):
    X=              1.9043    Y=             -1.4048    Z=              0.0257  Tot=              2.3666

 Test job not archived.
 1\1\GINC-SE176\SP\RHF\Aug-CC-pVDZ\C7H9N1\OHZDE\05-Apr-2025\0\\#t hf au
 g-cc-pvdz iop(5/13=1,5/36=2,99/5=2) pseudo=read geom=check guess=(read
 ,tcheck) scf=(maxcycle=1)\\title\\0,1\C,0,1.153465,1.135016,-0.007007\
 C,0,0.013587,-0.948032,-0.008764\C,0,-0.091847,1.747296,0.002284\C,0,1
 .2219,-0.256301,-0.010428\C,0,-1.196914,-0.255109,0.000772\C,0,2.54108
 8,-0.977755,0.007212\C,0,-2.516394,-0.975301,0.001562\N,0,-1.245756,1.
 082383,0.006775\H,0,2.053167,1.736401,-0.014432\H,0,0.010024,-2.030698
 ,-0.017846\H,0,-0.165664,2.829419,0.003732\H,0,2.444441,-1.995475,-0.3

 Normal termination of Gaussian 16 at Sat Apr  5 22:23:47 2025.
