 Gaussian 16, Revision C.01,

 ----------------------------------------------------------------------
 #t hf aug-cc-pvdz symm=none int=(grid=ultrafine) guess=(read,tcheck) s
 table=(opt,rrhf)
 ----------------------------------------------------------------------
 -----
 title
 -----
 Symbolic Z-matrix:
 Charge =  0 Multiplicity = 1

 SCF Done:  E(RHF) =  -383.682309583     A.U. after   15 cycles

 1\1\GINC-SE175\Stability\RHF\Aug-CC-pVDZ\C8H10O1\OHZDE\05-Apr-2025\0\\
 #t hf aug-cc-pvdz symm=none int=(grid=ultrafine) guess=(read,tcheck) s
 table=(opt,rrhf)\\title\\0,1\C,0,-1.194148,-1.273079,-0.003365\C,0,0.1
 57194,-1.604887,-0.000788\C,0,-0.609182,1.03961,-0.002377\C,0,-1.60199
 1,0.056026,-0.003248\C,0,0.749394,0.743892,-0.000095\C,0,1.120492,-0.6
 06384,0.001279\C,0,-3.06105,0.433615,0.003949\C,0,1.799096,1.819578,-0
 .000742\O,0,2.465444,-0.884994,0.002866\H,0,-1.932914,-2.064353,-0.006
 041\H,0,0.460474,-2.645819,-0.001658\H,0,-0.904309,2.082983,-0.004426\

 Normal termination of Gaussian 16 at Sat Apr  5 22:23:34 2025.
 Gaussian 16:  ES64L-G16RevC.01  3-Jul-2019

 ----------------------------------------------------------------------
 #t hf aug-cc-pvdz iop(5/13=1,5/36=2,99/5=2) pseudo=read geom=check gue
 ss=(read,tcheck) scf=(maxcycle=1)
 ----------------------------------------------------------------------
 -----
 title
 -----
 Structure from the checkpoint file:  "2-4-dimethylphenol.chk"
 Charge =  0 Multiplicity = 1

                         Standard orientation:
 ---------------------------------------------------------------------
 Center     Atomic      Atomic             Coordinates (Angstroms)
 Number     Number       Type             X           Y           Z
 ---------------------------------------------------------------------
      1          6           0       -1.194148   -1.273079   -0.003365
      2          6           0        0.157194   -1.604887   -0.000788
      3          6           0       -0.609182    1.039610   -0.002377
      4          6           0       -1.601991    0.056026   -0.003248
      5          6           0        0.749394    0.743892   -0.000095
      6          6           0        1.120492   -0.606384    0.001279
      7          6           0       -3.061050    0.433615    0.003949
      8          6           0        1.799096    1.819578   -0.000742
      9          8           0        2.465444   -0.884994    0.002866
     10          1           0       -1.932914   -2.064353   -0.006041
     11          1           0        0.460474   -2.645819   -0.001658
     12          1           0       -0.904309    2.082983   -0.004426
     13          1           0       -3.301613    1.113926   -0.815300
     14          1           0       -3.696847   -0.445427   -0.096389
     15          1           0       -3.338323    0.937663    0.932716
     16          1           0        2.446613    1.742179    0.874661
     17          1           0        2.448306    1.739421   -0.874651
     18          1           0        1.340514    2.807196   -0.002729
     19          1           0        2.595723   -1.838040    0.003211
 ---------------------------------------------------------------------

 SCF Done:  E(RHF) =  -383.799458397     A.U. after    2 cycles

 The electronic state is 1-A.
 Alpha  occ. eigenvalues --  -20.59999 -11.30216 -11.24267 -11.23977 -11.23898
 Alpha  occ. eigenvalues --  -11.23799 -11.23584 -11.23029 -11.22663  -1.36110
 Alpha  occ. eigenvalues --   -1.14279  -1.04636  -1.02252  -0.93403  -0.92119
 Alpha  occ. eigenvalues --   -0.84208  -0.78615  -0.73720  -0.68114  -0.63646
 Alpha  occ. eigenvalues --   -0.60986  -0.60847  -0.58466  -0.57315  -0.57193
 Alpha  occ. eigenvalues --   -0.55571  -0.54917  -0.52766  -0.49821  -0.48418
 Alpha  occ. eigenvalues --   -0.46907  -0.33460  -0.30540
 Alpha virt. eigenvalues --    0.03225   0.03823   0.04126   0.05358   0.05783
 Alpha virt. eigenvalues --    0.05796   0.06955   0.07569   0.07698   0.09853
 Alpha virt. eigenvalues --    0.10490   0.10759   0.12136   0.12668   0.13320

 Mulliken charges:
               1
     1  C    0.561182
     2  C    0.594793
     3  C    0.637468
     4  C   -0.297041
     5  C   -0.584335
     6  C    0.346147
     7  C    0.379735
     8  C    0.637128
     9  O   -0.634739
    10  H   -0.560785
    11  H   -0.621891
    12  H   -0.622703
    13  H    0.052967
    14  H   -0.186449
    15  H    0.092192
    16  H    0.120695
    17  H    0.121500
    18  H   -0.191988
    19  H    0.156125
 Sum of Mulliken charges =   0.00000

 Dipole moment (field-independent basis, Debye):
    X=             -0.6369    Y=             -0.9172    Z=              0.0072  Tot=              1.1167

 Test job not archived.
 1\1\GINC-SE175\SP\RHF\Aug-CC-pVDZ\C8H10O1\OHZDE\05-Apr-2025\0\\#t hf a
 ug-cc-pvdz iop(5/13=1,5/36=2,99/5=2) pseudo=read geom=check guess=(rea
 d,tcheck) scf=(maxcycle=1)\\title\\0,1\C,0,-1.194148,-1.273079,-0.0033
 65\C,0,0.157194,-1.604887,-0.000788\C,0,-0.609182,1.03961,-0.002377\C,
 0,-1.601991,0.056026,-0.003248\C,0,0.749394,0.743892,-0.000095\C,0,1.1
 20492,-0.606384,0.001279\C,0,-3.06105,0.433615,0.003949\C,0,1.799096,1
 .819578,-0.000742\O,0,2.465444,-0.884994,0.002866\H,0,-1.932914,-2.064
 353,-0.006041\H,0,0.460474,-2.645819,-0.001658\H,0,-0.904309,2.082983,

 Normal termination of Gaussian 16 at Sat Apr  5 22:23:49 2025.
