 Gaussian 16, Revision C.01,

 ----------------------------------------------------------------------
 #t hf aug-cc-pvdz symm=none int=(grid=ultrafine) guess=(read,tcheck) s
 table=(opt,rrhf)
 ----------------------------------------------------------------------
 -----
 title
 -----
 Symbolic Z-matrix:
 Charge =  0 Multiplicity = 1

 SCF Done:  E(RHF) =  -377.985001675     A.U. after   15 cycles
 Normal termination of Gaussian 16 at Sat Apr  5 22:22:31 2025.
 Gaussian 16:  ES64L-G16RevC.01  3-Jul-2019

 ----------------------------------------------------------------------
 #t hf aug-cc-pvdz iop(5/13=1,5/36=2,99/5=2) pseudo=read geom=check gue
 ss=(read,tcheck) scf=(maxcycle=1)
 ----------------------------------------------------------------------
 -----
 title
 -----
 Structure from the checkpoint file:  "2-4-hexadiynedial.chk"
 Charge =  0 Multiplicity = 1

                         Standard orientation:
 ---------------------------------------------------------------------
 Center     Atomic      Atomic             Coordinates (Angstroms)
 Number     Number       Type             X           Y           Z
 ---------------------------------------------------------------------
      1          8           0        4.066762    0.495957    0.360134
      2          8           0       -4.066767    0.495911   -0.360185
      3          6           0        0.673589   -0.167678   -0.057506
      4          6           0       -0.673588   -0.167673    0.057516
      5          6           0        1.882141   -0.160213   -0.149051
      6          6           0       -1.882140   -0.160196    0.149061
      7          6           0        3.314251   -0.185757   -0.295724
      8          6           0       -3.314249   -0.185720    0.295752
      9          1           0        3.682946   -0.885828   -1.064540
     10          1           0       -3.682935   -0.885690    1.064664
 ---------------------------------------------------------------------

 SCF Done:  E(RHF) =  -378.104552631     A.U. after    2 cycles

 The electronic state is 1-A.
 Alpha  occ. eigenvalues --  -20.61206 -20.61206 -11.39727 -11.39725 -11.32378
 Alpha  occ. eigenvalues --  -11.32271 -11.30845 -11.30832  -1.39550  -1.39549
 Alpha  occ. eigenvalues --   -1.13447  -1.07785  -0.97423  -0.92675  -0.84903
 Alpha  occ. eigenvalues --   -0.75802  -0.75136  -0.69795  -0.69715  -0.59640
 Alpha  occ. eigenvalues --   -0.59600  -0.52636  -0.52554  -0.49717  -0.49599
 Alpha  occ. eigenvalues --   -0.40544  -0.40534
 Alpha virt. eigenvalues --    0.01663   0.01946   0.02832   0.03375   0.06636
 Alpha virt. eigenvalues --    0.07826   0.08953   0.09151   0.09251   0.09917
 Alpha virt. eigenvalues --    0.12794   0.12997   0.13258   0.14077   0.14902

 Mulliken charges:
               1
     1  O   -0.444581
     2  O   -0.444582
     3  C    1.713124
     4  C    1.713115
     5  C   -1.788611
     6  C   -1.788613
     7  C    0.552113
     8  C    0.552111
     9  H   -0.032037
    10  H   -0.032039
 Sum of Mulliken charges =  -0.00000

 Dipole moment (field-independent basis, Debye):
    X=              0.0000    Y=             -3.3393    Z=              0.0002  Tot=              3.3393

 Test job not archived.
 1\1\GINC-SE145\SP\RHF\Aug-CC-pVDZ\C6H2O2\OHZDE\05-Apr-2025\0\\#t hf au
 g-cc-pvdz iop(5/13=1,5/36=2,99/5=2) pseudo=read geom=check guess=(read
 ,tcheck) scf=(maxcycle=1)\\title\\0,1\O,0,4.066762,0.495957,0.360134\O
 ,0,-4.066767,0.495911,-0.360185\C,0,0.673589,-0.167678,-0.057506\C,0,-
 0.673588,-0.167673,0.057516\C,0,1.882141,-0.160213,-0.149051\C,0,-1.88
 214,-0.160196,0.149061\C,0,3.314251,-0.185757,-0.295724\C,0,-3.314249,
 -0.18572,0.295752\H,0,3.682946,-0.885828,-1.06454\H,0,-3.682935,-0.885
 69,1.064664\\Version=ES64L-G16RevC.01\State=1-A\HF=-378.1045526\RMSD=2

 Normal termination of Gaussian 16 at Sat Apr  5 22:22:36 2025.
