 Gaussian 16, Revision C.01,

 ----------------------------------------------------------------------
 #t hf aug-cc-pvdz symm=none int=(grid=ultrafine) guess=(read,tcheck) s
 table=(opt,rrhf)
 ----------------------------------------------------------------------
 -----
 title
 -----
 Symbolic Z-matrix:
 Charge =  0 Multiplicity = 1

 SCF Done:  E(RHF) =  -460.474326291     A.U. after   14 cycles
 Normal termination of Gaussian 16 at Sat Apr  5 22:22:31 2025.
 Gaussian 16:  ES64L-G16RevC.01  3-Jul-2019

 ----------------------------------------------------------------------
 #t hf aug-cc-pvdz iop(5/13=1,5/36=2,99/5=2) pseudo=read geom=check gue
 ss=(read,tcheck) scf=(maxcycle=1)
 ----------------------------------------------------------------------
 -----
 title
 -----
 Structure from the checkpoint file:  "2-4-difluoropyrimidine.chk"
 Charge =  0 Multiplicity = 1

                         Standard orientation:
 ---------------------------------------------------------------------
 Center     Atomic      Atomic             Coordinates (Angstroms)
 Number     Number       Type             X           Y           Z
 ---------------------------------------------------------------------
      1          9           0        2.232197   -0.973360   -0.000000
      2          9           0       -2.243497   -1.002072   -0.000000
      3          7           0       -0.001263   -1.004142   -0.000000
      4          7           0        1.229175    1.028037    0.000001
      5          6           0        1.103378   -0.278453   -0.000000
      6          6           0       -1.109868   -0.306047   -0.000000
      7          6           0       -1.160118    1.080797    0.000001
      8          6           0        0.074651    1.704920    0.000001
      9          1           0       -2.093703    1.619545    0.000001
     10          1           0        0.151767    2.784779    0.000002
 ---------------------------------------------------------------------

 SCF Done:  E(RHF) =  -460.623854883     A.U. after    2 cycles

 The electronic state is 1-A.
 Alpha  occ. eigenvalues --  -26.17784 -26.16602 -15.67186 -15.66479 -11.44629
 Alpha  occ. eigenvalues --  -11.43117 -11.34634 -11.28389  -1.72409  -1.71603
 Alpha  occ. eigenvalues --   -1.33340  -1.21611  -1.10558  -0.96234  -0.95526
 Alpha  occ. eigenvalues --   -0.86532  -0.83743  -0.79578  -0.78319  -0.76300
 Alpha  occ. eigenvalues --   -0.75349  -0.69849  -0.68427  -0.63040  -0.60274
 Alpha  occ. eigenvalues --   -0.52974  -0.45843  -0.45620  -0.40615
 Alpha virt. eigenvalues --    0.02493   0.04280   0.06529   0.07272   0.07649
 Alpha virt. eigenvalues --    0.08742   0.09402   0.10335   0.10783   0.12878
 Alpha virt. eigenvalues --    0.13279   0.13387   0.13422   0.14612   0.15611

 Mulliken charges:
               1
     1  F   -0.263536
     2  F   -0.259580
     3  N   -0.492862
     4  N   -0.497920
     5  C    0.487883
     6  C    0.494647
     7  C    0.624520
     8  C    0.524580
     9  H   -0.346110
    10  H   -0.271622
 Sum of Mulliken charges =  -0.00000

 Dipole moment (field-independent basis, Debye):
    X=             -2.0527    Y=              3.3809    Z=              0.0000  Tot=              3.9553

 Test job not archived.
 1\1\GINC-SE084\SP\RHF\Aug-CC-pVDZ\C4H2F2N2\OHZDE\05-Apr-2025\0\\#t hf
 aug-cc-pvdz iop(5/13=1,5/36=2,99/5=2) pseudo=read geom=check guess=(re
 ad,tcheck) scf=(maxcycle=1)\\title\\0,1\F,0,2.232197,-0.97336,0.\F,0,-
 2.243497,-1.002072,0.\N,0,-0.001263,-1.004142,0.\N,0,1.229175,1.028037
 ,0.000001\C,0,1.103378,-0.278453,0.\C,0,-1.109868,-0.306047,0.\C,0,-1.
 160118,1.080797,0.000001\C,0,0.074651,1.70492,0.000001\H,0,-2.093703,1
 .619545,0.000001\H,0,0.151768,2.784779,0.000002\\Version=ES64L-G16RevC
 .01\State=1-A\HF=-460.6238549\RMSD=8.012e-03\Dipole=-0.8075948,1.33016

 Normal termination of Gaussian 16 at Sat Apr  5 22:22:36 2025.
