 Gaussian 16, Revision C.01,

 ----------------------------------------------------------------------
 #t hf aug-cc-pvdz symm=none int=(grid=ultrafine) guess=(read,tcheck) s
 table=(opt,rrhf)
 ----------------------------------------------------------------------
 -----
 title
 -----
 Symbolic Z-matrix:
 Charge =  0 Multiplicity = 1

 SCF Done:  E(RHF) =  -230.612748744     A.U. after   11 cycles
 Normal termination of Gaussian 16 at Sat Apr  5 22:22:28 2025.
 Gaussian 16:  ES64L-G16RevC.01  3-Jul-2019

 ----------------------------------------------------------------------
 #t hf aug-cc-pvdz iop(5/13=1,5/36=2,99/5=2) pseudo=read geom=check gue
 ss=(read,tcheck) scf=(maxcycle=1)
 ----------------------------------------------------------------------
 -----
 title
 -----
 Structure from the checkpoint file:  "2-4-hexadiyne.chk"
 Charge =  0 Multiplicity = 1

                         Standard orientation:
 ---------------------------------------------------------------------
 Center     Atomic      Atomic             Coordinates (Angstroms)
 Number     Number       Type             X           Y           Z
 ---------------------------------------------------------------------
      1          6           0        0.000000    0.681952    0.000000
      2          6           0       -0.000000   -0.681952    0.000000
      3          6           0        0.000000    1.889462    0.000000
      4          6           0       -0.000000   -1.889462    0.000000
      5          6           0        0.000000    3.341026    0.000000
      6          6           0       -0.000000   -3.341026    0.000000
      7          1           0        0.000000    3.732419    1.019522
      8          1           0        0.882932    3.732419   -0.509761
      9          1           0       -0.882932    3.732419   -0.509761
     10          1           0       -0.000000   -3.732419    1.019522
     11          1           0       -0.882932   -3.732419   -0.509761
     12          1           0        0.882932   -3.732419   -0.509761
 ---------------------------------------------------------------------

 SCF Done:  E(RHF) =  -230.688927708     A.U. after    2 cycles

 The electronic state is 1-A1.
 Alpha  occ. eigenvalues --  -11.26371 -11.26368 -11.25506 -11.25482 -11.24929
 Alpha  occ. eigenvalues --  -11.24796  -1.08023  -1.04935  -0.99194  -0.94317
 Alpha  occ. eigenvalues --   -0.80022  -0.64509  -0.63302  -0.59959  -0.59959
 Alpha  occ. eigenvalues --   -0.59587  -0.59587  -0.46265  -0.46265  -0.33783
 Alpha  occ. eigenvalues --   -0.33783
 Alpha virt. eigenvalues --    0.03233   0.03389   0.05727   0.05727   0.06480
 Alpha virt. eigenvalues --    0.06480   0.07251   0.09906   0.12345   0.12983
 Alpha virt. eigenvalues --    0.12983   0.14432   0.14855   0.14855   0.15240

 Mulliken charges:
               1
     1  C    1.280308
     2  C    1.280308
     3  C   -2.310156
     4  C   -2.310156
     5  C    0.387949
     6  C    0.387949
     7  H    0.213966
     8  H    0.213966
     9  H    0.213966
    10  H    0.213966
    11  H    0.213966
    12  H    0.213966
 Sum of Mulliken charges =   0.00000

 Dipole moment (field-independent basis, Debye):
    X=             -0.0000    Y=             -0.0000    Z=              0.0000  Tot=              0.0000

 Test job not archived.
 1\1\GINC-SE107\SP\RHF\Aug-CC-pVDZ\C6H6\OHZDE\05-Apr-2025\0\\#t hf aug-
 cc-pvdz iop(5/13=1,5/36=2,99/5=2) pseudo=read geom=check guess=(read,t
 check) scf=(maxcycle=1)\\title\\0,1\C,0,0.,0.,0.681952\C,0,0.,0.,-0.68
 1952\C,0,0.,0.,1.889462\C,0,0.,0.,-1.889462\C,0,0.,0.,3.341026\C,0,0.,
 0.,-3.341026\H,0,0.,1.019522,3.732419\H,0,-0.882932,-0.509761,3.732419
 \H,0,0.882932,-0.509761,3.732419\H,0,0.,1.019522,-3.732419\H,0,0.88293
 2,-0.509761,-3.732419\H,0,-0.882932,-0.509761,-3.732419\\Version=ES64L
 -G16RevC.01\State=1-A1\HF=-230.6889277\RMSD=3.370e-02\Dipole=0.,0.,0.\

 Normal termination of Gaussian 16 at Sat Apr  5 22:22:32 2025.
