 Gaussian 16, Revision C.01,

 ----------------------------------------------------------------------
 #t hf aug-cc-pvdz symm=none int=(grid=ultrafine) guess=(read,tcheck) s
 table=(opt,rrhf)
 ----------------------------------------------------------------------
 -----
 title
 -----
 Symbolic Z-matrix:
 Charge =  0 Multiplicity = 1

 SCF Done:  E(RHF) =  -527.781934552     A.U. after   16 cycles
 Normal termination of Gaussian 16 at Sat Apr  5 22:22:46 2025.
 Gaussian 16:  ES64L-G16RevC.01  3-Jul-2019

 ----------------------------------------------------------------------
 #t hf aug-cc-pvdz iop(5/13=1,5/36=2,99/5=2) pseudo=read geom=check gue
 ss=(read,tcheck) scf=(maxcycle=1)
 ----------------------------------------------------------------------
 -----
 title
 -----
 Structure from the checkpoint file:  "2-4-hexadiynedioic_acid.chk"
 Charge =  0 Multiplicity = 1

                         Standard orientation:
 ---------------------------------------------------------------------
 Center     Atomic      Atomic             Coordinates (Angstroms)
 Number     Number       Type             X           Y           Z
 ---------------------------------------------------------------------
      1          8           0        3.930220    0.922903   -0.701602
      2          8           0       -3.930220   -0.922899   -0.701611
      3          8           0        3.973285   -0.836514    0.665513
      4          8           0       -3.973285    0.836512    0.665510
      5          6           0        3.332555    0.099218   -0.070156
      6          6           0       -3.332555   -0.099217   -0.070161
      7          6           0        1.886554    0.027690   -0.032419
      8          6           0       -1.886554   -0.027691   -0.032422
      9          6           0        0.677478    0.008906   -0.032785
     10          6           0       -0.677478   -0.008907   -0.032786
     11          1           0        3.342337   -1.424609    1.100947
     12          1           0       -3.342337    1.424605    1.100948
 ---------------------------------------------------------------------

 SCF Done:  E(RHF) =  -527.950026303     A.U. after    2 cycles

 The electronic state is 1-A.
 Alpha  occ. eigenvalues --  -20.66199 -20.66199 -20.60225 -20.60225 -11.45783
 Alpha  occ. eigenvalues --  -11.45781 -11.33925 -11.33823 -11.32561 -11.32546
 Alpha  occ. eigenvalues --   -1.45966  -1.45963  -1.37150  -1.37149  -1.14883
 Alpha  occ. eigenvalues --   -1.09058  -0.97595  -0.92884  -0.87825  -0.85383
 Alpha  occ. eigenvalues --   -0.83064  -0.71550  -0.71530  -0.68574  -0.68538
 Alpha  occ. eigenvalues --   -0.65350  -0.65222  -0.55726  -0.55697  -0.53580
 Alpha  occ. eigenvalues --   -0.53310  -0.52234  -0.52224  -0.42365  -0.42297
 Alpha virt. eigenvalues --    0.01388   0.02175   0.02429   0.03400   0.06699
 Alpha virt. eigenvalues --    0.06705   0.08471   0.09241   0.09494   0.10123
 Alpha virt. eigenvalues --    0.11832   0.12275   0.12460   0.12710   0.14149

 Mulliken charges:
               1
     1  O   -0.394532
     2  O   -0.394532
     3  O   -0.461328
     4  O   -0.461327
     5  C    0.379856
     6  C    0.379856
     7  C   -1.207399
     8  C   -1.207404
     9  C    1.478300
    10  C    1.478303
    11  H    0.205103
    12  H    0.205104
 Sum of Mulliken charges =  -0.00000

 Dipole moment (field-independent basis, Debye):
    X=             -0.0000    Y=             -0.0000    Z=              3.6141  Tot=              3.6141

 Test job not archived.
 1\1\GINC-SE146\SP\RHF\Aug-CC-pVDZ\C6H2O4\OHZDE\05-Apr-2025\0\\#t hf au
 g-cc-pvdz iop(5/13=1,5/36=2,99/5=2) pseudo=read geom=check guess=(read
 ,tcheck) scf=(maxcycle=1)\\title\\0,1\O,0,3.93022,0.922903,-0.701602\O
 ,0,-3.93022,-0.922899,-0.701611\O,0,3.973285,-0.836514,0.665513\O,0,-3
 .973285,0.836512,0.66551\C,0,3.332555,0.099218,-0.070156\C,0,-3.332555
 ,-0.099217,-0.070161\C,0,1.886554,0.02769,-0.032419\C,0,-1.886554,-0.0
 27691,-0.032422\C,0,0.677478,0.008906,-0.032785\C,0,-0.677478,-0.00890
 7,-0.032786\H,0,3.342337,-1.424609,1.100947\H,0,-3.342337,1.424605,1.1

 Normal termination of Gaussian 16 at Sat Apr  5 22:23:22 2025.
