 Gaussian 16, Revision C.01,

 ----------------------------------------------------------------------
 #t hf aug-cc-pvdz symm=none int=(grid=ultrafine) guess=(read,tcheck) s
 table=(opt,rrhf)
 ----------------------------------------------------------------------
 -----
 title
 -----
 Symbolic Z-matrix:
 Charge =  0 Multiplicity = 1

 SCF Done:  E(RHF) =  -598.371662522     A.U. after   14 cycles
 Normal termination of Gaussian 16 at Sat Apr  5 22:23:36 2025.
 Gaussian 16:  ES64L-G16RevC.01  3-Jul-2019

 ----------------------------------------------------------------------
 #t hf aug-cc-pvdz iop(5/13=1,5/36=2,99/5=2) pseudo=read geom=check gue
 ss=(read,tcheck) scf=(maxcycle=1)
 ----------------------------------------------------------------------
 -----
 title
 -----
 Structure from the checkpoint file:  "2-4-5-trifluoro-6-methylpyrimidine.chk"
 Charge =  0 Multiplicity = 1

                         Standard orientation:
 ---------------------------------------------------------------------
 Center     Atomic      Atomic             Coordinates (Angstroms)
 Number     Number       Type             X           Y           Z
 ---------------------------------------------------------------------
      1          6           0       -1.022816    0.186174   -0.000039
      2          6           0       -0.513038   -1.102920   -0.000143
      3          6           0       -0.116583    1.240174    0.000005
      4          6           0        1.559349   -0.205422   -0.000000
      5          6           0       -1.388160   -2.314502    0.000022
      6          7           0        0.818742   -1.284102   -0.000133
      7          7           0        1.178216    1.060469    0.000038
      8          9           0       -2.341445    0.427343    0.000001
      9          9           0       -0.566309    2.486423    0.000014
     10          9           0        2.872628   -0.397773    0.000055
     11          1           0       -1.162280   -2.925605   -0.874234
     12          1           0       -1.170278   -2.919635    0.880532
     13          1           0       -2.442518   -2.054287   -0.005320
 ---------------------------------------------------------------------

 SCF Done:  E(RHF) =  -598.568755209     A.U. after    2 cycles

 The electronic state is 1-A.
 Alpha  occ. eigenvalues --  -26.18604 -26.17268 -26.16764 -15.67759 -15.66850
 Alpha  occ. eigenvalues --  -11.44811 -11.43870 -11.37077 -11.35789 -11.27002
 Alpha  occ. eigenvalues --   -1.73373  -1.71697  -1.71154  -1.34053  -1.22652
 Alpha  occ. eigenvalues --   -1.12073  -1.03464  -0.97066  -0.93571  -0.86685
 Alpha  occ. eigenvalues --   -0.85127  -0.83122  -0.80914  -0.79252  -0.78627
 Alpha  occ. eigenvalues --   -0.78285  -0.75292  -0.72870  -0.68544  -0.63343
 Alpha  occ. eigenvalues --   -0.61144  -0.58686  -0.58231  -0.54894  -0.45837
 Alpha  occ. eigenvalues --   -0.45593  -0.40256
 Alpha virt. eigenvalues --    0.02779   0.04752   0.05212   0.06027   0.06870
 Alpha virt. eigenvalues --    0.08027   0.08559   0.08872   0.10416   0.10916
 Alpha virt. eigenvalues --    0.12015   0.12202   0.13051   0.13924   0.14818

 Mulliken charges:
               1
     1  C    0.296357
     2  C   -0.156837
     3  C    0.629019
     4  C    0.426770
     5  C    0.574118
     6  N   -0.599924
     7  N   -0.507885
     8  F   -0.243476
     9  F   -0.230768
    10  F   -0.269442
    11  H    0.092766
    12  H    0.094586
    13  H   -0.105283
 Sum of Mulliken charges =  -0.00000

 Dipole moment (field-independent basis, Debye):
    X=             -2.2187    Y=             -2.3516    Z=              0.0006  Tot=              3.2331

 Test job not archived.
 1\1\GINC-SE115\SP\RHF\Aug-CC-pVDZ\C5H3F3N2\OHZDE\05-Apr-2025\0\\#t hf
 aug-cc-pvdz iop(5/13=1,5/36=2,99/5=2) pseudo=read geom=check guess=(re
 ad,tcheck) scf=(maxcycle=1)\\title\\0,1\C,0,-1.022816,0.186174,-0.0000
 39\C,0,-0.513038,-1.10292,-0.000143\C,0,-0.116583,1.240174,0.000005\C,
 0,1.559349,-0.205422,0.\C,0,-1.38816,-2.314502,0.000022\N,0,0.818742,-
 1.284102,-0.000133\N,0,1.178216,1.060469,0.000038\F,0,-2.341445,0.4273
 43,0.000001\F,0,-0.566309,2.486423,0.000014\F,0,2.872628,-0.397773,0.0
 00055\H,0,-1.16228,-2.925605,-0.874234\H,0,-1.170278,-2.919635,0.88053

 Normal termination of Gaussian 16 at Sat Apr  5 22:23:45 2025.
