 Gaussian 16, Revision C.01,

 ----------------------------------------------------------------------
 #t hf aug-cc-pvdz symm=none int=(grid=ultrafine) guess=(read,tcheck) s
 table=(opt,rrhf)
 ----------------------------------------------------------------------
 -----
 title
 -----
 Symbolic Z-matrix:
 Charge =  0 Multiplicity = 1

 SCF Done:  E(RHF) =  -305.576026415     A.U. after   15 cycles
 Normal termination of Gaussian 16 at Sat Apr  5 22:22:41 2025.
 Gaussian 16:  ES64L-G16RevC.01  3-Jul-2019

 ----------------------------------------------------------------------
 #t hf aug-cc-pvdz iop(5/13=1,5/36=2,99/5=2) pseudo=read geom=check gue
 ss=(read,tcheck) scf=(maxcycle=1)
 ----------------------------------------------------------------------
 -----
 title
 -----
 Structure from the checkpoint file:  "2-4-cyclohexadienone.chk"
 Charge =  0 Multiplicity = 1

                         Standard orientation:
 ---------------------------------------------------------------------
 Center     Atomic      Atomic             Coordinates (Angstroms)
 Number     Number       Type             X           Y           Z
 ---------------------------------------------------------------------
      1          6           0       -1.079574    0.025415   -0.000044
      2          6           0       -0.317064    1.276053    0.000024
      3          6           0        1.029994    1.272817    0.000051
      4          6           0        1.811253    0.048223   -0.000048
      5          6           0        1.208607   -1.145981   -0.000088
      6          6           0       -0.278700   -1.273628    0.000176
      7          8           0       -2.298529    0.003676   -0.000115
      8          1           0       -0.888881    2.193888    0.000022
      9          1           0        1.565351    2.214743    0.000240
     10          1           0        2.890068    0.123598   -0.000248
     11          1           0        1.792087   -2.058324   -0.000305
     12          1           0       -0.608643   -1.860082    0.864683
     13          1           0       -0.608845   -1.860624   -0.863902
 ---------------------------------------------------------------------

 SCF Done:  E(RHF) =  -305.667964768     A.U. after    2 cycles

 The electronic state is 1-A.
 Alpha  occ. eigenvalues --  -20.55169 -11.34297 -11.28177 -11.27272 -11.25982
 Alpha  occ. eigenvalues --  -11.25872 -11.25068  -1.34240  -1.14190  -1.03905
 Alpha  occ. eigenvalues --   -0.99536  -0.86198  -0.81138  -0.71318  -0.67508
 Alpha  occ. eigenvalues --   -0.66707  -0.62553  -0.61955  -0.60111  -0.54328
 Alpha  occ. eigenvalues --   -0.52924  -0.52078  -0.45906  -0.42442  -0.33821
 Alpha virt. eigenvalues --    0.02820   0.03715   0.04554   0.04780   0.05688
 Alpha virt. eigenvalues --    0.06120   0.06228   0.10449   0.12185   0.12229
 Alpha virt. eigenvalues --    0.13367   0.13579   0.13638   0.13929   0.14372

 Mulliken charges:
               1
     1  C    0.081326
     2  C    0.746004
     3  C    0.402236
     4  C    0.239494
     5  C    0.606896
     6  C   -0.083429
     7  O   -0.590404
     8  H   -0.430616
     9  H   -0.429071
    10  H   -0.438984
    11  H   -0.397699
    12  H    0.147110
    13  H    0.147138
 Sum of Mulliken charges =  -0.00000

 Dipole moment (field-independent basis, Debye):
    X=              4.3845    Y=             -0.4099    Z=              0.0003  Tot=              4.4036

 Test job not archived.
 1\1\GINC-SE198\SP\RHF\Aug-CC-pVDZ\C6H6O1\OHZDE\05-Apr-2025\0\\#t hf au
 g-cc-pvdz iop(5/13=1,5/36=2,99/5=2) pseudo=read geom=check guess=(read
 ,tcheck) scf=(maxcycle=1)\\title\\0,1\C,0,-1.079574,0.025415,-0.000044
 \C,0,-0.317064,1.276053,0.000024\C,0,1.029994,1.272817,0.000051\C,0,1.
 811253,0.048223,-0.000048\C,0,1.208607,-1.145981,-0.000088\C,0,-0.2787
 ,-1.273628,0.000176\O,0,-2.298529,0.003675,-0.000115\H,0,-0.888882,2.1
 93888,0.000022\H,0,1.56535,2.214743,0.00024\H,0,2.890068,0.123598,-0.0
 00248\H,0,1.792087,-2.058324,-0.000305\H,0,-0.608643,-1.860082,0.86468

 Normal termination of Gaussian 16 at Sat Apr  5 22:23:20 2025.
