 Gaussian 16, Revision C.01,

 ----------------------------------------------------------------------
 #t hf aug-cc-pvdz symm=none int=(grid=ultrafine) guess=(read,tcheck) s
 table=(opt,rrhf)
 ----------------------------------------------------------------------
 -----
 title
 -----
 Symbolic Z-matrix:
 Charge =  0 Multiplicity = 1

 SCF Done:  E(RHF) =  -1655.49319391     A.U. after   12 cycles

 1\1\GINC-SE164\Stability\RHF\Aug-CC-pVDZ\C3Cl3N3\OHZDE\05-Apr-2025\0\\
 #t hf aug-cc-pvdz symm=none int=(grid=ultrafine) guess=(read,tcheck) s
 table=(opt,rrhf)\\title\\0,1\C,0,0.,1.278542,0.\C,0,1.10725,-0.639271,
 0.\C,0,-1.10725,-0.639271,0.\N,0,0.,-1.366438,0.\N,0,-1.18337,0.683219
 ,0.\N,0,1.18337,0.683219,0.\Cl,0,0.,3.006062,0.\Cl,0,2.603326,-1.50303
 1,0.\Cl,0,-2.603326,-1.503031,0.\\Version=ES64L-G16RevC.01\HF=-1655.49
 31939\RMSD=8.743e-09\Dipole=0.,-0.0000001,0.\Quadrupole=-0.7684602,-0.
 7684671,1.5369273,0.,0.,0.\PG=Unknown\\@

 Normal termination of Gaussian 16 at Sat Apr  5 22:22:36 2025.
 Gaussian 16:  ES64L-G16RevC.01  3-Jul-2019

 ----------------------------------------------------------------------
 #t hf aug-cc-pvdz iop(5/13=1,5/36=2,99/5=2) pseudo=read geom=check gue
 ss=(read,tcheck) scf=(maxcycle=1)
 ----------------------------------------------------------------------
 -----
 title
 -----
 Structure from the checkpoint file:  "2-4-6-trichloro-1-3-5-triazine.chk"
 Charge =  0 Multiplicity = 1

                         Standard orientation:
 ---------------------------------------------------------------------
 Center     Atomic      Atomic             Coordinates (Angstroms)
 Number     Number       Type             X           Y           Z
 ---------------------------------------------------------------------
      1          6           0       -0.000000    0.000000    1.278542
      2          6           0        0.000000    1.107250   -0.639271
      3          6           0       -0.000000   -1.107250   -0.639271
      4          7           0        0.000000   -0.000000   -1.366438
      5          7           0        0.000000   -1.183370    0.683219
      6          7           0        0.000000    1.183370    0.683219
      7         17           0       -0.000000    0.000000    3.006062
      8         17           0        0.000000    2.603326   -1.503031
      9         17           0       -0.000000   -2.603326   -1.503031
 ---------------------------------------------------------------------

 SCF Done:  E(RHF) =  -1655.62936629     A.U. after    2 cycles

 The electronic state is 1-A1.
 Alpha  occ. eigenvalues -- -103.70799-103.70799-103.70799 -15.69158 -15.69158
 Alpha  occ. eigenvalues --  -15.69148 -11.44905 -11.44905 -11.44886 -10.74139
 Alpha  occ. eigenvalues --  -10.74139 -10.74126  -8.39874  -8.39874  -8.39874
 Alpha  occ. eigenvalues --   -8.39534  -8.39534  -8.39533  -8.39518  -8.39515
 Alpha  occ. eigenvalues --   -8.39515  -1.40297  -1.27850  -1.27850  -1.19153
 Alpha  occ. eigenvalues --   -1.18073  -1.18073  -0.93395  -0.93395  -0.82260
 Alpha  occ. eigenvalues --   -0.73864  -0.68983  -0.64147  -0.64147  -0.60474
 Alpha  occ. eigenvalues --   -0.56759  -0.56759  -0.51706  -0.51706  -0.50390
 Alpha  occ. eigenvalues --   -0.50146  -0.47912  -0.47912  -0.45042  -0.45042
 Alpha virt. eigenvalues --    0.05067   0.05067   0.05746   0.06566   0.06566
 Alpha virt. eigenvalues --    0.06962   0.09042   0.10203   0.10203   0.12512
 Alpha virt. eigenvalues --    0.13708   0.13708   0.14544   0.14933   0.14933

 Mulliken charges:
               1
     1  C    0.301211
     2  C    0.301212
     3  C    0.301212
     4  N   -0.275114
     5  N   -0.275114
     6  N   -0.275114
     7  Cl  -0.026098
     8  Cl  -0.026098
     9  Cl  -0.026098
 Sum of Mulliken charges =  -0.00000

 Dipole moment (field-independent basis, Debye):
    X=             -0.0000    Y=              0.0000    Z=             -0.0000  Tot=              0.0000

 Test job not archived.
 1\1\GINC-SE164\SP\RHF\Aug-CC-pVDZ\C3Cl3N3\OHZDE\05-Apr-2025\0\\#t hf a
 ug-cc-pvdz iop(5/13=1,5/36=2,99/5=2) pseudo=read geom=check guess=(rea
 d,tcheck) scf=(maxcycle=1)\\title\\0,1\C,0,0.,1.278542,0.\C,0,1.10725,
 -0.639271,0.\C,0,-1.10725,-0.639271,0.\N,0,0.,-1.366438,0.\N,0,-1.1833
 7,0.683219,0.\N,0,1.18337,0.683219,0.\Cl,0,0.,3.006062,0.\Cl,0,2.60332
 6,-1.503031,0.\Cl,0,-2.603326,-1.503031,0.\\Version=ES64L-G16RevC.01\S
 tate=1-A1\HF=-1655.6293663\RMSD=3.052e-03\Dipole=0.,-0.0000007,0.\Quad
 rupole=-0.8896858,-0.8896889,1.7793747,0.,0.,0.\PG=C02V [C2(N1C1Cl1),S

 Normal termination of Gaussian 16 at Sat Apr  5 22:22:41 2025.
