 Gaussian 16, Revision C.01,

 ----------------------------------------------------------------------
 #t hf aug-cc-pvdz symm=none int=(grid=ultrafine) guess=(read,tcheck) s
 table=(opt,rrhf)
 ----------------------------------------------------------------------
 -----
 title
 -----
 Symbolic Z-matrix:
 Charge =  0 Multiplicity = 1

 SCF Done:  E(RHF) =  -315.734955789     A.U. after   14 cycles
 Normal termination of Gaussian 16 at Sat Apr  5 22:22:30 2025.
 Gaussian 16:  ES64L-G16RevC.01  3-Jul-2019

 ----------------------------------------------------------------------
 #t hf aug-cc-pvdz iop(5/13=1,5/36=2,99/5=2) pseudo=read geom=check gue
 ss=(read,tcheck) scf=(maxcycle=1)
 ----------------------------------------------------------------------
 -----
 title
 -----
 Structure from the checkpoint file:  "2-4-dihydro-1-2-4-triazol-3-one.chk"
 Charge =  0 Multiplicity = 1

                         Standard orientation:
 ---------------------------------------------------------------------
 Center     Atomic      Atomic             Coordinates (Angstroms)
 Number     Number       Type             X           Y           Z
 ---------------------------------------------------------------------
      1          6           0        0.585236   -1.371153    0.000000
      2          6           0       -0.000000    0.803622   -0.000000
      3          7           0       -0.706083   -1.394643    0.000000
      4          7           0        1.075996   -0.090990    0.000000
      5          7           0       -1.065835   -0.067566   -0.000000
      6          8           0        0.019362    2.016386   -0.000000
      7          1           0        1.203231   -2.252103    0.000000
      8          1           0        2.035972    0.202774    0.000000
      9          1           0       -2.034065    0.195812   -0.000000
 ---------------------------------------------------------------------

 SCF Done:  E(RHF) =  -315.829478280     A.U. after    2 cycles

 The electronic state is 1-A'.
 Alpha  occ. eigenvalues --  -20.54167 -15.69916 -15.69694 -15.68316 -11.41003
 Alpha  occ. eigenvalues --  -11.34716  -1.40410  -1.32951  -1.20345  -1.09974
 Alpha  occ. eigenvalues --   -0.88769  -0.87115  -0.76231  -0.69825  -0.67300
 Alpha  occ. eigenvalues --   -0.65400  -0.64471  -0.53119  -0.52132  -0.47719
 Alpha  occ. eigenvalues --   -0.45223  -0.35386
 Alpha virt. eigenvalues --    0.02248   0.04182   0.04552   0.07116   0.09610
 Alpha virt. eigenvalues --    0.10740   0.11837   0.12062   0.14253   0.14806
 Alpha virt. eigenvalues --    0.16087   0.16689   0.17544   0.17941   0.18124

 Mulliken charges:
               1
     1  C    0.906476
     2  C    0.698670
     3  N   -0.325960
     4  N   -0.351899
     5  N   -0.204281
     6  O   -0.450052
     7  H   -0.176359
     8  H   -0.074656
     9  H   -0.021940
 Sum of Mulliken charges =  -0.00000

 Dipole moment (field-independent basis, Debye):
    X=              1.9371    Y=             -3.0945    Z=              0.0000  Tot=              3.6508

 Test job not archived.
 1\1\GINC-SE085\SP\RHF\Aug-CC-pVDZ\C2H3N3O1\OHZDE\05-Apr-2025\0\\#t hf
 aug-cc-pvdz iop(5/13=1,5/36=2,99/5=2) pseudo=read geom=check guess=(re
 ad,tcheck) scf=(maxcycle=1)\\title\\0,1\C,0,0.585236,-1.371153,0.\C,0,
 0.,0.803622,0.\N,0,-0.706083,-1.394643,0.\N,0,1.075996,-0.09099,0.\N,0
 ,-1.065835,-0.067566,0.\O,0,0.019362,2.016386,0.\H,0,1.203231,-2.25210
 3,0.\H,0,2.035972,0.202774,0.\H,0,-2.034065,0.195812,0.\\Version=ES64L
 -G16RevC.01\State=1-A'\HF=-315.8294783\RMSD=2.753e-03\Dipole=0.762124,
 -1.2174707,0.\Quadrupole=7.6707943,-7.2776811,-0.3931132,-3.6047129,0.

 Normal termination of Gaussian 16 at Sat Apr  5 22:22:34 2025.
