 Gaussian 16, Revision C.01,

 ----------------------------------------------------------------------
 #t hf aug-cc-pvdz symm=none int=(grid=ultrafine) guess=(read,tcheck) s
 table=(opt,rrhf)
 ----------------------------------------------------------------------
 -----
 title
 -----
 Symbolic Z-matrix:
 Charge =  0 Multiplicity = 1

 SCF Done:  E(RHF) =  -1180.56980833     A.U. after   15 cycles
 Normal termination of Gaussian 16 at Sat Apr  5 22:22:35 2025.
 Gaussian 16:  ES64L-G16RevC.01  3-Jul-2019

 ----------------------------------------------------------------------
 #t hf aug-cc-pvdz iop(5/13=1,5/36=2,99/5=2) pseudo=read geom=check gue
 ss=(read,tcheck) scf=(maxcycle=1)
 ----------------------------------------------------------------------
 -----
 title
 -----
 Structure from the checkpoint file:  "2-4-dichloropyrimidine.chk"
 Charge =  0 Multiplicity = 1

                         Standard orientation:
 ---------------------------------------------------------------------
 Center     Atomic      Atomic             Coordinates (Angstroms)
 Number     Number       Type             X           Y           Z
 ---------------------------------------------------------------------
      1         17           0       -2.599175   -0.886996   -0.000001
      2         17           0        2.613285   -0.893714    0.000000
      3          7           0        0.001967   -0.687993    0.000000
      4          7           0       -1.233601    1.339871    0.000000
      5          6           0       -1.116676    0.025543    0.000000
      6          6           0        1.121365    0.005739    0.000000
      7          6           0        1.154461    1.395274    0.000000
      8          6           0       -0.082104    2.017431    0.000000
      9          1           0        2.080180    1.947300    0.000000
     10          1           0       -0.160883    3.097694    0.000002
 ---------------------------------------------------------------------

 SCF Done:  E(RHF) =  -1180.68262291     A.U. after    2 cycles

 The electronic state is 1-A.
 Alpha  occ. eigenvalues -- -103.69508-103.68206 -15.67364 -15.66820 -11.41288
 Alpha  occ. eigenvalues --  -11.39714 -11.34150 -11.28762 -10.72821 -10.71539
 Alpha  occ. eigenvalues --   -8.38557  -8.38225  -8.38222  -8.37277  -8.36944
 Alpha  occ. eigenvalues --   -8.36934  -1.34239  -1.23867  -1.19486  -1.16442
 Alpha  occ. eigenvalues --   -1.07296  -0.91862  -0.89742  -0.75876  -0.73585
 Alpha  occ. eigenvalues --   -0.66927  -0.64148  -0.62519  -0.60768  -0.54272
 Alpha  occ. eigenvalues --   -0.50739  -0.49926  -0.49618  -0.48803  -0.44406
 Alpha  occ. eigenvalues --   -0.44195  -0.39189
 Alpha virt. eigenvalues --    0.02599   0.04564   0.05849   0.06993   0.07230
 Alpha virt. eigenvalues --    0.08180   0.08551   0.10191   0.10787   0.11479
 Alpha virt. eigenvalues --    0.13176   0.13205   0.14001   0.14021   0.14842

 Mulliken charges:
               1
     1  Cl  -0.049801
     2  Cl  -0.175834
     3  N   -0.316661
     4  N   -0.341250
     5  C    0.007507
     6  C   -0.106757
     7  C    1.219353
     8  C    0.375582
     9  H   -0.319785
    10  H   -0.292355
 Sum of Mulliken charges =  -0.00000

 Dipole moment (field-independent basis, Debye):
    X=              1.9842    Y=              2.8504    Z=              0.0000  Tot=              3.4730

 Test job not archived.
 1\1\GINC-SE041\SP\RHF\Aug-CC-pVDZ\C4H2Cl2N2\OHZDE\05-Apr-2025\0\\#t hf
  aug-cc-pvdz iop(5/13=1,5/36=2,99/5=2) pseudo=read geom=check guess=(r
 ead,tcheck) scf=(maxcycle=1)\\title\\0,1\Cl,0,-2.599175,-0.886996,-0.0
 00001\Cl,0,2.613285,-0.893714,0.\N,0,0.001967,-0.687993,0.\N,0,-1.2336
 01,1.339871,0.\C,0,-1.116676,0.025543,0.\C,0,1.121365,0.005739,0.\C,0,
 1.154461,1.395274,0.\C,0,-0.082104,2.017431,0.\H,0,2.08018,1.9473,0.\H
 ,0,-0.160883,3.097694,0.000002\\Version=ES64L-G16RevC.01\State=1-A\HF=
 -1180.6826229\RMSD=6.090e-03\Dipole=0.7806613,1.1214258,0.0000005\Quad

 Normal termination of Gaussian 16 at Sat Apr  5 22:22:41 2025.
