 Gaussian 16, Revision C.01,

 ----------------------------------------------------------------------
 #t hf aug-cc-pvdz symm=none int=(grid=ultrafine) guess=(read,tcheck) s
 table=(opt,rrhf)
 ----------------------------------------------------------------------
 -----
 title
 -----
 Symbolic Z-matrix:
 Charge =  0 Multiplicity = 1

 SCF Done:  E(RHF) =  -343.775624455     A.U. after   14 cycles
 Normal termination of Gaussian 16 at Sat Apr  5 22:22:49 2025.
 Gaussian 16:  ES64L-G16RevC.01  3-Jul-2019

 ----------------------------------------------------------------------
 #t hf aug-cc-pvdz iop(5/13=1,5/36=2,99/5=2) pseudo=read geom=check gue
 ss=(read,tcheck) scf=(maxcycle=1)
 ----------------------------------------------------------------------
 -----
 title
 -----
 Structure from the checkpoint file:  "2-4-pentanedione.chk"
 Charge =  0 Multiplicity = 1

                         Standard orientation:
 ---------------------------------------------------------------------
 Center     Atomic      Atomic             Coordinates (Angstroms)
 Number     Number       Type             X           Y           Z
 ---------------------------------------------------------------------
      1          6           0        0.000000    1.243074    0.098143
      2          6           0       -0.000000   -1.243074    0.098143
      3          6           0        1.350214    1.778331   -0.300826
      4          6           0       -1.350214   -1.778331   -0.300826
      5          6           0        0.000000    0.000000    0.994477
      6          8           0       -1.040368    1.730141   -0.279145
      7          8           0        1.040368   -1.730141   -0.279145
      8          1           0        1.852898    2.184930    0.580181
      9          1           0        1.978873    0.968481   -0.675930
     10          1           0        1.241245    2.557857   -1.049844
     11          1           0       -1.241245   -2.557857   -1.049844
     12          1           0       -1.852898   -2.184930    0.580181
     13          1           0       -1.978873   -0.968481   -0.675930
     14          1           0       -0.895614    0.031398    1.611420
     15          1           0        0.895614   -0.031398    1.611420
 ---------------------------------------------------------------------

 SCF Done:  E(RHF) =  -343.883715153     A.U. after    2 cycles

 The electronic state is 1-A.
 Alpha  occ. eigenvalues --  -20.57660 -20.57660 -11.36128 -11.36123 -11.26457
 Alpha  occ. eigenvalues --  -11.25041 -11.25041  -1.37300  -1.36636  -1.06973
 Alpha  occ. eigenvalues --   -1.01858  -0.97354  -0.78665  -0.74622  -0.68152
 Alpha  occ. eigenvalues --   -0.67444  -0.67328  -0.64042  -0.60769  -0.60093
 Alpha  occ. eigenvalues --   -0.58127  -0.56196  -0.54441  -0.52589  -0.52149
 Alpha  occ. eigenvalues --   -0.44874  -0.42806
 Alpha virt. eigenvalues --    0.03150   0.04079   0.04481   0.05596   0.06132
 Alpha virt. eigenvalues --    0.06798   0.07388   0.07444   0.10198   0.10468
 Alpha virt. eigenvalues --    0.10566   0.11925   0.13653   0.14265   0.14362

 Mulliken charges:
               1
     1  C   -0.031302
     2  C   -0.031302
     3  C    0.357958
     4  C    0.357958
     5  C    0.580658
     6  O   -0.545419
     7  O   -0.545419
     8  H    0.085847
     9  H    0.018305
    10  H   -0.073919
    11  H   -0.073919
    12  H    0.085847
    13  H    0.018305
    14  H   -0.101798
    15  H   -0.101798
 Sum of Mulliken charges =  -0.00000

 Dipole moment (field-independent basis, Debye):
    X=              0.0000    Y=              0.0000    Z=              1.9142  Tot=              1.9142

 Test job not archived.
 1\1\GINC-SE009\SP\RHF\Aug-CC-pVDZ\C5H8O2\OHZDE\05-Apr-2025\0\\#t hf au
 g-cc-pvdz iop(5/13=1,5/36=2,99/5=2) pseudo=read geom=check guess=(read
 ,tcheck) scf=(maxcycle=1)\\title\\0,1\C,0,0.,1.243074,0.098143\C,0,0.,
 -1.243074,0.098143\C,0,1.350214,1.778331,-0.300826\C,0,-1.350214,-1.77
 8331,-0.300826\C,0,0.,0.,0.994477\O,0,-1.040368,1.730141,-0.279145\O,0
 ,1.040368,-1.730141,-0.279145\H,0,1.852898,2.18493,0.580181\H,0,1.9788
 73,0.968481,-0.67593\H,0,1.241245,2.557857,-1.049844\H,0,-1.241245,-2.
 557857,-1.049844\H,0,-1.852898,-2.18493,0.580181\H,0,-1.978873,-0.9684

 Normal termination of Gaussian 16 at Sat Apr  5 22:23:38 2025.
