 Gaussian 16, Revision C.01,

 ----------------------------------------------------------------------
 #t hf aug-cc-pvdz symm=none int=(grid=ultrafine) guess=(read,tcheck) s
 table=(opt,rrhf)
 ----------------------------------------------------------------------
 -----
 title
 -----
 Symbolic Z-matrix:
 Charge =  0 Multiplicity = 1

 SCF Done:  E(RHF) =  -426.369415191     A.U. after   15 cycles
 Normal termination of Gaussian 16 at Sat Apr  5 22:22:30 2025.
 Gaussian 16:  ES64L-G16RevC.01  3-Jul-2019

 ----------------------------------------------------------------------
 #t hf aug-cc-pvdz iop(5/13=1,5/36=2,99/5=2) pseudo=read geom=check gue
 ss=(read,tcheck) scf=(maxcycle=1)
 ----------------------------------------------------------------------
 -----
 title
 -----
 Structure from the checkpoint file:  "2-4-difluorofuran.chk"
 Charge =  0 Multiplicity = 1

                         Standard orientation:
 ---------------------------------------------------------------------
 Center     Atomic      Atomic             Coordinates (Angstroms)
 Number     Number       Type             X           Y           Z
 ---------------------------------------------------------------------
      1          9           0       -2.349093   -0.439318   -0.000000
      2          9           0        2.398437   -0.465192   -0.000000
      3          8           0       -0.734830    1.107764   -0.000000
      4          6           0       -1.057992   -0.187509   -0.000000
      5          6           0        1.115249   -0.099449   -0.000000
      6          6           0        0.013570   -1.010677   -0.000000
      7          6           0        0.647558    1.167846   -0.000000
      8          1           0        0.028831   -2.084299    0.000001
      9          1           0        1.095398    2.141517   -0.000000
 ---------------------------------------------------------------------

 SCF Done:  E(RHF) =  -426.514770952     A.U. after    2 cycles

 The electronic state is 1-A.
 Alpha  occ. eigenvalues --  -26.18200 -26.15866 -20.67127 -11.42348 -11.35757
 Alpha  occ. eigenvalues --  -11.31457 -11.26750  -1.72977  -1.69834  -1.45943
 Alpha  occ. eigenvalues --   -1.12379  -1.04656  -0.90553  -0.89054  -0.83918
 Alpha  occ. eigenvalues --   -0.80364  -0.78942  -0.77330  -0.75764  -0.70009
 Alpha  occ. eigenvalues --   -0.68382  -0.67277  -0.62165  -0.58240  -0.43650
 Alpha  occ. eigenvalues --   -0.34895
 Alpha virt. eigenvalues --    0.03487   0.04123   0.07175   0.08664   0.09202
 Alpha virt. eigenvalues --    0.10731   0.11380   0.12433   0.13158   0.13934
 Alpha virt. eigenvalues --    0.14298   0.15004   0.15445   0.15937   0.16412

 Mulliken charges:
               1
     1  F   -0.229475
     2  F   -0.273085
     3  O   -0.513043
     4  C    0.500238
     5  C    0.168266
     6  C    0.243365
     7  C    0.617279
     8  H   -0.238817
     9  H   -0.274728
 Sum of Mulliken charges =  -0.00000

 Dipole moment (field-independent basis, Debye):
    X=              0.3743    Y=             -0.0483    Z=              0.0000  Tot=              0.3774

 Test job not archived.
 1\1\GINC-SE053\SP\RHF\Aug-CC-pVDZ\C4H2F2O1\OHZDE\05-Apr-2025\0\\#t hf
 aug-cc-pvdz iop(5/13=1,5/36=2,99/5=2) pseudo=read geom=check guess=(re
 ad,tcheck) scf=(maxcycle=1)\\title\\0,1\F,0,-2.349093,-0.439318,0.\F,0
 ,2.398437,-0.465192,0.\O,0,-0.73483,1.107764,0.\C,0,-1.057992,-0.18750
 9,0.\C,0,1.115249,-0.099449,0.\C,0,0.01357,-1.010677,0.\C,0,0.647558,1
 .167846,0.\H,0,0.028831,-2.084299,0.000001\H,0,1.095398,2.141517,0.\\V
 ersion=ES64L-G16RevC.01\State=1-A\HF=-426.514771\RMSD=1.083e-02\Dipole
 =0.1472582,-0.0190129,0.0000004\Quadrupole=-4.3538736,4.2857642,0.0681

 Normal termination of Gaussian 16 at Sat Apr  5 22:22:34 2025.
