 Gaussian 16, Revision C.01,

 ----------------------------------------------------------------------
 #t hf aug-cc-pvdz symm=none int=(grid=ultrafine) guess=(read,tcheck) s
 table=(opt,rrhf)
 ----------------------------------------------------------------------
 -----
 title
 -----
 Symbolic Z-matrix:
 Charge =  0 Multiplicity = 1

 SCF Done:  E(RHF) =  -643.300533293     A.U. after   15 cycles
 Normal termination of Gaussian 16 at Sat Apr  5 22:22:30 2025.
 Gaussian 16:  ES64L-G16RevC.01  3-Jul-2019

 ----------------------------------------------------------------------
 #t hf aug-cc-pvdz iop(5/13=1,5/36=2,99/5=2) pseudo=read geom=check gue
 ss=(read,tcheck) scf=(maxcycle=1)
 ----------------------------------------------------------------------
 -----
 title
 -----
 Structure from the checkpoint file:  "2-5-dihydro-1-2-thiazole-1-oxide.chk"
 Charge =  0 Multiplicity = 1

                         Standard orientation:
 ---------------------------------------------------------------------
 Center     Atomic      Atomic             Coordinates (Angstroms)
 Number     Number       Type             X           Y           Z
 ---------------------------------------------------------------------
      1          6           0       -1.589968    0.591998    0.318003
      2          6           0       -1.482626   -0.731595    0.240541
      3          6           0       -0.409779    1.297050   -0.271302
      4          7           0       -0.319737   -1.200523   -0.391951
      5          8           0        1.667032   -0.003415    0.897793
      6         16           0        0.936297    0.011580   -0.400006
      7          1           0       -2.429540    1.112221    0.749196
      8          1           0       -2.206329   -1.457624    0.580961
      9          1           0       -0.583145    1.663910   -1.286760
     10          1           0        0.010173    2.099326    0.334185
     11          1           0        0.024228   -2.116844   -0.139614
 ---------------------------------------------------------------------

 SCF Done:  E(RHF) =  -643.419632714     A.U. after    2 cycles

 The electronic state is 1-A.
 Alpha  occ. eigenvalues --  -93.69130 -20.53288 -15.66641 -11.30035 -11.28602
 Alpha  occ. eigenvalues --  -11.24853  -8.97067  -6.31324  -6.31106  -6.30808
 Alpha  occ. eigenvalues --   -1.32754  -1.22037  -1.06021  -0.98883  -0.83665
 Alpha  occ. eigenvalues --   -0.78947  -0.73129  -0.64771  -0.61870  -0.60656
 Alpha  occ. eigenvalues --   -0.59136  -0.56959  -0.55234  -0.50735  -0.44858
 Alpha  occ. eigenvalues --   -0.39543  -0.34135
 Alpha virt. eigenvalues --    0.03049   0.03897   0.04630   0.05572   0.06487
 Alpha virt. eigenvalues --    0.08638   0.09907   0.11436   0.12204   0.12416
 Alpha virt. eigenvalues --    0.13117   0.13702   0.13888   0.15286   0.16124

 Mulliken charges:
               1
     1  C    0.455277
     2  C    0.549529
     3  C   -0.305821
     4  N   -0.750690
     5  O   -1.026724
     6  S    1.625845
     7  H   -0.302084
     8  H   -0.279160
     9  H    0.076842
    10  H    0.006231
    11  H   -0.049246
 Sum of Mulliken charges =  -0.00000

 Dipole moment (field-independent basis, Debye):
    X=             -3.2859    Y=             -0.1914    Z=             -1.7571  Tot=              3.7311

 Test job not archived.
 1\1\GINC-SE222\SP\RHF\Aug-CC-pVDZ\C3H5N1O1S1\OHZDE\05-Apr-2025\0\\#t h
 f aug-cc-pvdz iop(5/13=1,5/36=2,99/5=2) pseudo=read geom=check guess=(
 read,tcheck) scf=(maxcycle=1)\\title\\0,1\C,0,-1.589968,0.591998,0.318
 003\C,0,-1.482626,-0.731595,0.240541\C,0,-0.409779,1.29705,-0.271302\N
 ,0,-0.319737,-1.200523,-0.391951\O,0,1.667032,-0.003415,0.897793\S,0,0
 .936297,0.01158,-0.400006\H,0,-2.42954,1.112221,0.749196\H,0,-2.206329
 ,-1.457624,0.580961\H,0,-0.583145,1.66391,-1.28676\H,0,0.010173,2.0993
 26,0.334185\H,0,0.024228,-2.116844,-0.139614\\Version=ES64L-G16RevC.01

 Normal termination of Gaussian 16 at Sat Apr  5 22:22:34 2025.
