 Gaussian 16, Revision C.01,

 ----------------------------------------------------------------------
 #t hf aug-cc-pvdz symm=none int=(grid=ultrafine) guess=(read,tcheck) s
 table=(opt,rrhf)
 ----------------------------------------------------------------------
 -----
 title
 -----
 Symbolic Z-matrix:
 Charge =  0 Multiplicity = 1

 SCF Done:  E(RHF) =  -702.158571154     A.U. after   13 cycles
 Normal termination of Gaussian 16 at Sat Apr  5 22:22:47 2025.
 Gaussian 16:  ES64L-G16RevC.01  3-Jul-2019

 ----------------------------------------------------------------------
 #t hf aug-cc-pvdz iop(5/13=1,5/36=2,99/5=2) pseudo=read geom=check gue
 ss=(read,tcheck) scf=(maxcycle=1)
 ----------------------------------------------------------------------
 -----
 title
 -----
 Structure from the checkpoint file:  "2-5-dihydrothiophene-1-1-dioxide.chk"
 Charge =  0 Multiplicity = 1

                         Standard orientation:
 ---------------------------------------------------------------------
 Center     Atomic      Atomic             Coordinates (Angstroms)
 Number     Number       Type             X           Y           Z
 ---------------------------------------------------------------------
      1          8           0        1.270824   -1.445451   -0.000000
      2         16           0        0.002229   -0.724554   -0.000000
      3          8           0       -1.257213   -1.461278   -0.000000
      4          6           0       -0.004596    0.507527    1.362305
      5          6           0       -0.004596    1.830288    0.665220
      6          6           0       -0.004596    1.830288   -0.665220
      7          6           0       -0.004596    0.507527   -1.362305
      8          1           0        0.883848    0.328649    1.967200
      9          1           0       -0.896445    0.325784    1.961332
     10          1           0       -0.004535    2.742025    1.247250
     11          1           0       -0.004535    2.742025   -1.247250
     12          1           0        0.883848    0.328649   -1.967200
     13          1           0       -0.896445    0.325784   -1.961332
 ---------------------------------------------------------------------

 SCF Done:  E(RHF) =  -702.322308758     A.U. after    2 cycles

 The electronic state is 1-A'.
 Alpha  occ. eigenvalues --  -93.77837 -20.55731 -20.55726 -11.29707 -11.29692
 Alpha  occ. eigenvalues --  -11.28568 -11.28404  -9.04619  -6.39228  -6.39043
 Alpha  occ. eigenvalues --   -6.38935  -1.41035  -1.29746  -1.15556  -1.02705
 Alpha  occ. eigenvalues --   -0.97866  -0.81850  -0.79411  -0.71975  -0.67835
 Alpha  occ. eigenvalues --   -0.64858  -0.64829  -0.63042  -0.61730  -0.60166
 Alpha  occ. eigenvalues --   -0.56134  -0.51207  -0.50346  -0.48951  -0.43881
 Alpha  occ. eigenvalues --   -0.39972
 Alpha virt. eigenvalues --    0.02462   0.03673   0.04854   0.05119   0.06231
 Alpha virt. eigenvalues --    0.06314   0.09334   0.10512   0.11137   0.12467
 Alpha virt. eigenvalues --    0.12620   0.13399   0.13721   0.14301   0.14486

 Mulliken charges:
               1
     1  O   -1.101003
     2  S    2.643679
     3  O   -1.100680
     4  C   -0.221344
     5  C    0.184228
     6  C    0.184228
     7  C   -0.221344
     8  H    0.070414
     9  H    0.070228
    10  H   -0.324525
    11  H   -0.324525
    12  H    0.070414
    13  H    0.070228
 Sum of Mulliken charges =  -0.00000

 Dipole moment (field-independent basis, Debye):
    X=             -0.0338    Y=              5.8142    Z=             -0.0000  Tot=              5.8143

 Test job not archived.
 1\1\GINC-SE188\SP\RHF\Aug-CC-pVDZ\C4H6O2S1\OHZDE\05-Apr-2025\0\\#t hf
 aug-cc-pvdz iop(5/13=1,5/36=2,99/5=2) pseudo=read geom=check guess=(re
 ad,tcheck) scf=(maxcycle=1)\\title\\0,1\O,0,1.270824,-1.445451,0.\S,0,
 0.002229,-0.724554,0.\O,0,-1.257213,-1.461278,0.\C,0,-0.004596,0.50752
 7,1.362305\C,0,-0.004596,1.830288,0.66522\C,0,-0.004596,1.830288,-0.66
 522\C,0,-0.004596,0.507527,-1.362305\H,0,0.883848,0.328649,1.9672\H,0,
 -0.896445,0.325784,1.961332\H,0,-0.004535,2.742025,1.24725\H,0,-0.0045
 35,2.742025,-1.24725\H,0,0.883848,0.328649,-1.9672\H,0,-0.896445,0.325

 Normal termination of Gaussian 16 at Sat Apr  5 22:23:20 2025.
