 Gaussian 16, Revision C.01,

 ----------------------------------------------------------------------
 #t hf aug-cc-pvdz symm=none int=(grid=ultrafine) guess=(read,tcheck) s
 table=(opt,rrhf)
 ----------------------------------------------------------------------
 -----
 title
 -----
 Symbolic Z-matrix:
 Charge =  0 Multiplicity = 1

 SCF Done:  E(RHF) =  -305.580413112     A.U. after   14 cycles
 Normal termination of Gaussian 16 at Sat Apr  5 22:22:39 2025.
 Gaussian 16:  ES64L-G16RevC.01  3-Jul-2019

 ----------------------------------------------------------------------
 #t hf aug-cc-pvdz iop(5/13=1,5/36=2,99/5=2) pseudo=read geom=check gue
 ss=(read,tcheck) scf=(maxcycle=1)
 ----------------------------------------------------------------------
 -----
 title
 -----
 Structure from the checkpoint file:  "2-5-cyclohexadienone.chk"
 Charge =  0 Multiplicity = 1

                         Standard orientation:
 ---------------------------------------------------------------------
 Center     Atomic      Atomic             Coordinates (Angstroms)
 Number     Number       Type             X           Y           Z
 ---------------------------------------------------------------------
      1          6           0        0.000000   -0.000000    1.108167
      2          6           0        0.000000    1.252736    0.329165
      3          6           0        0.000000    1.253135   -1.006331
      4          6           0        0.000000    0.000000   -1.814407
      5          6           0       -0.000000   -1.253135   -1.006331
      6          6           0       -0.000000   -1.252736    0.329165
      7          8           0        0.000000   -0.000000    2.331070
      8          1           0        0.000000    2.170549    0.902157
      9          1           0        0.000000    2.189815   -1.551879
     10          1           0       -0.863698    0.000000   -2.492840
     11          1           0        0.863698   -0.000000   -2.492840
     12          1           0       -0.000000   -2.189815   -1.551879
     13          1           0       -0.000000   -2.170549    0.902157
 ---------------------------------------------------------------------

 SCF Done:  E(RHF) =  -305.672407448     A.U. after    2 cycles

 The electronic state is 1-A1.
 Alpha  occ. eigenvalues --  -20.55038 -11.33870 -11.27839 -11.27838 -11.27250
 Alpha  occ. eigenvalues --  -11.25143 -11.25142  -1.33806  -1.14371  -1.04200
 Alpha  occ. eigenvalues --   -0.99761  -0.83891  -0.83763  -0.71050  -0.67252
 Alpha  occ. eigenvalues --   -0.67099  -0.62297  -0.61570  -0.60309  -0.55028
 Alpha  occ. eigenvalues --   -0.54522  -0.52485  -0.42742  -0.39069  -0.38433
 Alpha virt. eigenvalues --    0.02613   0.03666   0.04748   0.04773   0.06027
 Alpha virt. eigenvalues --    0.06346   0.07067   0.10355   0.10824   0.11370
 Alpha virt. eigenvalues --    0.13109   0.13110   0.13396   0.14069   0.14147

 Mulliken charges:
               1
     1  C   -0.114228
     2  C    0.680438
     3  C    0.400409
     4  C   -0.061069
     5  C    0.400409
     6  C    0.680438
     7  O   -0.540815
     8  H   -0.439548
     9  H   -0.397548
    10  H    0.114304
    11  H    0.114304
    12  H   -0.397548
    13  H   -0.439548
 Sum of Mulliken charges =  -0.00000

 Dipole moment (field-independent basis, Debye):
    X=              0.0000    Y=             -0.0000    Z=             -5.4705  Tot=              5.4705

 Test job not archived.
 1\1\GINC-SE010\SP\RHF\Aug-CC-pVDZ\C6H6O1\OHZDE\05-Apr-2025\0\\#t hf au
 g-cc-pvdz iop(5/13=1,5/36=2,99/5=2) pseudo=read geom=check guess=(read
 ,tcheck) scf=(maxcycle=1)\\title\\0,1\C,0,0.,0.,1.108167\C,0,0.,1.2527
 36,0.329165\C,0,0.,1.253135,-1.006331\C,0,0.,0.,-1.814407\C,0,0.,-1.25
 3135,-1.006331\C,0,0.,-1.252736,0.329165\O,0,0.,0.,2.33107\H,0,0.,2.17
 0549,0.902157\H,0,0.,2.189815,-1.551879\H,0,-0.863698,0.,-2.49284\H,0,
 0.863698,0.,-2.49284\H,0,0.,-2.189815,-1.551879\H,0,0.,-2.170549,0.902
 157\\Version=ES64L-G16RevC.01\State=1-A1\HF=-305.6724074\RMSD=9.683e-0

 Normal termination of Gaussian 16 at Sat Apr  5 22:23:20 2025.
