 Gaussian 16, Revision C.01,

 ----------------------------------------------------------------------
 #t hf aug-cc-pvdz symm=none int=(grid=ultrafine) guess=(read,tcheck) s
 table=(opt,rrhf)
 ----------------------------------------------------------------------
 -----
 title
 -----
 Symbolic Z-matrix:
 Charge =  0 Multiplicity = 1

 SCF Done:  E(RHF) =  -552.494918841     A.U. after   12 cycles
 Normal termination of Gaussian 16 at Sat Apr  5 22:22:29 2025.
 Gaussian 16:  ES64L-G16RevC.01  3-Jul-2019

 ----------------------------------------------------------------------
 #t hf aug-cc-pvdz iop(5/13=1,5/36=2,99/5=2) pseudo=read geom=check gue
 ss=(read,tcheck) scf=(maxcycle=1)
 ----------------------------------------------------------------------
 -----
 title
 -----
 Structure from the checkpoint file:  "2-5-dihydrothiophene.chk"
 Charge =  0 Multiplicity = 1

                         Standard orientation:
 ---------------------------------------------------------------------
 Center     Atomic      Atomic             Coordinates (Angstroms)
 Number     Number       Type             X           Y           Z
 ---------------------------------------------------------------------
      1         16           0        0.000000    0.000000    1.252467
      2          6           0        0.000000    1.350899   -0.004471
      3          6           0       -0.000000   -1.350899   -0.004471
      4          6           0        0.000000    0.662535   -1.335066
      5          6           0       -0.000000   -0.662535   -1.335066
      6          1           0       -0.881617    1.980110    0.130213
      7          1           0        0.881617    1.980110    0.130213
      8          1           0        0.881617   -1.980110    0.130213
      9          1           0       -0.881617   -1.980110    0.130213
     10          1           0        0.000000    1.252912   -2.242943
     11          1           0       -0.000000   -1.252912   -2.242943
 ---------------------------------------------------------------------

 SCF Done:  E(RHF) =  -552.562208028     A.U. after    2 cycles

 The electronic state is 1-A1.
 Alpha  occ. eigenvalues --  -93.52150 -11.27172 -11.27157 -11.25205 -11.25035
 Alpha  occ. eigenvalues --   -8.81905  -6.16032  -6.15862  -6.15483  -1.12630
 Alpha  occ. eigenvalues --   -0.98163  -0.96565  -0.79771  -0.74324  -0.67561
 Alpha  occ. eigenvalues --   -0.62249  -0.58329  -0.56449  -0.52316  -0.48746
 Alpha  occ. eigenvalues --   -0.43045  -0.37337  -0.33112
 Alpha virt. eigenvalues --    0.03358   0.04338   0.05283   0.05453   0.06295
 Alpha virt. eigenvalues --    0.06780   0.08822   0.11806   0.12433   0.12508
 Alpha virt. eigenvalues --    0.14031   0.14360   0.14609   0.15665   0.15671

 Mulliken charges:
               1
     1  S    0.695253
     2  C   -0.181460
     3  C   -0.181460
     4  C    0.063920
     5  C    0.063920
     6  H    0.045389
     7  H    0.045389
     8  H    0.045389
     9  H    0.045389
    10  H   -0.320864
    11  H   -0.320864
 Sum of Mulliken charges =  -0.00000

 Dipole moment (field-independent basis, Debye):
    X=             -0.0000    Y=             -0.0000    Z=             -1.9436  Tot=              1.9436

 Test job not archived.
 1\1\GINC-SE151\SP\RHF\Aug-CC-pVDZ\C4H6S1\OHZDE\05-Apr-2025\0\\#t hf au
 g-cc-pvdz iop(5/13=1,5/36=2,99/5=2) pseudo=read geom=check guess=(read
 ,tcheck) scf=(maxcycle=1)\\title\\0,1\S,0,0.,0.,1.252467\C,0,0.,1.3508
 99,-0.004471\C,0,0.,-1.350899,-0.004471\C,0,0.,0.662535,-1.335066\C,0,
 0.,-0.662535,-1.335066\H,0,-0.881617,1.98011,0.130213\H,0,0.881617,1.9
 8011,0.130213\H,0,0.881617,-1.98011,0.130213\H,0,-0.881617,-1.98011,0.
 130213\H,0,0.,1.252912,-2.242943\H,0,0.,-1.252912,-2.242943\\Version=E
 S64L-G16RevC.01\State=1-A1\HF=-552.562208\RMSD=9.685e-03\Dipole=0.,0.,

 Normal termination of Gaussian 16 at Sat Apr  5 22:22:32 2025.
