 Gaussian 16, Revision C.01,

 ----------------------------------------------------------------------
 #t hf aug-cc-pvdz symm=none int=(grid=ultrafine) guess=(read,tcheck) s
 table=(opt,rrhf)
 ----------------------------------------------------------------------
 -----
 title
 -----
 Symbolic Z-matrix:
 Charge =  0 Multiplicity = 1

 SCF Done:  E(RHF) =  -627.307651468     A.U. after   14 cycles
 Normal termination of Gaussian 16 at Sat Apr  5 22:22:29 2025.
 Gaussian 16:  ES64L-G16RevC.01  3-Jul-2019

 ----------------------------------------------------------------------
 #t hf aug-cc-pvdz iop(5/13=1,5/36=2,99/5=2) pseudo=read geom=check gue
 ss=(read,tcheck) scf=(maxcycle=1)
 ----------------------------------------------------------------------
 -----
 title
 -----
 Structure from the checkpoint file:  "2-5-dihydrothiophene-1-oxide.chk"
 Charge =  0 Multiplicity = 1

                         Standard orientation:
 ---------------------------------------------------------------------
 Center     Atomic      Atomic             Coordinates (Angstroms)
 Number     Number       Type             X           Y           Z
 ---------------------------------------------------------------------
      1          6           0        0.373882    1.565307    0.663411
      2          6           0        0.373882    1.565307   -0.663411
      3          6           0        0.373882    0.225203    1.327115
      4          6           0        0.373882    0.225203   -1.327115
      5          8           0       -1.474114   -1.250243    0.000000
      6         16           0        0.015228   -1.034346    0.000000
      7          1           0        0.372606    2.471237    1.255926
      8          1           0        0.372606    2.471237   -1.255926
      9          1           0        1.331542   -0.026308    1.789128
     10          1           0       -0.416106    0.087751    2.065993
     11          1           0       -0.416106    0.087751   -2.065993
     12          1           0        1.331542   -0.026308   -1.789128
 ---------------------------------------------------------------------

 SCF Done:  E(RHF) =  -627.417572728     A.U. after    2 cycles

 The electronic state is 1-A'.
 Alpha  occ. eigenvalues --  -93.65506 -20.51548 -11.28261 -11.28248 -11.26675
 Alpha  occ. eigenvalues --  -11.26506  -8.93887  -6.28142  -6.27956  -6.27685
 Alpha  occ. eigenvalues --   -1.29450  -1.13420  -1.00003  -0.97071  -0.80859
 Alpha  occ. eigenvalues --   -0.76647  -0.69727  -0.64689  -0.61485  -0.58473
 Alpha  occ. eigenvalues --   -0.57102  -0.55543  -0.53943  -0.52937  -0.42155
 Alpha  occ. eigenvalues --   -0.38334  -0.37695
 Alpha virt. eigenvalues --    0.02899   0.04042   0.04314   0.05856   0.05856
 Alpha virt. eigenvalues --    0.06903   0.08648   0.11295   0.11306   0.12040
 Alpha virt. eigenvalues --    0.12191   0.13611   0.14103   0.14590   0.15130

 Mulliken charges:
               1
     1  C    0.196561
     2  C    0.196561
     3  C   -0.179631
     4  C   -0.179631
     5  O   -1.063973
     6  S    1.415975
     7  H   -0.316536
     8  H   -0.316536
     9  H    0.083974
    10  H    0.039631
    11  H    0.039631
    12  H    0.083974
 Sum of Mulliken charges =  -0.00000

 Dipole moment (field-independent basis, Debye):
    X=              3.9251    Y=              2.8747    Z=              0.0000  Tot=              4.8652

 Test job not archived.
 1\1\GINC-SE046\SP\RHF\Aug-CC-pVDZ\C4H6O1S1\OHZDE\05-Apr-2025\0\\#t hf
 aug-cc-pvdz iop(5/13=1,5/36=2,99/5=2) pseudo=read geom=check guess=(re
 ad,tcheck) scf=(maxcycle=1)\\title\\0,1\C,0,1.587197,-0.663411,0.26604
 5\C,0,1.587197,0.663411,0.266045\C,0,0.353161,-1.327115,-0.25648\C,0,0
 .353161,1.327115,-0.25648\O,0,-1.726065,0.,0.869953\S,0,-0.946541,0.,-
 0.417329\H,0,2.420926,-1.255926,0.620455\H,0,2.420926,1.255926,0.62045
 5\H,0,0.494961,-1.789128,-1.23641\H,0,-0.081439,-2.065993,0.417387\H,0
 ,-0.081439,2.065993,0.417387\H,0,0.494961,1.789128,-1.23641\\Version=E

 Normal termination of Gaussian 16 at Sat Apr  5 22:22:33 2025.
