 Gaussian 16, Revision C.01,

 ----------------------------------------------------------------------
 #t hf aug-cc-pvdz symm=none int=(grid=ultrafine) guess=(read,tcheck) s
 table=(opt,rrhf)
 ----------------------------------------------------------------------
 -----
 title
 -----
 Symbolic Z-matrix:
 Charge =  0 Multiplicity = 1

 SCF Done:  E(RHF) =  -411.999930281     A.U. after   15 cycles
 Normal termination of Gaussian 16 at Sat Apr  5 22:22:40 2025.
 Gaussian 16:  ES64L-G16RevC.01  3-Jul-2019

 ----------------------------------------------------------------------
 #t hf aug-cc-pvdz iop(5/13=1,5/36=2,99/5=2) pseudo=read geom=check gue
 ss=(read,tcheck) scf=(maxcycle=1)
 ----------------------------------------------------------------------
 -----
 title
 -----
 Structure from the checkpoint file:  "2-5-diethynyl-1-3-4-oxadiazole.chk"
 Charge =  0 Multiplicity = 1

                         Standard orientation:
 ---------------------------------------------------------------------
 Center     Atomic      Atomic             Coordinates (Angstroms)
 Number     Number       Type             X           Y           Z
 ---------------------------------------------------------------------
      1          8           0        0.000000   -0.687878    0.000070
      2          7           0        0.688992    1.412640   -0.000142
      3          7           0       -0.688992    1.412640   -0.000140
      4          6           0        1.060811    0.167259   -0.000017
      5          6           0       -1.060811    0.167259   -0.000015
      6          6           0        2.366481   -0.358061    0.000033
      7          6           0       -2.366481   -0.358061    0.000038
      8          6           0        3.480741   -0.800640    0.000075
      9          6           0       -3.480741   -0.800640    0.000084
     10          1           0        4.469667   -1.188310    0.000112
     11          1           0       -4.469667   -1.188310    0.000122
 ---------------------------------------------------------------------

 SCF Done:  E(RHF) =  -412.125282413     A.U. after    2 cycles

 The electronic state is 1-A.
 Alpha  occ. eigenvalues --  -20.69463 -15.69146 -15.69090 -11.39658 -11.39641
 Alpha  occ. eigenvalues --  -11.29155 -11.29153 -11.28621 -11.28620  -1.50489
 Alpha  occ. eigenvalues --   -1.29369  -1.16321  -1.07808  -1.04886  -0.92819
 Alpha  occ. eigenvalues --   -0.91856  -0.81233  -0.78060  -0.74461  -0.72592
 Alpha  occ. eigenvalues --   -0.71651  -0.66724  -0.52651  -0.51742  -0.50778
 Alpha  occ. eigenvalues --   -0.47513  -0.44888  -0.44731  -0.44131  -0.35940
 Alpha virt. eigenvalues --    0.02892   0.02972   0.04898   0.07419   0.08267
 Alpha virt. eigenvalues --    0.08620   0.08792   0.08888   0.09280   0.10717
 Alpha virt. eigenvalues --    0.12227   0.12971   0.13033   0.13202   0.14054

 Mulliken charges:
               1
     1  O   -0.520946
     2  N   -0.465960
     3  N   -0.465960
     4  C    0.363759
     5  C    0.363759
     6  C    0.149254
     7  C    0.149254
     8  C    0.746729
     9  C    0.746729
    10  H   -0.533309
    11  H   -0.533309
 Sum of Mulliken charges =  -0.00000

 Dipole moment (field-independent basis, Debye):
    X=             -0.0000    Y=             -3.2146    Z=              0.0003  Tot=              3.2146

 Test job not archived.
 1\1\GINC-SE012\SP\RHF\Aug-CC-pVDZ\C6H2N2O1\OHZDE\05-Apr-2025\0\\#t hf
 aug-cc-pvdz iop(5/13=1,5/36=2,99/5=2) pseudo=read geom=check guess=(re
 ad,tcheck) scf=(maxcycle=1)\\title\\0,1\O,0,0.,0.687878,0.00007\N,0,-0
 .688992,-1.41264,-0.000142\N,0,0.688992,-1.41264,-0.00014\C,0,-1.06081
 1,-0.167259,-0.000017\C,0,1.060811,-0.167259,-0.000015\C,0,-2.366481,0
 .358061,0.000033\C,0,2.366481,0.358061,0.000038\C,0,-3.480741,0.80064,
 0.000075\C,0,3.480741,0.80064,0.000084\H,0,-4.469667,1.18831,0.000112\
 H,0,4.469667,1.18831,0.000122\\Version=ES64L-G16RevC.01\State=1-A\HF=-

 Normal termination of Gaussian 16 at Sat Apr  5 22:23:21 2025.
