 Gaussian 16, Revision C.01,

 ----------------------------------------------------------------------
 #t hf aug-cc-pvdz symm=none int=(grid=ultrafine) guess=(read,tcheck) s
 table=(opt,rrhf)
 ----------------------------------------------------------------------
 -----
 title
 -----
 Symbolic Z-matrix:
 Charge =  0 Multiplicity = 1

 SCF Done:  E(RHF) =  -229.817829529     A.U. after   11 cycles
 Normal termination of Gaussian 16 at Sat Apr  5 22:22:29 2025.
 Gaussian 16:  ES64L-G16RevC.01  3-Jul-2019

 ----------------------------------------------------------------------
 #t hf aug-cc-pvdz iop(5/13=1,5/36=2,99/5=2) pseudo=read geom=check gue
 ss=(read,tcheck) scf=(maxcycle=1)
 ----------------------------------------------------------------------
 -----
 title
 -----
 Structure from the checkpoint file:  "2-5-dihydrofuran.chk"
 Charge =  0 Multiplicity = 1

                         Standard orientation:
 ---------------------------------------------------------------------
 Center     Atomic      Atomic             Coordinates (Angstroms)
 Number     Number       Type             X           Y           Z
 ---------------------------------------------------------------------
      1          8           0        0.000005   -1.187716    0.000000
      2          6           0       -0.000009   -0.367981    1.174300
      3          6           0       -0.000009    1.040764    0.662346
      4          6           0       -0.000009    1.040764   -0.662346
      5          6           0       -0.000009   -0.367981   -1.174300
      6          1           0        0.884524   -0.596428    1.780702
      7          1           0       -0.884421   -0.596465    1.780810
      8          1           0       -0.884421   -0.596465   -1.780810
      9          1           0        0.884524   -0.596428   -1.780702
     10          1           0       -0.000016    1.907063    1.307178
     11          1           0       -0.000016    1.907063   -1.307178
 ---------------------------------------------------------------------

 SCF Done:  E(RHF) =  -229.890454663     A.U. after    2 cycles

 The electronic state is 1-A'.
 Alpha  occ. eigenvalues --  -20.56499 -11.28941 -11.28916 -11.24499 -11.24327
 Alpha  occ. eigenvalues --   -1.33301  -1.06614  -0.99105  -0.83049  -0.76859
 Alpha  occ. eigenvalues --   -0.70514  -0.67321  -0.59348  -0.57413  -0.57307
 Alpha  occ. eigenvalues --   -0.51463  -0.50209  -0.45105  -0.35724
 Alpha virt. eigenvalues --    0.03380   0.04334   0.05007   0.05433   0.06484
 Alpha virt. eigenvalues --    0.06751   0.10543   0.11294   0.12486   0.13186
 Alpha virt. eigenvalues --    0.13451   0.14469   0.14981   0.15675   0.15927

 Mulliken charges:
               1
     1  O   -0.696552
     2  C    0.886353
     3  C   -0.116777
     4  C   -0.116777
     5  C    0.886353
     6  H   -0.086980
     7  H   -0.087082
     8  H   -0.087082
     9  H   -0.086980
    10  H   -0.247238
    11  H   -0.247238
 Sum of Mulliken charges =  -0.00000

 Dipole moment (field-independent basis, Debye):
    X=             -0.0001    Y=              1.8765    Z=              0.0000  Tot=              1.8765

 Test job not archived.
 1\1\GINC-SE187\SP\RHF\Aug-CC-pVDZ\C4H6O1\OHZDE\05-Apr-2025\0\\#t hf au
 g-cc-pvdz iop(5/13=1,5/36=2,99/5=2) pseudo=read geom=check guess=(read
 ,tcheck) scf=(maxcycle=1)\\title\\0,1\O,0,-0.000005,1.187716,0.\C,0,0.
 000009,0.367981,1.1743\C,0,0.000009,-1.040764,0.662346\C,0,0.000009,-1
 .040764,-0.662346\C,0,0.000009,0.367981,-1.1743\H,0,-0.884524,0.596428
 ,1.780702\H,0,0.884421,0.596465,1.78081\H,0,0.884421,0.596465,-1.78081
 \H,0,-0.884524,0.596428,-1.780702\H,0,0.000016,-1.907063,1.307178\H,0,
 0.000016,-1.907063,-1.307178\\Version=ES64L-G16RevC.01\State=1-A'\HF=-

 Normal termination of Gaussian 16 at Sat Apr  5 22:22:32 2025.
