 Gaussian 16, Revision C.01,

 ----------------------------------------------------------------------
 #t hf aug-cc-pvdz symm=none int=(grid=ultrafine) guess=(read,tcheck) s
 table=(opt,rrhf)
 ----------------------------------------------------------------------
 -----
 title
 -----
 Symbolic Z-matrix:
 Charge =  0 Multiplicity = 1

 SCF Done:  E(RHF) =  -741.199858785     A.U. after   14 cycles
 Normal termination of Gaussian 16 at Sat Apr  5 22:23:39 2025.
 Gaussian 16:  ES64L-G16RevC.01  3-Jul-2019

 ----------------------------------------------------------------------
 #t hf aug-cc-pvdz iop(5/13=1,5/36=2,99/5=2) pseudo=read geom=check gue
 ss=(read,tcheck) scf=(maxcycle=1)
 ----------------------------------------------------------------------
 -----
 title
 -----
 Structure from the checkpoint file:  "2-5-dihydro-2-methylthiophene-1-1-dioxide.chk"
 Charge =  0 Multiplicity = 1

                         Standard orientation:
 ---------------------------------------------------------------------
 Center     Atomic      Atomic             Coordinates (Angstroms)
 Number     Number       Type             X           Y           Z
 ---------------------------------------------------------------------
      1          6           0        1.685700   -1.598566    0.155043
      2          6           0        1.000120   -0.422584   -0.529065
      3          6           0        1.568891    0.929035   -0.216112
      4          6           0        0.733478    1.900514    0.142277
      5          6           0       -0.724568    1.573344    0.203570
      6         16           0       -0.774100   -0.249045   -0.007386
      7          8           0       -0.956176   -0.865654    1.303800
      8          8           0       -1.661019   -0.613275   -1.108479
      9          1           0        1.194401   -2.537785   -0.094112
     10          1           0        2.721514   -1.657362   -0.182632
     11          1           0        1.674864   -1.482978    1.236789
     12          1           0        0.941234   -0.587664   -1.606882
     13          1           0        2.639629    1.076501   -0.276618
     14          1           0        1.070634    2.897063    0.393682
     15          1           0       -1.307196    2.010364   -0.607179
     16          1           0       -1.193646    1.807560    1.158274
 ---------------------------------------------------------------------

 SCF Done:  E(RHF) =  -741.374752453     A.U. after    2 cycles

 The electronic state is 1-A.
 Alpha  occ. eigenvalues --  -93.77184 -20.55493 -20.55426 -11.29968 -11.29442
 Alpha  occ. eigenvalues --  -11.28179 -11.27877 -11.25209  -9.04008  -6.38615
 Alpha  occ. eigenvalues --   -6.38425  -6.38321  -1.40631  -1.29368  -1.15606
 Alpha  occ. eigenvalues --   -1.05720  -0.98396  -0.91896  -0.80413  -0.78465
 Alpha  occ. eigenvalues --   -0.71383  -0.67430  -0.65969  -0.64685  -0.62825
 Alpha  occ. eigenvalues --   -0.61682  -0.59267  -0.56623  -0.55829  -0.52709
 Alpha  occ. eigenvalues --   -0.50824  -0.49748  -0.48645  -0.42938  -0.39573
 Alpha virt. eigenvalues --    0.02568   0.03532   0.04569   0.04878   0.05963
 Alpha virt. eigenvalues --    0.06210   0.06908   0.07754   0.10343   0.10920
 Alpha virt. eigenvalues --    0.11690   0.12176   0.12829   0.13371   0.14215

 Mulliken charges:
               1
     1  C    0.625642
     2  C   -1.003772
     3  C    0.544313
     4  C    0.133439
     5  C   -0.136903
     6  S    2.786493
     7  O   -1.149289
     8  O   -1.121228
     9  H   -0.075791
    10  H   -0.034626
    11  H    0.016881
    12  H   -0.002520
    13  H   -0.389879
    14  H   -0.320244
    15  H    0.071704
    16  H    0.055780
 Sum of Mulliken charges =  -0.00000

 Dipole moment (field-independent basis, Debye):
    X=              4.4180    Y=              3.5446    Z=             -0.6018  Tot=              5.6961

 Test job not archived.
 1\1\GINC-SE045\SP\RHF\Aug-CC-pVDZ\C5H8O2S1\OHZDE\05-Apr-2025\0\\#t hf
 aug-cc-pvdz iop(5/13=1,5/36=2,99/5=2) pseudo=read geom=check guess=(re
 ad,tcheck) scf=(maxcycle=1)\\title\\0,1\C,0,1.6857,-1.598566,0.155043\
 C,0,1.00012,-0.422584,-0.529065\C,0,1.568891,0.929035,-0.216112\C,0,0.
 733478,1.900514,0.142277\C,0,-0.724568,1.573344,0.20357\S,0,-0.7741,-0
 .249045,-0.007386\O,0,-0.956176,-0.865654,1.3038\O,0,-1.661019,-0.6132
 75,-1.108479\H,0,1.194401,-2.537785,-0.094112\H,0,2.721514,-1.657362,-
 0.182632\H,0,1.674864,-1.482978,1.236789\H,0,0.941234,-0.587664,-1.606

 Normal termination of Gaussian 16 at Sat Apr  5 22:23:47 2025.
