 Gaussian 16, Revision C.01,

 ----------------------------------------------------------------------
 #t hf aug-cc-pvdz symm=none int=(grid=ultrafine) guess=(read,tcheck) s
 table=(opt,rrhf)
 ----------------------------------------------------------------------
 -----
 title
 -----
 Symbolic Z-matrix:
 Charge =  0 Multiplicity = 1

 SCF Done:  E(RHF) =  -627.370231880     A.U. after   14 cycles
 Normal termination of Gaussian 16 at Sat Apr  5 22:22:29 2025.
 Gaussian 16:  ES64L-G16RevC.01  3-Jul-2019

 ----------------------------------------------------------------------
 #t hf aug-cc-pvdz iop(5/13=1,5/36=2,99/5=2) pseudo=read geom=check gue
 ss=(read,tcheck) scf=(maxcycle=1)
 ----------------------------------------------------------------------
 -----
 title
 -----
 Structure from the checkpoint file:  "2-5-dihydrothiophene-3-ol.chk"
 Charge =  0 Multiplicity = 1

                         Standard orientation:
 ---------------------------------------------------------------------
 Center     Atomic      Atomic             Coordinates (Angstroms)
 Number     Number       Type             X           Y           Z
 ---------------------------------------------------------------------
      1         16           0        0.486424   -1.562232    0.000000
      2          6           0        1.185552    0.135916    0.000000
      3          6           0        0.000000    1.049246    0.000000
      4          6           0       -1.213614    0.503766    0.000000
      5          6           0       -1.274556   -0.989952    0.000000
      6          8           0        0.322895    2.373917    0.000000
      7          1           0        1.804678    0.296812    0.883239
      8          1           0       -2.125549    1.088447    0.000000
      9          1           0       -1.777269   -1.389274   -0.882273
     10          1           0        1.804678    0.296812   -0.883239
     11          1           0       -1.777269   -1.389274    0.882273
     12          1           0       -0.479502    2.906985    0.000000
 ---------------------------------------------------------------------

 SCF Done:  E(RHF) =  -627.461121351     A.U. after    2 cycles

 The electronic state is 1-A'.
 Alpha  occ. eigenvalues --  -93.52511 -20.61489 -11.32076 -11.27443 -11.27394
 Alpha  occ. eigenvalues --  -11.23876  -8.82254  -6.16387  -6.16222  -6.15829
 Alpha  occ. eigenvalues --   -1.37603  -1.12205  -0.98941  -0.96026  -0.82147
 Alpha  occ. eigenvalues --   -0.78842  -0.69773  -0.66162  -0.64596  -0.59457
 Alpha  occ. eigenvalues --   -0.57156  -0.55867  -0.54312  -0.49516  -0.43428
 Alpha  occ. eigenvalues --   -0.35483  -0.33283
 Alpha virt. eigenvalues --    0.02915   0.04459   0.05010   0.05443   0.06488
 Alpha virt. eigenvalues --    0.06908   0.08928   0.10517   0.11934   0.12897
 Alpha virt. eigenvalues --    0.13994   0.14228   0.14541   0.14763   0.15754

 Mulliken charges:
               1
     1  S    0.774007
     2  C   -0.238311
     3  C   -0.166993
     4  C    0.399269
     5  C   -0.108382
     6  O   -0.572761
     7  H    0.068420
     8  H   -0.432256
     9  H    0.041648
    10  H    0.068420
    11  H    0.041648
    12  H    0.125291
 Sum of Mulliken charges =   0.00000

 Dipole moment (field-independent basis, Debye):
    X=             -1.9694    Y=              1.6375    Z=              0.0000  Tot=              2.5612

 Test job not archived.
 1\1\GINC-SE047\SP\RHF\Aug-CC-pVDZ\C4H6O1S1\OHZDE\05-Apr-2025\0\\#t hf
 aug-cc-pvdz iop(5/13=1,5/36=2,99/5=2) pseudo=read geom=check guess=(re
 ad,tcheck) scf=(maxcycle=1)\\title\\0,1\S,0,0.486424,-1.562232,0.\C,0,
 1.185552,0.135916,0.\C,0,0.,1.049246,0.\C,0,-1.213614,0.503766,0.\C,0,
 -1.274556,-0.989952,0.\O,0,0.322895,2.373917,0.\H,0,1.804678,0.296812,
 0.883239\H,0,-2.125549,1.088447,0.\H,0,-1.777269,-1.389274,-0.882273\H
 ,0,1.804678,0.296812,-0.883239\H,0,-1.777269,-1.389274,0.882273\H,0,-0
 .479502,2.906985,0.\\Version=ES64L-G16RevC.01\State=1-A'\HF=-627.46112

 Normal termination of Gaussian 16 at Sat Apr  5 22:22:34 2025.
