 Gaussian 16, Revision C.01,

 ----------------------------------------------------------------------
 #t hf aug-cc-pvdz symm=none int=(grid=ultrafine) guess=(read,tcheck) s
 table=(opt,rrhf)
 ----------------------------------------------------------------------
 -----
 title
 -----
 Symbolic Z-matrix:
 Charge =  0 Multiplicity = 1

 SCF Done:  E(RHF) =  -383.682321754     A.U. after   15 cycles

 1\1\GINC-SE155\Stability\RHF\Aug-CC-pVDZ\C8H10O1\OHZDE\05-Apr-2025\0\\
 #t hf aug-cc-pvdz symm=none int=(grid=ultrafine) guess=(read,tcheck) s
 table=(opt,rrhf)\\title\\0,1\C,0,1.129531,-1.313585,-0.00856\C,0,-0.23
 851,-1.556011,-0.001692\C,0,0.696232,1.03898,-0.007975\C,0,1.61563,-0.
 006887,-0.009477\C,0,-1.168888,-0.520347,0.002959\C,0,-0.670298,0.7883
 04,-0.000863\C,0,3.095047,0.276324,0.010869\C,0,-2.651007,-0.783942,0.
 006802\O,0,-1.498806,1.880695,-0.001109\H,0,1.821316,-2.145686,-0.0152
 81\H,0,-0.597329,-2.578032,-0.002925\H,0,1.028405,2.069063,-0.014268\H

 Normal termination of Gaussian 16 at Sat Apr  5 22:24:02 2025.
 Gaussian 16:  ES64L-G16RevC.01  3-Jul-2019

 ----------------------------------------------------------------------
 #t hf aug-cc-pvdz iop(5/13=1,5/36=2,99/5=2) pseudo=read geom=check gue
 ss=(read,tcheck) scf=(maxcycle=1)
 ----------------------------------------------------------------------
 -----
 title
 -----
 Structure from the checkpoint file:  "2-5-dimethylphenol.chk"
 Charge =  0 Multiplicity = 1

                         Standard orientation:
 ---------------------------------------------------------------------
 Center     Atomic      Atomic             Coordinates (Angstroms)
 Number     Number       Type             X           Y           Z
 ---------------------------------------------------------------------
      1          6           0        1.129531   -1.313585   -0.008560
      2          6           0       -0.238510   -1.556011   -0.001692
      3          6           0        0.696232    1.038980   -0.007975
      4          6           0        1.615630   -0.006887   -0.009477
      5          6           0       -1.168888   -0.520347    0.002959
      6          6           0       -0.670298    0.788304   -0.000863
      7          6           0        3.095047    0.276324    0.010869
      8          6           0       -2.651007   -0.783942    0.006802
      9          8           0       -1.498806    1.880695   -0.001109
     10          1           0        1.821316   -2.145686   -0.015281
     11          1           0       -0.597329   -2.578032   -0.002925
     12          1           0        1.028405    2.069063   -0.014268
     13          1           0        3.349610    1.113290   -0.640203
     14          1           0        3.430665    0.535881    1.018029
     15          1           0        3.668352   -0.591678   -0.312831
     16          1           0       -3.141766   -0.362979    0.890092
     17          1           0       -3.146115   -0.365455   -0.875291
     18          1           0       -2.851563   -1.853728    0.008728
     19          1           0       -2.417548    1.596761    0.000440
 ---------------------------------------------------------------------

 SCF Done:  E(RHF) =  -383.799511244     A.U. after    2 cycles

 The electronic state is 1-A.
 Alpha  occ. eigenvalues --  -20.60035 -11.30561 -11.24902 -11.24561 -11.24338
 Alpha  occ. eigenvalues --  -11.24222 -11.23142 -11.22777 -11.22724  -1.36250
 Alpha  occ. eigenvalues --   -1.14268  -1.05815  -1.00008  -0.97841  -0.89989
 Alpha  occ. eigenvalues --   -0.82913  -0.81664  -0.71685  -0.67944  -0.65434
 Alpha  occ. eigenvalues --   -0.61430  -0.61342  -0.57867  -0.57493  -0.56998
 Alpha  occ. eigenvalues --   -0.56661  -0.55891  -0.53052  -0.50420  -0.48584
 Alpha  occ. eigenvalues --   -0.46987  -0.32965  -0.31063
 Alpha virt. eigenvalues --    0.03220   0.03760   0.04268   0.05534   0.05607
 Alpha virt. eigenvalues --    0.05709   0.06317   0.07449   0.08166   0.09209
 Alpha virt. eigenvalues --    0.10588   0.11075   0.11998   0.12687   0.13389

 Mulliken charges:
               1
     1  C    0.430216
     2  C    0.415407
     3  C    0.644734
     4  C    0.038189
     5  C    0.439206
     6  C   -0.669629
     7  C    0.553882
     8  C    0.440624
     9  O   -0.582736
    10  H   -0.599741
    11  H   -0.612182
    12  H   -0.613458
    13  H   -0.008265
    14  H    0.109794
    15  H   -0.127186
    16  H    0.146299
    17  H    0.145496
    18  H   -0.239576
    19  H    0.088926
 Sum of Mulliken charges =  -0.00000

 Dipole moment (field-independent basis, Debye):
    X=             -0.8539    Y=             -1.2326    Z=              0.0312  Tot=              1.4998

 Test job not archived.
 1\1\GINC-SE155\SP\RHF\Aug-CC-pVDZ\C8H10O1\OHZDE\05-Apr-2025\0\\#t hf a
 ug-cc-pvdz iop(5/13=1,5/36=2,99/5=2) pseudo=read geom=check guess=(rea
 d,tcheck) scf=(maxcycle=1)\\title\\0,1\C,0,1.129531,-1.313585,-0.00856
 \C,0,-0.23851,-1.556011,-0.001692\C,0,0.696232,1.03898,-0.007975\C,0,1
 .61563,-0.006887,-0.009477\C,0,-1.168888,-0.520347,0.002959\C,0,-0.670
 298,0.788304,-0.000863\C,0,3.095047,0.276324,0.010869\C,0,-2.651007,-0
 .783942,0.006802\O,0,-1.498806,1.880695,-0.001109\H,0,1.821316,-2.1456
 86,-0.015281\H,0,-0.597329,-2.578032,-0.002925\H,0,1.028405,2.069063,-

 Normal termination of Gaussian 16 at Sat Apr  5 22:24:11 2025.
