 Gaussian 16, Revision C.01,

 ----------------------------------------------------------------------
 #t hf aug-cc-pvdz symm=none int=(grid=ultrafine) guess=(read,tcheck) s
 table=(opt,rrhf)
 ----------------------------------------------------------------------
 -----
 title
 -----
 Symbolic Z-matrix:
 Charge =  0 Multiplicity = 1

 SCF Done:  E(RHF) =  -244.425925324     A.U. after   15 cycles
 Normal termination of Gaussian 16 at Sat Apr  5 22:22:28 2025.
 Gaussian 16:  ES64L-G16RevC.01  3-Jul-2019

 ----------------------------------------------------------------------
 #t hf aug-cc-pvdz iop(5/13=1,5/36=2,99/5=2) pseudo=read geom=check gue
 ss=(read,tcheck) scf=(maxcycle=1)
 ----------------------------------------------------------------------
 -----
 title
 -----
 Structure from the checkpoint file:  "2-5-dihydro-1-2-oxazole.chk"
 Charge =  0 Multiplicity = 1

                         Standard orientation:
 ---------------------------------------------------------------------
 Center     Atomic      Atomic             Coordinates (Angstroms)
 Number     Number       Type             X           Y           Z
 ---------------------------------------------------------------------
      1          8           0        0.216353   -1.131231   -0.000019
      2          7           0       -1.034393   -0.361706    0.000007
      3          6           0        1.141200   -0.042904    0.000000
      4          6           0       -1.003507    0.912445    0.000005
      5          6           0        0.486279    1.267076   -0.000055
      6          1           0       -1.812095   -1.012001    0.000017
      7          1           0        1.788873   -0.112785    0.883419
      8          1           0        1.789317   -0.113123   -0.883034
 ---------------------------------------------------------------------

 SCF Done:  E(RHF) =  -244.497099227     A.U. after    2 cycles

 The electronic state is 1-A.
 Alpha  occ. eigenvalues --  -20.65342 -15.77417 -11.31890 -11.30094 -11.28013
 Alpha  occ. eigenvalues --   -1.42515  -1.20177  -1.06522  -0.88142  -0.81303
 Alpha  occ. eigenvalues --   -0.70907  -0.70876  -0.64018  -0.56674  -0.56569
 Alpha  occ. eigenvalues --   -0.47163  -0.40289  -0.37115
 Alpha virt. eigenvalues --    0.01456   0.02976   0.04136   0.05129   0.08226
 Alpha virt. eigenvalues --    0.09815   0.10230   0.11967   0.12078   0.15002
 Alpha virt. eigenvalues --    0.15272   0.16805   0.16816   0.17003   0.17560

 Mulliken charges:
               1
     1  O   -0.685832
     2  N    0.202064
     3  C    0.824092
     4  C    0.086393
     5  C   -0.416412
     6  H    0.055208
     7  H   -0.032646
     8  H   -0.032868
 Sum of Mulliken charges =  -0.00000

 Dipole moment (field-independent basis, Debye):
    X=              0.5629    Y=             -3.1105    Z=              0.0002  Tot=              3.1610

 Test job not archived.
 1\1\GINC-SE223\SP\RHF\Aug-CC-pVDZ\C3H3N1O1\OHZDE\05-Apr-2025\0\\#t hf
 aug-cc-pvdz iop(5/13=1,5/36=2,99/5=2) pseudo=read geom=check guess=(re
 ad,tcheck) scf=(maxcycle=1)\\title\\0,1\O,0,0.216355,-1.131231,-0.0000
 19\N,0,-1.034393,-0.361708,0.000007\C,0,1.1412,-0.042903,0.\C,0,-1.003
 508,0.912444,0.000005\C,0,0.486277,1.267077,-0.000055\H,0,-1.812094,-1
 .012004,0.000017\H,0,1.788873,-0.112783,0.883419\H,0,1.789317,-0.11312
 1,-0.883034\\Version=ES64L-G16RevC.01\State=1-A\HF=-244.4970992\RMSD=3
 .730e-03\Dipole=0.22147,-1.2237673,0.0000772\Quadrupole=3.045163,-5.39

 Normal termination of Gaussian 16 at Sat Apr  5 22:22:32 2025.
