 Gaussian 16, Revision C.01,

 ----------------------------------------------------------------------
 #t hf aug-cc-pvdz symm=none int=(grid=ultrafine) guess=(read,tcheck) s
 table=(opt,rrhf)
 ----------------------------------------------------------------------
 -----
 title
 -----
 Symbolic Z-matrix:
 Charge =  0 Multiplicity = 1

 SCF Done:  E(RHF) =  -324.809425199     A.U. after   15 cycles
 Normal termination of Gaussian 16 at Sat Apr  5 22:23:35 2025.
 Gaussian 16:  ES64L-G16RevC.01  3-Jul-2019

 ----------------------------------------------------------------------
 #t hf aug-cc-pvdz iop(5/13=1,5/36=2,99/5=2) pseudo=read geom=check gue
 ss=(read,tcheck) scf=(maxcycle=1)
 ----------------------------------------------------------------------
 -----
 title
 -----
 Structure from the checkpoint file:  "2-5-dimethylpyridine.chk"
 Charge =  0 Multiplicity = 1

                         Standard orientation:
 ---------------------------------------------------------------------
 Center     Atomic      Atomic             Coordinates (Angstroms)
 Number     Number       Type             X           Y           Z
 ---------------------------------------------------------------------
      1          6           0       -1.178683   -0.742088    0.000000
      2          6           0        0.047290   -1.388143    0.000000
      3          6           0        0.000000    1.309459    0.000000
      4          6           0       -1.228041    0.649909    0.000000
      5          6           0        1.221409   -0.633508    0.000000
      6          6           0       -2.528268    1.405525    0.000000
      7          6           0        2.580459   -1.275923    0.000000
      8          7           0        1.185094    0.702648    0.000000
      9          1           0       -2.095720   -1.319232    0.000000
     10          1           0        0.097475   -2.468673    0.000000
     11          1           0        0.024650    2.395020    0.000000
     12          1           0       -3.128947    1.163181    0.878919
     13          1           0       -2.357997    2.481564    0.000000
     14          1           0       -3.128947    1.163181   -0.878919
     15          1           0        3.147907   -0.961093   -0.876888
     16          1           0        3.147907   -0.961093    0.876888
     17          1           0        2.513018   -2.362770    0.000000
 ---------------------------------------------------------------------

 SCF Done:  E(RHF) =  -324.906410858     A.U. after    2 cycles

 The electronic state is 1-A'.
 Alpha  occ. eigenvalues --  -15.61902 -11.28301 -11.27493 -11.25832 -11.24848
 Alpha  occ. eigenvalues --  -11.24173 -11.23934 -11.22948  -1.22765  -1.08664
 Alpha  occ. eigenvalues --   -1.05155  -0.98178  -0.90923  -0.85460  -0.80778
 Alpha  occ. eigenvalues --   -0.68812  -0.67532  -0.62923  -0.59308  -0.57805
 Alpha  occ. eigenvalues --   -0.57600  -0.56338  -0.54824  -0.53663  -0.50615
 Alpha  occ. eigenvalues --   -0.50551  -0.40237  -0.37470  -0.32795
 Alpha virt. eigenvalues --    0.03200   0.03593   0.04393   0.05278   0.05624
 Alpha virt. eigenvalues --    0.05998   0.06882   0.08071   0.08203   0.09218
 Alpha virt. eigenvalues --    0.10212   0.11878   0.12067   0.12359   0.13537

 Mulliken charges:
               1
     1  C   -0.415836
     2  C    0.701371
     3  C    0.808445
     4  C    0.024271
     5  C   -0.319197
     6  C    0.670547
     7  C    0.580092
     8  N   -0.565667
     9  H   -0.550674
    10  H   -0.516431
    11  H   -0.437122
    12  H    0.067923
    13  H   -0.154132
    14  H    0.067923
    15  H    0.069666
    16  H    0.069666
    17  H   -0.100845
 Sum of Mulliken charges =  -0.00000

 Dipole moment (field-independent basis, Debye):
    X=             -1.7628    Y=             -1.0719    Z=              0.0000  Tot=              2.0631

 Test job not archived.
 1\1\GINC-SE152\SP\RHF\Aug-CC-pVDZ\C7H9N1\OHZDE\05-Apr-2025\0\\#t hf au
 g-cc-pvdz iop(5/13=1,5/36=2,99/5=2) pseudo=read geom=check guess=(read
 ,tcheck) scf=(maxcycle=1)\\title\\0,1\C,0,-1.178683,-0.742088,0.\C,0,0
 .04729,-1.388143,0.\C,0,0.,1.309459,0.\C,0,-1.228041,0.649909,0.\C,0,1
 .221409,-0.633508,0.\C,0,-2.528268,1.405525,0.\C,0,2.580459,-1.275923,
 0.\N,0,1.185094,0.702648,0.\H,0,-2.09572,-1.319232,0.\H,0,0.097475,-2.
 468673,0.\H,0,0.02465,2.39502,0.\H,0,-3.128947,1.163181,0.878919\H,0,-
 2.357997,2.481564,0.\H,0,-3.128947,1.163181,-0.878919\H,0,3.147907,-0.

 Normal termination of Gaussian 16 at Sat Apr  5 22:23:46 2025.
