 Gaussian 16, Revision C.01,

 ----------------------------------------------------------------------
 #t hf aug-cc-pvdz symm=none int=(grid=ultrafine) guess=(read,tcheck) s
 table=(opt,rrhf)
 ----------------------------------------------------------------------
 -----
 title
 -----
 Symbolic Z-matrix:
 Charge =  0 Multiplicity = 1

 SCF Done:  E(RHF) =  -309.094820158     A.U. after   12 cycles

 1\1\GINC-SE153\Stability\RHF\Aug-CC-pVDZ\C6H12O1\OHZDE\05-Apr-2025\0\\
 #t hf aug-cc-pvdz symm=none int=(grid=ultrafine) guess=(read,tcheck) s
 table=(opt,rrhf)\\title\\0,1\C,0,0.,0.764255,-1.297167\C,0,0.,-0.76425
 5,-1.297167\C,0,-0.468541,1.090526,0.123716\C,0,0.468541,-1.090526,0.1
 23716\C,0,0.032579,2.405081,0.690505\C,0,-0.032579,-2.405081,0.690505\
 O,0,0.,0.,0.938605\H,0,1.011237,1.147828,-1.454012\H,0,-0.646734,1.200
 592,-2.057687\H,0,-1.011237,-1.147828,-1.454012\H,0,0.646734,-1.200592
 ,-2.057687\H,0,-1.565793,1.083362,0.154246\H,0,1.565793,-1.083362,0.15

 Normal termination of Gaussian 16 at Sat Apr  5 22:23:39 2025.
 Gaussian 16:  ES64L-G16RevC.01  3-Jul-2019

 ----------------------------------------------------------------------
 #t hf aug-cc-pvdz iop(5/13=1,5/36=2,99/5=2) pseudo=read geom=check gue
 ss=(read,tcheck) scf=(maxcycle=1)
 ----------------------------------------------------------------------
 -----
 title
 -----
 Structure from the checkpoint file:  "2-5-dimethyltetrahydrofuran.chk"
 Charge =  0 Multiplicity = 1

                         Standard orientation:
 ---------------------------------------------------------------------
 Center     Atomic      Atomic             Coordinates (Angstroms)
 Number     Number       Type             X           Y           Z
 ---------------------------------------------------------------------
      1          6           0       -0.000000    0.764255   -1.297167
      2          6           0       -0.000000   -0.764255   -1.297167
      3          6           0       -0.468541    1.090526    0.123716
      4          6           0        0.468541   -1.090526    0.123716
      5          6           0        0.032579    2.405081    0.690505
      6          6           0       -0.032579   -2.405081    0.690505
      7          8           0       -0.000000   -0.000000    0.938605
      8          1           0        1.011237    1.147828   -1.454012
      9          1           0       -0.646734    1.200592   -2.057687
     10          1           0       -1.011237   -1.147828   -1.454012
     11          1           0        0.646734   -1.200592   -2.057687
     12          1           0       -1.565793    1.083362    0.154246
     13          1           0        1.565793   -1.083362    0.154246
     14          1           0       -0.297960    2.529471    1.721560
     15          1           0        1.122913    2.439253    0.673182
     16          1           0       -0.351842    3.243340    0.105964
     17          1           0       -1.122913   -2.439253    0.673182
     18          1           0        0.351842   -3.243340    0.105964
     19          1           0        0.297960   -2.529471    1.721560
 ---------------------------------------------------------------------

 SCF Done:  E(RHF) =  -309.192011569     A.U. after    2 cycles

 The electronic state is 1-A.
 Alpha  occ. eigenvalues --  -20.55233 -11.28187 -11.28165 -11.23074 -11.23021
 Alpha  occ. eigenvalues --  -11.21964 -11.21963  -1.32078  -1.05285  -1.04401
 Alpha  occ. eigenvalues --   -0.96106  -0.87477  -0.80514  -0.76740  -0.68937
 Alpha  occ. eigenvalues --   -0.66293  -0.59615  -0.59537  -0.58408  -0.55659
 Alpha  occ. eigenvalues --   -0.54773  -0.52162  -0.51141  -0.50156  -0.47318
 Alpha  occ. eigenvalues --   -0.47191  -0.45735  -0.41123
 Alpha virt. eigenvalues --    0.03486   0.04294   0.04551   0.04710   0.06151
 Alpha virt. eigenvalues --    0.06321   0.06517   0.06861   0.06887   0.08701
 Alpha virt. eigenvalues --    0.09324   0.09598   0.12145   0.12681   0.13949

 Mulliken charges:
               1
     1  C    0.376677
     2  C    0.376677
     3  C    0.155358
     4  C    0.155358
     5  C    0.441149
     6  C    0.441149
     7  O   -0.759361
     8  H   -0.210606
     9  H   -0.053905
    10  H   -0.210606
    11  H   -0.053905
    12  H   -0.266208
    13  H   -0.266208
    14  H   -0.034884
    15  H   -0.031101
    16  H    0.003201
    17  H   -0.031101
    18  H    0.003201
    19  H   -0.034884
 Sum of Mulliken charges =  -0.00000

 Dipole moment (field-independent basis, Debye):
    X=              0.0000    Y=             -0.0000    Z=             -1.8243  Tot=              1.8243

 Test job not archived.
 1\1\GINC-SE153\SP\RHF\Aug-CC-pVDZ\C6H12O1\OHZDE\05-Apr-2025\0\\#t hf a
 ug-cc-pvdz iop(5/13=1,5/36=2,99/5=2) pseudo=read geom=check guess=(rea
 d,tcheck) scf=(maxcycle=1)\\title\\0,1\C,0,0.,0.764255,-1.297167\C,0,0
 .,-0.764255,-1.297167\C,0,-0.468541,1.090526,0.123716\C,0,0.468541,-1.
 090526,0.123716\C,0,0.032579,2.405081,0.690505\C,0,-0.032579,-2.405081
 ,0.690505\O,0,0.,0.,0.938605\H,0,1.011237,1.147828,-1.454012\H,0,-0.64
 6734,1.200592,-2.057687\H,0,-1.011237,-1.147828,-1.454012\H,0,0.646734
 ,-1.200592,-2.057687\H,0,-1.565793,1.083362,0.154246\H,0,1.565793,-1.0

 Normal termination of Gaussian 16 at Sat Apr  5 22:23:45 2025.
