 Gaussian 16, Revision C.01,

 ----------------------------------------------------------------------
 #t hf aug-cc-pvdz symm=none int=(grid=ultrafine) guess=(read,tcheck) s
 table=(opt,rrhf)
 ----------------------------------------------------------------------
 -----
 title
 -----
 Symbolic Z-matrix:
 Charge =  0 Multiplicity = 1

 SCF Done:  E(RHF) =  -321.581354664     A.U. after   14 cycles
 Normal termination of Gaussian 16 at Sat Apr  5 22:22:31 2025.
 Gaussian 16:  ES64L-G16RevC.01  3-Jul-2019

 ----------------------------------------------------------------------
 #t hf aug-cc-pvdz iop(5/13=1,5/36=2,99/5=2) pseudo=read geom=check gue
 ss=(read,tcheck) scf=(maxcycle=1)
 ----------------------------------------------------------------------
 -----
 title
 -----
 Structure from the checkpoint file:  "2-5H-pyridinone.chk"
 Charge =  0 Multiplicity = 1

                         Standard orientation:
 ---------------------------------------------------------------------
 Center     Atomic      Atomic             Coordinates (Angstroms)
 Number     Number       Type             X           Y           Z
 ---------------------------------------------------------------------
      1          7           0       -1.254654    0.394118    0.000000
      2          6           0        0.000000    1.081090    0.000000
      3          6           0        1.244764    0.286621    0.000000
      4          6           0        1.223615   -1.045676    0.000000
      5          6           0       -0.067291   -1.783582    0.000000
      6          6           0       -1.258745   -0.878361    0.000000
      7          8           0        0.015804    2.291171    0.000000
      8          1           0        2.166216    0.852058    0.000000
      9          1           0        2.142475   -1.619589    0.000000
     10          1           0       -0.136811   -2.456207    0.864752
     11          1           0       -2.232984   -1.368807    0.000000
     12          1           0       -0.136811   -2.456207   -0.864752
 ---------------------------------------------------------------------

 SCF Done:  E(RHF) =  -321.676873580     A.U. after    2 cycles

 The electronic state is 1-A'.
 Alpha  occ. eigenvalues --  -20.55722 -15.64237 -11.36738 -11.33117 -11.28861
 Alpha  occ. eigenvalues --  -11.28579 -11.26427  -1.35914  -1.23108  -1.10430
 Alpha  occ. eigenvalues --   -1.02296  -0.87180  -0.85805  -0.71581  -0.70627
 Alpha  occ. eigenvalues --   -0.68136  -0.64327  -0.61719  -0.60752  -0.56956
 Alpha  occ. eigenvalues --   -0.55514  -0.47740  -0.44550  -0.40894  -0.39834
 Alpha virt. eigenvalues --    0.02103   0.03440   0.04277   0.04929   0.06054
 Alpha virt. eigenvalues --    0.06721   0.09239   0.09260   0.10121   0.11819
 Alpha virt. eigenvalues --    0.12632   0.13055   0.13111   0.14169   0.14426

 Mulliken charges:
               1
     1  N   -0.411521
     2  C    0.556281
     3  C    0.711696
     4  C   -0.091318
     5  C   -0.062043
     6  C    0.650878
     7  O   -0.464794
     8  H   -0.411001
     9  H   -0.352171
    10  H    0.097578
    11  H   -0.321164
    12  H    0.097578
 Sum of Mulliken charges =  -0.00000

 Dipole moment (field-independent basis, Debye):
    X=              1.5106    Y=             -6.7014    Z=             -0.0000  Tot=              6.8696

 Test job not archived.
 1\1\GINC-SE170\SP\RHF\Aug-CC-pVDZ\C5H5N1O1\OHZDE\05-Apr-2025\0\\#t hf
 aug-cc-pvdz iop(5/13=1,5/36=2,99/5=2) pseudo=read geom=check guess=(re
 ad,tcheck) scf=(maxcycle=1)\\title\\0,1\N,0,-1.254654,0.394118,0.\C,0,
 0.,1.08109,0.\C,0,1.244764,0.286621,0.\C,0,1.223615,-1.045676,0.\C,0,-
 0.067291,-1.783582,0.\C,0,-1.258745,-0.878361,0.\O,0,0.015804,2.291171
 ,0.\H,0,2.166216,0.852058,0.\H,0,2.142475,-1.619589,0.\H,0,-0.136811,-
 2.456207,0.864752\H,0,-2.232984,-1.368807,0.\H,0,-0.136811,-2.456207,-
 0.864752\\Version=ES64L-G16RevC.01\State=1-A'\HF=-321.6768736\RMSD=8.2

 Normal termination of Gaussian 16 at Sat Apr  5 22:22:37 2025.
