 Gaussian 16, Revision C.01,

 ----------------------------------------------------------------------
 #t hf aug-cc-pvdz symm=none int=(grid=ultrafine) guess=(read,tcheck) s
 table=(opt,rrhf)
 ----------------------------------------------------------------------
 -----
 title
 -----
 Symbolic Z-matrix:
 Charge =  0 Multiplicity = 1

 SCF Done:  E(RHF) =  -379.229449348     A.U. after   12 cycles
 Normal termination of Gaussian 16 at Sat Apr  5 22:23:37 2025.
 Gaussian 16:  ES64L-G16RevC.01  3-Jul-2019

 ----------------------------------------------------------------------
 #t hf aug-cc-pvdz iop(5/13=1,5/36=2,99/5=2) pseudo=read geom=check gue
 ss=(read,tcheck) scf=(maxcycle=1)
 ----------------------------------------------------------------------
 -----
 title
 -----
 Structure from the checkpoint file:  "2-6-dioxabicyclo-3-3-0-octa-3-7-9-triene.chk"
 Charge =  0 Multiplicity = 1

                         Standard orientation:
 ---------------------------------------------------------------------
 Center     Atomic      Atomic             Coordinates (Angstroms)
 Number     Number       Type             X           Y           Z
 ---------------------------------------------------------------------
      1          6           0        1.309093    1.172916    0.000000
      2          6           0       -1.309093   -1.172916    0.000000
      3          6           0        2.068867    0.039777    0.000000
      4          6           0       -2.068867   -0.039777    0.000000
      5          6           0       -0.023065    0.680222    0.000000
      6          6           0        0.023065   -0.680222    0.000000
      7          8           0        1.309093   -1.111529    0.000000
      8          8           0       -1.309093    1.111529    0.000000
      9          1           0        1.675271    2.183812    0.000000
     10          1           0       -1.675271   -2.183812    0.000000
     11          1           0        3.132307   -0.112935    0.000000
     12          1           0       -3.132307    0.112935    0.000000
 ---------------------------------------------------------------------

 SCF Done:  E(RHF) =  -379.346991690     A.U. after    2 cycles

 The electronic state is 1-AG.
 Alpha  occ. eigenvalues --  -20.64486 -20.64485 -11.31259 -11.31258 -11.29306
 Alpha  occ. eigenvalues --  -11.29162 -11.25915 -11.25912  -1.43315  -1.41086
 Alpha  occ. eigenvalues --   -1.09346  -1.08103  -0.98817  -0.86101  -0.82017
 Alpha  occ. eigenvalues --   -0.78377  -0.72805  -0.68163  -0.67335  -0.65903
 Alpha  occ. eigenvalues --   -0.62856  -0.60308  -0.59594  -0.57484  -0.52450
 Alpha  occ. eigenvalues --   -0.41536  -0.39907  -0.29236
 Alpha virt. eigenvalues --    0.03491   0.03777   0.04455   0.05248   0.08890
 Alpha virt. eigenvalues --    0.08956   0.10683   0.10726   0.11753   0.12284
 Alpha virt. eigenvalues --    0.13195   0.13306   0.13913   0.14886   0.15201

 Mulliken charges:
               1
     1  C    1.079658
     2  C    1.079658
     3  C    0.561054
     4  C    0.561054
     5  C   -0.370689
     6  C   -0.370689
     7  O   -0.614109
     8  O   -0.614109
     9  H   -0.309693
    10  H   -0.309693
    11  H   -0.346221
    12  H   -0.346221
 Sum of Mulliken charges =  -0.00000

 Dipole moment (field-independent basis, Debye):
    X=             -0.0000    Y=             -0.0000    Z=              0.0000  Tot=              0.0000

 Test job not archived.
 1\1\GINC-SE129\SP\RHF\Aug-CC-pVDZ\C6H4O2\OHZDE\05-Apr-2025\0\\#t hf au
 g-cc-pvdz iop(5/13=1,5/36=2,99/5=2) pseudo=read geom=check guess=(read
 ,tcheck) scf=(maxcycle=1)\\title\\0,1\C,0,1.309093,1.172916,0.\C,0,-1.
 309093,-1.172916,0.\C,0,2.068867,0.039777,0.\C,0,-2.068867,-0.039777,0
 .\C,0,-0.023065,0.680222,0.\C,0,0.023065,-0.680222,0.\O,0,1.309093,-1.
 111529,0.\O,0,-1.309093,1.111529,0.\H,0,1.675271,2.183812,0.\H,0,-1.67
 5271,-2.183812,0.\H,0,3.132307,-0.112935,0.\H,0,-3.132307,0.112935,0.\
 \Version=ES64L-G16RevC.01\State=1-AG\HF=-379.3469917\RMSD=8.876e-03\Di

 Normal termination of Gaussian 16 at Sat Apr  5 22:23:44 2025.
