 Gaussian 16, Revision C.01,

 ----------------------------------------------------------------------
 #t hf aug-cc-pvdz symm=none int=(grid=ultrafine) guess=(read,tcheck) s
 table=(opt,rrhf)
 ----------------------------------------------------------------------
 -----
 title
 -----
 Symbolic Z-matrix:
 Charge =  0 Multiplicity = 1

 SCF Done:  E(RHF) =  -383.682180020     A.U. after   15 cycles

 1\1\GINC-SE028\Stability\RHF\Aug-CC-pVDZ\C8H10O1\OHZDE\05-Apr-2025\0\\
 #t hf aug-cc-pvdz symm=none int=(grid=ultrafine) guess=(read,tcheck) s
 table=(opt,rrhf)\\title\\0,1\C,0,0.029432,-2.115963,0.\C,0,-1.177779,-
 1.432184,0.\C,0,1.221499,-1.401498,0.\C,0,-1.215878,-0.038978,0.\C,0,1
 .232186,-0.009912,0.\C,0,0.,0.652782,0.\C,0,-2.522797,0.709811,0.\C,0,
 2.513155,0.776894,0.\O,0,0.045187,2.025498,0.\H,0,0.042486,-3.19709,0.
 \H,0,-2.110575,-1.981915,0.\H,0,2.16631,-1.93024,0.\H,0,-2.631669,1.34
 7832,0.882868\H,0,-2.631669,1.347832,-0.882868\H,0,-3.362725,0.017813,

 Normal termination of Gaussian 16 at Sat Apr  5 22:24:55 2025.
 Gaussian 16:  ES64L-G16RevC.01  3-Jul-2019

 ----------------------------------------------------------------------
 #t hf aug-cc-pvdz iop(5/13=1,5/36=2,99/5=2) pseudo=read geom=check gue
 ss=(read,tcheck) scf=(maxcycle=1)
 ----------------------------------------------------------------------
 -----
 title
 -----
 Structure from the checkpoint file:  "2-6-dimethylphenol.chk"
 Charge =  0 Multiplicity = 1

                         Standard orientation:
 ---------------------------------------------------------------------
 Center     Atomic      Atomic             Coordinates (Angstroms)
 Number     Number       Type             X           Y           Z
 ---------------------------------------------------------------------
      1          6           0        0.029432   -2.115963    0.000000
      2          6           0       -1.177779   -1.432184    0.000000
      3          6           0        1.221499   -1.401498    0.000000
      4          6           0       -1.215878   -0.038978    0.000000
      5          6           0        1.232186   -0.009912    0.000000
      6          6           0        0.000000    0.652782    0.000000
      7          6           0       -2.522797    0.709811    0.000000
      8          6           0        2.513155    0.776894    0.000000
      9          8           0        0.045187    2.025498    0.000000
     10          1           0        0.042486   -3.197090    0.000000
     11          1           0       -2.110575   -1.981915    0.000000
     12          1           0        2.166310   -1.930240    0.000000
     13          1           0       -2.631669    1.347832    0.882868
     14          1           0       -2.631669    1.347832   -0.882868
     15          1           0       -3.362725    0.017813    0.000000
     16          1           0        2.580324    1.426517   -0.874653
     17          1           0        2.580324    1.426517    0.874653
     18          1           0        3.374227    0.110457    0.000000
     19          1           0       -0.847434    2.382583    0.000000
 ---------------------------------------------------------------------

 SCF Done:  E(RHF) =  -383.799136801     A.U. after    2 cycles

 The electronic state is 1-A'.
 Alpha  occ. eigenvalues --  -20.60039 -11.30135 -11.24690 -11.24621 -11.24101
 Alpha  occ. eigenvalues --  -11.23895 -11.23644 -11.23123 -11.22557  -1.36266
 Alpha  occ. eigenvalues --   -1.14148  -1.05636  -1.01527  -0.94411  -0.92459
 Alpha  occ. eigenvalues --   -0.82674  -0.80105  -0.73624  -0.68183  -0.64437
 Alpha  occ. eigenvalues --   -0.61893  -0.59928  -0.58329  -0.57681  -0.56796
 Alpha  occ. eigenvalues --   -0.56381  -0.55351  -0.53269  -0.49978  -0.48529
 Alpha  occ. eigenvalues --   -0.47447  -0.32786  -0.31070
 Alpha virt. eigenvalues --    0.03198   0.03905   0.04142   0.05432   0.05486
 Alpha virt. eigenvalues --    0.05667   0.07115   0.07506   0.08068   0.08437
 Alpha virt. eigenvalues --    0.11571   0.11639   0.12259   0.12514   0.12954

 Mulliken charges:
               1
     1  C   -0.144325
     2  C    0.788993
     3  C    0.880132
     4  C    0.338856
     5  C   -0.452934
     6  C   -0.173125
     7  C    0.273920
     8  C    0.514361
     9  O   -0.643155
    10  H   -0.456043
    11  H   -0.568207
    12  H   -0.561887
    13  H    0.164566
    14  H    0.164566
    15  H   -0.251768
    16  H    0.105740
    17  H    0.105740
    18  H   -0.209674
    19  H    0.124244
 Sum of Mulliken charges =  -0.00000

 Dipole moment (field-independent basis, Debye):
    X=             -1.5064    Y=              0.0687    Z=             -0.0000  Tot=              1.5080

 Test job not archived.
 1\1\GINC-SE028\SP\RHF\Aug-CC-pVDZ\C8H10O1\OHZDE\05-Apr-2025\0\\#t hf a
 ug-cc-pvdz iop(5/13=1,5/36=2,99/5=2) pseudo=read geom=check guess=(rea
 d,tcheck) scf=(maxcycle=1)\\title\\0,1\C,0,0.029432,-2.115963,0.\C,0,-
 1.177779,-1.432184,0.\C,0,1.221499,-1.401498,0.\C,0,-1.215878,-0.03897
 8,0.\C,0,1.232186,-0.009912,0.\C,0,0.,0.652782,0.\C,0,-2.522797,0.7098
 11,0.\C,0,2.513155,0.776894,0.\O,0,0.045187,2.025498,0.\H,0,0.042486,-
 3.19709,0.\H,0,-2.110575,-1.981915,0.\H,0,2.16631,-1.93024,0.\H,0,-2.6
 31669,1.347832,0.882868\H,0,-2.631669,1.347832,-0.882868\H,0,-3.362725

 Normal termination of Gaussian 16 at Sat Apr  5 22:26:47 2025.
