 Gaussian 16, Revision C.01,

 ----------------------------------------------------------------------
 #t hf aug-cc-pvdz symm=none int=(grid=ultrafine) guess=(read,tcheck) s
 table=(opt,rrhf)
 ----------------------------------------------------------------------
 -----
 title
 -----
 Symbolic Z-matrix:
 Charge =  0 Multiplicity = 1

 SCF Done:  E(RHF) =  -419.506589191     A.U. after   15 cycles
 Normal termination of Gaussian 16 at Sat Apr  5 22:23:34 2025.
 Gaussian 16:  ES64L-G16RevC.01  3-Jul-2019

 ----------------------------------------------------------------------
 #t hf aug-cc-pvdz iop(5/13=1,5/36=2,99/5=2) pseudo=read geom=check gue
 ss=(read,tcheck) scf=(maxcycle=1)
 ----------------------------------------------------------------------
 -----
 title
 -----
 Structure from the checkpoint file:  "2-6-dimethyl-4H-pyran-4-one.chk"
 Charge =  0 Multiplicity = 1

                         Standard orientation:
 ---------------------------------------------------------------------
 Center     Atomic      Atomic             Coordinates (Angstroms)
 Number     Number       Type             X           Y           Z
 ---------------------------------------------------------------------
      1          6           0        0.000000    2.348442   -1.472492
      2          6           0        0.000000    1.181572   -0.546325
      3          6           0        0.000000    1.220509    0.796168
      4          6           0        0.000000   -0.000000    1.597720
      5          8           0        0.000000   -0.000000    2.824812
      6          8           0       -0.000000    0.000000   -1.229567
      7          6           0       -0.000000   -1.220509    0.796168
      8          6           0       -0.000000   -1.181572   -0.546325
      9          6           0       -0.000000   -2.348442   -1.472492
     10          1           0        0.879762    2.324369   -2.118001
     11          1           0        0.000000    3.279116   -0.911282
     12          1           0       -0.879762    2.324369   -2.118001
     13          1           0        0.000000    2.170852    1.309034
     14          1           0       -0.000000   -2.170852    1.309034
     15          1           0       -0.000000   -3.279116   -0.911282
     16          1           0        0.879762   -2.324369   -2.118001
     17          1           0       -0.879762   -2.324369   -2.118001
 ---------------------------------------------------------------------

 SCF Done:  E(RHF) =  -419.636810077     A.U. after    2 cycles

 The electronic state is 1-A1.
 Alpha  occ. eigenvalues --  -20.65483 -20.53117 -11.34861 -11.34824 -11.33327
 Alpha  occ. eigenvalues --  -11.26181 -11.26180 -11.24282 -11.24279  -1.43534
 Alpha  occ. eigenvalues --   -1.32074  -1.11657  -1.08692  -1.00892  -0.96285
 Alpha  occ. eigenvalues --   -0.87823  -0.82875  -0.73101  -0.72480  -0.68870
 Alpha  occ. eigenvalues --   -0.65040  -0.62463  -0.60720  -0.60384  -0.58587
 Alpha  occ. eigenvalues --   -0.57518  -0.57419  -0.55914  -0.54801  -0.54294
 Alpha  occ. eigenvalues --   -0.42266  -0.38337  -0.36544
 Alpha virt. eigenvalues --    0.02639   0.03381   0.04617   0.04722   0.05514
 Alpha virt. eigenvalues --    0.06120   0.06425   0.08128   0.09636   0.09661
 Alpha virt. eigenvalues --    0.11393   0.11844   0.12011   0.12387   0.13249

 Mulliken charges:
               1
     1  C    0.347717
     2  C   -0.038425
     3  C    0.977513
     4  C   -0.672657
     5  O   -0.529057
     6  O   -0.601673
     7  C    0.977513
     8  C   -0.038425
     9  C    0.347717
    10  H    0.092889
    11  H   -0.057596
    12  H    0.092889
    13  H   -0.513294
    14  H   -0.513294
    15  H   -0.057596
    16  H    0.092889
    17  H    0.092889
 Sum of Mulliken charges =  -0.00000

 Dipole moment (field-independent basis, Debye):
    X=             -0.0000    Y=             -0.0000    Z=             -5.6281  Tot=              5.6281

 Test job not archived.
 1\1\GINC-SE172\SP\RHF\Aug-CC-pVDZ\C7H8O2\OHZDE\05-Apr-2025\0\\#t hf au
 g-cc-pvdz iop(5/13=1,5/36=2,99/5=2) pseudo=read geom=check guess=(read
 ,tcheck) scf=(maxcycle=1)\\title\\0,1\C,0,0.,2.348442,-1.472492\C,0,0.
 ,1.181572,-0.546325\C,0,0.,1.220509,0.796168\C,0,0.,0.,1.59772\O,0,0.,
 0.,2.824812\O,0,0.,0.,-1.229567\C,0,0.,-1.220509,0.796168\C,0,0.,-1.18
 1572,-0.546325\C,0,0.,-2.348442,-1.472492\H,0,0.879762,2.324369,-2.118
 001\H,0,0.,3.279116,-0.911282\H,0,-0.879762,2.324369,-2.118001\H,0,0.,
 2.170852,1.309034\H,0,0.,-2.170852,1.309034\H,0,0.,-3.279116,-0.911282

 Normal termination of Gaussian 16 at Sat Apr  5 22:23:47 2025.
