 Gaussian 16, Revision C.01,

 ----------------------------------------------------------------------
 #t hf aug-cc-pvdz symm=none int=(grid=ultrafine) guess=(read,tcheck) s
 table=(opt,rrhf)
 ----------------------------------------------------------------------
 -----
 title
 -----
 Symbolic Z-matrix:
 Charge =  0 Multiplicity = 1

 SCF Done:  E(RHF) =  -363.849842377     A.U. after   15 cycles

 1\1\GINC-SE173\Stability\RHF\Aug-CC-pVDZ\C8H11N1\OHZDE\05-Apr-2025\0\\
 #t hf aug-cc-pvdz symm=none int=(grid=ultrafine) guess=(read,tcheck) s
 table=(opt,rrhf)\\title\\0,1\C,0,0.031636,2.12996,0.\C,0,0.02216,1.426
 629,1.197036\C,0,0.02216,1.426629,-1.197036\C,0,0.000741,0.035768,1.22
 0838\C,0,0.000741,0.035768,-1.220838\C,0,-0.014016,-0.663674,0.\C,0,0.
 000741,-0.713836,2.525634\C,0,0.000741,-0.713836,-2.525634\N,0,0.01917
 ,-2.06083,0.\H,0,0.048473,3.210934,0.\H,0,0.033219,1.964237,2.137086\H
 ,0,0.033219,1.964237,-2.137086\H,0,-0.899053,-1.326444,2.647724\H,0,0.

 Normal termination of Gaussian 16 at Sat Apr  5 22:24:44 2025.
 Gaussian 16:  ES64L-G16RevC.01  3-Jul-2019

 ----------------------------------------------------------------------
 #t hf aug-cc-pvdz iop(5/13=1,5/36=2,99/5=2) pseudo=read geom=check gue
 ss=(read,tcheck) scf=(maxcycle=1)
 ----------------------------------------------------------------------
 -----
 title
 -----
 Structure from the checkpoint file:  "2-6-dimethylaniline.chk"
 Charge =  0 Multiplicity = 1

                         Standard orientation:
 ---------------------------------------------------------------------
 Center     Atomic      Atomic             Coordinates (Angstroms)
 Number     Number       Type             X           Y           Z
 ---------------------------------------------------------------------
      1          6           0        0.031636    2.129960    0.000000
      2          6           0        0.022160    1.426629    1.197036
      3          6           0        0.022160    1.426629   -1.197036
      4          6           0        0.000741    0.035768    1.220838
      5          6           0        0.000741    0.035768   -1.220838
      6          6           0       -0.014016   -0.663674   -0.000000
      7          6           0        0.000741   -0.713836    2.525634
      8          6           0        0.000741   -0.713836   -2.525634
      9          7           0        0.019170   -2.060830   -0.000000
     10          1           0        0.048473    3.210934    0.000000
     11          1           0        0.033219    1.964237    2.137086
     12          1           0        0.033219    1.964237   -2.137086
     13          1           0       -0.899053   -1.326444    2.647724
     14          1           0        0.860065   -1.385263    2.606507
     15          1           0        0.037075   -0.025129    3.367762
     16          1           0        0.860065   -1.385263   -2.606507
     17          1           0       -0.899053   -1.326444   -2.647724
     18          1           0        0.037075   -0.025129   -3.367762
     19          1           0       -0.317355   -2.510195   -0.834773
     20          1           0       -0.317355   -2.510195    0.834773
 ---------------------------------------------------------------------

 SCF Done:  E(RHF) =  -363.959504618     A.U. after    2 cycles

 The electronic state is 1-A'.
 Alpha  occ. eigenvalues --  -15.62694 -11.27712 -11.23558 -11.23550 -11.23352
 Alpha  occ. eigenvalues --  -11.23351 -11.23125 -11.23117 -11.22227  -1.19764
 Alpha  occ. eigenvalues --   -1.11294  -1.04944  -0.99906  -0.92962  -0.92234
 Alpha  occ. eigenvalues --   -0.80161  -0.79348  -0.69730  -0.69387  -0.62999
 Alpha  occ. eigenvalues --   -0.60724  -0.59273  -0.58078  -0.57050  -0.56233
 Alpha  occ. eigenvalues --   -0.56078  -0.52914  -0.50150  -0.48848  -0.47955
 Alpha  occ. eigenvalues --   -0.44308  -0.32194  -0.28553
 Alpha virt. eigenvalues --    0.03213   0.03666   0.03995   0.05260   0.05532
 Alpha virt. eigenvalues --    0.05564   0.07217   0.07511   0.07647   0.08398
 Alpha virt. eigenvalues --    0.10856   0.11726   0.11952   0.12660   0.12910

 Mulliken charges:
               1
     1  C   -0.145814
     2  C    0.858862
     3  C    0.858862
     4  C   -0.021172
     5  C   -0.021172
     6  C   -0.222895
     7  C    0.429101
     8  C    0.429101
     9  N   -0.408750
    10  H   -0.464279
    11  H   -0.573072
    12  H   -0.573072
    13  H    0.114461
    14  H    0.127048
    15  H   -0.266499
    16  H    0.127048
    17  H    0.114461
    18  H   -0.266499
    19  H   -0.047861
    20  H   -0.047861
 Sum of Mulliken charges =   0.00000

 Dipole moment (field-independent basis, Debye):
    X=             -0.8768    Y=             -1.3357    Z=             -0.0000  Tot=              1.5978

 Test job not archived.
 1\1\GINC-SE173\SP\RHF\Aug-CC-pVDZ\C8H11N1\OHZDE\05-Apr-2025\0\\#t hf a
 ug-cc-pvdz iop(5/13=1,5/36=2,99/5=2) pseudo=read geom=check guess=(rea
 d,tcheck) scf=(maxcycle=1)\\title\\0,1\C,0,0.031636,2.12996,0.\C,0,0.0
 2216,1.426629,1.197036\C,0,0.02216,1.426629,-1.197036\C,0,0.000741,0.0
 35768,1.220838\C,0,0.000741,0.035768,-1.220838\C,0,-0.014016,-0.663674
 ,0.\C,0,0.000741,-0.713836,2.525634\C,0,0.000741,-0.713836,-2.525634\N
 ,0,0.01917,-2.06083,0.\H,0,0.048473,3.210934,0.\H,0,0.033219,1.964237,
 2.137086\H,0,0.033219,1.964237,-2.137086\H,0,-0.899053,-1.326444,2.647

 Normal termination of Gaussian 16 at Sat Apr  5 22:26:46 2025.
