 Gaussian 16, Revision C.01,

 ----------------------------------------------------------------------
 #t hf aug-cc-pvdz symm=none int=(grid=ultrafine) guess=(read,tcheck) s
 table=(opt,rrhf)
 ----------------------------------------------------------------------
 -----
 title
 -----
 Symbolic Z-matrix:
 Charge =  0 Multiplicity = 1

 SCF Done:  E(RHF) =  -742.156722933     A.U. after   15 cycles
 Normal termination of Gaussian 16 at Sat Apr  5 22:23:37 2025.
 Gaussian 16:  ES64L-G16RevC.01  3-Jul-2019

 ----------------------------------------------------------------------
 #t hf aug-cc-pvdz iop(5/13=1,5/36=2,99/5=2) pseudo=read geom=check gue
 ss=(read,tcheck) scf=(maxcycle=1)
 ----------------------------------------------------------------------
 -----
 title
 -----
 Structure from the checkpoint file:  "2-6-dimethyl-4H-pyran-4-thione.chk"
 Charge =  0 Multiplicity = 1

                         Standard orientation:
 ---------------------------------------------------------------------
 Center     Atomic      Atomic             Coordinates (Angstroms)
 Number     Number       Type             X           Y           Z
 ---------------------------------------------------------------------
      1         16           0        0.000000   -0.000000    2.851009
      2          6           0        0.000000   -0.000000    1.185615
      3          6           0        0.000000    1.206883    0.400792
      4          6           0        0.000000    2.352278   -1.861101
      5          6           0        0.000000    1.178354   -0.946461
      6          8           0        0.000000    0.000000   -1.631977
      7          6           0       -0.000000   -1.206883    0.400792
      8          6           0       -0.000000   -1.178354   -0.946461
      9          6           0       -0.000000   -2.352278   -1.861101
     10          1           0        0.000000    2.159035    0.909125
     11          1           0       -0.879753    2.334551   -2.507116
     12          1           0        0.879753    2.334551   -2.507116
     13          1           0        0.000000    3.277663   -1.291277
     14          1           0       -0.000000   -2.159035    0.909125
     15          1           0       -0.879753   -2.334551   -2.507116
     16          1           0       -0.000000   -3.277663   -1.291277
     17          1           0        0.879753   -2.334551   -2.507116
 ---------------------------------------------------------------------

 SCF Done:  E(RHF) =  -742.280288129     A.U. after    2 cycles

 The electronic state is 1-A1.
 Alpha  occ. eigenvalues --  -93.47768 -20.66669 -11.35738 -11.35700 -11.32102
 Alpha  occ. eigenvalues --  -11.26762 -11.26761 -11.25550 -11.25543  -8.77603
 Alpha  occ. eigenvalues --   -6.11835  -6.11364  -6.11235  -1.44629  -1.13236
 Alpha  occ. eigenvalues --   -1.12436  -1.02958  -0.96931  -0.95308  -0.88674
 Alpha  occ. eigenvalues --   -0.79379  -0.73299  -0.72648  -0.69663  -0.65038
 Alpha  occ. eigenvalues --   -0.61375  -0.60951  -0.59282  -0.58009  -0.57918
 Alpha  occ. eigenvalues --   -0.57850  -0.54163  -0.48490  -0.47485  -0.38726
 Alpha  occ. eigenvalues --   -0.31298  -0.30702
 Alpha virt. eigenvalues --    0.02438   0.03250   0.04213   0.04828   0.04834
 Alpha virt. eigenvalues --    0.05571   0.06140   0.06213   0.08235   0.08955
 Alpha virt. eigenvalues --    0.11136   0.11269   0.11876   0.12081   0.12141

 Mulliken charges:
               1
     1  S   -0.026453
     2  C   -1.173599
     3  C    0.958701
     4  C    0.381353
     5  C   -0.150440
     6  O   -0.554452
     7  C    0.958701
     8  C   -0.150440
     9  C    0.381353
    10  H   -0.476141
    11  H    0.106775
    12  H    0.106775
    13  H   -0.049772
    14  H   -0.476141
    15  H    0.106775
    16  H   -0.049772
    17  H    0.106775
 Sum of Mulliken charges =  -0.00000

 Dipole moment (field-independent basis, Debye):
    X=              0.0000    Y=              0.0000    Z=             -6.2422  Tot=              6.2422

 Test job not archived.
 1\1\GINC-SE171\SP\RHF\Aug-CC-pVDZ\C7H8O1S1\OHZDE\05-Apr-2025\0\\#t hf
 aug-cc-pvdz iop(5/13=1,5/36=2,99/5=2) pseudo=read geom=check guess=(re
 ad,tcheck) scf=(maxcycle=1)\\title\\0,1\S,0,0.,0.,2.851009\C,0,0.,0.,1
 .185615\C,0,0.,1.206883,0.400792\C,0,0.,2.352278,-1.861101\C,0,0.,1.17
 8354,-0.946461\O,0,0.,0.,-1.631977\C,0,0.,-1.206883,0.400792\C,0,0.,-1
 .178354,-0.946461\C,0,0.,-2.352278,-1.861101\H,0,0.,2.159035,0.909125\
 H,0,-0.879753,2.334551,-2.507116\H,0,0.879753,2.334551,-2.507116\H,0,0
 .,3.277663,-1.291277\H,0,0.,-2.159035,0.909125\H,0,-0.879753,-2.334551

 Normal termination of Gaussian 16 at Sat Apr  5 22:23:47 2025.
