 Gaussian 16, Revision C.01,

 ----------------------------------------------------------------------
 #t hf aug-cc-pvdz symm=none int=(grid=ultrafine) guess=(read,tcheck) s
 table=(opt,rrhf)
 ----------------------------------------------------------------------
 -----
 title
 -----
 Symbolic Z-matrix:
 Charge =  0 Multiplicity = 1

 SCF Done:  E(RHF) =  -324.813538925     A.U. after   14 cycles
 Normal termination of Gaussian 16 at Sat Apr  5 22:24:42 2025.
 Gaussian 16:  ES64L-G16RevC.01  3-Jul-2019

 ----------------------------------------------------------------------
 #t hf aug-cc-pvdz iop(5/13=1,5/36=2,99/5=2) pseudo=read geom=check gue
 ss=(read,tcheck) scf=(maxcycle=1)
 ----------------------------------------------------------------------
 -----
 title
 -----
 Structure from the checkpoint file:  "2-6-dimethylpyridine.chk"
 Charge =  0 Multiplicity = 1

                         Standard orientation:
 ---------------------------------------------------------------------
 Center     Atomic      Atomic             Coordinates (Angstroms)
 Number     Number       Type             X           Y           Z
 ---------------------------------------------------------------------
      1          6           0        0.000000    0.000000   -1.831849
      2          6           0        0.000000    1.195324   -1.129066
      3          6           0       -0.000000   -1.195324   -1.129066
      4          6           0        0.000000    1.155404    0.265392
      5          6           0       -0.000000   -1.155404    0.265392
      6          6           0        0.000000    2.411589    1.091716
      7          6           0       -0.000000   -2.411589    1.091716
      8          7           0       -0.000000   -0.000000    0.937784
      9          1           0        0.000000    0.000000   -2.914051
     10          1           0        0.000000    2.144159   -1.647425
     11          1           0       -0.000000   -2.144159   -1.647425
     12          1           0       -0.876787    2.436350    1.740225
     13          1           0        0.876787    2.436350    1.740225
     14          1           0        0.000000    3.304826    0.469053
     15          1           0       -0.000000   -3.304826    0.469053
     16          1           0        0.876787   -2.436350    1.740225
     17          1           0       -0.876787   -2.436350    1.740225
 ---------------------------------------------------------------------

 SCF Done:  E(RHF) =  -324.910965044     A.U. after    2 cycles

 The electronic state is 1-A1.
 Alpha  occ. eigenvalues --  -15.61353 -11.28660 -11.28646 -11.26187 -11.23706
 Alpha  occ. eigenvalues --  -11.23703 -11.23001 -11.22999  -1.22867  -1.07023
 Alpha  occ. eigenvalues --   -1.06527  -0.96879  -0.93096  -0.83219  -0.81252
 Alpha  occ. eigenvalues --   -0.68933  -0.67514  -0.62029  -0.59575  -0.57992
 Alpha  occ. eigenvalues --   -0.57315  -0.56903  -0.53731  -0.53660  -0.50583
 Alpha  occ. eigenvalues --   -0.50040  -0.40090  -0.37532  -0.33022
 Alpha virt. eigenvalues --    0.03281   0.03726   0.04166   0.05609   0.05623
 Alpha virt. eigenvalues --    0.05999   0.07680   0.07838   0.08120   0.09723
 Alpha virt. eigenvalues --    0.11091   0.11703   0.12601   0.12768   0.13197

 Mulliken charges:
               1
     1  C   -0.832339
     2  C    0.942008
     3  C    0.942008
     4  C   -0.062303
     5  C   -0.062303
     6  C    0.554694
     7  C    0.554694
     8  N   -0.584574
     9  H   -0.420889
    10  H   -0.521940
    11  H   -0.521940
    12  H    0.058441
    13  H    0.058441
    14  H   -0.110439
    15  H   -0.110439
    16  H    0.058441
    17  H    0.058441
 Sum of Mulliken charges =  -0.00000

 Dipole moment (field-independent basis, Debye):
    X=             -0.0000    Y=             -0.0000    Z=             -1.4583  Tot=              1.4583

 Test job not archived.
 1\1\GINC-SE040\SP\RHF\Aug-CC-pVDZ\C7H9N1\OHZDE\05-Apr-2025\0\\#t hf au
 g-cc-pvdz iop(5/13=1,5/36=2,99/5=2) pseudo=read geom=check guess=(read
 ,tcheck) scf=(maxcycle=1)\\title\\0,1\C,0,0.,0.,-1.831849\C,0,0.,1.195
 324,-1.129066\C,0,0.,-1.195324,-1.129066\C,0,0.,1.155404,0.265392\C,0,
 0.,-1.155404,0.265392\C,0,0.,2.411589,1.091716\C,0,0.,-2.411589,1.0917
 16\N,0,0.,0.,0.937784\H,0,0.,0.,-2.914051\H,0,0.,2.144159,-1.647425\H,
 0,0.,-2.144159,-1.647425\H,0,-0.876787,2.43635,1.740225\H,0,0.876787,2
 .43635,1.740225\H,0,0.,3.304826,0.469053\H,0,0.,-3.304826,0.469053\H,0

 Normal termination of Gaussian 16 at Sat Apr  5 22:26:45 2025.
