 Gaussian 16, Revision C.01,

 ----------------------------------------------------------------------
 #t hf aug-cc-pvdz symm=none int=(grid=ultrafine) guess=(read,tcheck) s
 table=(opt,rrhf)
 ----------------------------------------------------------------------
 -----
 title
 -----
 Symbolic Z-matrix:
 Charge =  0 Multiplicity = 1

 SCF Done:  E(RHF) =  -1024.59808129     A.U. after   14 cycles
 Normal termination of Gaussian 16 at Sat Apr  5 22:23:33 2025.
 Gaussian 16:  ES64L-G16RevC.01  3-Jul-2019

 ----------------------------------------------------------------------
 #t hf aug-cc-pvdz iop(5/13=1,5/36=2,99/5=2) pseudo=read geom=check gue
 ss=(read,tcheck) scf=(maxcycle=1)
 ----------------------------------------------------------------------
 -----
 title
 -----
 Structure from the checkpoint file:  "2-6-dithiabicyclo-3-3-0-octa-3-7-9-triene.chk"
 Charge =  0 Multiplicity = 1

                         Standard orientation:
 ---------------------------------------------------------------------
 Center     Atomic      Atomic             Coordinates (Angstroms)
 Number     Number       Type             X           Y           Z
 ---------------------------------------------------------------------
      1          6           0        1.447868    1.099623    0.000000
      2          6           0       -1.447868   -1.099623    0.000000
      3          6           0        2.286737    0.027705    0.000000
      4          6           0       -2.286737   -0.027705    0.000000
      5          6           0        0.088213    0.687881    0.000000
      6          6           0       -0.088213   -0.687881    0.000000
      7         16           0        1.447868   -1.498577    0.000000
      8         16           0       -1.447868    1.498577    0.000000
      9          1           0        1.786562    2.124058    0.000000
     10          1           0       -1.786562   -2.124058    0.000000
     11          1           0        3.363551    0.035733    0.000000
     12          1           0       -3.363551   -0.035733    0.000000
 ---------------------------------------------------------------------

 SCF Done:  E(RHF) =  -1024.70920104     A.U. after    2 cycles

 The electronic state is 1-AG.
 Alpha  occ. eigenvalues --  -93.56994 -93.56992 -11.28241 -11.28240 -11.27820
 Alpha  occ. eigenvalues --  -11.27696 -11.26244 -11.26244  -8.86751  -8.86750
 Alpha  occ. eigenvalues --   -6.20910  -6.20903  -6.20767  -6.20742  -6.20372
 Alpha  occ. eigenvalues --   -6.20367  -1.19732  -1.11324  -1.01599  -0.96447
 Alpha  occ. eigenvalues --   -0.93916  -0.80517  -0.76716  -0.72097  -0.67155
 Alpha  occ. eigenvalues --   -0.64772  -0.57295  -0.56657  -0.54134  -0.53464
 Alpha  occ. eigenvalues --   -0.49901  -0.47012  -0.46206  -0.39170  -0.32367
 Alpha  occ. eigenvalues --   -0.30652
 Alpha virt. eigenvalues --    0.03611   0.03658   0.04772   0.05253   0.08214
 Alpha virt. eigenvalues --    0.08236   0.09573   0.09690   0.10818   0.10922
 Alpha virt. eigenvalues --    0.12147   0.12484   0.12964   0.13253   0.13656

 Mulliken charges:
               1
     1  C    0.246314
     2  C    0.246314
     3  C   -0.022886
     4  C   -0.022886
     5  C   -0.365515
     6  C   -0.365515
     7  S    0.829013
     8  S    0.829013
     9  H   -0.319891
    10  H   -0.319891
    11  H   -0.367035
    12  H   -0.367035
 Sum of Mulliken charges =  -0.00000

 Dipole moment (field-independent basis, Debye):
    X=              0.0000    Y=              0.0000    Z=              0.0000  Tot=              0.0000

 Test job not archived.
 1\1\GINC-SE158\SP\RHF\Aug-CC-pVDZ\C6H4S2\OHZDE\05-Apr-2025\0\\#t hf au
 g-cc-pvdz iop(5/13=1,5/36=2,99/5=2) pseudo=read geom=check guess=(read
 ,tcheck) scf=(maxcycle=1)\\title\\0,1\C,0,1.447868,1.099623,0.\C,0,-1.
 447868,-1.099623,0.\C,0,2.286737,0.027705,0.\C,0,-2.286737,-0.027705,0
 .\C,0,0.088213,0.687881,0.\C,0,-0.088213,-0.687881,0.\S,0,1.447868,-1.
 498577,0.\S,0,-1.447868,1.498577,0.\H,0,1.786562,2.124058,0.\H,0,-1.78
 6562,-2.124058,0.\H,0,3.363551,0.035733,0.\H,0,-3.363551,-0.035733,0.\
 \Version=ES64L-G16RevC.01\State=1-AG\HF=-1024.709201\RMSD=2.542e-02\Di

 Normal termination of Gaussian 16 at Sat Apr  5 22:23:44 2025.
