 Gaussian 16, Revision C.01,

 ----------------------------------------------------------------------
 #t hf aug-cc-pvdz symm=none int=(grid=ultrafine) guess=(read,tcheck) s
 table=(opt,rrhf)
 ----------------------------------------------------------------------
 -----
 title
 -----
 Symbolic Z-matrix:
 Charge =  0 Multiplicity = 1

 SCF Done:  E(RHF) =  -444.468265143     A.U. after   14 cycles
 Normal termination of Gaussian 16 at Sat Apr  5 22:22:37 2025.
 Gaussian 16:  ES64L-G16RevC.01  3-Jul-2019

 ----------------------------------------------------------------------
 #t hf aug-cc-pvdz iop(5/13=1,5/36=2,99/5=2) pseudo=read geom=check gue
 ss=(read,tcheck) scf=(maxcycle=1)
 ----------------------------------------------------------------------
 -----
 title
 -----
 Structure from the checkpoint file:  "2-6-difluoropyridine.chk"
 Charge =  0 Multiplicity = 1

                         Standard orientation:
 ---------------------------------------------------------------------
 Center     Atomic      Atomic             Coordinates (Angstroms)
 Number     Number       Type             X           Y           Z
 ---------------------------------------------------------------------
      1          7           0        0.000000   -0.000000    1.004348
      2          6           0       -0.000000    0.000000   -1.763705
      3          6           0        0.000000    1.116033    0.313567
      4          6           0       -0.000000   -1.116033    0.313567
      5          6           0        0.000000    1.202637   -1.069047
      6          6           0       -0.000000   -1.202637   -1.069047
      7          1           0       -0.000000    0.000000   -2.844744
      8          9           0        0.000000    2.245286    1.032550
      9          9           0       -0.000000   -2.245286    1.032550
     10          1           0        0.000000    2.162100   -1.561803
     11          1           0       -0.000000   -2.162100   -1.561803
 ---------------------------------------------------------------------

 SCF Done:  E(RHF) =  -444.613547885     A.U. after    2 cycles

 The electronic state is 1-A1.
 Alpha  occ. eigenvalues --  -26.15546 -26.15544 -15.65952 -11.40399 -11.40383
 Alpha  occ. eigenvalues --  -11.30206 -11.27288 -11.27285  -1.70026  -1.69887
 Alpha  occ. eigenvalues --   -1.28573  -1.11821  -1.06602  -0.92720  -0.92394
 Alpha  occ. eigenvalues --   -0.83934  -0.81028  -0.77642  -0.76774  -0.74028
 Alpha  occ. eigenvalues --   -0.73549  -0.71223  -0.65543  -0.60739  -0.59013
 Alpha  occ. eigenvalues --   -0.57052  -0.47501  -0.42079  -0.37230
 Alpha virt. eigenvalues --    0.02578   0.03878   0.05055   0.07725   0.08359
 Alpha virt. eigenvalues --    0.09022   0.09249   0.09729   0.11560   0.12565
 Alpha virt. eigenvalues --    0.13152   0.13250   0.14313   0.14623   0.14961

 Mulliken charges:
               1
     1  N   -0.437344
     2  C   -0.127651
     3  C    0.606336
     4  C    0.606336
     5  C    0.514088
     6  C    0.514088
     7  H   -0.364297
     8  F   -0.261609
     9  F   -0.261609
    10  H   -0.394169
    11  H   -0.394169
 Sum of Mulliken charges =   0.00000

 Dipole moment (field-independent basis, Debye):
    X=              0.0000    Y=              0.0000    Z=             -4.4860  Tot=              4.4860

 Test job not archived.
 1\1\GINC-SE190\SP\RHF\Aug-CC-pVDZ\C5H3F2N1\OHZDE\05-Apr-2025\0\\#t hf
 aug-cc-pvdz iop(5/13=1,5/36=2,99/5=2) pseudo=read geom=check guess=(re
 ad,tcheck) scf=(maxcycle=1)\\title\\0,1\N,0,0.,0.,1.004348\C,0,0.,0.,-
 1.763705\C,0,0.,1.116033,0.313567\C,0,0.,-1.116033,0.313567\C,0,0.,1.2
 02637,-1.069047\C,0,0.,-1.202637,-1.069047\H,0,0.,0.,-2.844744\F,0,0.,
 2.245286,1.03255\F,0,0.,-2.245286,1.03255\H,0,0.,2.1621,-1.561803\H,0,
 0.,-2.1621,-1.561803\\Version=ES64L-G16RevC.01\State=1-A1\HF=-444.6135
 479\RMSD=1.199e-02\Dipole=0.,0.,-1.7649112\Quadrupole=-0.2939441,-1.32

 Normal termination of Gaussian 16 at Sat Apr  5 22:23:20 2025.
