 Gaussian 16, Revision C.01,

 ----------------------------------------------------------------------
 #t hf aug-cc-pvdz symm=none int=(grid=ultrafine) guess=(read,tcheck) s
 table=(opt,rrhf)
 ----------------------------------------------------------------------
 -----
 title
 -----
 Symbolic Z-matrix:
 Charge =  0 Multiplicity = 1

 SCF Done:  E(RHF) =  -339.600338905     A.U. after   13 cycles
 Normal termination of Gaussian 16 at Sat Apr  5 22:22:52 2025.
 Gaussian 16:  ES64L-G16RevC.01  3-Jul-2019

 ----------------------------------------------------------------------
 #t hf aug-cc-pvdz iop(5/13=1,5/36=2,99/5=2) pseudo=read geom=check gue
 ss=(read,tcheck) scf=(maxcycle=1)
 ----------------------------------------------------------------------
 -----
 title
 -----
 Structure from the checkpoint file:  "2-6-diazabicyclo-3-3-0-octa-3-7-9-triene.chk"
 Charge =  0 Multiplicity = 1

                         Standard orientation:
 ---------------------------------------------------------------------
 Center     Atomic      Atomic             Coordinates (Angstroms)
 Number     Number       Type             X           Y           Z
 ---------------------------------------------------------------------
      1          6           0        1.327665    1.176379    0.000000
      2          6           0       -1.327665   -1.176379    0.000000
      3          6           0        2.119092    0.047739    0.000000
      4          6           0       -2.119092   -0.047739    0.000000
      5          6           0       -0.008256    0.695795    0.000000
      6          6           0        0.008256   -0.695795    0.000000
      7          7           0        1.327665   -1.085752    0.000000
      8          7           0       -1.327665    1.085752    0.000000
      9          1           0        1.685808    2.190986    0.000000
     10          1           0       -1.685808   -2.190986    0.000000
     11          1           0        3.191771   -0.033733    0.000000
     12          1           0       -3.191771    0.033733    0.000000
     13          1           0        1.673163   -2.026299    0.000000
     14          1           0       -1.673163    2.026299    0.000000
 ---------------------------------------------------------------------

 SCF Done:  E(RHF) =  -339.700547333     A.U. after    2 cycles

 The electronic state is 1-AG.
 Alpha  occ. eigenvalues --  -15.65918 -15.65918 -11.26619 -11.26619 -11.24593
 Alpha  occ. eigenvalues --  -11.24472 -11.22388 -11.22387  -1.27184  -1.22131
 Alpha  occ. eigenvalues --   -1.03296  -1.01447  -0.94352  -0.80504  -0.79684
 Alpha  occ. eigenvalues --   -0.77422  -0.71867  -0.63570  -0.62221  -0.59457
 Alpha  occ. eigenvalues --   -0.58652  -0.57391  -0.54210  -0.51186  -0.50833
 Alpha  occ. eigenvalues --   -0.37362  -0.30356  -0.25850
 Alpha virt. eigenvalues --    0.03299   0.03309   0.03719   0.05448   0.06100
 Alpha virt. eigenvalues --    0.07708   0.10694   0.10977   0.11535   0.11933
 Alpha virt. eigenvalues --    0.13664   0.14095   0.14131   0.14524   0.14617

 Mulliken charges:
               1
     1  C    1.358550
     2  C    1.358550
     3  C    0.658764
     4  C    0.658764
     5  C   -0.634371
     6  C   -0.634371
     7  N   -0.487853
     8  N   -0.487853
     9  H   -0.409835
    10  H   -0.409835
    11  H   -0.342657
    12  H   -0.342657
    13  H   -0.142598
    14  H   -0.142598
 Sum of Mulliken charges =  -0.00000

 Dipole moment (field-independent basis, Debye):
    X=              0.0000    Y=              0.0000    Z=              0.0000  Tot=              0.0000

 Test job not archived.
 1\1\GINC-SE168\SP\RHF\Aug-CC-pVDZ\C6H6N2\OHZDE\05-Apr-2025\0\\#t hf au
 g-cc-pvdz iop(5/13=1,5/36=2,99/5=2) pseudo=read geom=check guess=(read
 ,tcheck) scf=(maxcycle=1)\\title\\0,1\C,0,1.327665,1.176379,0.\C,0,-1.
 327665,-1.176379,0.\C,0,2.119092,0.047739,0.\C,0,-2.119092,-0.047739,0
 .\C,0,-0.008256,0.695795,0.\C,0,0.008256,-0.695795,0.\N,0,1.327665,-1.
 085752,0.\N,0,-1.327665,1.085752,0.\H,0,1.685808,2.190986,0.\H,0,-1.68
 5808,-2.190986,0.\H,0,3.191771,-0.033733,0.\H,0,-3.191771,0.033733,0.\
 H,0,1.673163,-2.026299,0.\H,0,-1.673163,2.026299,0.\\Version=ES64L-G16

 Normal termination of Gaussian 16 at Sat Apr  5 22:23:21 2025.
