 Gaussian 16, Revision C.01,

 ----------------------------------------------------------------------
 #t hf aug-cc-pvdz symm=none int=(grid=ultrafine) guess=(read,tcheck) s
 table=(opt,rrhf)
 ----------------------------------------------------------------------
 -----
 title
 -----
 Symbolic Z-matrix:
 Charge =  0 Multiplicity = 1

 SCF Done:  E(RHF) =  -639.571467602     A.U. after   15 cycles
 Normal termination of Gaussian 16 at Sat Apr  5 22:23:40 2025.
 Gaussian 16:  ES64L-G16RevC.01  3-Jul-2019

 ----------------------------------------------------------------------
 #t hf aug-cc-pvdz iop(5/13=1,5/36=2,99/5=2) pseudo=read geom=check gue
 ss=(read,tcheck) scf=(maxcycle=1)
 ----------------------------------------------------------------------
 -----
 title
 -----
 Structure from the checkpoint file:  "2-amino-2-iminoethanethioamide.chk"
 Charge =  0 Multiplicity = 1

                         Standard orientation:
 ---------------------------------------------------------------------
 Center     Atomic      Atomic             Coordinates (Angstroms)
 Number     Number       Type             X           Y           Z
 ---------------------------------------------------------------------
      1         16           0       -1.746638   -0.491801   -0.024174
      2          7           0        1.069100   -1.539005    0.070067
      3          7           0       -0.321863    1.747667    0.040754
      4          7           0        2.022193    0.634247   -0.054121
      5          6           0        1.041264   -0.187875   -0.000463
      6          6           0       -0.357714    0.420697    0.009753
      7          1           0        0.188021   -2.026997    0.000787
      8          1           0        1.927591   -2.037227   -0.074943
      9          1           0        0.590765    2.186653    0.033004
     10          1           0       -1.174968    2.277579    0.029518
     11          1           0        2.927486    0.171511   -0.054209
 ---------------------------------------------------------------------

 SCF Done:  E(RHF) =  -639.661275667     A.U. after    2 cycles

 The electronic state is 1-A.
 Alpha  occ. eigenvalues --  -93.49497 -15.67607 -15.65485 -15.61634 -11.37323
 Alpha  occ. eigenvalues --  -11.36161  -8.79442  -6.13688  -6.13158  -6.13085
 Alpha  occ. eigenvalues --   -1.27783  -1.22316  -1.13175  -1.00257  -0.88105
 Alpha  occ. eigenvalues --   -0.78780  -0.75567  -0.72064  -0.69151  -0.62145
 Alpha  occ. eigenvalues --   -0.58347  -0.51314  -0.50843  -0.45751  -0.38049
 Alpha  occ. eigenvalues --   -0.34122  -0.33999
 Alpha virt. eigenvalues --    0.02774   0.03560   0.04622   0.05471   0.07124
 Alpha virt. eigenvalues --    0.07826   0.10473   0.10568   0.12418   0.13347
 Alpha virt. eigenvalues --    0.14614   0.14870   0.15662   0.15835   0.17052

 Mulliken charges:
               1
     1  S   -0.121461
     2  N   -0.129716
     3  N   -0.257057
     4  N   -0.350670
     5  C    0.478528
     6  C    0.388702
     7  H    0.034897
     8  H   -0.059030
     9  H    0.055562
    10  H    0.007246
    11  H   -0.047001
 Sum of Mulliken charges =  -0.00000

 Dipole moment (field-independent basis, Debye):
    X=              2.6047    Y=              0.1649    Z=             -0.1738  Tot=              2.6157

 Test job not archived.
 1\1\GINC-SE185\SP\RHF\Aug-CC-pVDZ\C2H5N3S1\OHZDE\05-Apr-2025\0\\#t hf
 aug-cc-pvdz iop(5/13=1,5/36=2,99/5=2) pseudo=read geom=check guess=(re
 ad,tcheck) scf=(maxcycle=1)\\title\\0,1\S,0,-1.746638,-0.491801,-0.024
 174\N,0,1.0691,-1.539005,0.070067\N,0,-0.321863,1.747667,0.040754\N,0,
 2.022193,0.634247,-0.054121\C,0,1.041264,-0.187875,-0.000463\C,0,-0.35
 7714,0.420697,0.009753\H,0,0.188021,-2.026997,0.000787\H,0,1.927591,-2
 .037227,-0.074943\H,0,0.590765,2.186653,0.033004\H,0,-1.174968,2.27757
 9,0.029518\H,0,2.927486,0.171511,-0.054209\\Version=ES64L-G16RevC.01\S

 Normal termination of Gaussian 16 at Sat Apr  5 22:23:45 2025.
