 Gaussian 16, Revision C.01,

 ----------------------------------------------------------------------
 #t hf aug-cc-pvdz symm=none int=(grid=ultrafine) guess=(read,tcheck) s
 table=(opt,rrhf)
 ----------------------------------------------------------------------
 -----
 title
 -----
 Symbolic Z-matrix:
 Charge =  0 Multiplicity = 1

 SCF Done:  E(RHF) =  -848.109559877     A.U. after   17 cycles
 Normal termination of Gaussian 16 at Sat Apr  5 22:24:42 2025.
 Gaussian 16:  ES64L-G16RevC.01  3-Jul-2019

 ----------------------------------------------------------------------
 #t hf aug-cc-pvdz iop(5/13=1,5/36=2,99/5=2) pseudo=read geom=check gue
 ss=(read,tcheck) scf=(maxcycle=1)
 ----------------------------------------------------------------------
 -----
 title
 -----
 Structure from the checkpoint file:  "2-amino-2-nitroso-3-sulfanylpropanoic_acid.chk"
 Charge =  0 Multiplicity = 1

                         Standard orientation:
 ---------------------------------------------------------------------
 Center     Atomic      Atomic             Coordinates (Angstroms)
 Number     Number       Type             X           Y           Z
 ---------------------------------------------------------------------
      1         16           0        2.590627   -0.398383    0.022037
      2          8           0       -1.809480   -1.599735   -0.671452
      3          8           0       -2.549580    0.115934    0.577774
      4          8           0       -0.025063    2.199939   -0.680860
      5          7           0       -0.181727    1.093324   -1.068444
      6          7           0       -0.043483    0.595039    1.433653
      7          6           0       -0.211472    0.021895    0.148750
      8          6           0       -1.585305   -0.610668   -0.028144
      9          6           0        0.874555   -0.989357   -0.229063
     10          1           0        2.628680   -0.584070    1.353771
     11          1           0       -3.394862   -0.321472    0.396688
     12          1           0       -0.824033    1.185978    1.685952
     13          1           0        0.803667    1.150378    1.462821
     14          1           0        0.792491   -1.224457   -1.287032
     15          1           0        0.726816   -1.911112    0.325783
 ---------------------------------------------------------------------

 SCF Done:  E(RHF) =  -848.265539619     A.U. after    2 cycles

 The electronic state is 1-A.
 Alpha  occ. eigenvalues --  -93.55243 -20.67200 -20.65354 -20.59629 -15.78683
 Alpha  occ. eigenvalues --  -15.64217 -11.43003 -11.35153 -11.29616  -8.84957
 Alpha  occ. eigenvalues --   -6.19136  -6.18922  -6.18590  -1.50719  -1.45640
 Alpha  occ. eigenvalues --   -1.35938  -1.21792  -1.07281  -1.00714  -0.91999
 Alpha  occ. eigenvalues --   -0.89183  -0.80391  -0.75933  -0.74977  -0.73632
 Alpha  occ. eigenvalues --   -0.69769  -0.67446  -0.66751  -0.63766  -0.61958
 Alpha  occ. eigenvalues --   -0.60950  -0.57666  -0.54019  -0.53203  -0.50309
 Alpha  occ. eigenvalues --   -0.47898  -0.46800  -0.39156  -0.37225
 Alpha virt. eigenvalues --    0.02940   0.03843   0.04585   0.06086   0.06342
 Alpha virt. eigenvalues --    0.06975   0.08306   0.09372   0.10300   0.10715
 Alpha virt. eigenvalues --    0.11379   0.12816   0.13229   0.13451   0.14338

 Mulliken charges:
               1
     1  S    0.360576
     2  O   -0.443853
     3  O   -0.541790
     4  O   -0.358790
     5  N   -0.241692
     6  N   -0.334071
     7  C    0.337217
     8  C    0.751473
     9  C    0.162202
    10  H    0.082254
    11  H    0.217465
    12  H    0.035879
    13  H    0.050094
    14  H    0.038442
    15  H   -0.115408
 Sum of Mulliken charges =  -0.00000

 Dipole moment (field-independent basis, Debye):
    X=             -1.2119    Y=             -0.1938    Z=              2.1925  Tot=              2.5126

 Test job not archived.
 1\1\GINC-SE220\SP\RHF\Aug-CC-pVDZ\C3H6N2O3S1\OHZDE\05-Apr-2025\0\\#t h
 f aug-cc-pvdz iop(5/13=1,5/36=2,99/5=2) pseudo=read geom=check guess=(
 read,tcheck) scf=(maxcycle=1)\\title\\0,1\S,0,2.590627,-0.398383,0.022
 037\O,0,-1.80948,-1.599735,-0.671452\O,0,-2.54958,0.115934,0.577774\O,
 0,-0.025063,2.199939,-0.68086\N,0,-0.181727,1.093324,-1.068444\N,0,-0.
 043483,0.595039,1.433653\C,0,-0.211472,0.021895,0.14875\C,0,-1.585305,
 -0.610668,-0.028144\C,0,0.874555,-0.989357,-0.229063\H,0,2.62868,-0.58
 407,1.353771\H,0,-3.394862,-0.321472,0.396688\H,0,-0.824033,1.185978,1

 Normal termination of Gaussian 16 at Sat Apr  5 22:26:46 2025.
