 Gaussian 16, Revision C.01,

 ----------------------------------------------------------------------
 #t hf aug-cc-pvdz symm=none int=(grid=ultrafine) guess=(read,tcheck) s
 table=(opt,rrhf)
 ----------------------------------------------------------------------
 -----
 title
 -----
 Symbolic Z-matrix:
 Charge =  0 Multiplicity = 1

 SCF Done:  E(RHF) =  -491.533262251     A.U. after   14 cycles
 Normal termination of Gaussian 16 at Sat Apr  5 22:24:03 2025.
 Gaussian 16:  ES64L-G16RevC.01  3-Jul-2019

 ----------------------------------------------------------------------
 #t hf aug-cc-pvdz iop(5/13=1,5/36=2,99/5=2) pseudo=read geom=check gue
 ss=(read,tcheck) scf=(maxcycle=1)
 ----------------------------------------------------------------------
 -----
 title
 -----
 Structure from the checkpoint file:  "2-amino-4-hydroxy-5-fluoropyrimidine.chk"
 Charge =  0 Multiplicity = 1

                         Standard orientation:
 ---------------------------------------------------------------------
 Center     Atomic      Atomic             Coordinates (Angstroms)
 Number     Number       Type             X           Y           Z
 ---------------------------------------------------------------------
      1          9           0       -2.432062   -0.840581   -0.001430
      2          8           0       -1.549974    1.772119    0.004185
      3          7           0        0.623463    1.045644   -0.000115
      4          7           0        1.145451   -1.283249    0.004540
      5          7           0        2.809376    0.312221   -0.053279
      6          6           0       -0.665617    0.765530   -0.000417
      7          6           0       -1.116639   -0.556241   -0.001881
      8          6           0        1.480636    0.009952   -0.004752
      9          6           0       -0.163020   -1.546056    0.003960
     10          1           0       -1.037104    2.592592    0.000511
     11          1           0        3.451036   -0.430928    0.156545
     12          1           0        3.081893    1.251498    0.171878
     13          1           0       -0.467661   -2.586310    0.010977
 ---------------------------------------------------------------------

 SCF Done:  E(RHF) =  -491.686101316     A.U. after    2 cycles

 The electronic state is 1-A.
 Alpha  occ. eigenvalues --  -26.13969 -20.63585 -15.64905 -15.63920 -15.62957
 Alpha  occ. eigenvalues --  -11.38815 -11.37958 -11.33030 -11.31784  -1.67776
 Alpha  occ. eigenvalues --   -1.41582  -1.30845  -1.18817  -1.17067  -1.05383
 Alpha  occ. eigenvalues --   -0.92753  -0.89416  -0.81225  -0.78943  -0.77963
 Alpha  occ. eigenvalues --   -0.75848  -0.72521  -0.69059  -0.65548  -0.65107
 Alpha  occ. eigenvalues --   -0.62538  -0.60135  -0.58481  -0.50982  -0.46821
 Alpha  occ. eigenvalues --   -0.42429  -0.42182  -0.33637
 Alpha virt. eigenvalues --    0.02917   0.03678   0.04029   0.06415   0.07568
 Alpha virt. eigenvalues --    0.08938   0.09476   0.10785   0.12568   0.13122
 Alpha virt. eigenvalues --    0.13316   0.13492   0.13833   0.14438   0.14988

 Mulliken charges:
               1
     1  F   -0.263796
     2  O   -0.503401
     3  N   -0.550764
     4  N   -0.572348
     5  N   -0.251669
     6  C    0.571990
     7  C    0.204972
     8  C    0.756798
     9  C    0.789363
    10  H    0.167092
    11  H   -0.019414
    12  H   -0.029146
    13  H   -0.299678
 Sum of Mulliken charges =  -0.00000

 Dipole moment (field-independent basis, Debye):
    X=              2.7632    Y=              1.2183    Z=              0.6537  Tot=              3.0898

 Test job not archived.
 1\1\GINC-SE085\SP\RHF\Aug-CC-pVDZ\C4H4F1N3O1\OHZDE\05-Apr-2025\0\\#t h
 f aug-cc-pvdz iop(5/13=1,5/36=2,99/5=2) pseudo=read geom=check guess=(
 read,tcheck) scf=(maxcycle=1)\\title\\0,1\F,0,-2.432062,-0.840581,-0.0
 0143\O,0,-1.549974,1.772119,0.004185\N,0,0.623463,1.045644,-0.000115\N
 ,0,1.145451,-1.283249,0.00454\N,0,2.809376,0.312221,-0.053279\C,0,-0.6
 65617,0.76553,-0.000417\C,0,-1.116639,-0.556241,-0.001881\C,0,1.480636
 ,0.009952,-0.004752\C,0,-0.16302,-1.546056,0.00396\H,0,-1.037104,2.592
 592,0.000511\H,0,3.451036,-0.430928,0.156545\H,0,3.081893,1.251498,0.1

 Normal termination of Gaussian 16 at Sat Apr  5 22:24:08 2025.
