 Gaussian 16, Revision C.01,

 ----------------------------------------------------------------------
 #t hf aug-cc-pvdz symm=none int=(grid=ultrafine) guess=(read,tcheck) s
 table=(opt,rrhf)
 ----------------------------------------------------------------------
 -----
 title
 -----
 Symbolic Z-matrix:
 Charge =  0 Multiplicity = 1

 SCF Done:  E(RHF) =  -519.656105747     A.U. after   14 cycles
 Normal termination of Gaussian 16 at Sat Apr  5 22:23:52 2025.
 Gaussian 16:  ES64L-G16RevC.01  3-Jul-2019

 ----------------------------------------------------------------------
 #t hf aug-cc-pvdz iop(5/13=1,5/36=2,99/5=2) pseudo=read geom=check gue
 ss=(read,tcheck) scf=(maxcycle=1)
 ----------------------------------------------------------------------
 -----
 title
 -----
 Structure from the checkpoint file:  "2-amino-3-3-difluoropropanoic_acid.chk"
 Charge =  0 Multiplicity = 1

                         Standard orientation:
 ---------------------------------------------------------------------
 Center     Atomic      Atomic             Coordinates (Angstroms)
 Number     Number       Type             X           Y           Z
 ---------------------------------------------------------------------
      1          9           0       -1.745208   -0.927739   -0.493927
      2          9           0       -1.346524    0.380082    1.235265
      3          8           0        2.196225   -0.085244    0.474269
      4          8           0        0.848450   -1.764507   -0.054074
      5          7           0        0.475358    1.931411   -0.401493
      6          6           0        0.139589    0.538365   -0.608811
      7          6           0       -1.288396    0.325650   -0.123236
      8          6           0        1.157136   -0.455672    0.009476
      9          1           0       -0.057623   -1.892498   -0.368997
     10          1           0        1.337386    2.150616   -0.884107
     11          1           0        0.664237    2.091296    0.582030
     12          1           0        0.119355    0.341464   -1.684857
     13          1           0       -1.972645    1.066109   -0.531789
 ---------------------------------------------------------------------

 SCF Done:  E(RHF) =  -519.826959356     A.U. after    2 cycles

 The electronic state is 1-A.
 Alpha  occ. eigenvalues --  -26.17239 -26.16410 -20.63518 -20.57698 -15.64350
 Alpha  occ. eigenvalues --  -11.45352 -11.41473 -11.32982  -1.73036  -1.68589
 Alpha  occ. eigenvalues --   -1.43566  -1.34775  -1.20763  -1.05847  -0.95432
 Alpha  occ. eigenvalues --   -0.86638  -0.85461  -0.84328  -0.81243  -0.76588
 Alpha  occ. eigenvalues --   -0.75908  -0.73001  -0.70668  -0.69205  -0.66107
 Alpha  occ. eigenvalues --   -0.65040  -0.61109  -0.60202  -0.56352  -0.51180
 Alpha  occ. eigenvalues --   -0.49100  -0.43571
 Alpha virt. eigenvalues --    0.02841   0.04169   0.04360   0.05288   0.07497
 Alpha virt. eigenvalues --    0.09301   0.10321   0.10734   0.11284   0.13357
 Alpha virt. eigenvalues --    0.13511   0.13989   0.14801   0.15152   0.16105

 Mulliken charges:
               1
     1  F   -0.405713
     2  F   -0.352127
     3  O   -0.424054
     4  O   -0.498576
     5  N   -0.314672
     6  C    0.022233
     7  C    1.092390
     8  C    0.718319
     9  H    0.218231
    10  H    0.024351
    11  H    0.071045
    12  H    0.019456
    13  H   -0.170883
 Sum of Mulliken charges =  -0.00000

 Dipole moment (field-independent basis, Debye):
    X=             -2.2736    Y=              1.5929    Z=             -2.9390  Tot=              4.0428

 Test job not archived.
 1\1\GINC-SE047\SP\RHF\Aug-CC-pVDZ\C3H5F2N1O2\OHZDE\05-Apr-2025\0\\#t h
 f aug-cc-pvdz iop(5/13=1,5/36=2,99/5=2) pseudo=read geom=check guess=(
 read,tcheck) scf=(maxcycle=1)\\title\\0,1\F,0,-1.745208,-0.927739,-0.4
 93927\F,0,-1.346524,0.380082,1.235265\O,0,2.196225,-0.085244,0.474269\
 O,0,0.84845,-1.764507,-0.054074\N,0,0.475358,1.931411,-0.401493\C,0,0.
 139589,0.538365,-0.608811\C,0,-1.288396,0.32565,-0.123236\C,0,1.157136
 ,-0.455672,0.009476\H,0,-0.057623,-1.892498,-0.368997\H,0,1.337386,2.1
 50616,-0.884107\H,0,0.664237,2.091296,0.58203\H,0,0.119355,0.341464,-1

 Normal termination of Gaussian 16 at Sat Apr  5 22:23:56 2025.
