 Gaussian 16, Revision C.01,

 ----------------------------------------------------------------------
 #t hf aug-cc-pvdz symm=none int=(grid=ultrafine) guess=(read,tcheck) s
 table=(opt,rrhf)
 ----------------------------------------------------------------------
 -----
 title
 -----
 Symbolic Z-matrix:
 Charge =  0 Multiplicity = 1

 SCF Done:  E(RHF) =  -677.423827996     A.U. after   16 cycles
 Normal termination of Gaussian 16 at Sat Apr  5 22:23:39 2025.
 Gaussian 16:  ES64L-G16RevC.01  3-Jul-2019

 ----------------------------------------------------------------------
 #t hf aug-cc-pvdz iop(5/13=1,5/36=2,99/5=2) pseudo=read geom=check gue
 ss=(read,tcheck) scf=(maxcycle=1)
 ----------------------------------------------------------------------
 -----
 title
 -----
 Structure from the checkpoint file:  "2-amino-2-cyanoethanethioamide.chk"
 Charge =  0 Multiplicity = 1

                         Standard orientation:
 ---------------------------------------------------------------------
 Center     Atomic      Atomic             Coordinates (Angstroms)
 Number     Number       Type             X           Y           Z
 ---------------------------------------------------------------------
      1         16           0       -1.950591   -0.686147   -0.303940
      2          7           0        1.432922    1.428952   -0.545421
      3          7           0       -0.711841    1.245188    1.046284
      4          7           0        2.117170   -1.659656    0.627854
      5          6           0        0.684478    0.164121   -0.583266
      6          6           0       -0.693718    0.297052    0.111210
      7          6           0        1.467167   -0.871492    0.100755
      8          1           0        0.479303   -0.201586   -1.591769
      9          1           0        1.137544    2.029439   -1.305751
     10          1           0        2.426777    1.267897   -0.644579
     11          1           0       -1.552470    1.410472    1.572884
     12          1           0        0.102983    1.832653    1.159037
 ---------------------------------------------------------------------

 SCF Done:  E(RHF) =  -677.523846687     A.U. after    2 cycles

 The electronic state is 1-A.
 Alpha  occ. eigenvalues --  -93.49840 -15.68912 -15.66948 -15.65927 -11.38317
 Alpha  occ. eigenvalues --  -11.35931 -11.30554  -8.79777  -6.14027  -6.13506
 Alpha  occ. eigenvalues --   -6.13380  -1.27400  -1.22023  -1.19218  -1.04527
 Alpha  occ. eigenvalues --   -0.96232  -0.83119  -0.77059  -0.74683  -0.68203
 Alpha  occ. eigenvalues --   -0.65858  -0.64732  -0.56626  -0.54028  -0.52344
 Alpha  occ. eigenvalues --   -0.49094  -0.48103  -0.45314  -0.34872  -0.34050
 Alpha virt. eigenvalues --    0.01949   0.03153   0.04258   0.05169   0.07041
 Alpha virt. eigenvalues --    0.07150   0.08868   0.10033   0.10675   0.12366
 Alpha virt. eigenvalues --    0.13107   0.13159   0.14218   0.14960   0.15515

 Mulliken charges:
               1
     1  S   -0.058987
     2  N   -0.449663
     3  N   -0.264937
     4  N   -0.144958
     5  C    0.897440
     6  C    0.232859
     7  C   -0.411194
     8  H    0.030834
     9  H    0.043509
    10  H    0.064168
    11  H    0.000020
    12  H    0.060910
 Sum of Mulliken charges =  -0.00000

 Dipole moment (field-independent basis, Debye):
    X=              1.3515    Y=              5.6138    Z=             -1.0285  Tot=              5.8651

 Test job not archived.
 1\1\GINC-SE180\SP\RHF\Aug-CC-pVDZ\C3H5N3S1\OHZDE\05-Apr-2025\0\\#t hf
 aug-cc-pvdz iop(5/13=1,5/36=2,99/5=2) pseudo=read geom=check guess=(re
 ad,tcheck) scf=(maxcycle=1)\\title\\0,1\S,0,-1.950591,-0.686147,-0.303
 94\N,0,1.432922,1.428952,-0.545421\N,0,-0.711841,1.245188,1.046284\N,0
 ,2.11717,-1.659656,0.627854\C,0,0.684478,0.164121,-0.583266\C,0,-0.693
 718,0.297052,0.11121\C,0,1.467167,-0.871492,0.100755\H,0,0.479303,-0.2
 01586,-1.591769\H,0,1.137544,2.029439,-1.305751\H,0,2.426777,1.267897,
 -0.644579\H,0,-1.55247,1.410472,1.572884\H,0,0.102983,1.832653,1.15903

 Normal termination of Gaussian 16 at Sat Apr  5 22:23:45 2025.
