 Gaussian 16, Revision C.01,

 ----------------------------------------------------------------------
 #t hf aug-cc-pvdz symm=none int=(grid=ultrafine) guess=(read,tcheck) s
 table=(opt,rrhf)
 ----------------------------------------------------------------------
 -----
 title
 -----
 Symbolic Z-matrix:
 Charge =  0 Multiplicity = 1

 SCF Done:  E(RHF) =  -469.455911468     A.U. after   17 cycles
 Normal termination of Gaussian 16 at Sat Apr  5 22:24:44 2025.
 Gaussian 16:  ES64L-G16RevC.01  3-Jul-2019

 ----------------------------------------------------------------------
 #t hf aug-cc-pvdz iop(5/13=1,5/36=2,99/5=2) pseudo=read geom=check gue
 ss=(read,tcheck) scf=(maxcycle=1)
 ----------------------------------------------------------------------
 -----
 title
 -----
 Structure from the checkpoint file:  "2-azidocyclopentene-1-carbaldehyde.chk"
 Charge =  0 Multiplicity = 1

                         Standard orientation:
 ---------------------------------------------------------------------
 Center     Atomic      Atomic             Coordinates (Angstroms)
 Number     Number       Type             X           Y           Z
 ---------------------------------------------------------------------
      1          8           0       -2.841359   -1.632448   -0.003270
      2          7           0        1.285402   -0.975322   -0.019771
      3          7           0        2.484031   -0.680505   -0.010863
      4          7           0        3.605627   -0.567935   -0.006143
      5          6           0        0.339502    0.047766    0.013908
      6          6           0       -0.993794   -0.172117    0.008810
      7          6           0        0.682021    1.512322    0.110918
      8          6           0       -1.750128    1.127746    0.107057
      9          6           0       -0.671031    2.199116   -0.176680
     10          6           0       -1.636105   -1.476759   -0.036351
     11          1           0        1.467801    1.806010   -0.588127
     12          1           0        1.055913    1.737532    1.115662
     13          1           0       -2.583844    1.169965   -0.593065
     14          1           0       -2.183781    1.237766    1.105376
     15          1           0       -0.710080    2.486415   -1.227487
     16          1           0       -0.808422    3.103763    0.412368
     17          1           0       -0.954916   -2.343981   -0.107093
 ---------------------------------------------------------------------

 SCF Done:  E(RHF) =  -469.595442064     A.U. after    2 cycles

 The electronic state is 1-A.
 Alpha  occ. eigenvalues --  -20.56013 -15.88417 -15.77291 -15.70791 -11.33560
 Alpha  occ. eigenvalues --  -11.32767 -11.26818 -11.25153 -11.24788 -11.24413
 Alpha  occ. eigenvalues --   -1.48893  -1.34388  -1.30551  -1.15573  -1.02205
 Alpha  occ. eigenvalues --   -0.99391  -0.88062  -0.85078  -0.79923  -0.73235
 Alpha  occ. eigenvalues --   -0.72634  -0.71786  -0.68846  -0.66495  -0.65251
 Alpha  occ. eigenvalues --   -0.59694  -0.58400  -0.58070  -0.55156  -0.52712
 Alpha  occ. eigenvalues --   -0.50806  -0.50572  -0.46687  -0.46291  -0.42919
 Alpha  occ. eigenvalues --   -0.33251
 Alpha virt. eigenvalues --    0.02851   0.03918   0.04137   0.04639   0.06222
 Alpha virt. eigenvalues --    0.06589   0.06636   0.07416   0.07846   0.09430
 Alpha virt. eigenvalues --    0.10461   0.11056   0.11724   0.12499   0.13102

 Mulliken charges:
               1
     1  O   -0.580922
     2  N   -0.794168
     3  N    0.522974
     4  N   -0.295314
     5  C   -0.090235
     6  C   -0.445634
     7  C    0.449685
     8  C    0.039865
     9  C    0.564098
    10  C    0.930391
    11  H    0.004987
    12  H    0.022447
    13  H    0.037471
    14  H    0.079946
    15  H   -0.100228
    16  H   -0.085047
    17  H   -0.260315
 Sum of Mulliken charges =  -0.00000

 Dipole moment (field-independent basis, Debye):
    X=              3.8460    Y=              3.0640    Z=              0.0606  Tot=              4.9176

 Test job not archived.
 1\1\GINC-SE194\SP\RHF\Aug-CC-pVDZ\C6H7N3O1\OHZDE\05-Apr-2025\0\\#t hf
 aug-cc-pvdz iop(5/13=1,5/36=2,99/5=2) pseudo=read geom=check guess=(re
 ad,tcheck) scf=(maxcycle=1)\\title\\0,1\O,0,-2.841359,-1.632448,-0.003
 27\N,0,1.285402,-0.975322,-0.019771\N,0,2.484031,-0.680505,-0.010863\N
 ,0,3.605627,-0.567935,-0.006143\C,0,0.339502,0.047766,0.013908\C,0,-0.
 993794,-0.172117,0.00881\C,0,0.682021,1.512322,0.110918\C,0,-1.750128,
 1.127746,0.107057\C,0,-0.671031,2.199116,-0.17668\C,0,-1.636105,-1.476
 759,-0.036351\H,0,1.467801,1.80601,-0.588127\H,0,1.055913,1.737532,1.1

 Normal termination of Gaussian 16 at Sat Apr  5 22:26:48 2025.
