 Gaussian 16, Revision C.01,

 ----------------------------------------------------------------------
 #t hf aug-cc-pvdz symm=none int=(grid=ultrafine) guess=(read,tcheck) s
 table=(opt,rrhf)
 ----------------------------------------------------------------------
 -----
 title
 -----
 Symbolic Z-matrix:
 Charge =  0 Multiplicity = 1

 SCF Done:  E(RHF) =  -398.096540600     A.U. after   15 cycles

 1\1\GINC-SE187\Stability\RHF\Aug-CC-pVDZ\C6H13N3\OHZDE\05-Apr-2025\0\\
 #t hf aug-cc-pvdz symm=none int=(grid=ultrafine) guess=(read,tcheck) s
 table=(opt,rrhf)\\title\\0,1\N,0,0.859731,-0.762092,-0.40339\N,0,2.049
 387,-0.946307,-0.188347\N,0,3.137721,-1.220267,-0.036056\C,0,0.291648,
 0.571345,0.01207\C,0,-1.196524,0.509338,-0.367515\C,0,0.982348,1.68295
 ,-0.785949\C,0,0.502842,0.782356,1.515246\C,0,-2.032716,-0.571619,0.31
 84\C,0,-3.460252,-0.628326,-0.225082\H,0,-1.25303,0.365417,-1.449882\H
 ,0,-1.630745,1.492153,-0.162114\H,0,0.564501,2.654726,-0.520022\H,0,2.

 Normal termination of Gaussian 16 at Sat Apr  5 22:25:10 2025.
 Gaussian 16:  ES64L-G16RevC.01  3-Jul-2019

 ----------------------------------------------------------------------
 #t hf aug-cc-pvdz iop(5/13=1,5/36=2,99/5=2) pseudo=read geom=check gue
 ss=(read,tcheck) scf=(maxcycle=1)
 ----------------------------------------------------------------------
 -----
 title
 -----
 Structure from the checkpoint file:  "2-azido-2-methylpentane.chk"
 Charge =  0 Multiplicity = 1

                         Standard orientation:
 ---------------------------------------------------------------------
 Center     Atomic      Atomic             Coordinates (Angstroms)
 Number     Number       Type             X           Y           Z
 ---------------------------------------------------------------------
      1          7           0        0.859731   -0.762092   -0.403390
      2          7           0        2.049387   -0.946307   -0.188347
      3          7           0        3.137721   -1.220267   -0.036056
      4          6           0        0.291648    0.571345    0.012070
      5          6           0       -1.196524    0.509338   -0.367515
      6          6           0        0.982348    1.682950   -0.785949
      7          6           0        0.502842    0.782356    1.515246
      8          6           0       -2.032716   -0.571619    0.318400
      9          6           0       -3.460252   -0.628326   -0.225082
     10          1           0       -1.253030    0.365417   -1.449882
     11          1           0       -1.630745    1.492153   -0.162114
     12          1           0        0.564501    2.654726   -0.520022
     13          1           0        2.052937    1.712880   -0.577082
     14          1           0        0.845343    1.530789   -1.856315
     15          1           0        0.024062    1.708878    1.835252
     16          1           0        1.564949    0.858780    1.752680
     17          1           0        0.084771   -0.038464    2.094828
     18          1           0       -1.547898   -1.539559    0.179221
     19          1           0       -2.067572   -0.392248    1.395396
     20          1           0       -3.978282    0.323071   -0.084883
     21          1           0       -3.466515   -0.852334   -1.293656
     22          1           0       -4.044468   -1.399694    0.278104
 ---------------------------------------------------------------------

 SCF Done:  E(RHF) =  -398.218364494     A.U. after    2 cycles

 The electronic state is 1-A.
 Alpha  occ. eigenvalues --  -15.84437 -15.72257 -15.66205 -11.29982 -11.23537
 Alpha  occ. eigenvalues --  -11.23522 -11.23397 -11.22699 -11.22295  -1.44515
 Alpha  occ. eigenvalues --   -1.25798  -1.10075  -1.03249  -0.94801  -0.93057
 Alpha  occ. eigenvalues --   -0.84412  -0.80510  -0.69626  -0.69267  -0.68707
 Alpha  occ. eigenvalues --   -0.65097  -0.62769  -0.61132  -0.59654  -0.56814
 Alpha  occ. eigenvalues --   -0.56287  -0.55336  -0.53518  -0.52577  -0.50959
 Alpha  occ. eigenvalues --   -0.47770  -0.47094  -0.46455  -0.41375  -0.36312
 Alpha virt. eigenvalues --    0.03205   0.03719   0.03965   0.05081   0.05941
 Alpha virt. eigenvalues --    0.06238   0.06694   0.06896   0.07788   0.08496
 Alpha virt. eigenvalues --    0.09090   0.09550   0.10443   0.10934   0.12628

 Mulliken charges:
               1
     1  N   -0.702549
     2  N    0.542209
     3  N   -0.372418
     4  C   -2.681058
     5  C    0.714844
     6  C    1.327093
     7  C    1.139076
     8  C    0.347394
     9  C    0.530228
    10  H   -0.097553
    11  H   -0.118079
    12  H    0.029735
    13  H   -0.041691
    14  H   -0.013851
    15  H    0.009181
    16  H   -0.044144
    17  H   -0.040143
    18  H   -0.147199
    19  H   -0.195821
    20  H   -0.064909
    21  H   -0.071455
    22  H   -0.048889
 Sum of Mulliken charges =   0.00000

 Dipole moment (field-independent basis, Debye):
    X=             -1.2337    Y=              1.8493    Z=              0.5711  Tot=              2.2952

 Test job not archived.
 1\1\GINC-SE187\SP\RHF\Aug-CC-pVDZ\C6H13N3\OHZDE\05-Apr-2025\0\\#t hf a
 ug-cc-pvdz iop(5/13=1,5/36=2,99/5=2) pseudo=read geom=check guess=(rea
 d,tcheck) scf=(maxcycle=1)\\title\\0,1\N,0,0.859731,-0.762092,-0.40339
 \N,0,2.049387,-0.946307,-0.188347\N,0,3.137721,-1.220267,-0.036056\C,0
 ,0.291648,0.571345,0.01207\C,0,-1.196524,0.509338,-0.367515\C,0,0.9823
 48,1.68295,-0.785949\C,0,0.502842,0.782356,1.515246\C,0,-2.032716,-0.5
 71619,0.3184\C,0,-3.460252,-0.628326,-0.225082\H,0,-1.25303,0.365417,-
 1.449882\H,0,-1.630745,1.492153,-0.162114\H,0,0.564501,2.654726,-0.520

 Normal termination of Gaussian 16 at Sat Apr  5 22:26:51 2025.
