 Gaussian 16, Revision C.01,

 ----------------------------------------------------------------------
 #t hf aug-cc-pvdz symm=none int=(grid=ultrafine) guess=(read,tcheck) s
 table=(opt,rrhf)
 ----------------------------------------------------------------------
 -----
 title
 -----
 Symbolic Z-matrix:
 Charge =  0 Multiplicity = 1

 SCF Done:  E(RHF) =  -714.027947301     A.U. after   18 cycles
 Normal termination of Gaussian 16 at Sat Apr  5 22:23:37 2025.
 Gaussian 16:  ES64L-G16RevC.01  3-Jul-2019

 ----------------------------------------------------------------------
 #t hf aug-cc-pvdz iop(5/13=1,5/36=2,99/5=2) pseudo=read geom=check gue
 ss=(read,tcheck) scf=(maxcycle=1)
 ----------------------------------------------------------------------
 -----
 title
 -----
 Structure from the checkpoint file:  "2-azidothiophene.chk"
 Charge =  0 Multiplicity = 1

                         Standard orientation:
 ---------------------------------------------------------------------
 Center     Atomic      Atomic             Coordinates (Angstroms)
 Number     Number       Type             X           Y           Z
 ---------------------------------------------------------------------
      1         16           0       -1.312415   -1.115521   -0.000006
      2          7           0        1.348922   -0.797364    0.000029
      3          7           0        2.371560   -0.112910   -0.000008
      4          7           0        3.375724    0.402319   -0.000020
      5          6           0        0.117911   -0.130110    0.000011
      6          6           0       -0.182896    1.205002    0.000013
      7          6           0       -2.320123    0.290783   -0.000010
      8          6           0       -1.585097    1.436766    0.000000
      9          1           0        0.562508    1.986411    0.000024
     10          1           0       -3.390599    0.180287   -0.000019
     11          1           0       -2.025487    2.422671    0.000000
 ---------------------------------------------------------------------

 SCF Done:  E(RHF) =  -714.143839438     A.U. after    2 cycles

 The electronic state is 1-A.
 Alpha  occ. eigenvalues --  -93.57393 -15.87341 -15.76258 -15.70168 -11.33364
 Alpha  occ. eigenvalues --  -11.27614 -11.25872 -11.25393  -8.87219  -6.21341
 Alpha  occ. eigenvalues --   -6.21204  -6.20830  -1.47853  -1.29738  -1.16969
 Alpha  occ. eigenvalues --   -1.01013  -0.99130  -0.86287  -0.78295  -0.72652
 Alpha  occ. eigenvalues --   -0.72164  -0.70886  -0.67981  -0.63421  -0.57687
 Alpha  occ. eigenvalues --   -0.54923  -0.54788  -0.48615  -0.46437  -0.44320
 Alpha  occ. eigenvalues --   -0.35990  -0.30723
 Alpha virt. eigenvalues --    0.03329   0.04229   0.05504   0.07049   0.08209
 Alpha virt. eigenvalues --    0.08358   0.10243   0.10477   0.11662   0.12819
 Alpha virt. eigenvalues --    0.12873   0.13381   0.13835   0.14382   0.14416

 Mulliken charges:
               1
     1  S    0.728222
     2  N   -0.743557
     3  N    0.466910
     4  N   -0.273211
     5  C    0.250829
     6  C    0.493429
     7  C   -0.104333
     8  C    0.258615
     9  H   -0.418872
    10  H   -0.352786
    11  H   -0.305246
 Sum of Mulliken charges =   0.00000

 Dipole moment (field-independent basis, Debye):
    X=             -0.7636    Y=              1.4466    Z=             -0.0000  Tot=              1.6357

 Test job not archived.
 1\1\GINC-SE199\SP\RHF\Aug-CC-pVDZ\C4H3N3S1\OHZDE\05-Apr-2025\0\\#t hf
 aug-cc-pvdz iop(5/13=1,5/36=2,99/5=2) pseudo=read geom=check guess=(re
 ad,tcheck) scf=(maxcycle=1)\\title\\0,1\S,0,-1.312415,-1.115521,-0.000
 006\N,0,1.348922,-0.797364,0.000029\N,0,2.37156,-0.11291,-0.000008\N,0
 ,3.375724,0.402319,-0.00002\C,0,0.117911,-0.13011,0.000011\C,0,-0.1828
 96,1.205002,0.000013\C,0,-2.320123,0.290783,-0.00001\C,0,-1.585097,1.4
 36766,0.\H,0,0.562508,1.986411,0.000024\H,0,-3.390599,0.180287,-0.0000
 19\H,0,-2.025487,2.422671,0.\\Version=ES64L-G16RevC.01\State=1-A\HF=-7

 Normal termination of Gaussian 16 at Sat Apr  5 22:23:45 2025.
