 Gaussian 16, Revision C.01,

 ----------------------------------------------------------------------
 #t hf aug-cc-pvdz symm=none int=(grid=ultrafine) guess=(read,tcheck) s
 table=(opt,rrhf)
 ----------------------------------------------------------------------
 -----
 title
 -----
 Symbolic Z-matrix:
 Charge =  0 Multiplicity = 1

 SCF Done:  E(RHF) =  -453.345984396     A.U. after   13 cycles
 Normal termination of Gaussian 16 at Sat Apr  5 22:23:35 2025.
 Gaussian 16:  ES64L-G16RevC.01  3-Jul-2019

 ----------------------------------------------------------------------
 #t hf aug-cc-pvdz iop(5/13=1,5/36=2,99/5=2) pseudo=read geom=check gue
 ss=(read,tcheck) scf=(maxcycle=1)
 ----------------------------------------------------------------------
 -----
 title
 -----
 Structure from the checkpoint file:  "2-butenedioic_acid.chk"
 Charge =  0 Multiplicity = 1

                         Standard orientation:
 ---------------------------------------------------------------------
 Center     Atomic      Atomic             Coordinates (Angstroms)
 Number     Number       Type             X           Y           Z
 ---------------------------------------------------------------------
      1          6           0        0.031152    1.911320    0.000000
      2          6           0        0.450591    0.488912    0.000000
      3          6           0       -0.450591   -0.488912    0.000000
      4          6           0       -0.031152   -1.911320    0.000000
      5          8           0        1.105518   -2.312587    0.000000
      6          8           0       -1.105518    2.312587    0.000000
      7          8           0        1.105518    2.733674    0.000000
      8          8           0       -1.105518   -2.733674    0.000000
      9          1           0        1.509349    0.269845    0.000000
     10          1           0       -1.509349   -0.269845    0.000000
     11          1           0        0.771942    3.643174    0.000000
     12          1           0       -0.771942   -3.643174    0.000000
 ---------------------------------------------------------------------

 SCF Done:  E(RHF) =  -453.489473361     A.U. after    2 cycles

 The electronic state is 1-AG.
 Alpha  occ. eigenvalues --  -20.64329 -20.64329 -20.58296 -20.58296 -11.42307
 Alpha  occ. eigenvalues --  -11.42307 -11.29498 -11.29329  -1.44403  -1.44311
 Alpha  occ. eigenvalues --   -1.34610  -1.34560  -1.11400  -0.97309  -0.87915
 Alpha  occ. eigenvalues --   -0.78512  -0.76015  -0.73900  -0.72594  -0.69847
 Alpha  occ. eigenvalues --   -0.66880  -0.66158  -0.63583  -0.62359  -0.59056
 Alpha  occ. eigenvalues --   -0.52808  -0.52223  -0.49738  -0.49420  -0.42590
 Alpha virt. eigenvalues --    0.02879   0.03142   0.03699   0.05633   0.05660
 Alpha virt. eigenvalues --    0.08971   0.10334   0.10654   0.11511   0.12644
 Alpha virt. eigenvalues --    0.13170   0.14208   0.14359   0.15216   0.16143

 Mulliken charges:
               1
     1  C    0.245977
     2  C    0.859352
     3  C    0.859352
     4  C    0.245977
     5  O   -0.454585
     6  O   -0.454585
     7  O   -0.524477
     8  O   -0.524477
     9  H   -0.364241
    10  H   -0.364241
    11  H    0.237974
    12  H    0.237974
 Sum of Mulliken charges =  -0.00000

 Dipole moment (field-independent basis, Debye):
    X=             -0.0000    Y=             -0.0000    Z=              0.0000  Tot=              0.0000

 Test job not archived.
 1\1\GINC-SE106\SP\RHF\Aug-CC-pVDZ\C4H4O4\OHZDE\05-Apr-2025\0\\#t hf au
 g-cc-pvdz iop(5/13=1,5/36=2,99/5=2) pseudo=read geom=check guess=(read
 ,tcheck) scf=(maxcycle=1)\\title\\0,1\C,0,0.031152,1.91132,0.\C,0,0.45
 0591,0.488912,0.\C,0,-0.450591,-0.488912,0.\C,0,-0.031152,-1.91132,0.\
 O,0,1.105518,-2.312587,0.\O,0,-1.105518,2.312587,0.\O,0,1.105518,2.733
 674,0.\O,0,-1.105518,-2.733674,0.\H,0,1.509349,0.269845,0.\H,0,-1.5093
 49,-0.269845,0.\H,0,0.771942,3.643174,0.\H,0,-0.771942,-3.643174,0.\\V
 ersion=ES64L-G16RevC.01\State=1-AG\HF=-453.4894734\RMSD=7.620e-03\Dipo

 Normal termination of Gaussian 16 at Sat Apr  5 22:23:43 2025.
