 Gaussian 16, Revision C.01,

 ----------------------------------------------------------------------
 #t hf aug-cc-pvdz symm=none int=(grid=ultrafine) guess=(read,tcheck) s
 table=(opt,rrhf)
 ----------------------------------------------------------------------
 -----
 title
 -----
 Symbolic Z-matrix:
 Charge =  0 Multiplicity = 1

 SCF Done:  E(RHF) =  -260.296243528     A.U. after   11 cycles
 Normal termination of Gaussian 16 at Sat Apr  5 22:23:40 2025.
 Gaussian 16:  ES64L-G16RevC.01  3-Jul-2019

 ----------------------------------------------------------------------
 #t hf aug-cc-pvdz iop(5/13=1,5/36=2,99/5=2) pseudo=read geom=check gue
 ss=(read,tcheck) scf=(maxcycle=1)
 ----------------------------------------------------------------------
 -----
 title
 -----
 Structure from the checkpoint file:  "2-butynedinitrile.chk"
 Charge =  0 Multiplicity = 1

                         Standard orientation:
 ---------------------------------------------------------------------
 Center     Atomic      Atomic             Coordinates (Angstroms)
 Number     Number       Type             X           Y           Z
 ---------------------------------------------------------------------
      1          6           0        0.000000    0.000000    0.603507
      2          6           0        0.000000    0.000000   -0.603507
      3          6           0        0.000000    0.000000    1.966164
      4          6           0        0.000000    0.000000   -1.966164
      5          7           0        0.000000    0.000000    3.122257
      6          7           0        0.000000    0.000000   -3.122257
 ---------------------------------------------------------------------

 SCF Done:  E(RHF) =  -260.374714256     A.U. after    2 cycles

 The electronic state is 1-SGG.
 Alpha  occ. eigenvalues --  -15.70844 -15.70844 -11.36584 -11.36209 -11.35385
 Alpha  occ. eigenvalues --  -11.35382  -1.25403  -1.24990  -1.14183  -0.98800
 Alpha  occ. eigenvalues --   -0.88798  -0.60789  -0.60614  -0.60379  -0.60379
 Alpha  occ. eigenvalues --   -0.54597  -0.54597  -0.44232  -0.44232
 Alpha virt. eigenvalues --    0.01656   0.01656   0.04641   0.06228   0.08045
 Alpha virt. eigenvalues --    0.08045   0.09185   0.09239   0.09239   0.12294
 Alpha virt. eigenvalues --    0.16014   0.16014   0.19277   0.19342   0.20875

 Mulliken charges:
               1
     1  C    1.241383
     2  C    1.241383
     3  C   -1.182090
     4  C   -1.182090
     5  N   -0.059294
     6  N   -0.059294
 Sum of Mulliken charges =  -0.00000

 Dipole moment (field-independent basis, Debye):
    X=              0.0000    Y=              0.0000    Z=              0.0000  Tot=              0.0000

 Test job not archived.
 1\1\GINC-SE046\SP\RHF\Aug-CC-pVDZ\C4N2\OHZDE\05-Apr-2025\0\\#t hf aug-
 cc-pvdz iop(5/13=1,5/36=2,99/5=2) pseudo=read geom=check guess=(read,t
 check) scf=(maxcycle=1)\\title\\0,1\C,0,0.,0.,0.603507\C,0,0.,0.,-0.60
 3507\C,0,0.,0.,1.966164\C,0,0.,0.,-1.966164\N,0,0.,0.,3.122257\N,0,0.,
 0.,-3.122257\\Version=ES64L-G16RevC.01\State=1-SGG\HF=-260.3747143\RMS
 D=2.407e-02\Dipole=0.,0.,0.\Quadrupole=4.5824472,4.5824472,-9.1648943,
 0.,0.,0.\PG=D*H [C*(N1C1C1.C1C1N1)]\\@

 Normal termination of Gaussian 16 at Sat Apr  5 22:23:41 2025.
