 Gaussian 16, Revision C.01,

 ----------------------------------------------------------------------
 #t hf aug-cc-pvdz symm=none int=(grid=ultrafine) guess=(read,tcheck) s
 table=(opt,rrhf)
 ----------------------------------------------------------------------
 -----
 title
 -----
 Symbolic Z-matrix:
 Charge =  0 Multiplicity = 1

 SCF Done:  E(RHF) =  -385.122281437     A.U. after   12 cycles

 1\1\GINC-SE202\Stability\RHF\Aug-CC-pVDZ\C6H14O2\OHZDE\05-Apr-2025\0\\
 #t hf aug-cc-pvdz symm=none int=(grid=ultrafine) guess=(read,tcheck) s
 table=(opt,rrhf)\\title\\0,1\C,0,4.089165,0.588477,0.122469\C,0,2.9239
 03,-0.328181,-0.246075\C,0,1.567017,0.231891,0.182347\C,0,0.411798,-0.
 680523,-0.186833\C,0,-3.172463,-0.05612,0.344075\C,0,-1.956993,-0.8596
 46,-0.067429\O,0,-3.273599,1.167332,-0.370804\O,0,-0.806302,-0.090619,
 0.241637\H,0,3.988063,1.565495,-0.353995\H,0,4.136511,0.751152,1.20092
 4\H,0,5.043295,0.163461,-0.191317\H,0,2.923021,-0.497172,-1.326931\H,0

 Normal termination of Gaussian 16 at Sat Apr  5 22:24:53 2025.
 Gaussian 16:  ES64L-G16RevC.01  3-Jul-2019

 ----------------------------------------------------------------------
 #t hf aug-cc-pvdz iop(5/13=1,5/36=2,99/5=2) pseudo=read geom=check gue
 ss=(read,tcheck) scf=(maxcycle=1)
 ----------------------------------------------------------------------
 -----
 title
 -----
 Structure from the checkpoint file:  "2-butoxyethanol.chk"
 Charge =  0 Multiplicity = 1

                         Standard orientation:
 ---------------------------------------------------------------------
 Center     Atomic      Atomic             Coordinates (Angstroms)
 Number     Number       Type             X           Y           Z
 ---------------------------------------------------------------------
      1          6           0        4.089165    0.588477    0.122469
      2          6           0        2.923903   -0.328181   -0.246075
      3          6           0        1.567017    0.231891    0.182347
      4          6           0        0.411798   -0.680523   -0.186833
      5          6           0       -3.172463   -0.056120    0.344075
      6          6           0       -1.956993   -0.859646   -0.067429
      7          8           0       -3.273599    1.167332   -0.370804
      8          8           0       -0.806302   -0.090619    0.241637
      9          1           0        3.988063    1.565495   -0.353995
     10          1           0        4.136511    0.751152    1.200924
     11          1           0        5.043295    0.163461   -0.191317
     12          1           0        2.923021   -0.497172   -1.326931
     13          1           0        3.074567   -1.308953    0.214777
     14          1           0        1.555650    0.393751    1.263323
     15          1           0        1.405218    1.208369   -0.282062
     16          1           0        0.381813   -0.843154   -1.272776
     17          1           0        0.532797   -1.663858    0.288024
     18          1           0       -3.138051    0.127329    1.424009
     19          1           0       -4.077395   -0.622897    0.124143
     20          1           0       -1.992298   -1.069512   -1.143946
     21          1           0       -1.937954   -1.816743    0.471425
     22          1           0       -2.430595    1.623640   -0.273584
 ---------------------------------------------------------------------

 SCF Done:  E(RHF) =  -385.246745366     A.U. after    2 cycles

 The electronic state is 1-A.
 Alpha  occ. eigenvalues --  -20.57552 -20.56352 -11.28797 -11.28771 -11.28336
 Alpha  occ. eigenvalues --  -11.23426 -11.23010 -11.22596  -1.34349  -1.30935
 Alpha  occ. eigenvalues --   -1.07301  -1.01407  -0.95931  -0.86511  -0.83498
 Alpha  occ. eigenvalues --   -0.80191  -0.70551  -0.69213  -0.67166  -0.64791
 Alpha  occ. eigenvalues --   -0.62385  -0.59642  -0.59223  -0.56592  -0.55523
 Alpha  occ. eigenvalues --   -0.52562  -0.51347  -0.49827  -0.48237  -0.47475
 Alpha  occ. eigenvalues --   -0.47182  -0.45112  -0.44210
 Alpha virt. eigenvalues --    0.03388   0.03995   0.04372   0.04552   0.05418
 Alpha virt. eigenvalues --    0.05831   0.06227   0.06758   0.07574   0.08166
 Alpha virt. eigenvalues --    0.08556   0.09132   0.10391   0.10863   0.11665

 Mulliken charges:
               1
     1  C    0.420818
     2  C    0.314582
     3  C    0.213717
     4  C    0.581443
     5  C    0.863779
     6  C    0.434834
     7  O   -0.577913
     8  O   -0.674248
     9  H   -0.079460
    10  H   -0.080190
    11  H   -0.062409
    12  H   -0.147784
    13  H   -0.147135
    14  H   -0.172736
    15  H   -0.174199
    16  H   -0.202205
    17  H   -0.199418
    18  H   -0.118435
    19  H   -0.125546
    20  H   -0.126610
    21  H   -0.115730
    22  H    0.174845
 Sum of Mulliken charges =  -0.00000

 Dipole moment (field-independent basis, Debye):
    X=              1.9411    Y=             -1.9827    Z=              0.2450  Tot=              2.7854

 Test job not archived.
 1\1\GINC-SE202\SP\RHF\Aug-CC-pVDZ\C6H14O2\OHZDE\05-Apr-2025\0\\#t hf a
 ug-cc-pvdz iop(5/13=1,5/36=2,99/5=2) pseudo=read geom=check guess=(rea
 d,tcheck) scf=(maxcycle=1)\\title\\0,1\C,0,4.089165,0.588477,0.122469\
 C,0,2.923903,-0.328181,-0.246075\C,0,1.567017,0.231891,0.182347\C,0,0.
 411798,-0.680523,-0.186833\C,0,-3.172463,-0.05612,0.344075\C,0,-1.9569
 93,-0.859646,-0.067429\O,0,-3.273599,1.167332,-0.370804\O,0,-0.806302,
 -0.090619,0.241637\H,0,3.988063,1.565495,-0.353995\H,0,4.136511,0.7511
 52,1.200924\H,0,5.043295,0.163461,-0.191317\H,0,2.923021,-0.497172,-1.

 Normal termination of Gaussian 16 at Sat Apr  5 22:26:49 2025.
