 Gaussian 16, Revision C.01,

 ----------------------------------------------------------------------
 #t hf aug-cc-pvdz symm=none int=(grid=ultrafine) guess=(read,tcheck) s
 table=(opt,rrhf)
 ----------------------------------------------------------------------
 -----
 title
 -----
 Symbolic Z-matrix:
 Charge =  0 Multiplicity = 1

 SCF Done:  E(RHF) =  -452.099600394     A.U. after   15 cycles
 Normal termination of Gaussian 16 at Sat Apr  5 22:23:53 2025.
 Gaussian 16:  ES64L-G16RevC.01  3-Jul-2019

 ----------------------------------------------------------------------
 #t hf aug-cc-pvdz iop(5/13=1,5/36=2,99/5=2) pseudo=read geom=check gue
 ss=(read,tcheck) scf=(maxcycle=1)
 ----------------------------------------------------------------------
 -----
 title
 -----
 Structure from the checkpoint file:  "2-butynedioic_acid.chk"
 Charge =  0 Multiplicity = 1

                         Standard orientation:
 ---------------------------------------------------------------------
 Center     Atomic      Atomic             Coordinates (Angstroms)
 Number     Number       Type             X           Y           Z
 ---------------------------------------------------------------------
      1          8           0        0.456164    2.811298    0.519791
      2          8           0       -0.456164   -2.811298    0.519791
      3          8           0       -1.460125    2.429632   -0.552434
      4          8           0        1.460125   -2.429632   -0.552434
      5          6           0       -0.456164    2.004868   -0.060552
      6          6           0        0.456164   -2.004868   -0.060552
      7          6           0       -0.123481    0.588917   -0.035196
      8          6           0        0.123481   -0.588917   -0.035196
      9          1           0        1.213127    2.300420    0.835627
     10          1           0       -1.213127   -2.300420    0.835627
 ---------------------------------------------------------------------

 SCF Done:  E(RHF) =  -452.243772773     A.U. after    2 cycles

 The electronic state is 1-A.
 Alpha  occ. eigenvalues --  -20.66580 -20.66580 -20.60691 -20.60691 -11.46197
 Alpha  occ. eigenvalues --  -11.46193 -11.33013 -11.32618  -1.46519  -1.46447
 Alpha  occ. eigenvalues --   -1.37704  -1.37694  -1.11952  -0.97330  -0.91151
 Alpha  occ. eigenvalues --   -0.86642  -0.84439  -0.72157  -0.71914  -0.69174
 Alpha  occ. eigenvalues --   -0.68778  -0.66059  -0.65239  -0.54746  -0.54527
 Alpha  occ. eigenvalues --   -0.53778  -0.52693  -0.47406  -0.47299
 Alpha virt. eigenvalues --    0.02078   0.03036   0.03777   0.07301   0.07834
 Alpha virt. eigenvalues --    0.08137   0.08487   0.10110   0.10224   0.11663
 Alpha virt. eigenvalues --    0.12096   0.12696   0.14668   0.15422   0.16748

 Mulliken charges:
               1
     1  O   -0.462056
     2  O   -0.462056
     3  O   -0.398186
     4  O   -0.398186
     5  C    0.484385
     6  C    0.484385
     7  C    0.163742
     8  C    0.163742
     9  H    0.212115
    10  H    0.212115
 Sum of Mulliken charges =  -0.00000

 Dipole moment (field-independent basis, Debye):
    X=             -0.0000    Y=             -0.0000    Z=              2.7527  Tot=              2.7527

 Test job not archived.
 1\1\GINC-SE045\SP\RHF\Aug-CC-pVDZ\C4H2O4\OHZDE\05-Apr-2025\0\\#t hf au
 g-cc-pvdz iop(5/13=1,5/36=2,99/5=2) pseudo=read geom=check guess=(read
 ,tcheck) scf=(maxcycle=1)\\title\\0,1\O,0,0.456164,2.811298,0.519791\O
 ,0,-0.456164,-2.811298,0.519791\O,0,-1.460125,2.429632,-0.552434\O,0,1
 .460125,-2.429632,-0.552434\C,0,-0.456164,2.004868,-0.060552\C,0,0.456
 164,-2.004868,-0.060552\C,0,-0.123481,0.588917,-0.035196\C,0,0.123481,
 -0.588917,-0.035196\H,0,1.213127,2.30042,0.835627\H,0,-1.213127,-2.300
 42,0.835627\\Version=ES64L-G16RevC.01\State=1-A\HF=-452.2437728\RMSD=8

 Normal termination of Gaussian 16 at Sat Apr  5 22:23:57 2025.
