 Gaussian 16, Revision C.01,

 ----------------------------------------------------------------------
 #t hf aug-cc-pvdz symm=none int=(grid=ultrafine) guess=(read,tcheck) s
 table=(opt,rrhf)
 ----------------------------------------------------------------------
 -----
 title
 -----
 Symbolic Z-matrix:
 Charge =  0 Multiplicity = 1

 SCF Done:  E(RHF) =  -154.925695307     A.U. after   10 cycles
 Normal termination of Gaussian 16 at Sat Apr  5 22:23:40 2025.
 Gaussian 16:  ES64L-G16RevC.01  3-Jul-2019

 ----------------------------------------------------------------------
 #t hf aug-cc-pvdz iop(5/13=1,5/36=2,99/5=2) pseudo=read geom=check gue
 ss=(read,tcheck) scf=(maxcycle=1)
 ----------------------------------------------------------------------
 -----
 title
 -----
 Structure from the checkpoint file:  "2-butyne.chk"
 Charge =  0 Multiplicity = 1

                         Standard orientation:
 ---------------------------------------------------------------------
 Center     Atomic      Atomic             Coordinates (Angstroms)
 Number     Number       Type             X           Y           Z
 ---------------------------------------------------------------------
      1          6           0        0.000000    0.600514    0.000000
      2          6           0       -0.000000   -0.600514    0.000000
      3          6           0        0.000000    2.057156    0.000000
      4          6           0       -0.000000   -2.057156    0.000000
      5          1           0       -0.037656    2.451360    1.017156
      6          1           0        0.899710    2.451360   -0.475967
      7          1           0       -0.862055    2.451360   -0.541189
      8          1           0       -0.899710   -2.451360   -0.475967
      9          1           0        0.037656   -2.451360    1.017156
     10          1           0        0.862055   -2.451360   -0.541189
 ---------------------------------------------------------------------

 SCF Done:  E(RHF) =  -154.978084714     A.U. after    2 cycles

 The electronic state is 1-A.
 Alpha  occ. eigenvalues --  -11.25227 -11.25221 -11.22900 -11.22499  -1.05520
 Alpha  occ. eigenvalues --   -0.99755  -0.91644  -0.65634  -0.60175  -0.59331
 Alpha  occ. eigenvalues --   -0.59331  -0.57576  -0.57576  -0.36583  -0.36583
 Alpha virt. eigenvalues --    0.03479   0.03904   0.05729   0.05729   0.07130
 Alpha virt. eigenvalues --    0.07130   0.08671   0.12241   0.13951   0.15028
 Alpha virt. eigenvalues --    0.15028   0.16379   0.16379   0.16409   0.17603

 Mulliken charges:
               1
     1  C   -0.624204
     2  C   -0.624204
     3  C    0.202949
     4  C    0.202949
     5  H    0.140419
     6  H    0.140417
     7  H    0.140419
     8  H    0.140417
     9  H    0.140419
    10  H    0.140419
 Sum of Mulliken charges =  -0.00000

 Dipole moment (field-independent basis, Debye):
    X=             -0.0000    Y=              0.0000    Z=             -0.0000  Tot=              0.0000

 Test job not archived.
 1\1\GINC-SE203\SP\RHF\Aug-CC-pVDZ\C4H6\OHZDE\05-Apr-2025\0\\#t hf aug-
 cc-pvdz iop(5/13=1,5/36=2,99/5=2) pseudo=read geom=check guess=(read,t
 check) scf=(maxcycle=1)\\title\\0,1\C,0,0.,0.,0.600514\C,0,0.,0.,-0.60
 0514\C,0,0.,0.,2.057156\C,0,0.,0.,-2.057156\H,0,0.037656,1.017156,2.45
 136\H,0,-0.89971,-0.475967,2.45136\H,0,0.862055,-0.541189,2.45136\H,0,
 0.89971,-0.475967,-2.45136\H,0,-0.037656,1.017156,-2.45136\H,0,-0.8620
 55,-0.541189,-2.45136\\Version=ES64L-G16RevC.01\State=1-A\HF=-154.9780
 847\RMSD=1.097e-02\Dipole=0.,-0.0000002,0.\Quadrupole=-1.724477,-1.724

 Normal termination of Gaussian 16 at Sat Apr  5 22:23:42 2025.
