 Gaussian 16, Revision C.01,

 ----------------------------------------------------------------------
 #t hf aug-cc-pvdz symm=none int=(grid=ultrafine) guess=(read,tcheck) s
 table=(opt,rrhf)
 ----------------------------------------------------------------------
 -----
 title
 -----
 Symbolic Z-matrix:
 Charge =  0 Multiplicity = 1

 SCF Done:  E(RHF) =  -232.187606553     A.U. after   12 cycles

 1\1\GINC-SE225\Stability\RHF\Aug-CC-pVDZ\C4H10O1\OHZDE\05-Apr-2025\0\\
 #t hf aug-cc-pvdz symm=none int=(grid=ultrafine) guess=(read,tcheck) s
 table=(opt,rrhf)\\title\\0,1\C,0,2.068952,-0.02959,0.114749\C,0,-1.781
 327,-0.695111,0.003653\C,0,0.738327,-0.671951,-0.270753\C,0,-0.478716,
 0.030019,0.319827\O,0,-0.490635,1.363576,-0.211065\H,0,2.209786,-0.036
 654,1.197896\H,0,2.114065,1.005156,-0.221346\H,0,2.905645,-0.56879,-0.
 331134\H,0,-1.921866,-0.773729,-1.0754\H,0,-1.779793,-1.700291,0.42868
 1\H,0,-2.637934,-0.160756,0.420748\H,0,0.719889,-1.714419,0.057213\H,0

 Normal termination of Gaussian 16 at Sat Apr  5 22:23:38 2025.
 Gaussian 16:  ES64L-G16RevC.01  3-Jul-2019

 ----------------------------------------------------------------------
 #t hf aug-cc-pvdz iop(5/13=1,5/36=2,99/5=2) pseudo=read geom=check gue
 ss=(read,tcheck) scf=(maxcycle=1)
 ----------------------------------------------------------------------
 -----
 title
 -----
 Structure from the checkpoint file:  "2-butanol.chk"
 Charge =  0 Multiplicity = 1

                         Standard orientation:
 ---------------------------------------------------------------------
 Center     Atomic      Atomic             Coordinates (Angstroms)
 Number     Number       Type             X           Y           Z
 ---------------------------------------------------------------------
      1          6           0        2.068952   -0.029590    0.114749
      2          6           0       -1.781327   -0.695111    0.003653
      3          6           0        0.738327   -0.671951   -0.270753
      4          6           0       -0.478716    0.030019    0.319827
      5          8           0       -0.490635    1.363576   -0.211065
      6          1           0        2.209786   -0.036654    1.197896
      7          1           0        2.114065    1.005156   -0.221346
      8          1           0        2.905645   -0.568790   -0.331134
      9          1           0       -1.921866   -0.773729   -1.075400
     10          1           0       -1.779793   -1.700291    0.428681
     11          1           0       -2.637934   -0.160756    0.420748
     12          1           0        0.719889   -1.714419    0.057213
     13          1           0        0.628666   -0.681241   -1.358792
     14          1           0       -0.354839    0.083409    1.410162
     15          1           0       -1.241958    1.838511    0.155634
 ---------------------------------------------------------------------

 SCF Done:  E(RHF) =  -232.263159737     A.U. after    2 cycles

 The electronic state is 1-A.
 Alpha  occ. eigenvalues --  -20.56550 -11.28708 -11.22679 -11.22483 -11.21475
 Alpha  occ. eigenvalues --   -1.31512  -1.05254  -0.97941  -0.86777  -0.78976
 Alpha  occ. eigenvalues --   -0.70779  -0.63159  -0.60434  -0.58498  -0.56644
 Alpha  occ. eigenvalues --   -0.54578  -0.51740  -0.50081  -0.48297  -0.46125
 Alpha  occ. eigenvalues --   -0.44532
 Alpha virt. eigenvalues --    0.03440   0.04421   0.04806   0.05082   0.06643
 Alpha virt. eigenvalues --    0.06685   0.07166   0.07248   0.09390   0.09922
 Alpha virt. eigenvalues --    0.11922   0.12799   0.14543   0.15978   0.16358

 Mulliken charges:
               1
     1  C    0.397910
     2  C    0.464224
     3  C    0.193854
     4  C    0.091467
     5  O   -0.619501
     6  H   -0.086098
     7  H   -0.029004
     8  H   -0.058108
     9  H    0.014272
    10  H   -0.030490
    11  H   -0.094357
    12  H   -0.094073
    13  H   -0.104332
    14  H   -0.175238
    15  H    0.129474
 Sum of Mulliken charges =  -0.00000

 Dipole moment (field-independent basis, Debye):
    X=             -1.1659    Y=             -0.7900    Z=              1.0753  Tot=              1.7719

 Test job not archived.
 1\1\GINC-SE225\SP\RHF\Aug-CC-pVDZ\C4H10O1\OHZDE\05-Apr-2025\0\\#t hf a
 ug-cc-pvdz iop(5/13=1,5/36=2,99/5=2) pseudo=read geom=check guess=(rea
 d,tcheck) scf=(maxcycle=1)\\title\\0,1\C,0,2.068952,-0.02959,0.114749\
 C,0,-1.781327,-0.695111,0.003653\C,0,0.738327,-0.671951,-0.270753\C,0,
 -0.478716,0.030019,0.319827\O,0,-0.490635,1.363576,-0.211065\H,0,2.209
 786,-0.036654,1.197896\H,0,2.114065,1.005156,-0.221346\H,0,2.905645,-0
 .56879,-0.331134\H,0,-1.921866,-0.773729,-1.0754\H,0,-1.779793,-1.7002
 91,0.428681\H,0,-2.637934,-0.160756,0.420748\H,0,0.719889,-1.714419,0.

 Normal termination of Gaussian 16 at Sat Apr  5 22:23:44 2025.
