 Gaussian 16, Revision C.01,

 ----------------------------------------------------------------------
 #t hf aug-cc-pvdz symm=none int=(grid=ultrafine) guess=(read,tcheck) s
 table=(opt,rrhf)
 ----------------------------------------------------------------------
 -----
 title
 -----
 Symbolic Z-matrix:
 Charge =  0 Multiplicity = 1

 SCF Done:  E(RHF) =  -554.847909018     A.U. after   13 cycles

 1\1\GINC-SE223\Stability\RHF\Aug-CC-pVDZ\C4H10S1\OHZDE\05-Apr-2025\0\\
 #t hf aug-cc-pvdz symm=none int=(grid=ultrafine) guess=(read,tcheck) s
 table=(opt,rrhf)\\title\\0,1\S,0,1.003766,-1.20112,-0.007299\H,0,1.244
 543,-0.995639,1.301926\C,0,1.183258,1.587414,-0.017139\H,0,1.384325,1.
 633112,1.054995\H,0,0.747685,2.54429,-0.314961\C,0,0.224532,0.446006,-
 0.34219\H,0,0.071406,0.407063,-1.423635\C,0,-1.135558,0.616531,0.34221
 5\H,0,-1.467515,1.642836,0.153798\H,0,-0.998475,0.536154,1.424474\C,0,
 -2.218912,-0.353099,-0.12037\H,0,-2.402233,-0.253586,-1.192432\H,0,-1.

 Normal termination of Gaussian 16 at Sat Apr  5 22:23:39 2025.
 Gaussian 16:  ES64L-G16RevC.01  3-Jul-2019

 ----------------------------------------------------------------------
 #t hf aug-cc-pvdz iop(5/13=1,5/36=2,99/5=2) pseudo=read geom=check gue
 ss=(read,tcheck) scf=(maxcycle=1)
 ----------------------------------------------------------------------
 -----
 title
 -----
 Structure from the checkpoint file:  "2-butanethiol.chk"
 Charge =  0 Multiplicity = 1

                         Standard orientation:
 ---------------------------------------------------------------------
 Center     Atomic      Atomic             Coordinates (Angstroms)
 Number     Number       Type             X           Y           Z
 ---------------------------------------------------------------------
      1         16           0        1.003765   -1.201121   -0.007299
      2          1           0        1.244542   -0.995640    1.301926
      3          6           0        1.183259    1.587413   -0.017139
      4          1           0        1.384326    1.633111    1.054995
      5          1           0        0.747686    2.544289   -0.314961
      6          6           0        0.224532    0.446006   -0.342190
      7          1           0        0.071406    0.407063   -1.423635
      8          6           0       -1.135558    0.616532    0.342215
      9          1           0       -1.467514    1.642837    0.153798
     10          1           0       -0.998475    0.536154    1.424474
     11          6           0       -2.218912   -0.353098   -0.120370
     12          1           0       -2.402233   -0.253585   -1.192432
     13          1           0       -1.934409   -1.386198    0.075183
     14          1           0       -3.159570   -0.156546    0.395174
     15          1           0        2.134069    1.465331   -0.532831
 ---------------------------------------------------------------------

 SCF Done:  E(RHF) =  -554.918402995     A.U. after    2 cycles

 The electronic state is 1-A.
 Alpha  occ. eigenvalues --  -93.52623 -11.27691 -11.23820 -11.23385 -11.22252
 Alpha  occ. eigenvalues --   -8.82368  -6.16539  -6.16323  -6.16016  -1.09249
 Alpha  occ. eigenvalues --   -0.99527  -0.93081  -0.86287  -0.78034  -0.63504
 Alpha  occ. eigenvalues --   -0.60750  -0.59871  -0.57549  -0.54049  -0.51251
 Alpha  occ. eigenvalues --   -0.50273  -0.48514  -0.47677  -0.42862  -0.35138
 Alpha virt. eigenvalues --    0.03507   0.04513   0.04599   0.05196   0.06695
 Alpha virt. eigenvalues --    0.06805   0.07068   0.07258   0.08971   0.09392
 Alpha virt. eigenvalues --    0.10555   0.12687   0.13931   0.14320   0.14891

 Mulliken charges:
               1
     1  S    0.240589
     2  H    0.085041
     3  C    0.616957
     4  H   -0.075638
     5  H   -0.064967
     6  C   -0.837030
     7  H   -0.135054
     8  C    0.261630
     9  H   -0.111236
    10  H   -0.159091
    11  C    0.422336
    12  H   -0.069700
    13  H   -0.052130
    14  H   -0.056915
    15  H   -0.064791
 Sum of Mulliken charges =  -0.00000

 Dipole moment (field-independent basis, Debye):
    X=             -0.6804    Y=              1.6532    Z=              0.3992  Tot=              1.8318

 Test job not archived.
 1\1\GINC-SE223\SP\RHF\Aug-CC-pVDZ\C4H10S1\OHZDE\05-Apr-2025\0\\#t hf a
 ug-cc-pvdz iop(5/13=1,5/36=2,99/5=2) pseudo=read geom=check guess=(rea
 d,tcheck) scf=(maxcycle=1)\\title\\0,1\S,0,1.003766,-1.20112,-0.007299
 \H,0,1.244543,-0.995639,1.301926\C,0,1.183258,1.587414,-0.017139\H,0,1
 .384325,1.633112,1.054995\H,0,0.747685,2.54429,-0.314961\C,0,0.224532,
 0.446006,-0.34219\H,0,0.071406,0.407063,-1.423635\C,0,-1.135558,0.6165
 31,0.342215\H,0,-1.467515,1.642836,0.153798\H,0,-0.998475,0.536154,1.4
 24474\C,0,-2.218912,-0.353099,-0.12037\H,0,-2.402233,-0.253586,-1.1924

 Normal termination of Gaussian 16 at Sat Apr  5 22:23:44 2025.
