 Gaussian 16, Revision C.01,

 ----------------------------------------------------------------------
 #t hf aug-cc-pvdz symm=none int=(grid=ultrafine) guess=(read,tcheck) s
 table=(opt,rrhf)
 ----------------------------------------------------------------------
 -----
 title
 -----
 Symbolic Z-matrix:
 Charge =  0 Multiplicity = 1

 SCF Done:  E(RHF) =  -212.352041316     A.U. after   12 cycles

 1\1\GINC-SE222\Stability\RHF\Aug-CC-pVDZ\C4H11N1\OHZDE\05-Apr-2025\0\\
 #t hf aug-cc-pvdz symm=none int=(grid=ultrafine) guess=(read,tcheck) s
 table=(opt,rrhf)\\title\\0,1\N,0,0.585676,1.381629,-0.230174\H,0,-0.20
 1181,1.952915,0.050435\H,0,1.420699,1.84486,0.107244\C,0,1.770975,-0.7
 32575,-0.00248\H,0,1.91481,-0.792002,-1.082494\H,0,2.64162,-0.231533,0
 .426249\H,0,1.738854,-1.745293,0.401057\C,0,0.486227,0.022813,0.322074
 \H,0,0.37019,0.037096,1.417614\C,0,-0.738648,-0.689705,-0.258545\H,0,-
 0.627441,-0.732,-1.345347\H,0,-0.732698,-1.721265,0.103456\C,0,-2.0758

 Normal termination of Gaussian 16 at Sat Apr  5 22:23:38 2025.
 Gaussian 16:  ES64L-G16RevC.01  3-Jul-2019

 ----------------------------------------------------------------------
 #t hf aug-cc-pvdz iop(5/13=1,5/36=2,99/5=2) pseudo=read geom=check gue
 ss=(read,tcheck) scf=(maxcycle=1)
 ----------------------------------------------------------------------
 -----
 title
 -----
 Structure from the checkpoint file:  "2-butanamine.chk"
 Charge =  0 Multiplicity = 1

                         Standard orientation:
 ---------------------------------------------------------------------
 Center     Atomic      Atomic             Coordinates (Angstroms)
 Number     Number       Type             X           Y           Z
 ---------------------------------------------------------------------
      1          7           0        0.585676    1.381629   -0.230174
      2          1           0       -0.201181    1.952915    0.050435
      3          1           0        1.420699    1.844860    0.107244
      4          6           0        1.770975   -0.732575   -0.002480
      5          1           0        1.914810   -0.792002   -1.082494
      6          1           0        2.641620   -0.231533    0.426249
      7          1           0        1.738854   -1.745293    0.401057
      8          6           0        0.486227    0.022813    0.322074
      9          1           0        0.370190    0.037096    1.417614
     10          6           0       -0.738648   -0.689705   -0.258545
     11          1           0       -0.627441   -0.732000   -1.345347
     12          1           0       -0.732698   -1.721265    0.103456
     13          6           0       -2.075899   -0.042076    0.099323
     14          1           0       -2.909692   -0.633466   -0.280918
     15          1           0       -2.171947    0.956485   -0.330085
     16          1           0       -2.198874    0.042059    1.181772
 ---------------------------------------------------------------------

 SCF Done:  E(RHF) =  -212.420463705     A.U. after    2 cycles

 The electronic state is 1-A.
 Alpha  occ. eigenvalues --  -15.59940 -11.25915 -11.22268 -11.22174 -11.21894
 Alpha  occ. eigenvalues --   -1.15345  -1.02514  -0.97104  -0.85963  -0.76992
 Alpha  occ. eigenvalues --   -0.65770  -0.65623  -0.58622  -0.57731  -0.56279
 Alpha  occ. eigenvalues --   -0.51865  -0.51501  -0.48077  -0.47839  -0.46148
 Alpha  occ. eigenvalues --   -0.37968
 Alpha virt. eigenvalues --    0.03531   0.04248   0.04542   0.04877   0.06673
 Alpha virt. eigenvalues --    0.06858   0.07262   0.07446   0.09327   0.09671
 Alpha virt. eigenvalues --    0.09843   0.12377   0.13632   0.14817   0.15774

 Mulliken charges:
               1
     1  N   -0.317042
     2  H   -0.009600
     3  H   -0.014654
     4  C    0.676961
     5  H    0.007496
     6  H   -0.094839
     7  H   -0.062587
     8  C   -0.327589
     9  H   -0.160280
    10  C    0.345110
    11  H   -0.121599
    12  H   -0.101473
    13  C    0.428513
    14  H   -0.069591
    15  H   -0.103657
    16  H   -0.075169
 Sum of Mulliken charges =  -0.00000

 Dipole moment (field-independent basis, Debye):
    X=             -0.0603    Y=              0.0448    Z=              1.2405  Tot=              1.2428

 Test job not archived.
 1\1\GINC-SE222\SP\RHF\Aug-CC-pVDZ\C4H11N1\OHZDE\05-Apr-2025\0\\#t hf a
 ug-cc-pvdz iop(5/13=1,5/36=2,99/5=2) pseudo=read geom=check guess=(rea
 d,tcheck) scf=(maxcycle=1)\\title\\0,1\N,0,0.585676,1.381629,-0.230174
 \H,0,-0.201181,1.952915,0.050435\H,0,1.420699,1.84486,0.107244\C,0,1.7
 70975,-0.732575,-0.00248\H,0,1.91481,-0.792002,-1.082494\H,0,2.64162,-
 0.231533,0.426249\H,0,1.738854,-1.745293,0.401057\C,0,0.486227,0.02281
 3,0.322074\H,0,0.37019,0.037096,1.417614\C,0,-0.738648,-0.689705,-0.25
 8545\H,0,-0.627441,-0.732,-1.345347\H,0,-0.732698,-1.721265,0.103456\C

 Normal termination of Gaussian 16 at Sat Apr  5 22:23:44 2025.
