 Gaussian 16, Revision C.01,

 ----------------------------------------------------------------------
 #t hf aug-cc-pvdz symm=none int=(grid=ultrafine) guess=(read,tcheck) s
 table=(opt,rrhf)
 ----------------------------------------------------------------------
 -----
 title
 -----
 Symbolic Z-matrix:
 Charge =  0 Multiplicity = 1

 SCF Done:  E(RHF) =  -231.028150930     A.U. after   14 cycles
 Normal termination of Gaussian 16 at Sat Apr  5 22:23:35 2025.
 Gaussian 16:  ES64L-G16RevC.01  3-Jul-2019

 ----------------------------------------------------------------------
 #t hf aug-cc-pvdz iop(5/13=1,5/36=2,99/5=2) pseudo=read geom=check gue
 ss=(read,tcheck) scf=(maxcycle=1)
 ----------------------------------------------------------------------
 -----
 title
 -----
 Structure from the checkpoint file:  "2-butanone.chk"
 Charge =  0 Multiplicity = 1

                         Standard orientation:
 ---------------------------------------------------------------------
 Center     Atomic      Atomic             Coordinates (Angstroms)
 Number     Number       Type             X           Y           Z
 ---------------------------------------------------------------------
      1          6           0       -1.883170   -0.506701    0.017217
      2          1           0       -2.671790    0.234445   -0.081330
      3          1           0       -2.008340   -1.043418    0.960588
      4          1           0       -1.965083   -1.246251   -0.781367
      5          6           0        2.019993   -0.020927    0.024676
      6          1           0        2.107093    0.570058    0.935544
      7          1           0        2.127700    0.662992   -0.815819
      8          6           0        0.683365   -0.747236   -0.030294
      9          1           0        0.608044   -1.363355   -0.932946
     10          1           0        0.580955   -1.453175    0.800501
     11          6           0       -0.528385    0.169660   -0.010123
     12          8           0       -0.421739    1.375414   -0.011414
     13          1           0        2.844518   -0.733384   -0.002718
 ---------------------------------------------------------------------

 SCF Done:  E(RHF) =  -231.102916291     A.U. after    2 cycles

 The electronic state is 1-A.
 Alpha  occ. eigenvalues --  -20.55916 -11.34044 -11.24860 -11.24409 -11.22706
 Alpha  occ. eigenvalues --   -1.35155  -1.05547  -0.99677  -0.87740  -0.73777
 Alpha  occ. eigenvalues --   -0.66613  -0.64363  -0.63176  -0.58522  -0.57466
 Alpha  occ. eigenvalues --   -0.52711  -0.51769  -0.51318  -0.49350  -0.42222
 Alpha virt. eigenvalues --    0.03111   0.04214   0.04726   0.05393   0.06694
 Alpha virt. eigenvalues --    0.06860   0.07411   0.08577   0.10831   0.12297
 Alpha virt. eigenvalues --    0.13216   0.13669   0.14841   0.15698   0.15919

 Mulliken charges:
               1
     1  C    0.440296
     2  H   -0.089045
     3  H    0.042613
     4  H    0.020072
     5  C    0.480588
     6  H   -0.056911
     7  H   -0.048350
     8  C    0.015454
     9  H   -0.004929
    10  H   -0.017067
    11  C   -0.217513
    12  O   -0.515473
    13  H   -0.049734
 Sum of Mulliken charges =  -0.00000

 Dipole moment (field-independent basis, Debye):
    X=             -0.2269    Y=             -3.4418    Z=              0.0131  Tot=              3.4493

 Test job not archived.
 1\1\GINC-SE107\SP\RHF\Aug-CC-pVDZ\C4H8O1\OHZDE\05-Apr-2025\0\\#t hf au
 g-cc-pvdz iop(5/13=1,5/36=2,99/5=2) pseudo=read geom=check guess=(read
 ,tcheck) scf=(maxcycle=1)\\title\\0,1\C,0,-1.88317,-0.506701,0.017217\
 H,0,-2.67179,0.234445,-0.08133\H,0,-2.00834,-1.043418,0.960588\H,0,-1.
 965083,-1.246251,-0.781367\C,0,2.019993,-0.020927,0.024676\H,0,2.10709
 3,0.570058,0.935544\H,0,2.1277,0.662992,-0.815819\C,0,0.683365,-0.7472
 36,-0.030294\H,0,0.608044,-1.363355,-0.932946\H,0,0.580955,-1.453175,0
 .800501\C,0,-0.528385,0.16966,-0.010123\O,0,-0.421739,1.375414,-0.0114

 Normal termination of Gaussian 16 at Sat Apr  5 22:23:43 2025.
