 Gaussian 16, Revision C.01,

 ----------------------------------------------------------------------
 #t hf aug-cc-pvdz symm=none int=(grid=ultrafine) guess=(read,tcheck) s
 table=(opt,rrhf)
 ----------------------------------------------------------------------
 -----
 title
 -----
 Symbolic Z-matrix:
 Charge =  0 Multiplicity = 1

 SCF Done:  E(RHF) =  -744.693456776     A.U. after   17 cycles
 Normal termination of Gaussian 16 at Sat Apr  5 22:25:36 2025.
 Gaussian 16:  ES64L-G16RevC.01  3-Jul-2019

 ----------------------------------------------------------------------
 #t hf aug-cc-pvdz iop(5/13=1,5/36=2,99/5=2) pseudo=read geom=check gue
 ss=(read,tcheck) scf=(maxcycle=1)
 ----------------------------------------------------------------------
 -----
 title
 -----
 Structure from the checkpoint file:  "2-chloroaniline.chk"
 Charge =  0 Multiplicity = 1

                         Standard orientation:
 ---------------------------------------------------------------------
 Center     Atomic      Atomic             Coordinates (Angstroms)
 Number     Number       Type             X           Y           Z
 ---------------------------------------------------------------------
      1          6           0        2.353096    0.002149    0.005068
      2          6           0        1.834314   -1.289002    0.004046
      3          6           0        1.509217    1.100037   -0.001011
      4          6           0        0.457168   -1.465035    0.000236
      5          6           0        0.115237    0.948254   -0.007408
      6          6           0       -0.381938   -0.362325   -0.004647
      7          7           0       -0.722435    2.046777   -0.068656
      8         17           0       -2.123824   -0.611728    0.002158
      9          1           0        3.423493    0.156594    0.009813
     10          1           0        2.488998   -2.148476    0.007665
     11          1           0        1.921614    2.101235   -0.007590
     12          1           0        0.024889   -2.455106    0.003520
     13          1           0       -0.338872    2.918571    0.253707
     14          1           0       -1.680635    1.894647    0.199077
 ---------------------------------------------------------------------

 SCF Done:  E(RHF) =  -744.796616127     A.U. after    2 cycles

 The electronic state is 1-A.
 Alpha  occ. eigenvalues -- -103.66635 -15.63865 -11.30738 -11.30115 -11.25938
 Alpha  occ. eigenvalues --  -11.25483 -11.24632 -11.24149 -10.69912  -8.35645
 Alpha  occ. eigenvalues --   -8.35362  -8.35327  -1.22597  -1.16651  -1.12373
 Alpha  occ. eigenvalues --   -1.01062  -0.98783  -0.84811  -0.82340  -0.71919
 Alpha  occ. eigenvalues --   -0.70856  -0.66407  -0.61955  -0.61634  -0.59404
 Alpha  occ. eigenvalues --   -0.56877  -0.53433  -0.50992  -0.48801  -0.47011
 Alpha  occ. eigenvalues --   -0.45824  -0.34716  -0.30483
 Alpha virt. eigenvalues --    0.03154   0.03799   0.04364   0.05774   0.06144
 Alpha virt. eigenvalues --    0.08235   0.09457   0.10584   0.11407   0.11919
 Alpha virt. eigenvalues --    0.12132   0.13407   0.13921   0.14327   0.14446

 Mulliken charges:
               1
     1  C    0.103794
     2  C    0.865503
     3  C    1.208274
     4  C    0.366007
     5  C    0.070343
     6  C    0.080961
     7  N   -0.273447
     8  Cl  -0.469296
     9  H   -0.432023
    10  H   -0.444196
    11  H   -0.590218
    12  H   -0.414889
    13  H   -0.051825
    14  H   -0.018986
 Sum of Mulliken charges =  -0.00000

 Dipole moment (field-independent basis, Debye):
    X=              1.3150    Y=              1.3301    Z=              0.8351  Tot=              2.0483

 Test job not archived.
 1\1\GINC-SE164\SP\RHF\Aug-CC-pVDZ\C6H6Cl1N1\OHZDE\05-Apr-2025\0\\#t hf
  aug-cc-pvdz iop(5/13=1,5/36=2,99/5=2) pseudo=read geom=check guess=(r
 ead,tcheck) scf=(maxcycle=1)\\title\\0,1\C,0,2.353096,0.002148,0.00506
 8\C,0,1.834314,-1.289002,0.004046\C,0,1.509217,1.100037,-0.001011\C,0,
 0.457168,-1.465035,0.000236\C,0,0.115237,0.948254,-0.007408\C,0,-0.381
 938,-0.362325,-0.004647\N,0,-0.722435,2.046777,-0.068656\Cl,0,-2.12382
 4,-0.611727,0.002158\H,0,3.423493,0.156593,0.009813\H,0,2.488997,-2.14
 8477,0.007665\H,0,1.921615,2.101235,-0.00759\H,0,0.024888,-2.455106,0.

 Normal termination of Gaussian 16 at Sat Apr  5 22:26:45 2025.
