 Gaussian 16, Revision C.01,

 ----------------------------------------------------------------------
 #t hf aug-cc-pvdz symm=none int=(grid=ultrafine) guess=(read,tcheck) s
 table=(opt,rrhf)
 ----------------------------------------------------------------------
 -----
 title
 -----
 Symbolic Z-matrix:
 Charge =  0 Multiplicity = 1

 SCF Done:  E(RHF) =  -1027.42909566     A.U. after   15 cycles
 Normal termination of Gaussian 16 at Sat Apr  5 22:24:54 2025.
 Gaussian 16:  ES64L-G16RevC.01  3-Jul-2019

 ----------------------------------------------------------------------
 #t hf aug-cc-pvdz iop(5/13=1,5/36=2,99/5=2) pseudo=read geom=check gue
 ss=(read,tcheck) scf=(maxcycle=1)
 ----------------------------------------------------------------------
 -----
 title
 -----
 Structure from the checkpoint file:  "2-chloroethylisothiocyanate.chk"
 Charge =  0 Multiplicity = 1

                         Standard orientation:
 ---------------------------------------------------------------------
 Center     Atomic      Atomic             Coordinates (Angstroms)
 Number     Number       Type             X           Y           Z
 ---------------------------------------------------------------------
      1         17           0       -2.404059   -0.918678    0.064286
      2         16           0        3.086866   -0.390320    0.010773
      3          7           0        0.477949    0.509740   -0.210547
      4          6           0       -0.645305    1.190578    0.353524
      5          6           0       -1.953863    0.791832   -0.301178
      6          6           0        1.598040    0.139991   -0.071736
      7          1           0       -0.688979    1.001710    1.427947
      8          1           0       -0.514156    2.267281    0.204283
      9          1           0       -1.896342    0.876305   -1.382173
     10          1           0       -2.760260    1.414766    0.074888
 ---------------------------------------------------------------------

 SCF Done:  E(RHF) =  -1027.51995022     A.U. after    2 cycles

 The electronic state is 1-A.
 Alpha  occ. eigenvalues -- -103.66335 -93.53268 -15.68000 -11.39260 -11.33701
 Alpha  occ. eigenvalues --  -11.32951 -10.69613  -8.83194  -8.35333  -8.35041
 Alpha  occ. eigenvalues --   -8.35031  -6.17512  -6.16823  -6.16782  -1.27279
 Alpha  occ. eigenvalues --   -1.17968  -1.07335  -1.00822  -0.90017  -0.75707
 Alpha  occ. eigenvalues --   -0.68674  -0.64997  -0.61982  -0.59096  -0.56866
 Alpha  occ. eigenvalues --   -0.53912  -0.52306  -0.46335  -0.46127  -0.36599
 Alpha  occ. eigenvalues --   -0.35692
 Alpha virt. eigenvalues --    0.02424   0.04192   0.04800   0.05432   0.07476
 Alpha virt. eigenvalues --    0.08563   0.09518   0.10435   0.11251   0.11670
 Alpha virt. eigenvalues --    0.12058   0.12538   0.14246   0.14711   0.15304

 Mulliken charges:
               1
     1  Cl  -0.130130
     2  S    0.178801
     3  N   -0.131760
     4  C    0.793508
     5  C    0.075864
     6  C   -0.628088
     7  H   -0.117314
     8  H   -0.100811
     9  H    0.017984
    10  H    0.041947
 Sum of Mulliken charges =  -0.00000

 Dipole moment (field-independent basis, Debye):
    X=             -2.4335    Y=              3.4687    Z=              0.3029  Tot=              4.2480

 Test job not archived.
 1\1\GINC-SE199\SP\RHF\Aug-CC-pVDZ\C3H4Cl1N1S1\OHZDE\05-Apr-2025\0\\#t
 hf aug-cc-pvdz iop(5/13=1,5/36=2,99/5=2) pseudo=read geom=check guess=
 (read,tcheck) scf=(maxcycle=1)\\title\\0,1\Cl,0,-2.404059,-0.918678,0.
 064286\S,0,3.086866,-0.39032,0.010773\N,0,0.477949,0.50974,-0.210547\C
 ,0,-0.645305,1.190578,0.353524\C,0,-1.953863,0.791832,-0.301178\C,0,1.
 59804,0.139991,-0.071736\H,0,-0.688979,1.00171,1.427947\H,0,-0.514156,
 2.267281,0.204283\H,0,-1.896342,0.876305,-1.382173\H,0,-2.76026,1.4147
 66,0.074888\\Version=ES64L-G16RevC.01\State=1-A\HF=-1027.5199502\RMSD=

 Normal termination of Gaussian 16 at Sat Apr  5 22:26:43 2025.
