 Gaussian 16, Revision C.01,

 ----------------------------------------------------------------------
 #t hf aug-cc-pvdz symm=none int=(grid=ultrafine) guess=(read,tcheck) s
 table=(opt,rrhf)
 ----------------------------------------------------------------------
 -----
 title
 -----
 Symbolic Z-matrix:
 Charge =  0 Multiplicity = 1

 SCF Done:  E(RHF) =  -1176.86343745     A.U. after   16 cycles
 Normal termination of Gaussian 16 at Sat Apr  5 22:25:12 2025.
 Gaussian 16:  ES64L-G16RevC.01  3-Jul-2019

 ----------------------------------------------------------------------
 #t hf aug-cc-pvdz iop(5/13=1,5/36=2,99/5=2) pseudo=read geom=check gue
 ss=(read,tcheck) scf=(maxcycle=1)
 ----------------------------------------------------------------------
 -----
 title
 -----
 Structure from the checkpoint file:  "2-chloro-5-isocyanatothiophene.chk"
 Charge =  0 Multiplicity = 1

                         Standard orientation:
 ---------------------------------------------------------------------
 Center     Atomic      Atomic             Coordinates (Angstroms)
 Number     Number       Type             X           Y           Z
 ---------------------------------------------------------------------
      1         17           0        3.117903   -0.625315   -0.000000
      2         16           0        0.125551   -0.848541   -0.000000
      3          8           0       -4.150489   -0.844343   -0.000002
      4          7           0       -2.237269    0.548089    0.000001
      5          6           0       -0.101979    1.727519    0.000002
      6          6           0       -0.867078    0.598532    0.000001
      7          6           0        1.293679    1.456131    0.000001
      8          6           0        1.565665    0.124962   -0.000000
      9          6           0       -3.170305   -0.208471   -0.000000
     10          1           0       -0.528661    2.718444    0.000002
     11          1           0        2.060415    2.214641    0.000002
 ---------------------------------------------------------------------

 SCF Done:  E(RHF) =  -1177.00241160     A.U. after    2 cycles

 The electronic state is 1-A.
 Alpha  occ. eigenvalues -- -103.69315 -93.59523 -20.64587 -15.69008 -11.44556
 Alpha  occ. eigenvalues --  -11.35604 -11.34635 -11.27567 -11.27203 -10.72559
 Alpha  occ. eigenvalues --   -8.89328  -8.38309  -8.37975  -8.37955  -6.23438
 Alpha  occ. eigenvalues --   -6.23312  -6.22910  -1.44799  -1.28601  -1.22421
 Alpha  occ. eigenvalues --   -1.15877  -1.01846  -1.00445  -0.87357  -0.77481
 Alpha  occ. eigenvalues --   -0.75929  -0.73648  -0.68840  -0.67702  -0.64949
 Alpha  occ. eigenvalues --   -0.60119  -0.58894  -0.58846  -0.53525  -0.52465
 Alpha  occ. eigenvalues --   -0.48375  -0.46853  -0.46246  -0.37910  -0.32760
 Alpha virt. eigenvalues --    0.03090   0.04635   0.05764   0.06008   0.07271
 Alpha virt. eigenvalues --    0.08196   0.08823   0.09688   0.10298   0.11635
 Alpha virt. eigenvalues --    0.12084   0.13131   0.13488   0.14197   0.14329

 Mulliken charges:
               1
     1  Cl  -0.329118
     2  S    0.755102
     3  O   -0.152428
     4  N   -0.230222
     5  C    0.570022
     6  C    0.208635
     7  C    0.523363
     8  C   -0.255665
     9  C   -0.381705
    10  H   -0.411741
    11  H   -0.296244
 Sum of Mulliken charges =  -0.00000

 Dipole moment (field-independent basis, Debye):
    X=              1.2745    Y=              2.0082    Z=              0.0000  Tot=              2.3785

 Test job not archived.
 1\1\GINC-SE115\SP\RHF\Aug-CC-pVDZ\C5H2Cl1N1O1S1\OHZDE\05-Apr-2025\0\\#
 t hf aug-cc-pvdz iop(5/13=1,5/36=2,99/5=2) pseudo=read geom=check gues
 s=(read,tcheck) scf=(maxcycle=1)\\title\\0,1\Cl,0,3.117903,-0.625315,0
 .\S,0,0.125551,-0.848541,0.\O,0,-4.150489,-0.844343,-0.000002\N,0,-2.2
 37269,0.548089,0.000001\C,0,-0.101979,1.727519,0.000002\C,0,-0.867078,
 0.598532,0.000001\C,0,1.293679,1.456131,0.000001\C,0,1.565665,0.124962
 ,0.\C,0,-3.170305,-0.208471,0.\H,0,-0.528661,2.718444,0.000002\H,0,2.0
 60415,2.214641,0.000002\\Version=ES64L-G16RevC.01\State=1-A\HF=-1177.0

 Normal termination of Gaussian 16 at Sat Apr  5 22:26:45 2025.
