 Gaussian 16, Revision C.01,

 ----------------------------------------------------------------------
 #t hf aug-cc-pvdz symm=none int=(grid=ultrafine) guess=(read,tcheck) s
 table=(opt,rrhf)
 ----------------------------------------------------------------------
 -----
 title
 -----
 Symbolic Z-matrix:
 Charge =  0 Multiplicity = 1

 SCF Done:  E(RHF) =  -816.230834464     A.U. after   15 cycles
 Normal termination of Gaussian 16 at Sat Apr  5 22:25:01 2025.
 Gaussian 16:  ES64L-G16RevC.01  3-Jul-2019

 ----------------------------------------------------------------------
 #t hf aug-cc-pvdz iop(5/13=1,5/36=2,99/5=2) pseudo=read geom=check gue
 ss=(read,tcheck) scf=(maxcycle=1)
 ----------------------------------------------------------------------
 -----
 title
 -----
 Structure from the checkpoint file:  "2-chloro-3-nitrosofuran.chk"
 Charge =  0 Multiplicity = 1

                         Standard orientation:
 ---------------------------------------------------------------------
 Center     Atomic      Atomic             Coordinates (Angstroms)
 Number     Number       Type             X           Y           Z
 ---------------------------------------------------------------------
      1         17           0        1.926269   -1.029667    0.000000
      2          8           0        1.000529    1.396322    0.000001
      3          8           0       -2.545474   -1.255419   -0.000001
      4          7           0       -1.326289   -1.296988   -0.000001
      5          6           0       -0.699105   -0.046948    0.000000
      6          6           0        0.667284    0.101086    0.000000
      7          6           0       -1.242421    1.285636    0.000000
      8          6           0       -0.184456    2.114819    0.000001
      9          1           0       -2.285347    1.546278    0.000000
     10          1           0       -0.065451    3.182198    0.000001
 ---------------------------------------------------------------------

 SCF Done:  E(RHF) =  -816.358311767     A.U. after    2 cycles

 The electronic state is 1-A.
 Alpha  occ. eigenvalues -- -103.71419 -20.68664 -20.64081 -15.77783 -11.41151
 Alpha  occ. eigenvalues --  -11.33639 -11.30148 -11.27937 -10.74694  -8.40453
 Alpha  occ. eigenvalues --   -8.40088  -8.40087  -1.47711  -1.46240  -1.23045
 Alpha  occ. eigenvalues --   -1.14590  -1.05185  -0.97399  -0.85291  -0.80086
 Alpha  occ. eigenvalues --   -0.76729  -0.70856  -0.69739  -0.67347  -0.64645
 Alpha  occ. eigenvalues --   -0.62493  -0.61331  -0.58479  -0.53969  -0.51238
 Alpha  occ. eigenvalues --   -0.44255  -0.42756  -0.35566
 Alpha virt. eigenvalues --    0.02981   0.04228   0.04660   0.06358   0.08766
 Alpha virt. eigenvalues --    0.09545   0.10028   0.10686   0.11711   0.12287
 Alpha virt. eigenvalues --    0.13535   0.14313   0.14623   0.15041   0.15361

 Mulliken charges:
               1
     1  Cl  -0.154266
     2  O   -0.469467
     3  O   -0.451575
     4  N   -0.331990
     5  C    0.818893
     6  C   -0.059120
     7  C    0.935566
     8  C    0.303427
     9  H   -0.314440
    10  H   -0.277028
 Sum of Mulliken charges =  -0.00000

 Dipole moment (field-independent basis, Debye):
    X=              1.2431    Y=              3.0266    Z=              0.0000  Tot=              3.2719

 Test job not archived.
 1\1\GINC-SE145\SP\RHF\Aug-CC-pVDZ\C4H2Cl1N1O2\OHZDE\05-Apr-2025\0\\#t
 hf aug-cc-pvdz iop(5/13=1,5/36=2,99/5=2) pseudo=read geom=check guess=
 (read,tcheck) scf=(maxcycle=1)\\title\\0,1\Cl,0,1.926269,-1.029667,0.\
 O,0,1.000529,1.396322,0.000001\O,0,-2.545474,-1.255419,-0.000001\N,0,-
 1.326289,-1.296988,-0.000001\C,0,-0.699105,-0.046948,0.\C,0,0.667284,0
 .101086,0.\C,0,-1.242421,1.285636,0.\C,0,-0.184456,2.114819,0.000001\H
 ,0,-2.285347,1.546278,0.\H,0,-0.065452,3.182198,0.000001\\Version=ES64
 L-G16RevC.01\State=1-A\HF=-816.3583118\RMSD=8.013e-03\Dipole=0.4890829

 Normal termination of Gaussian 16 at Sat Apr  5 22:26:44 2025.
