 Gaussian 16, Revision C.01,

 ----------------------------------------------------------------------
 #t hf aug-cc-pvdz symm=none int=(grid=ultrafine) guess=(read,tcheck) s
 table=(opt,rrhf)
 ----------------------------------------------------------------------
 -----
 title
 -----
 Symbolic Z-matrix:
 Charge =  0 Multiplicity = 1

 SCF Done:  E(RHF) =  -896.241175660     A.U. after   16 cycles
 Normal termination of Gaussian 16 at Sat Apr  5 22:25:39 2025.
 Gaussian 16:  ES64L-G16RevC.01  3-Jul-2019

 ----------------------------------------------------------------------
 #t hf aug-cc-pvdz iop(5/13=1,5/36=2,99/5=2) pseudo=read geom=check gue
 ss=(read,tcheck) scf=(maxcycle=1)
 ----------------------------------------------------------------------
 -----
 title
 -----
 Structure from the checkpoint file:  "2-chloro-3-cyano-5-fluoropyridine.chk"
 Charge =  0 Multiplicity = 1

                         Standard orientation:
 ---------------------------------------------------------------------
 Center     Atomic      Atomic             Coordinates (Angstroms)
 Number     Number       Type             X           Y           Z
 ---------------------------------------------------------------------
      1         17           0       -2.197577   -1.227671   -0.000015
      2          9           0        3.325479    0.455112    0.000010
      3          7           0        0.390768   -1.596694   -0.000015
      4          7           0       -2.115599    2.508502    0.000021
      5          6           0       -0.276396    0.703136    0.000006
      6          6           0       -0.547172   -0.677505   -0.000008
      7          6           0        2.027709    0.116243    0.000004
      8          6           0        1.061483    1.100236    0.000013
      9          6           0        1.668300   -1.221079   -0.000009
     10          6           0       -1.309558    1.686129    0.000014
     11          1           0        1.333645    2.145419    0.000023
     12          1           0        2.423474   -1.996630   -0.000016
 ---------------------------------------------------------------------

 SCF Done:  E(RHF) =  -896.392321355     A.U. after    2 cycles

 The electronic state is 1-A.
 Alpha  occ. eigenvalues -- -103.69499 -26.17788 -15.68776 -15.66540 -11.39687
 Alpha  occ. eigenvalues --  -11.38507 -11.34353 -11.33901 -11.32834 -11.31264
 Alpha  occ. eigenvalues --  -10.72801  -8.38539  -8.38205  -8.38199  -1.71850
 Alpha  occ. eigenvalues --   -1.31346  -1.22092  -1.20029  -1.14933  -1.07835
 Alpha  occ. eigenvalues --   -0.96170  -0.91978  -0.85206  -0.80988  -0.79406
 Alpha  occ. eigenvalues --   -0.74831  -0.73762  -0.70290  -0.64188  -0.62974
 Alpha  occ. eigenvalues --   -0.60844  -0.57032  -0.52644  -0.51569  -0.50755
 Alpha  occ. eigenvalues --   -0.49216  -0.46895  -0.43042  -0.38350
 Alpha virt. eigenvalues --    0.02795   0.02946   0.03735   0.06258   0.06637
 Alpha virt. eigenvalues --    0.07544   0.07760   0.09072   0.09589   0.11315
 Alpha virt. eigenvalues --    0.11486   0.12232   0.12945   0.13046   0.14031

 Mulliken charges:
               1
     1  Cl  -0.206492
     2  F   -0.275647
     3  N   -0.459484
     4  N   -0.074784
     5  C    2.116951
     6  C   -0.292029
     7  C    0.175656
     8  C    0.029927
     9  C    0.890468
    10  C   -1.133731
    11  H   -0.468856
    12  H   -0.301979
 Sum of Mulliken charges =  -0.00000

 Dipole moment (field-independent basis, Debye):
    X=              3.2259    Y=             -1.0335    Z=             -0.0000  Tot=              3.3874

 Test job not archived.
 1\1\GINC-SE055\SP\RHF\Aug-CC-pVDZ\C6H2Cl1F1N2\OHZDE\05-Apr-2025\0\\#t
 hf aug-cc-pvdz iop(5/13=1,5/36=2,99/5=2) pseudo=read geom=check guess=
 (read,tcheck) scf=(maxcycle=1)\\title\\0,1\Cl,0,-2.197577,-1.227671,-0
 .000015\F,0,3.325479,0.455112,0.00001\N,0,0.390768,-1.596694,-0.000015
 \N,0,-2.115599,2.508502,0.000021\C,0,-0.276396,0.703136,0.000006\C,0,-
 0.547172,-0.677505,-0.000008\C,0,2.027709,0.116243,0.000004\C,0,1.0614
 83,1.100236,0.000013\C,0,1.6683,-1.221079,-0.000009\C,0,-1.309558,1.68
 6129,0.000014\H,0,1.333645,2.145419,0.000023\H,0,2.423474,-1.99663,-0.

 Normal termination of Gaussian 16 at Sat Apr  5 22:26:47 2025.
