 Gaussian 16, Revision C.01,

 ----------------------------------------------------------------------
 #t hf aug-cc-pvdz symm=none int=(grid=ultrafine) guess=(read,tcheck) s
 table=(opt,rrhf)
 ----------------------------------------------------------------------
 -----
 title
 -----
 Symbolic Z-matrix:
 Charge =  0 Multiplicity = 1

 SCF Done:  E(RHF) =  -590.806525014     A.U. after   14 cycles
 Normal termination of Gaussian 16 at Sat Apr  5 22:26:43 2025.
 Gaussian 16:  ES64L-G16RevC.01  3-Jul-2019

 ----------------------------------------------------------------------
 #t hf aug-cc-pvdz iop(5/13=1,5/36=2,99/5=2) pseudo=read geom=check gue
 ss=(read,tcheck) scf=(maxcycle=1)
 ----------------------------------------------------------------------
 -----
 title
 -----
 Structure from the checkpoint file:  "2-chloroethenimine.chk"
 Charge =  0 Multiplicity = 1

                         Standard orientation:
 ---------------------------------------------------------------------
 Center     Atomic      Atomic             Coordinates (Angstroms)
 Number     Number       Type             X           Y           Z
 ---------------------------------------------------------------------
      1         17           0        1.481060   -0.246052    0.000891
      2          7           0       -2.257610   -0.337290   -0.128337
      3          6           0        0.026216    0.722480    0.011202
      4          6           0       -1.156808    0.167770    0.008826
      5          1           0       -2.756780   -0.587380    0.724562
      6          1           0        0.165580    1.789797    0.038481
 ---------------------------------------------------------------------

 SCF Done:  E(RHF) =  -590.866698880     A.U. after    2 cycles

 The electronic state is 1-A.
 Alpha  occ. eigenvalues -- -103.67819 -15.67507 -11.35153 -11.31281 -10.71023
 Alpha  occ. eigenvalues --   -8.36765  -8.36441  -8.36418  -1.24161  -1.18513
 Alpha  occ. eigenvalues --   -1.00643  -0.78093  -0.71190  -0.62326  -0.58198
 Alpha  occ. eigenvalues --   -0.51123  -0.48947  -0.47762  -0.35851
 Alpha virt. eigenvalues --    0.03092   0.04262   0.07237   0.09702   0.10554
 Alpha virt. eigenvalues --    0.11221   0.12491   0.13060   0.14118   0.15358
 Alpha virt. eigenvalues --    0.16006   0.16914   0.17803   0.18209   0.20450

 Mulliken charges:
               1
     1  Cl  -0.187959
     2  N   -0.125759
     3  C    0.449975
     4  C   -0.025015
     5  H    0.106266
     6  H   -0.217506
 Sum of Mulliken charges =  -0.00000

 Dipole moment (field-independent basis, Debye):
    X=             -1.2499    Y=              0.8751    Z=              1.5021  Tot=              2.1411

 Test job not archived.
 1\1\GINC-SE180\SP\RHF\Aug-CC-pVDZ\C2H2Cl1N1\OHZDE\05-Apr-2025\0\\#t hf
  aug-cc-pvdz iop(5/13=1,5/36=2,99/5=2) pseudo=read geom=check guess=(r
 ead,tcheck) scf=(maxcycle=1)\\title\\0,1\Cl,0,1.48106,-0.246052,0.0008
 91\N,0,-2.25761,-0.33729,-0.128337\C,0,0.026216,0.72248,0.011202\C,0,-
 1.156808,0.16777,0.008826\H,0,-2.75678,-0.58738,0.724562\H,0,0.16558,1
 .789797,0.038481\\Version=ES64L-G16RevC.01\State=1-A\HF=-590.8666989\R
 MSD=5.010e-03\Dipole=-0.4917567,0.3442767,0.5909838\Quadrupole=0.04002
 83,1.2178471,-1.2578754,0.4637268,-3.3775911,-0.7290707\PG=C01 [X(C2H2

 Normal termination of Gaussian 16 at Sat Apr  5 22:26:46 2025.
