 Gaussian 16, Revision C.01,

 ----------------------------------------------------------------------
 #t hf aug-cc-pvdz symm=none int=(grid=ultrafine) guess=(read,tcheck) s
 table=(opt,rrhf)
 ----------------------------------------------------------------------
 -----
 title
 -----
 Symbolic Z-matrix:
 Charge =  0 Multiplicity = 1

 SCF Done:  E(RHF) =  -615.051403028     A.U. after   13 cycles

 1\1\GINC-SE014\Stability\RHF\Aug-CC-pVDZ\C4H7Cl1\OHZDE\05-Apr-2025\0\\
 #t hf aug-cc-pvdz symm=none int=(grid=ultrafine) guess=(read,tcheck) s
 table=(opt,rrhf)\\title\\0,1\C,0,2.147973,-1.066945,0.\H,0,2.507268,-2
 .095782,0.\H,0,2.554206,-0.572788,0.882885\H,0,2.554206,-0.572788,-0.8
 82885\C,0,0.621595,-1.051458,0.\H,0,0.241625,-1.595107,-0.869387\H,0,0
 .241625,-1.595107,0.869387\C,0,0.604486,1.49013,0.\H,0,1.683307,1.5465
 61,0.\C,0,0.,0.312724,0.\Cl,0,-1.769241,0.256602,0.\H,0,0.050536,2.416
 069,0.\\Version=ES64L-G16RevC.01\HF=-615.051403\RMSD=4.524e-09\Dipole=

 Normal termination of Gaussian 16 at Sat Apr  5 22:26:50 2025.
 Gaussian 16:  ES64L-G16RevC.01  3-Jul-2019

 ----------------------------------------------------------------------
 #t hf aug-cc-pvdz iop(5/13=1,5/36=2,99/5=2) pseudo=read geom=check gue
 ss=(read,tcheck) scf=(maxcycle=1)
 ----------------------------------------------------------------------
 -----
 title
 -----
 Structure from the checkpoint file:  "2-chloro-1-butene.chk"
 Charge =  0 Multiplicity = 1

                         Standard orientation:
 ---------------------------------------------------------------------
 Center     Atomic      Atomic             Coordinates (Angstroms)
 Number     Number       Type             X           Y           Z
 ---------------------------------------------------------------------
      1          6           0        2.147973   -1.066945    0.000000
      2          1           0        2.507268   -2.095782    0.000000
      3          1           0        2.554206   -0.572788    0.882885
      4          1           0        2.554206   -0.572788   -0.882885
      5          6           0        0.621595   -1.051458    0.000000
      6          1           0        0.241625   -1.595107   -0.869387
      7          1           0        0.241625   -1.595107    0.869387
      8          6           0        0.604486    1.490130    0.000000
      9          1           0        1.683307    1.546561    0.000000
     10          6           0        0.000000    0.312724    0.000000
     11         17           0       -1.769241    0.256602    0.000000
     12          1           0        0.050536    2.416069    0.000000
 ---------------------------------------------------------------------

 SCF Done:  E(RHF) =  -615.120379884     A.U. after    2 cycles

 The electronic state is 1-A'.
 Alpha  occ. eigenvalues -- -103.65773 -11.31395 -11.25514 -11.24540 -11.23856
 Alpha  occ. eigenvalues --  -10.69072  -8.34799  -8.34504  -8.34491  -1.18232
 Alpha  occ. eigenvalues --   -1.06420  -0.99470  -0.88740  -0.73765  -0.66036
 Alpha  occ. eigenvalues --   -0.63534  -0.61745  -0.56620  -0.53170  -0.51779
 Alpha  occ. eigenvalues --   -0.50682  -0.48476  -0.45737  -0.36937
 Alpha virt. eigenvalues --    0.03422   0.04248   0.05145   0.05180   0.06762
 Alpha virt. eigenvalues --    0.07723   0.07797   0.09787   0.10694   0.12165
 Alpha virt. eigenvalues --    0.13467   0.13865   0.15331   0.15635   0.16674

 Mulliken charges:
               1
     1  C    0.515696
     2  H   -0.117308
     3  H   -0.021186
     4  H   -0.021186
     5  C    0.020741
     6  H    0.024878
     7  H    0.024878
     8  C    1.047079
     9  H   -0.296009
    10  C   -0.467249
    11  Cl  -0.366796
    12  H   -0.343538
 Sum of Mulliken charges =  -0.00000

 Dipole moment (field-independent basis, Debye):
    X=              2.1372    Y=             -0.3826    Z=              0.0000  Tot=              2.1712

 Test job not archived.
 1\1\GINC-SE014\SP\RHF\Aug-CC-pVDZ\C4H7Cl1\OHZDE\05-Apr-2025\0\\#t hf a
 ug-cc-pvdz iop(5/13=1,5/36=2,99/5=2) pseudo=read geom=check guess=(rea
 d,tcheck) scf=(maxcycle=1)\\title\\0,1\C,0,2.147973,-1.066945,0.\H,0,2
 .507268,-2.095782,0.\H,0,2.554206,-0.572788,0.882885\H,0,2.554206,-0.5
 72788,-0.882885\C,0,0.621595,-1.051458,0.\H,0,0.241625,-1.595107,-0.86
 9387\H,0,0.241625,-1.595107,0.869387\C,0,0.604486,1.49013,0.\H,0,1.683
 307,1.546561,0.\C,0,0.,0.312724,0.\Cl,0,-1.769241,0.256602,0.\H,0,0.05
 0536,2.416069,0.\\Version=ES64L-G16RevC.01\State=1-A'\HF=-615.1203799\

 Normal termination of Gaussian 16 at Sat Apr  5 22:26:54 2025.
