 Gaussian 16, Revision C.01,

 ----------------------------------------------------------------------
 #t hf aug-cc-pvdz symm=none int=(grid=ultrafine) guess=(read,tcheck) s
 table=(opt,rrhf)
 ----------------------------------------------------------------------
 -----
 title
 -----
 Symbolic Z-matrix:
 Charge =  0 Multiplicity = 1

 SCF Done:  E(RHF) =  -1221.37262675     A.U. after   16 cycles
 Normal termination of Gaussian 16 at Sat Apr  5 22:25:02 2025.
 Gaussian 16:  ES64L-G16RevC.01  3-Jul-2019

 ----------------------------------------------------------------------
 #t hf aug-cc-pvdz iop(5/13=1,5/36=2,99/5=2) pseudo=read geom=check gue
 ss=(read,tcheck) scf=(maxcycle=1)
 ----------------------------------------------------------------------
 -----
 title
 -----
 Structure from the checkpoint file:  "2-chloro-4-oxo-3-butenoyl_chloride.chk"
 Charge =  0 Multiplicity = 1

                         Standard orientation:
 ---------------------------------------------------------------------
 Center     Atomic      Atomic             Coordinates (Angstroms)
 Number     Number       Type             X           Y           Z
 ---------------------------------------------------------------------
      1         17           0        1.196823   -1.594183   -0.748571
      2         17           0       -0.018486    1.607823   -0.809981
      3          8           0        1.639323    1.360354    1.198885
      4          8           0       -2.947869   -0.058569   -0.171301
      5          6           0        0.488767   -0.684550    0.702596
      6          6           0        0.860125    0.779604    0.528686
      7          6           0       -0.940974   -0.958589    0.955829
      8          6           0       -1.982431   -0.450326    0.322211
      9          1           0        1.078223   -1.040999    1.539221
     10          1           0       -1.194498   -1.722002    1.679561
 ---------------------------------------------------------------------

 SCF Done:  E(RHF) =  -1221.50301045     A.U. after    2 cycles

 The electronic state is 1-A.
 Alpha  occ. eigenvalues -- -103.69339-103.67879 -20.67965 -20.63562 -11.44842
 Alpha  occ. eigenvalues --  -11.43511 -11.37940 -11.29127 -10.72677 -10.71110
 Alpha  occ. eigenvalues --   -8.38381  -8.38090  -8.38070  -8.36816  -8.36519
 Alpha  occ. eigenvalues --   -8.36508  -1.47862  -1.44345  -1.21167  -1.17619
 Alpha  occ. eigenvalues --   -1.10484  -0.99328  -0.83563  -0.78900  -0.74624
 Alpha  occ. eigenvalues --   -0.72856  -0.69491  -0.69281  -0.66514  -0.63722
 Alpha  occ. eigenvalues --   -0.62211  -0.57521  -0.51650  -0.50216  -0.50017
 Alpha  occ. eigenvalues --   -0.47939  -0.46971  -0.39470
 Alpha virt. eigenvalues --    0.02552   0.04813   0.05831   0.06538   0.08120
 Alpha virt. eigenvalues --    0.08456   0.08995   0.09368   0.11328   0.11536
 Alpha virt. eigenvalues --    0.12792   0.13385   0.13542   0.14094   0.14317

 Mulliken charges:
               1
     1  Cl  -0.085310
     2  Cl  -0.101446
     3  O   -0.358029
     4  O   -0.184107
     5  C   -0.032263
     6  C    0.290791
     7  C    1.211323
     8  C   -0.482094
     9  H    0.029769
    10  H   -0.288634
 Sum of Mulliken charges =   0.00000

 Dipole moment (field-independent basis, Debye):
    X=             -1.0089    Y=             -2.1799    Z=              1.7863  Tot=              2.9935

 Test job not archived.
 1\1\GINC-SE188\SP\RHF\Aug-CC-pVDZ\C4H2Cl2O2\OHZDE\05-Apr-2025\0\\#t hf
  aug-cc-pvdz iop(5/13=1,5/36=2,99/5=2) pseudo=read geom=check guess=(r
 ead,tcheck) scf=(maxcycle=1)\\title\\0,1\Cl,0,1.196824,-1.594182,-0.74
 8571\Cl,0,-0.018487,1.607823,-0.809981\O,0,1.639322,1.360355,1.198885\
 O,0,-2.947869,-0.05857,-0.171301\C,0,0.488767,-0.68455,0.702596\C,0,0.
 860125,0.779605,0.528686\C,0,-0.940974,-0.958589,0.955829\C,0,-1.98243
 1,-0.450327,0.322211\H,0,1.078224,-1.040998,1.539221\H,0,-1.194497,-1.
 722002,1.679561\\Version=ES64L-G16RevC.01\State=1-A\HF=-1221.5030104\R

 Normal termination of Gaussian 16 at Sat Apr  5 22:26:44 2025.
