 Gaussian 16, Revision C.01,

 ----------------------------------------------------------------------
 #t hf aug-cc-pvdz symm=none int=(grid=ultrafine) guess=(read,tcheck) s
 table=(opt,rrhf)
 ----------------------------------------------------------------------
 -----
 title
 -----
 Symbolic Z-matrix:
 Charge =  0 Multiplicity = 1

 SCF Done:  E(RHF) =  -1101.98231688     A.U. after   16 cycles
 Normal termination of Gaussian 16 at Sat Apr  5 22:25:02 2025.
 Gaussian 16:  ES64L-G16RevC.01  3-Jul-2019

 ----------------------------------------------------------------------
 #t hf aug-cc-pvdz iop(5/13=1,5/36=2,99/5=2) pseudo=read geom=check gue
 ss=(read,tcheck) scf=(maxcycle=1)
 ----------------------------------------------------------------------
 -----
 title
 -----
 Structure from the checkpoint file:  "2-chloro-5-cyanothiophene.chk"
 Charge =  0 Multiplicity = 1

                         Standard orientation:
 ---------------------------------------------------------------------
 Center     Atomic      Atomic             Coordinates (Angstroms)
 Number     Number       Type             X           Y           Z
 ---------------------------------------------------------------------
      1         17           0        2.782522   -0.268531    0.000000
      2         16           0       -0.110760   -1.024111   -0.000001
      3          7           0       -3.828995   -0.415531   -0.000002
      4          6           0       -0.790124    1.468188    0.000000
      5          6           0        0.622911    1.455790    0.000000
      6          6           0       -1.342826    0.212106    0.000000
      7          6           0        1.123743    0.185775    0.000000
      8          6           0       -2.711030   -0.129258   -0.000001
      9          1           0       -1.387679    2.366653    0.000000
     10          1           0        1.243873    2.337262    0.000002
 ---------------------------------------------------------------------

 SCF Done:  E(RHF) =  -1102.09479270     A.U. after    2 cycles

 The electronic state is 1-A.
 Alpha  occ. eigenvalues -- -103.70836 -93.61263 -15.65651 -11.37002 -11.33197
 Alpha  occ. eigenvalues --  -11.30747 -11.30352 -11.28833 -10.74089  -8.91013
 Alpha  occ. eigenvalues --   -8.39839  -8.39496  -8.39482  -6.25117  -6.24988
 Alpha  occ. eigenvalues --   -6.24593  -1.24730  -1.21252  -1.17758  -1.03879
 Alpha  occ. eigenvalues --   -1.01841  -0.86883  -0.78566  -0.75019  -0.65680
 Alpha  occ. eigenvalues --   -0.61845  -0.60321  -0.60274  -0.56247  -0.54284
 Alpha  occ. eigenvalues --   -0.53149  -0.49713  -0.48453  -0.47428  -0.39232
 Alpha  occ. eigenvalues --   -0.35498
 Alpha virt. eigenvalues --    0.02759   0.03879   0.04625   0.06339   0.07542
 Alpha virt. eigenvalues --    0.08813   0.09334   0.09560   0.10365   0.10719
 Alpha virt. eigenvalues --    0.12799   0.12986   0.13450   0.13752   0.14103

 Mulliken charges:
               1
     1  Cl  -0.296718
     2  S    0.755543
     3  N   -0.059881
     4  C   -0.047332
     5  C    0.908837
     6  C    1.261443
     7  C   -0.596348
     8  C   -1.227992
     9  H   -0.401439
    10  H   -0.296112
 Sum of Mulliken charges =  -0.00000

 Dipole moment (field-independent basis, Debye):
    X=              3.1945    Y=              2.2025    Z=              0.0000  Tot=              3.8802

 Test job not archived.
 1\1\GINC-SE194\SP\RHF\Aug-CC-pVDZ\C5H2Cl1N1S1\OHZDE\05-Apr-2025\0\\#t
 hf aug-cc-pvdz iop(5/13=1,5/36=2,99/5=2) pseudo=read geom=check guess=
 (read,tcheck) scf=(maxcycle=1)\\title\\0,1\Cl,0,2.782522,-0.268531,0.\
 S,0,-0.11076,-1.024111,-0.000001\N,0,-3.828995,-0.415531,-0.000002\C,0
 ,-0.790124,1.468188,0.\C,0,0.622911,1.45579,0.\C,0,-1.342826,0.212106,
 0.\C,0,1.123743,0.185775,0.\C,0,-2.71103,-0.129258,-0.000001\H,0,-1.38
 7679,2.366653,0.\H,0,1.243873,2.337262,0.000002\\Version=ES64L-G16RevC
 .01\State=1-A\HF=-1102.0947927\RMSD=1.649e-02\Dipole=1.2568095,0.86654

 Normal termination of Gaussian 16 at Sat Apr  5 22:26:44 2025.
