 Gaussian 16, Revision C.01,

 ----------------------------------------------------------------------
 #t hf aug-cc-pvdz symm=none int=(grid=ultrafine) guess=(read,tcheck) s
 table=(opt,rrhf)
 ----------------------------------------------------------------------
 -----
 title
 -----
 Symbolic Z-matrix:
 Charge =  0 Multiplicity = 1

 SCF Done:  E(RHF) =  -1109.09501655     A.U. after   16 cycles
 Normal termination of Gaussian 16 at Sat Apr  5 22:26:55 2025.
 Gaussian 16:  ES64L-G16RevC.01  3-Jul-2019

 ----------------------------------------------------------------------
 #t hf aug-cc-pvdz iop(5/13=1,5/36=2,99/5=2) pseudo=read geom=check gue
 ss=(read,tcheck) scf=(maxcycle=1)
 ----------------------------------------------------------------------
 -----
 title
 -----
 Structure from the checkpoint file:  "2-chloro-5-fluorothiophene.chk"
 Charge =  0 Multiplicity = 1

                         Standard orientation:
 ---------------------------------------------------------------------
 Center     Atomic      Atomic             Coordinates (Angstroms)
 Number     Number       Type             X           Y           Z
 ---------------------------------------------------------------------
      1         17           0       -2.515817   -0.128816    0.000007
      2         16           0        0.326747   -1.096199   -0.000007
      3          9           0        2.880120   -0.361130   -0.000011
      4          6           0       -0.231182    1.433389    0.000009
      5          6           0        1.195500    1.353571    0.000004
      6          6           0       -0.825108    0.213609    0.000004
      7          6           0        1.617947    0.069156   -0.000005
      8          1           0       -0.784651    2.359095    0.000016
      9          1           0        1.861563    2.201781    0.000006
 ---------------------------------------------------------------------

 SCF Done:  E(RHF) =  -1109.21843799     A.U. after    2 cycles

 The electronic state is 1-A.
 Alpha  occ. eigenvalues -- -103.69097 -93.59558 -26.16848 -11.38190 -11.34326
 Alpha  occ. eigenvalues --  -11.27648 -11.26912 -10.72341  -8.89364  -8.38091
 Alpha  occ. eigenvalues --   -8.37758  -8.37737  -6.23457  -6.23347  -6.22937
 Alpha  occ. eigenvalues --   -1.70867  -1.22549  -1.16254  -1.01300  -0.99783
 Alpha  occ. eigenvalues --   -0.86298  -0.81214  -0.78254  -0.74446  -0.72466
 Alpha  occ. eigenvalues --   -0.65387  -0.60228  -0.57580  -0.56187  -0.51396
 Alpha  occ. eigenvalues --   -0.49825  -0.48035  -0.37881  -0.34309
 Alpha virt. eigenvalues --    0.03398   0.04863   0.06850   0.07659   0.08054
 Alpha virt. eigenvalues --    0.08898   0.10855   0.12427   0.12847   0.12926
 Alpha virt. eigenvalues --    0.13649   0.13966   0.14697   0.15109   0.15710

 Mulliken charges:
               1
     1  Cl  -0.328009
     2  S    0.701934
     3  F   -0.299989
     4  C    0.582233
     5  C    0.129722
     6  C   -0.249213
     7  C    0.050957
     8  H   -0.292833
     9  H   -0.294801
 Sum of Mulliken charges =  -0.00000

 Dipole moment (field-independent basis, Debye):
    X=             -0.1653    Y=              1.5914    Z=              0.0000  Tot=              1.6000

 Test job not archived.
 1\1\GINC-SE084\SP\RHF\Aug-CC-pVDZ\C4H2Cl1F1S1\OHZDE\05-Apr-2025\0\\#t
 hf aug-cc-pvdz iop(5/13=1,5/36=2,99/5=2) pseudo=read geom=check guess=
 (read,tcheck) scf=(maxcycle=1)\\title\\0,1\Cl,0,-2.515817,-0.128816,0.
 000007\S,0,0.326747,-1.096199,-0.000007\F,0,2.88012,-0.36113,-0.000011
 \C,0,-0.231182,1.433389,0.000009\C,0,1.1955,1.353571,0.000004\C,0,-0.8
 25108,0.213609,0.000004\C,0,1.617947,0.069156,-0.000005\H,0,-0.784651,
 2.359095,0.000016\H,0,1.861563,2.201781,0.000006\\Version=ES64L-G16Rev
 C.01\State=1-A\HF=-1109.218438\RMSD=1.254e-02\Dipole=-0.0650345,0.6261

 Normal termination of Gaussian 16 at Sat Apr  5 22:27:00 2025.
