 Gaussian 16, Revision C.01,

 ----------------------------------------------------------------------
 #t hf aug-cc-pvdz symm=none int=(grid=ultrafine) guess=(read,tcheck) s
 table=(opt,rrhf)
 ----------------------------------------------------------------------
 -----
 title
 -----
 Symbolic Z-matrix:
 Charge =  0 Multiplicity = 1

 SCF Done:  E(RHF) =  -616.248448456     A.U. after   12 cycles

 1\1\GINC-SE040\Stability\RHF\Aug-CC-pVDZ\C4H9Cl1\OHZDE\05-Apr-2025\0\\
 #t hf aug-cc-pvdz symm=none int=(grid=ultrafine) guess=(read,tcheck) s
 table=(opt,rrhf)\\title\\0,1\C,0,0.,1.45652,-0.815071\C,0,1.261383,-0.
 72826,-0.815071\C,0,-1.261383,-0.72826,-0.815071\C,0,0.,0.,-0.370596\C
 l,0,0.,0.,1.489306\H,0,-0.8836,1.977898,-0.450456\H,0,0.8836,1.977898,
 -0.450456\H,0,0.,1.501962,-1.906872\H,0,2.15471,-0.223729,-0.450456\H,
 0,1.27111,-1.754169,-0.450456\H,0,1.300737,-0.750981,-1.906872\H,0,-2.
 15471,-0.223729,-0.450456\H,0,-1.27111,-1.754169,-0.450456\H,0,-1.3007

 Normal termination of Gaussian 16 at Sat Apr  5 22:27:00 2025.
 Gaussian 16:  ES64L-G16RevC.01  3-Jul-2019

 ----------------------------------------------------------------------
 #t hf aug-cc-pvdz iop(5/13=1,5/36=2,99/5=2) pseudo=read geom=check gue
 ss=(read,tcheck) scf=(maxcycle=1)
 ----------------------------------------------------------------------
 -----
 title
 -----
 Structure from the checkpoint file:  "2-chloro-2-methylpropane.chk"
 Charge =  0 Multiplicity = 1

                         Standard orientation:
 ---------------------------------------------------------------------
 Center     Atomic      Atomic             Coordinates (Angstroms)
 Number     Number       Type             X           Y           Z
 ---------------------------------------------------------------------
      1          6           0        0.815071    1.456520    0.000000
      2          6           0        0.815071   -0.728260    1.261383
      3          6           0        0.815071   -0.728260   -1.261383
      4          6           0        0.370596    0.000000    0.000000
      5         17           0       -1.489306    0.000000   -0.000000
      6          1           0        0.450456    1.977898   -0.883600
      7          1           0        0.450456    1.977898    0.883600
      8          1           0        1.906872    1.501962    0.000000
      9          1           0        0.450456   -0.223729    2.154710
     10          1           0        0.450456   -1.754169    1.271110
     11          1           0        1.906872   -0.750981    1.300737
     12          1           0        0.450456   -0.223729   -2.154710
     13          1           0        0.450456   -1.754169   -1.271110
     14          1           0        1.906872   -0.750981   -1.300737
 ---------------------------------------------------------------------

 SCF Done:  E(RHF) =  -616.316585484     A.U. after    2 cycles

 The electronic state is 1-A'.
 Alpha  occ. eigenvalues -- -103.63249 -11.31761 -11.23932 -11.23932 -11.23915
 Alpha  occ. eigenvalues --  -10.66539  -8.32238  -8.31981  -8.31981  -1.16266
 Alpha  occ. eigenvalues --   -1.04592  -0.95139  -0.95139  -0.75817  -0.63848
 Alpha  occ. eigenvalues --   -0.62604  -0.62604  -0.56476  -0.56476  -0.53323
 Alpha  occ. eigenvalues --   -0.50366  -0.50366  -0.48020  -0.43493  -0.43493
 Alpha virt. eigenvalues --    0.03302   0.04738   0.04738   0.05520   0.06971
 Alpha virt. eigenvalues --    0.06971   0.07490   0.07490   0.09424   0.10045
 Alpha virt. eigenvalues --    0.12188   0.14437   0.14437   0.14914   0.16283

 Mulliken charges:
               1
     1  C    0.947329
     2  C    0.947328
     3  C    0.947328
     4  C   -2.373051
     5  Cl  -0.263545
     6  H   -0.045894
     7  H   -0.045894
     8  H    0.023324
     9  H   -0.045893
    10  H   -0.045894
    11  H    0.023324
    12  H   -0.045893
    13  H   -0.045894
    14  H    0.023324
 Sum of Mulliken charges =  -0.00000

 Dipole moment (field-independent basis, Debye):
    X=              2.7590    Y=             -0.0000    Z=             -0.0000  Tot=              2.7590

 Test job not archived.
 1\1\GINC-SE040\SP\RHF\Aug-CC-pVDZ\C4H9Cl1\OHZDE\05-Apr-2025\0\\#t hf a
 ug-cc-pvdz iop(5/13=1,5/36=2,99/5=2) pseudo=read geom=check guess=(rea
 d,tcheck) scf=(maxcycle=1)\\title\\0,1\C,0,0.,1.45652,-0.815071\C,0,1.
 261383,-0.72826,-0.815071\C,0,-1.261383,-0.72826,-0.815071\C,0,0.,0.,-
 0.370596\Cl,0,0.,0.,1.489306\H,0,-0.8836,1.977898,-0.450456\H,0,0.8836
 ,1.977898,-0.450456\H,0,0.,1.501962,-1.906872\H,0,2.15471,-0.223729,-0
 .450456\H,0,1.27111,-1.754169,-0.450456\H,0,1.300737,-0.750981,-1.9068
 72\H,0,-2.15471,-0.223729,-0.450456\H,0,-1.27111,-1.754169,-0.450456\H

 Normal termination of Gaussian 16 at Sat Apr  5 22:27:04 2025.
