 Gaussian 16, Revision C.01,

 ----------------------------------------------------------------------
 #t hf aug-cc-pvdz symm=none int=(grid=ultrafine) guess=(read,tcheck) s
 table=(opt,rrhf)
 ----------------------------------------------------------------------
 -----
 title
 -----
 Symbolic Z-matrix:
 Charge =  0 Multiplicity = 1

 SCF Done:  E(RHF) =  -764.524693315     A.U. after   16 cycles
 Normal termination of Gaussian 16 at Sat Apr  5 22:27:21 2025.
 Gaussian 16:  ES64L-G16RevC.01  3-Jul-2019

 ----------------------------------------------------------------------
 #t hf aug-cc-pvdz iop(5/13=1,5/36=2,99/5=2) pseudo=read geom=check gue
 ss=(read,tcheck) scf=(maxcycle=1)
 ----------------------------------------------------------------------
 -----
 title
 -----
 Structure from the checkpoint file:  "2-chlorophenol.chk"
 Charge =  0 Multiplicity = 1

                         Standard orientation:
 ---------------------------------------------------------------------
 Center     Atomic      Atomic             Coordinates (Angstroms)
 Number     Number       Type             X           Y           Z
 ---------------------------------------------------------------------
      1          6           0        1.592286   -1.728677   -0.000000
      2          6           0        2.181509   -0.467693   -0.000000
      3          6           0        0.212578   -1.863151   -0.000000
      4          6           0        1.379088    0.665360   -0.000000
      5          6           0       -0.604239   -0.733979   -0.000000
      6          6           0        0.000000    0.525088    0.000000
      7          8           0       -1.948598   -0.906903    0.000000
      8         17           0       -1.036509    1.945558    0.000000
      9          1           0        2.211530   -2.615032   -0.000000
     10          1           0        3.256995   -0.363392   -0.000000
     11          1           0       -0.258879   -2.835831   -0.000000
     12          1           0        1.812238    1.655014    0.000000
     13          1           0       -2.379775   -0.041703    0.000000
 ---------------------------------------------------------------------

 SCF Done:  E(RHF) =  -764.635394413     A.U. after    2 cycles

 The electronic state is 1-A'.
 Alpha  occ. eigenvalues -- -103.68171 -20.61465 -11.33280 -11.31356 -11.26862
 Alpha  occ. eigenvalues --  -11.26190 -11.25303 -11.25237 -10.71443  -8.37175
 Alpha  occ. eigenvalues --   -8.36896  -8.36852  -1.38310  -1.20411  -1.14181
 Alpha  occ. eigenvalues --   -1.02728  -1.00679  -0.85790  -0.84905  -0.75932
 Alpha  occ. eigenvalues --   -0.70795  -0.67183  -0.63137  -0.62515  -0.60553
 Alpha  occ. eigenvalues --   -0.59903  -0.54611  -0.53623  -0.51768  -0.48639
 Alpha  occ. eigenvalues --   -0.48484  -0.35569  -0.33358
 Alpha virt. eigenvalues --    0.03402   0.04157   0.04443   0.05911   0.06352
 Alpha virt. eigenvalues --    0.08919   0.09733   0.11026   0.11525   0.11581
 Alpha virt. eigenvalues --    0.12923   0.13837   0.13913   0.14246   0.14284

 Mulliken charges:
               1
     1  C    0.287374
     2  C    0.821577
     3  C    1.114578
     4  C    0.429366
     5  C    0.051364
     6  C   -0.061667
     7  O   -0.539542
     8  Cl  -0.479225
     9  H   -0.433355
    10  H   -0.435029
    11  H   -0.507181
    12  H   -0.409609
    13  H    0.161351
 Sum of Mulliken charges =  -0.00000

 Dipole moment (field-independent basis, Debye):
    X=              1.4412    Y=             -0.1520    Z=             -0.0000  Tot=              1.4492

 Test job not archived.
 1\1\GINC-SE232\SP\RHF\Aug-CC-pVDZ\C6H5Cl1O1\OHZDE\05-Apr-2025\0\\#t hf
  aug-cc-pvdz iop(5/13=1,5/36=2,99/5=2) pseudo=read geom=check guess=(r
 ead,tcheck) scf=(maxcycle=1)\\title\\0,1\C,0,1.592286,-1.728677,0.\C,0
 ,2.181509,-0.467693,0.\C,0,0.212578,-1.863151,0.\C,0,1.379088,0.66536,
 0.\C,0,-0.604239,-0.733979,0.\C,0,0.,0.525088,0.\O,0,-1.948598,-0.9069
 03,0.\Cl,0,-1.036509,1.945558,0.\H,0,2.21153,-2.615032,0.\H,0,3.256995
 ,-0.363392,0.\H,0,-0.258879,-2.835831,0.\H,0,1.812238,1.655014,0.\H,0,
 -2.379775,-0.041703,0.\\Version=ES64L-G16RevC.01\State=1-A'\HF=-764.63

 Normal termination of Gaussian 16 at Sat Apr  5 22:28:07 2025.
