 Gaussian 16, Revision C.01,

 ----------------------------------------------------------------------
 #t hf aug-cc-pvdz symm=none int=(grid=ultrafine) guess=(read,tcheck) s
 table=(opt,rrhf)
 ----------------------------------------------------------------------
 -----
 title
 -----
 Symbolic Z-matrix:
 Charge =  0 Multiplicity = 1

 SCF Done:  E(RHF) =  -1371.07640986     A.U. after   14 cycles
 Normal termination of Gaussian 16 at Sat Apr  5 22:24:57 2025.
 Gaussian 16:  ES64L-G16RevC.01  3-Jul-2019

 ----------------------------------------------------------------------
 #t hf aug-cc-pvdz iop(5/13=1,5/36=2,99/5=2) pseudo=read geom=check gue
 ss=(read,tcheck) scf=(maxcycle=1)
 ----------------------------------------------------------------------
 -----
 title
 -----
 Structure from the checkpoint file:  "2-chloro-3-propenedisulfide.chk"
 Charge =  0 Multiplicity = 1

                         Standard orientation:
 ---------------------------------------------------------------------
 Center     Atomic      Atomic             Coordinates (Angstroms)
 Number     Number       Type             X           Y           Z
 ---------------------------------------------------------------------
      1         17           0       -2.213770   -1.116422    0.019613
      2         16           0        1.043133    0.085348   -0.719629
      3         16           0        2.876136   -0.099112    0.233234
      4          6           0       -1.513151    0.487919    0.204363
      5          6           0       -0.101760    0.501799    0.686458
      6          6           0       -2.230617    1.563308   -0.088361
      7          1           0        2.830146   -1.417869    0.524098
      8          1           0        0.054997   -0.235049    1.469729
      9          1           0        0.155816    1.491757    1.054508
     10          1           0       -3.249590    1.496805   -0.437101
     11          1           0       -1.792416    2.545606    0.022903
 ---------------------------------------------------------------------

 SCF Done:  E(RHF) =  -1371.17187259     A.U. after    2 cycles

 The electronic state is 1-A.
 Alpha  occ. eigenvalues -- -103.67049 -93.57126 -93.56920 -11.33015 -11.29847
 Alpha  occ. eigenvalues --  -11.26621 -10.70348  -8.86720  -8.86449  -8.36079
 Alpha  occ. eigenvalues --   -8.35773  -8.35760  -6.20844  -6.20623  -6.20540
 Alpha  occ. eigenvalues --   -6.20293  -6.20261  -6.19939  -1.19831  -1.08225
 Alpha  occ. eigenvalues --   -1.03438  -0.96640  -0.83670  -0.76039  -0.67290
 Alpha  occ. eigenvalues --   -0.65465  -0.59736  -0.58324  -0.53855  -0.53689
 Alpha  occ. eigenvalues --   -0.50166  -0.47331  -0.45943  -0.39421  -0.37137
 Alpha  occ. eigenvalues --   -0.36533
 Alpha virt. eigenvalues --    0.03509   0.04202   0.05160   0.05629   0.07039
 Alpha virt. eigenvalues --    0.07537   0.08222   0.09469   0.10121   0.11754
 Alpha virt. eigenvalues --    0.12238   0.12831   0.13598   0.14067   0.15792

 Mulliken charges:
               1
     1  Cl  -0.309537
     2  S    0.098613
     3  S   -0.100740
     4  C   -0.032515
     5  C    0.061774
     6  C    0.940024
     7  H    0.127295
     8  H   -0.075579
     9  H   -0.136926
    10  H   -0.308203
    11  H   -0.264206
 Sum of Mulliken charges =  -0.00000

 Dipole moment (field-independent basis, Debye):
    X=             -0.3983    Y=              1.1665    Z=              1.4002  Tot=              1.8654

 Test job not archived.
 1\1\GINC-SE185\SP\RHF\Aug-CC-pVDZ\C3H5Cl1S2\OHZDE\05-Apr-2025\0\\#t hf
  aug-cc-pvdz iop(5/13=1,5/36=2,99/5=2) pseudo=read geom=check guess=(r
 ead,tcheck) scf=(maxcycle=1)\\title\\0,1\Cl,0,-2.21377,-1.116422,0.019
 613\S,0,1.043133,0.085348,-0.719629\S,0,2.876136,-0.099112,0.233234\C,
 0,-1.513151,0.487919,0.204363\C,0,-0.10176,0.501799,0.686458\C,0,-2.23
 0617,1.563308,-0.088361\H,0,2.830146,-1.417869,0.524098\H,0,0.054997,-
 0.235049,1.469729\H,0,0.155816,1.491757,1.054508\H,0,-3.24959,1.496805
 ,-0.437101\H,0,-1.792416,2.545606,0.022903\\Version=ES64L-G16RevC.01\S

 Normal termination of Gaussian 16 at Sat Apr  5 22:26:43 2025.
