 Gaussian 16, Revision C.01,

 ----------------------------------------------------------------------
 #t hf aug-cc-pvdz symm=none int=(grid=ultrafine) guess=(read,tcheck) s
 table=(opt,rrhf)
 ----------------------------------------------------------------------
 -----
 title
 -----
 Symbolic Z-matrix:
 Charge =  0 Multiplicity = 1

 SCF Done:  E(RHF) =  -834.780766241     A.U. after   12 cycles
 Normal termination of Gaussian 16 at Sat Apr  5 22:23:45 2025.
 Gaussian 16:  ES64L-G16RevC.01  3-Jul-2019

 ----------------------------------------------------------------------
 #t hf aug-cc-pvdz iop(5/13=1,5/36=2,99/5=2) pseudo=read geom=check gue
 ss=(read,tcheck) scf=(maxcycle=1)
 ----------------------------------------------------------------------
 -----
 title
 -----
 Structure from the checkpoint file:  "2-chloro-1-1-1-trifluoroethane.chk"
 Charge =  0 Multiplicity = 1

                         Standard orientation:
 ---------------------------------------------------------------------
 Center     Atomic      Atomic             Coordinates (Angstroms)
 Number     Number       Type             X           Y           Z
 ---------------------------------------------------------------------
      1          6           0       -0.858750    0.493126    0.000000
      2          6           0        0.656851    0.425801    0.000000
      3          9           0        1.143435   -0.195496    1.084579
      4          9           0        1.143435    1.687623    0.000000
      5          9           0        1.143435   -0.195496   -1.084579
      6         17           0       -1.605455   -1.130914    0.000000
      7          1           0       -1.184311    1.021148    0.890634
      8          1           0       -1.184311    1.021148   -0.890634
 ---------------------------------------------------------------------

 SCF Done:  E(RHF) =  -834.934319943     A.U. after    2 cycles

 The electronic state is 1-A'.
 Alpha  occ. eigenvalues -- -103.68229 -26.17812 -26.17647 -26.17635 -11.54367
 Alpha  occ. eigenvalues --  -11.34835 -10.71498  -8.37227  -8.36910  -8.36897
 Alpha  occ. eigenvalues --   -1.77344  -1.70268  -1.70209  -1.20330  -1.07481
 Alpha  occ. eigenvalues --   -0.96677  -0.89377  -0.89129  -0.83228  -0.78532
 Alpha  occ. eigenvalues --   -0.78386  -0.74134  -0.73968  -0.72792  -0.65866
 Alpha  occ. eigenvalues --   -0.63564  -0.59149  -0.48297  -0.47775
 Alpha virt. eigenvalues --    0.03416   0.05003   0.07172   0.07996   0.11086
 Alpha virt. eigenvalues --    0.11259   0.12273   0.13415   0.15050   0.15677
 Alpha virt. eigenvalues --    0.17220   0.17629   0.18673   0.19878   0.24644

 Mulliken charges:
               1
     1  C   -0.227327
     2  C    0.998757
     3  F   -0.283986
     4  F   -0.313465
     5  F   -0.283986
     6  Cl  -0.084577
     7  H    0.097292
     8  H    0.097292
 Sum of Mulliken charges =  -0.00000

 Dipole moment (field-independent basis, Debye):
    X=             -1.7676    Y=              1.5774    Z=             -0.0000  Tot=              2.3691

 Test job not archived.
 1\1\GINC-SE169\SP\RHF\Aug-CC-pVDZ\C2H2Cl1F3\OHZDE\05-Apr-2025\0\\#t hf
  aug-cc-pvdz iop(5/13=1,5/36=2,99/5=2) pseudo=read geom=check guess=(r
 ead,tcheck) scf=(maxcycle=1)\\title\\0,1\C,0,-0.85875,0.493126,0.\C,0,
 0.656851,0.425801,0.\F,0,1.143435,-0.195496,1.084579\F,0,1.143435,1.68
 7623,0.\F,0,1.143435,-0.195496,-1.084579\Cl,0,-1.605455,-1.130914,0.\H
 ,0,-1.184311,1.021148,0.890634\H,0,-1.184311,1.021148,-0.890634\\Versi
 on=ES64L-G16RevC.01\State=1-A'\HF=-834.9343199\RMSD=6.234e-03\Dipole=-
 0.6954206,0.620613,0.\Quadrupole=-0.6521079,0.3039181,0.3481898,-2.219

 Normal termination of Gaussian 16 at Sat Apr  5 22:23:48 2025.
