 Gaussian 16, Revision C.01,

 ----------------------------------------------------------------------
 #t hf aug-cc-pvdz symm=none int=(grid=ultrafine) guess=(read,tcheck) s
 table=(opt,rrhf)
 ----------------------------------------------------------------------
 -----
 title
 -----
 Symbolic Z-matrix:
 Charge =  0 Multiplicity = 1

 SCF Done:  E(RHF) =  -705.648625508     A.U. after   15 cycles
 Normal termination of Gaussian 16 at Sat Apr  5 22:26:54 2025.
 Gaussian 16:  ES64L-G16RevC.01  3-Jul-2019

 ----------------------------------------------------------------------
 #t hf aug-cc-pvdz iop(5/13=1,5/36=2,99/5=2) pseudo=read geom=check gue
 ss=(read,tcheck) scf=(maxcycle=1)
 ----------------------------------------------------------------------
 -----
 title
 -----
 Structure from the checkpoint file:  "2-chloropyridine.chk"
 Charge =  0 Multiplicity = 1

                         Standard orientation:
 ---------------------------------------------------------------------
 Center     Atomic      Atomic             Coordinates (Angstroms)
 Number     Number       Type             X           Y           Z
 ---------------------------------------------------------------------
      1          6           0        1.117725   -1.621803   -0.000000
      2          6           0       -0.134069   -2.228093   -0.000000
      3          6           0        1.198783   -0.239009   -0.000000
      4          6           0       -1.256434   -1.414618   -0.000000
      5          6           0       -0.000000    0.468958    0.000000
      6          7           0       -1.193392   -0.079210    0.000000
      7         17           0        0.066000    2.226123    0.000000
      8          1           0        2.020759   -2.217276   -0.000000
      9          1           0       -0.237805   -3.303639   -0.000000
     10          1           0        2.145204    0.279331   -0.000000
     11          1           0       -2.252451   -1.840653    0.000000
 ---------------------------------------------------------------------

 SCF Done:  E(RHF) =  -705.739147935     A.U. after    2 cycles

 The electronic state is 1-A'.
 Alpha  occ. eigenvalues -- -103.66687 -15.64876 -11.35694 -11.30357 -11.28536
 Alpha  occ. eigenvalues --  -11.26988 -11.26439 -10.69992  -8.35725  -8.35409
 Alpha  occ. eigenvalues --   -8.35403  -1.27135  -1.16554  -1.09878  -1.02799
 Alpha  occ. eigenvalues --   -0.88394  -0.85730  -0.72999  -0.69495  -0.66379
 Alpha  occ. eigenvalues --   -0.61139  -0.59469  -0.58532  -0.54251  -0.48743
 Alpha  occ. eigenvalues --   -0.47242  -0.43575  -0.40222  -0.35783
 Alpha virt. eigenvalues --    0.02765   0.03765   0.04888   0.06095   0.07844
 Alpha virt. eigenvalues --    0.08682   0.08834   0.10326   0.11520   0.11667
 Alpha virt. eigenvalues --    0.12982   0.13214   0.14097   0.14687   0.14783

 Mulliken charges:
               1
     1  C   -0.364075
     2  C    0.880419
     3  C    1.377832
     4  C    0.405961
     5  C   -0.261836
     6  N   -0.300445
     7  Cl  -0.253332
     8  H   -0.390262
     9  H   -0.398973
    10  H   -0.372376
    11  H   -0.322913
 Sum of Mulliken charges =   0.00000

 Dipole moment (field-independent basis, Debye):
    X=              1.7005    Y=             -3.2972    Z=             -0.0000  Tot=              3.7098

 Test job not archived.
 1\1\GINC-SE052\SP\RHF\Aug-CC-pVDZ\C5H4Cl1N1\OHZDE\05-Apr-2025\0\\#t hf
  aug-cc-pvdz iop(5/13=1,5/36=2,99/5=2) pseudo=read geom=check guess=(r
 ead,tcheck) scf=(maxcycle=1)\\title\\0,1\C,0,1.117724,-1.621803,0.\C,0
 ,-0.13407,-2.228093,0.\C,0,1.198783,-0.239009,0.\C,0,-1.256435,-1.4146
 17,0.\C,0,0.,0.468958,0.\N,0,-1.193392,-0.079209,0.\Cl,0,0.066001,2.22
 6123,0.\H,0,2.020758,-2.217277,0.\H,0,-0.237807,-3.303639,0.\H,0,2.145
 204,0.27933,0.\H,0,-2.252452,-1.840652,0.\\Version=ES64L-G16RevC.01\St
 ate=1-A'\HF=-705.7391479\RMSD=9.571e-03\Dipole=0.6690202,-1.2972041,0.

 Normal termination of Gaussian 16 at Sat Apr  5 22:27:00 2025.
