 Gaussian 16, Revision C.01,

 ----------------------------------------------------------------------
 #t hf aug-cc-pvdz symm=none int=(grid=ultrafine) guess=(read,tcheck) s
 table=(opt,rrhf)
 ----------------------------------------------------------------------
 -----
 title
 -----
 Symbolic Z-matrix:
 Charge =  0 Multiplicity = 1

 SCF Done:  E(RHF) =  -577.207474259     A.U. after   12 cycles

 1\1\GINC-SE052\Stability\RHF\Aug-CC-pVDZ\C3H7Cl1\OHZDE\05-Apr-2025\0\\
 #t hf aug-cc-pvdz symm=none int=(grid=ultrafine) guess=(read,tcheck) s
 table=(opt,rrhf)\\title\\0,1\C,0,-0.574621,-0.905235,1.27048\C,0,-0.57
 4621,-0.905235,-1.27048\C,0,-0.574621,-0.076502,0.\Cl,0,0.896612,1.024
 877,0.\H,0,-0.565593,-0.272482,2.155996\H,0,-1.473445,-1.525794,1.2994
 65\H,0,0.295393,-1.561,1.305554\H,0,-0.565593,-0.272482,-2.155996\H,0,
 -1.473445,-1.525794,-1.299465\H,0,0.295393,-1.561,-1.305554\H,0,-1.411
 924,0.61747,0.\\Version=ES64L-G16RevC.01\HF=-577.2074743\RMSD=2.967e-0

 Normal termination of Gaussian 16 at Sat Apr  5 22:26:41 2025.
 Gaussian 16:  ES64L-G16RevC.01  3-Jul-2019

 ----------------------------------------------------------------------
 #t hf aug-cc-pvdz iop(5/13=1,5/36=2,99/5=2) pseudo=read geom=check gue
 ss=(read,tcheck) scf=(maxcycle=1)
 ----------------------------------------------------------------------
 -----
 title
 -----
 Structure from the checkpoint file:  "2-chloropropane.chk"
 Charge =  0 Multiplicity = 1

                         Standard orientation:
 ---------------------------------------------------------------------
 Center     Atomic      Atomic             Coordinates (Angstroms)
 Number     Number       Type             X           Y           Z
 ---------------------------------------------------------------------
      1          6           0       -0.574621   -0.905235    1.270480
      2          6           0       -0.574621   -0.905235   -1.270480
      3          6           0       -0.574621   -0.076502    0.000000
      4         17           0        0.896612    1.024877   -0.000000
      5          1           0       -0.565593   -0.272482    2.155996
      6          1           0       -1.473445   -1.525794    1.299465
      7          1           0        0.295393   -1.561000    1.305554
      8          1           0       -0.565593   -0.272482   -2.155996
      9          1           0       -1.473445   -1.525794   -1.299465
     10          1           0        0.295393   -1.561000   -1.305554
     11          1           0       -1.411924    0.617470    0.000000
 ---------------------------------------------------------------------

 SCF Done:  E(RHF) =  -577.264521304     A.U. after    2 cycles

 The electronic state is 1-A'.
 Alpha  occ. eigenvalues -- -103.63793 -11.31131 -11.24206 -11.24197 -10.67085
 Alpha  occ. eigenvalues --   -8.32791  -8.32523  -8.32517  -1.15897  -1.03348
 Alpha  occ. eigenvalues --   -0.95201  -0.80519  -0.65351  -0.62026  -0.59506
 Alpha  occ. eigenvalues --   -0.55940  -0.52250  -0.51713  -0.49307  -0.43886
 Alpha  occ. eigenvalues --   -0.43827
 Alpha virt. eigenvalues --    0.03343   0.04732   0.04798   0.05675   0.07370
 Alpha virt. eigenvalues --    0.07386   0.07739   0.09889   0.12691   0.13426
 Alpha virt. eigenvalues --    0.15053   0.15078   0.16192   0.16771   0.17451

 Mulliken charges:
               1
     1  C    0.585803
     2  C    0.585803
     3  C   -0.682944
     4  Cl  -0.217028
     5  H   -0.070077
     6  H   -0.017927
     7  H   -0.018610
     8  H   -0.070077
     9  H   -0.017927
    10  H   -0.018610
    11  H   -0.058409
 Sum of Mulliken charges =   0.00000

 Dipole moment (field-independent basis, Debye):
    X=             -2.0503    Y=             -1.7123    Z=             -0.0000  Tot=              2.6713

 Test job not archived.
 1\1\GINC-SE052\SP\RHF\Aug-CC-pVDZ\C3H7Cl1\OHZDE\05-Apr-2025\0\\#t hf a
 ug-cc-pvdz iop(5/13=1,5/36=2,99/5=2) pseudo=read geom=check guess=(rea
 d,tcheck) scf=(maxcycle=1)\\title\\0,1\C,0,-0.574621,-0.905235,1.27048
 \C,0,-0.574621,-0.905235,-1.27048\C,0,-0.574621,-0.076502,0.\Cl,0,0.89
 6612,1.024877,0.\H,0,-0.565593,-0.272482,2.155996\H,0,-1.473445,-1.525
 794,1.299465\H,0,0.295393,-1.561,1.305554\H,0,-0.565593,-0.272482,-2.1
 55996\H,0,-1.473445,-1.525794,-1.299465\H,0,0.295393,-1.561,-1.305554\
 H,0,-1.411924,0.61747,0.\\Version=ES64L-G16RevC.01\State=1-A'\HF=-577.

 Normal termination of Gaussian 16 at Sat Apr  5 22:26:47 2025.
