 Gaussian 16, Revision C.01,

 ----------------------------------------------------------------------
 #t hf aug-cc-pvdz symm=none int=(grid=ultrafine) guess=(read,tcheck) s
 table=(opt,rrhf)
 ----------------------------------------------------------------------
 -----
 title
 -----
 Symbolic Z-matrix:
 Charge =  0 Multiplicity = 1

 SCF Done:  E(RHF) =  -820.503329927     A.U. after   14 cycles
 Normal termination of Gaussian 16 at Sat Apr  5 22:24:57 2025.
 Gaussian 16:  ES64L-G16RevC.01  3-Jul-2019

 ----------------------------------------------------------------------
 #t hf aug-cc-pvdz iop(5/13=1,5/36=2,99/5=2) pseudo=read geom=check gue
 ss=(read,tcheck) scf=(maxcycle=1)
 ----------------------------------------------------------------------
 -----
 title
 -----
 Structure from the checkpoint file:  "2-chloro-5-fluoropyrimidine.chk"
 Charge =  0 Multiplicity = 1

                         Standard orientation:
 ---------------------------------------------------------------------
 Center     Atomic      Atomic             Coordinates (Angstroms)
 Number     Number       Type             X           Y           Z
 ---------------------------------------------------------------------
      1         17           0        0.000000   -0.000000    2.618722
      2          9           0        0.000000    0.000000   -3.087327
      3          7           0        0.000000    1.187499    0.290904
      4          7           0       -0.000000   -1.187499    0.290904
      5          6           0        0.000000   -0.000000    0.875246
      6          6           0        0.000000    0.000000   -1.745780
      7          6           0        0.000000    1.189332   -1.040282
      8          6           0       -0.000000   -1.189332   -1.040282
      9          1           0        0.000000    2.145496   -1.549203
     10          1           0       -0.000000   -2.145496   -1.549203
 ---------------------------------------------------------------------

 SCF Done:  E(RHF) =  -820.633277949     A.U. after    2 cycles

 The electronic state is 1-A1.
 Alpha  occ. eigenvalues -- -103.67855 -26.17056 -15.67463 -15.67457 -11.40458
 Alpha  occ. eigenvalues --  -11.37025 -11.34116 -11.34110 -10.71186  -8.36924
 Alpha  occ. eigenvalues --   -8.36592  -8.36585  -1.71067  -1.33522  -1.20598
 Alpha  occ. eigenvalues --   -1.18848  -1.08237  -0.95046  -0.91612  -0.81546
 Alpha  occ. eigenvalues --   -0.80983  -0.78719  -0.73540  -0.70725  -0.63775
 Alpha  occ. eigenvalues --   -0.62784  -0.61088  -0.51803  -0.50295  -0.48603
 Alpha  occ. eigenvalues --   -0.45566  -0.43993  -0.38939
 Alpha virt. eigenvalues --    0.03144   0.03754   0.05366   0.06943   0.07342
 Alpha virt. eigenvalues --    0.08715   0.09226   0.10665   0.10763   0.12808
 Alpha virt. eigenvalues --    0.13237   0.13309   0.13688   0.14561   0.14984

 Mulliken charges:
               1
     1  Cl  -0.039402
     2  F   -0.288163
     3  N   -0.392508
     4  N   -0.392508
     5  C   -0.091247
     6  C    0.186875
     7  C    0.790525
     8  C    0.790525
     9  H   -0.282049
    10  H   -0.282049
 Sum of Mulliken charges =  -0.00000

 Dipole moment (field-independent basis, Debye):
    X=              0.0000    Y=             -0.0000    Z=             -2.1438  Tot=              2.1438

 Test job not archived.
 1\1\GINC-SE010\SP\RHF\Aug-CC-pVDZ\C4H2Cl1F1N2\OHZDE\05-Apr-2025\0\\#t
 hf aug-cc-pvdz iop(5/13=1,5/36=2,99/5=2) pseudo=read geom=check guess=
 (read,tcheck) scf=(maxcycle=1)\\title\\0,1\Cl,0,0.,0.,2.618722\F,0,0.,
 0.,-3.087327\N,0,0.,1.187499,0.290904\N,0,0.,-1.187499,0.290904\C,0,0.
 ,0.,0.875246\C,0,0.,0.,-1.74578\C,0,0.,1.189332,-1.040282\C,0,0.,-1.18
 9332,-1.040282\H,0,0.,2.145496,-1.549203\H,0,0.,-2.145496,-1.549203\\V
 ersion=ES64L-G16RevC.01\State=1-A1\HF=-820.6332779\RMSD=8.214e-03\Dipo
 le=0.,0.,-0.8434249\Quadrupole=0.8896982,1.9238655,-2.8135637,0.,0.,0.

 Normal termination of Gaussian 16 at Sat Apr  5 22:26:43 2025.
