 Gaussian 16, Revision C.01,

 ----------------------------------------------------------------------
 #t hf aug-cc-pvdz symm=none int=(grid=ultrafine) guess=(read,tcheck) s
 table=(opt,rrhf)
 ----------------------------------------------------------------------
 -----
 title
 -----
 Symbolic Z-matrix:
 Charge =  0 Multiplicity = 1

 SCF Done:  E(RHF) =  -616.245582640     A.U. after   12 cycles

 1\1\GINC-SE165\Stability\RHF\Aug-CC-pVDZ\C4H9Cl1\OHZDE\05-Apr-2025\0\\
 #t hf aug-cc-pvdz symm=none int=(grid=ultrafine) guess=(read,tcheck) s
 table=(opt,rrhf)\\title\\0,1\C,0,-2.206969,-0.247941,0.120536\C,0,1.30
 8098,1.482588,-0.007133\C,0,-1.084035,0.682292,-0.327997\C,0,0.25625,0
 .451574,0.355516\Cl,0,0.901845,-1.220351,-0.068863\H,0,-3.140782,0.008
 425,-0.380359\H,0,-2.375597,-0.171892,1.196607\H,0,-1.974733,-1.286618
 ,-0.109767\H,0,0.96773,2.473657,0.301639\H,0,2.253331,1.27419,0.490384
 \H,0,1.481667,1.499431,-1.08311\H,0,-1.364879,1.71938,-0.116341\H,0,-0

 Normal termination of Gaussian 16 at Sat Apr  5 22:25:04 2025.
 Gaussian 16:  ES64L-G16RevC.01  3-Jul-2019

 ----------------------------------------------------------------------
 #t hf aug-cc-pvdz iop(5/13=1,5/36=2,99/5=2) pseudo=read geom=check gue
 ss=(read,tcheck) scf=(maxcycle=1)
 ----------------------------------------------------------------------
 -----
 title
 -----
 Structure from the checkpoint file:  "2-chlorobutane.chk"
 Charge =  0 Multiplicity = 1

                         Standard orientation:
 ---------------------------------------------------------------------
 Center     Atomic      Atomic             Coordinates (Angstroms)
 Number     Number       Type             X           Y           Z
 ---------------------------------------------------------------------
      1          6           0       -2.206969   -0.247941    0.120536
      2          6           0        1.308098    1.482588   -0.007133
      3          6           0       -1.084035    0.682292   -0.327997
      4          6           0        0.256250    0.451574    0.355516
      5         17           0        0.901845   -1.220351   -0.068863
      6          1           0       -3.140782    0.008426   -0.380359
      7          1           0       -2.375597   -0.171892    1.196607
      8          1           0       -1.974733   -1.286618   -0.109767
      9          1           0        0.967731    2.473657    0.301639
     10          1           0        2.253331    1.274190    0.490384
     11          1           0        1.481667    1.499431   -1.083110
     12          1           0       -1.364879    1.719380   -0.116341
     13          1           0       -0.943092    0.614242   -1.409190
     14          1           0        0.124917    0.404075    1.435284
 ---------------------------------------------------------------------

 SCF Done:  E(RHF) =  -616.314479876     A.U. after    2 cycles

 The electronic state is 1-A.
 Alpha  occ. eigenvalues -- -103.63665 -11.30849 -11.24572 -11.24096 -11.22812
 Alpha  occ. eigenvalues --  -10.66957  -8.32663  -8.32402  -8.32392  -1.15909
 Alpha  occ. eigenvalues --   -1.04922  -0.99267  -0.87709  -0.79485  -0.65466
 Alpha  occ. eigenvalues --   -0.61702  -0.60886  -0.58723  -0.54259  -0.51777
 Alpha  occ. eigenvalues --   -0.50383  -0.49751  -0.48239  -0.43726  -0.43609
 Alpha virt. eigenvalues --    0.03377   0.04341   0.04691   0.05414   0.06712
 Alpha virt. eigenvalues --    0.06858   0.07099   0.08123   0.09473   0.11009
 Alpha virt. eigenvalues --    0.12000   0.12928   0.14671   0.15709   0.16222

 Mulliken charges:
               1
     1  C    0.427406
     2  C    0.629197
     3  C    0.257328
     4  C   -0.513125
     5  Cl  -0.232420
     6  H   -0.052463
     7  H   -0.068275
     8  H   -0.051124
     9  H   -0.027224
    10  H   -0.060569
    11  H   -0.013103
    12  H   -0.083600
    13  H   -0.113896
    14  H   -0.098131
 Sum of Mulliken charges =  -0.00000

 Dipole moment (field-independent basis, Debye):
    X=             -1.0077    Y=              2.3941    Z=              0.4319  Tot=              2.6332

 Test job not archived.
 1\1\GINC-SE165\SP\RHF\Aug-CC-pVDZ\C4H9Cl1\OHZDE\05-Apr-2025\0\\#t hf a
 ug-cc-pvdz iop(5/13=1,5/36=2,99/5=2) pseudo=read geom=check guess=(rea
 d,tcheck) scf=(maxcycle=1)\\title\\0,1\C,0,-2.206969,-0.247941,0.12053
 6\C,0,1.308098,1.482588,-0.007133\C,0,-1.084035,0.682292,-0.327997\C,0
 ,0.25625,0.451574,0.355516\Cl,0,0.901845,-1.220351,-0.068863\H,0,-3.14
 0782,0.008425,-0.380359\H,0,-2.375597,-0.171892,1.196607\H,0,-1.974733
 ,-1.286618,-0.109767\H,0,0.96773,2.473657,0.301639\H,0,2.253331,1.2741
 9,0.490384\H,0,1.481667,1.499431,-1.08311\H,0,-1.364879,1.71938,-0.116

 Normal termination of Gaussian 16 at Sat Apr  5 22:26:43 2025.
