 Gaussian 16, Revision C.01,

 ----------------------------------------------------------------------
 #t hf aug-cc-pvdz symm=none int=(grid=ultrafine) guess=(read,tcheck) s
 table=(opt,rrhf)
 ----------------------------------------------------------------------
 -----
 title
 -----
 Symbolic Z-matrix:
 Charge =  0 Multiplicity = 1

 SCF Done:  E(RHF) =  -1065.27415674     A.U. after   15 cycles
 Normal termination of Gaussian 16 at Sat Apr  5 22:25:00 2025.
 Gaussian 16:  ES64L-G16RevC.01  3-Jul-2019

 ----------------------------------------------------------------------
 #t hf aug-cc-pvdz iop(5/13=1,5/36=2,99/5=2) pseudo=read geom=check gue
 ss=(read,tcheck) scf=(maxcycle=1)
 ----------------------------------------------------------------------
 -----
 title
 -----
 Structure from the checkpoint file:  "2-chloroallylisothiocyanate.chk"
 Charge =  0 Multiplicity = 1

                         Standard orientation:
 ---------------------------------------------------------------------
 Center     Atomic      Atomic             Coordinates (Angstroms)
 Number     Number       Type             X           Y           Z
 ---------------------------------------------------------------------
      1         17           0       -1.347415    1.412561    0.204092
      2         16           0        2.973465    0.301056   -0.225140
      3          7           0        0.624438   -1.122322    0.123077
      4          6           0       -1.679642   -0.291748   -0.037658
      5          6           0       -0.706921   -1.216488    0.644751
      6          6           0        1.609055   -0.467672   -0.001390
      7          6           0       -2.720952   -0.690146   -0.750013
      8          1           0       -0.681309   -1.001003    1.716381
      9          1           0       -1.057855   -2.239216    0.515322
     10          1           0       -2.900921   -1.746442   -0.895230
     11          1           0       -3.409606    0.008805   -1.199480
 ---------------------------------------------------------------------

 SCF Done:  E(RHF) =  -1065.37608719     A.U. after    2 cycles

 The electronic state is 1-A.
 Alpha  occ. eigenvalues -- -103.67917 -93.52970 -15.67781 -11.39096 -11.33952
 Alpha  occ. eigenvalues --  -11.33684 -11.27496 -10.71215  -8.82899  -8.36947
 Alpha  occ. eigenvalues --   -8.36640  -8.36625  -6.17216  -6.16528  -6.16491
 Alpha  occ. eigenvalues --   -1.27190  -1.20276  -1.08418  -1.03120  -0.98459
 Alpha  occ. eigenvalues --   -0.80404  -0.73574  -0.69317  -0.67643  -0.62070
 Alpha  occ. eigenvalues --   -0.59099  -0.57379  -0.53897  -0.52906  -0.51741
 Alpha  occ. eigenvalues --   -0.48182  -0.39827  -0.36139  -0.35485
 Alpha virt. eigenvalues --    0.02696   0.04029   0.04724   0.06368   0.07066
 Alpha virt. eigenvalues --    0.07887   0.08760   0.09759   0.10186   0.10953
 Alpha virt. eigenvalues --    0.12070   0.12993   0.13479   0.13617   0.14402

 Mulliken charges:
               1
     1  Cl  -0.281486
     2  S    0.187431
     3  N   -0.178940
     4  C   -0.187822
     5  C    0.670431
     6  C   -0.549926
     7  C    1.105319
     8  H    0.005155
     9  H   -0.213113
    10  H   -0.253464
    11  H   -0.303585
 Sum of Mulliken charges =  -0.00000

 Dipole moment (field-independent basis, Debye):
    X=             -3.6878    Y=             -2.3588    Z=              0.5540  Tot=              4.4126

 Test job not archived.
 1\1\GINC-SE115\SP\RHF\Aug-CC-pVDZ\C4H4Cl1N1S1\OHZDE\05-Apr-2025\0\\#t
 hf aug-cc-pvdz iop(5/13=1,5/36=2,99/5=2) pseudo=read geom=check guess=
 (read,tcheck) scf=(maxcycle=1)\\title\\0,1\Cl,0,-1.347415,1.412561,0.2
 04092\S,0,2.973465,0.301056,-0.22514\N,0,0.624438,-1.122322,0.123077\C
 ,0,-1.679642,-0.291748,-0.037658\C,0,-0.706921,-1.216488,0.644751\C,0,
 1.609055,-0.467672,-0.00139\C,0,-2.720952,-0.690146,-0.750013\H,0,-0.6
 81309,-1.001003,1.716381\H,0,-1.057855,-2.239216,0.515322\H,0,-2.90092
 1,-1.746442,-0.89523\H,0,-3.409606,0.008805,-1.19948\\Version=ES64L-G1

 Normal termination of Gaussian 16 at Sat Apr  5 22:26:44 2025.
