 Gaussian 16, Revision C.01,

 ----------------------------------------------------------------------
 #t hf aug-cc-pvdz symm=none int=(grid=ultrafine) guess=(read,tcheck) s
 table=(opt,rrhf)
 ----------------------------------------------------------------------
 -----
 title
 -----
 Symbolic Z-matrix:
 Charge =  0 Multiplicity = 1

 SCF Done:  E(RHF) =  -391.444875885     A.U. after   15 cycles
 Normal termination of Gaussian 16 at Sat Apr  5 22:25:02 2025.
 Gaussian 16:  ES64L-G16RevC.01  3-Jul-2019

 ----------------------------------------------------------------------
 #t hf aug-cc-pvdz iop(5/13=1,5/36=2,99/5=2) pseudo=read geom=check gue
 ss=(read,tcheck) scf=(maxcycle=1)
 ----------------------------------------------------------------------
 -----
 title
 -----
 Structure from the checkpoint file:  "2-cyano-3-iminoacrylamide.chk"
 Charge =  0 Multiplicity = 1

                         Standard orientation:
 ---------------------------------------------------------------------
 Center     Atomic      Atomic             Coordinates (Angstroms)
 Number     Number       Type             X           Y           Z
 ---------------------------------------------------------------------
      1          8           0        1.200691   -1.750569    0.240229
      2          7           0        2.095133    0.298364   -0.157996
      3          7           0       -2.390615   -1.479393   -0.111412
      4          7           0       -0.628942    2.555407   -0.003648
      5          6           0       -0.321090    0.047447   -0.017924
      6          6           0        1.054679   -0.568999    0.024318
      7          6           0       -1.457345   -0.805303   -0.066056
      8          6           0       -0.506479    1.358874    0.056891
      9          1           0        1.962632    1.187331   -0.607887
     10          1           0        3.009679   -0.117167   -0.220990
     11          1           0       -0.725456    3.121624    0.835062
 ---------------------------------------------------------------------

 SCF Done:  E(RHF) =  -391.562532426     A.U. after    2 cycles

 The electronic state is 1-A.
 Alpha  occ. eigenvalues --  -20.56489 -15.72130 -15.67509 -15.64620 -11.40911
 Alpha  occ. eigenvalues --  -11.40870 -11.32291 -11.30159  -1.38179  -1.29255
 Alpha  occ. eigenvalues --   -1.21073  -1.20167  -1.10742  -0.87780  -0.85040
 Alpha  occ. eigenvalues --   -0.79497  -0.77447  -0.69852  -0.65066  -0.63810
 Alpha  occ. eigenvalues --   -0.59938  -0.56378  -0.54817  -0.51443  -0.48163
 Alpha  occ. eigenvalues --   -0.47129  -0.44748  -0.38759
 Alpha virt. eigenvalues --    0.01541   0.02854   0.05186   0.06818   0.07216
 Alpha virt. eigenvalues --    0.08584   0.08871   0.09653   0.10321   0.11134
 Alpha virt. eigenvalues --    0.11853   0.12984   0.13413   0.14168   0.14757

 Mulliken charges:
               1
     1  O   -0.464082
     2  N   -0.151556
     3  N   -0.114392
     4  N   -0.105128
     5  C    2.060734
     6  C    0.342379
     7  C   -0.940617
     8  C   -0.757932
     9  H   -0.017465
    10  H    0.033790
    11  H    0.114270
 Sum of Mulliken charges =  -0.00000

 Dipole moment (field-independent basis, Debye):
    X=              3.2103    Y=              7.2297    Z=              0.3718  Tot=              7.9191

 Test job not archived.
 1\1\GINC-SE153\SP\RHF\Aug-CC-pVDZ\C4H3N3O1\OHZDE\05-Apr-2025\0\\#t hf
 aug-cc-pvdz iop(5/13=1,5/36=2,99/5=2) pseudo=read geom=check guess=(re
 ad,tcheck) scf=(maxcycle=1)\\title\\0,1\O,0,1.200695,-1.750566,0.24022
 9\N,0,2.095132,0.298369,-0.157996\N,0,-2.390612,-1.479398,-0.111412\N,
 0,-0.628948,2.555406,-0.003648\C,0,-0.32109,0.047446,-0.017924\C,0,1.0
 5468,-0.568996,0.024318\C,0,-1.457343,-0.805306,-0.066056\C,0,-0.50648
 2,1.358873,0.056891\H,0,1.962629,1.187336,-0.607887\H,0,3.009679,-0.11
 716,-0.22099\H,0,-0.725463,3.121623,0.835062\\Version=ES64L-G16RevC.01

 Normal termination of Gaussian 16 at Sat Apr  5 22:26:44 2025.
