 Gaussian 16, Revision C.01,

 ----------------------------------------------------------------------
 #t hf aug-cc-pvdz symm=none int=(grid=ultrafine) guess=(read,tcheck) s
 table=(opt,rrhf)
 ----------------------------------------------------------------------
 -----
 title
 -----
 Symbolic Z-matrix:
 Charge =  0 Multiplicity = 1

 SCF Done:  E(RHF) =  -494.666043686     A.U. after   13 cycles

 1\1\GINC-SE152\Stability\RHF\Aug-CC-pVDZ\C5H10O4\OHZDE\05-Apr-2025\0\\
 #t hf aug-cc-pvdz symm=none int=(grid=ultrafine) guess=(read,tcheck) s
 table=(opt,rrhf)\\title\\0,1\C,0,-1.668271,0.461239,-0.765783\C,0,-0.3
 6744,1.210024,-0.479394\C,0,0.689515,0.089265,-0.593294\C,0,-1.400343,
 -0.953458,-0.265482\C,0,1.856173,0.212999,0.364984\O,0,-0.004904,-1.15
 5032,-0.396645\O,0,-0.459865,1.805275,0.814836\O,0,-1.823763,-1.057773
 ,1.077424\O,0,2.87964,-0.684977,-0.054645\H,0,-2.518456,0.921796,-0.27
 0321\H,0,-1.851125,0.435667,-1.839895\H,0,-0.178406,1.985616,-1.225571

 Normal termination of Gaussian 16 at Sat Apr  5 22:26:44 2025.
 Gaussian 16:  ES64L-G16RevC.01  3-Jul-2019

 ----------------------------------------------------------------------
 #t hf aug-cc-pvdz iop(5/13=1,5/36=2,99/5=2) pseudo=read geom=check gue
 ss=(read,tcheck) scf=(maxcycle=1)
 ----------------------------------------------------------------------
 -----
 title
 -----
 Structure from the checkpoint file:  "2-deoxypentofuranose.chk"
 Charge =  0 Multiplicity = 1

                         Standard orientation:
 ---------------------------------------------------------------------
 Center     Atomic      Atomic             Coordinates (Angstroms)
 Number     Number       Type             X           Y           Z
 ---------------------------------------------------------------------
      1          6           0       -1.668271    0.461239   -0.765783
      2          6           0       -0.367440    1.210024   -0.479394
      3          6           0        0.689515    0.089265   -0.593294
      4          6           0       -1.400343   -0.953458   -0.265482
      5          6           0        1.856173    0.212999    0.364984
      6          8           0       -0.004904   -1.155032   -0.396645
      7          8           0       -0.459865    1.805275    0.814836
      8          8           0       -1.823763   -1.057773    1.077424
      9          8           0        2.879640   -0.684977   -0.054645
     10          1           0       -2.518456    0.921796   -0.270321
     11          1           0       -1.851125    0.435667   -1.839895
     12          1           0       -0.178406    1.985616   -1.225571
     13          1           0        1.093392    0.077484   -1.611423
     14          1           0       -1.886026   -1.728437   -0.864473
     15          1           0        1.515337   -0.010936    1.377193
     16          1           0        2.231369    1.245733    0.342390
     17          1           0        0.267278    2.422971    0.931773
     18          1           0       -1.567425   -1.926770    1.403733
     19          1           0        3.507392   -0.803481    0.662654
 ---------------------------------------------------------------------

 SCF Done:  E(RHF) =  -494.819271221     A.U. after    2 cycles

 The electronic state is 1-A.
 Alpha  occ. eigenvalues --  -20.57848 -20.57413 -20.56992 -20.56929 -11.34176
 Alpha  occ. eigenvalues --  -11.30290 -11.29286 -11.29182 -11.23664  -1.37079
 Alpha  occ. eigenvalues --   -1.32837  -1.32309  -1.29493  -1.05058  -1.02305
 Alpha  occ. eigenvalues --   -0.90908  -0.81851  -0.80410  -0.75283  -0.72888
 Alpha  occ. eigenvalues --   -0.69713  -0.68845  -0.65228  -0.64240  -0.61412
 Alpha  occ. eigenvalues --   -0.59063  -0.57421  -0.56388  -0.54880  -0.53001
 Alpha  occ. eigenvalues --   -0.50818  -0.49732  -0.47422  -0.46447  -0.45229
 Alpha  occ. eigenvalues --   -0.43943
 Alpha virt. eigenvalues --    0.03025   0.03983   0.04240   0.04975   0.05792
 Alpha virt. eigenvalues --    0.05928   0.06625   0.07175   0.07610   0.09079
 Alpha virt. eigenvalues --    0.11978   0.12356   0.13310   0.13931   0.14137

 Mulliken charges:
               1
     1  C    0.233189
     2  C    0.407386
     3  C    0.056618
     4  C    1.287912
     5  C    1.018863
     6  O   -0.789279
     7  O   -0.608443
     8  O   -0.543037
     9  O   -0.580949
    10  H   -0.049272
    11  H   -0.062451
    12  H   -0.085240
    13  H   -0.205155
    14  H   -0.307986
    15  H   -0.064084
    16  H   -0.132868
    17  H    0.142862
    18  H    0.129193
    19  H    0.152742
 Sum of Mulliken charges =  -0.00000

 Dipole moment (field-independent basis, Debye):
    X=              1.1326    Y=              1.5357    Z=             -0.4768  Tot=              1.9669

 Test job not archived.
 1\1\GINC-SE152\SP\RHF\Aug-CC-pVDZ\C5H10O4\OHZDE\05-Apr-2025\0\\#t hf a
 ug-cc-pvdz iop(5/13=1,5/36=2,99/5=2) pseudo=read geom=check guess=(rea
 d,tcheck) scf=(maxcycle=1)\\title\\0,1\C,0,-1.668271,0.461239,-0.76578
 3\C,0,-0.36744,1.210024,-0.479394\C,0,0.689515,0.089265,-0.593294\C,0,
 -1.400343,-0.953458,-0.265482\C,0,1.856173,0.212999,0.364984\O,0,-0.00
 4904,-1.155032,-0.396645\O,0,-0.459865,1.805275,0.814836\O,0,-1.823763
 ,-1.057773,1.077424\O,0,2.87964,-0.684977,-0.054645\H,0,-2.518456,0.92
 1796,-0.270321\H,0,-1.851125,0.435667,-1.839895\H,0,-0.178406,1.985616

 Normal termination of Gaussian 16 at Sat Apr  5 22:26:54 2025.
