 Gaussian 16, Revision C.01,

 ----------------------------------------------------------------------
 #t hf aug-cc-pvdz symm=none int=(grid=ultrafine) guess=(read,tcheck) s
 table=(opt,rrhf)
 ----------------------------------------------------------------------
 -----
 title
 -----
 Symbolic Z-matrix:
 Charge =  0 Multiplicity = 1

 SCF Done:  E(RHF) =  -449.112718190     A.U. after   16 cycles
 Normal termination of Gaussian 16 at Sat Apr  5 22:25:06 2025.
 Gaussian 16:  ES64L-G16RevC.01  3-Jul-2019

 ----------------------------------------------------------------------
 #t hf aug-cc-pvdz iop(5/13=1,5/36=2,99/5=2) pseudo=read geom=check gue
 ss=(read,tcheck) scf=(maxcycle=1)
 ----------------------------------------------------------------------
 -----
 title
 -----
 Structure from the checkpoint file:  "2-diazo-4-cyclopentene-1-3-dione.chk"
 Charge =  0 Multiplicity = 1

                         Standard orientation:
 ---------------------------------------------------------------------
 Center     Atomic      Atomic             Coordinates (Angstroms)
 Number     Number       Type             X           Y           Z
 ---------------------------------------------------------------------
      1          8           0       -2.366456   -0.102241    0.000000
      2          8           0        2.366456   -0.102242    0.000000
      3          7           0        0.000000    1.711499    0.000000
      4          7           0        0.000000    2.831814    0.000000
      5          6           0        0.000000    0.410913    0.000000
      6          6           0       -1.204476   -0.433611    0.000000
      7          6           0        1.204475   -0.433612    0.000000
      8          6           0       -0.666466   -1.837920    0.000000
      9          6           0        0.666466   -1.837921    0.000000
     10          1           0       -1.332425   -2.687206    0.000000
     11          1           0        1.332424   -2.687207    0.000000
 ---------------------------------------------------------------------

 SCF Done:  E(RHF) =  -449.247519381     A.U. after    2 cycles

 The electronic state is 1-A'.
 Alpha  occ. eigenvalues --  -20.58814 -20.58814 -15.86402 -15.80219 -11.38415
 Alpha  occ. eigenvalues --  -11.38412 -11.31253 -11.29904 -11.29738  -1.48224
 Alpha  occ. eigenvalues --   -1.38461  -1.37829  -1.19680  -1.12889  -0.92478
 Alpha  occ. eigenvalues --   -0.92475  -0.81041  -0.73668  -0.71979  -0.71444
 Alpha  occ. eigenvalues --   -0.69789  -0.68930  -0.64995  -0.63424  -0.62350
 Alpha  occ. eigenvalues --   -0.61024  -0.57104  -0.49227  -0.44396  -0.43527
 Alpha  occ. eigenvalues --   -0.37160
 Alpha virt. eigenvalues --    0.02867   0.02911   0.04597   0.06206   0.06640
 Alpha virt. eigenvalues --    0.07068   0.08690   0.09098   0.09593   0.10789
 Alpha virt. eigenvalues --    0.12015   0.13317   0.13723   0.13884   0.14330

 Mulliken charges:
               1
     1  O   -0.472325
     2  O   -0.472327
     3  N   -0.237036
     4  N   -0.271496
     5  C    1.061370
     6  C   -0.064959
     7  C   -0.064957
     8  C    0.587016
     9  C    0.587014
    10  H   -0.326150
    11  H   -0.326150
 Sum of Mulliken charges =  -0.00000

 Dipole moment (field-independent basis, Debye):
    X=             -0.0000    Y=             -1.6128    Z=              0.0000  Tot=              1.6128

 Test job not archived.
 1\1\GINC-SE172\SP\RHF\Aug-CC-pVDZ\C5H2N2O2\OHZDE\05-Apr-2025\0\\#t hf
 aug-cc-pvdz iop(5/13=1,5/36=2,99/5=2) pseudo=read geom=check guess=(re
 ad,tcheck) scf=(maxcycle=1)\\title\\0,1\O,0,-2.366456,-0.102241,0.\O,0
 ,2.366456,-0.102242,0.\N,0,0.,1.711499,0.\N,0,0.,2.831814,0.\C,0,0.,0.
 410913,0.\C,0,-1.204476,-0.433611,0.\C,0,1.204475,-0.433612,0.\C,0,-0.
 666466,-1.83792,0.\C,0,0.666466,-1.837921,0.\H,0,-1.332425,-2.687206,0
 .\H,0,1.332424,-2.687207,0.\\Version=ES64L-G16RevC.01\State=1-A'\HF=-4
 49.2475194\RMSD=8.826e-03\Dipole=-0.0000032,-0.6345414,0.\Quadrupole=-

 Normal termination of Gaussian 16 at Sat Apr  5 22:26:45 2025.
