 Gaussian 16, Revision C.01,

 ----------------------------------------------------------------------
 #t hf aug-cc-pvdz symm=none int=(grid=ultrafine) guess=(read,tcheck) s
 table=(opt,rrhf)
 ----------------------------------------------------------------------
 -----
 title
 -----
 Symbolic Z-matrix:
 Charge =  0 Multiplicity = 1

 SCF Done:  E(RHF) =  -1126.89398119     A.U. after   14 cycles
 Normal termination of Gaussian 16 at Sat Apr  5 22:24:55 2025.
 Gaussian 16:  ES64L-G16RevC.01  3-Jul-2019

 ----------------------------------------------------------------------
 #t hf aug-cc-pvdz iop(5/13=1,5/36=2,99/5=2) pseudo=read geom=check gue
 ss=(read,tcheck) scf=(maxcycle=1)
 ----------------------------------------------------------------------
 -----
 title
 -----
 Structure from the checkpoint file:  "2-dichloroaminoethanol.chk"
 Charge =  0 Multiplicity = 1

                         Standard orientation:
 ---------------------------------------------------------------------
 Center     Atomic      Atomic             Coordinates (Angstroms)
 Number     Number       Type             X           Y           Z
 ---------------------------------------------------------------------
      1         17           0       -1.849785   -1.123139   -0.022675
      2         17           0       -0.868753    1.577128   -0.107884
      3          8           0        3.067182   -0.524320   -0.216469
      4          7           0       -0.501598   -0.072327    0.461280
      5          6           0        0.718626   -0.556060   -0.215103
      6          6           0        1.945213    0.179416    0.310336
      7          1           0        0.651673   -0.480227   -1.301963
      8          1           0        0.800148   -1.607945    0.057284
      9          1           0        1.941056    0.161427    1.404237
     10          1           0        1.942057    1.219714   -0.021165
     11          1           0        3.870903   -0.050056    0.012492
 ---------------------------------------------------------------------

 SCF Done:  E(RHF) =  -1126.99636358     A.U. after    2 cycles

 The electronic state is 1-A.
 Alpha  occ. eigenvalues -- -103.69881-103.69824 -20.59056 -15.76793 -11.30748
 Alpha  occ. eigenvalues --  -11.29662 -10.72892 -10.72853  -8.38630  -8.38586
 Alpha  occ. eigenvalues --   -8.38254  -8.38227  -8.38223  -8.38191  -1.33988
 Alpha  occ. eigenvalues --   -1.29039  -1.14981  -1.07996  -0.94998  -0.83911
 Alpha  occ. eigenvalues --   -0.73156  -0.69657  -0.65150  -0.62371  -0.62237
 Alpha  occ. eigenvalues --   -0.57866  -0.54030  -0.52713  -0.48986  -0.48313
 Alpha  occ. eigenvalues --   -0.47843  -0.46450  -0.41341
 Alpha virt. eigenvalues --    0.03092   0.04896   0.05144   0.05754   0.06168
 Alpha virt. eigenvalues --    0.07665   0.09031   0.09661   0.11836   0.13056
 Alpha virt. eigenvalues --    0.14837   0.14912   0.15345   0.16902   0.17187

 Mulliken charges:
               1
     1  Cl   0.167509
     2  Cl   0.149252
     3  O   -0.547340
     4  N   -0.876946
     5  C    0.740921
     6  C    0.764129
     7  H   -0.153335
     8  H   -0.139584
     9  H   -0.084896
    10  H   -0.166181
    11  H    0.146472
 Sum of Mulliken charges =   0.00000

 Dipole moment (field-independent basis, Debye):
    X=              2.1214    Y=              0.7743    Z=              0.2950  Tot=              2.2774

 Test job not archived.
 1\1\GINC-SE171\SP\RHF\Aug-CC-pVDZ\C2H5Cl2N1O1\OHZDE\05-Apr-2025\0\\#t
 hf aug-cc-pvdz iop(5/13=1,5/36=2,99/5=2) pseudo=read geom=check guess=
 (read,tcheck) scf=(maxcycle=1)\\title\\0,1\Cl,0,-1.849785,-1.123139,-0
 .022675\Cl,0,-0.868753,1.577128,-0.107884\O,0,3.067182,-0.52432,-0.216
 469\N,0,-0.501598,-0.072327,0.46128\C,0,0.718626,-0.55606,-0.215103\C,
 0,1.945213,0.179416,0.310336\H,0,0.651673,-0.480227,-1.301963\H,0,0.80
 0148,-1.607945,0.057284\H,0,1.941056,0.161427,1.404237\H,0,1.942057,1.
 219714,-0.021165\H,0,3.870903,-0.050056,0.012492\\Version=ES64L-G16Rev

 Normal termination of Gaussian 16 at Sat Apr  5 22:26:43 2025.
