 Gaussian 16, Revision C.01,

 ----------------------------------------------------------------------
 #t hf aug-cc-pvdz symm=none int=(grid=ultrafine) guess=(read,tcheck) s
 table=(opt,rrhf)
 ----------------------------------------------------------------------
 -----
 title
 -----
 Symbolic Z-matrix:
 Charge =  0 Multiplicity = 1

 SCF Done:  E(RHF) =  -461.453284354     A.U. after   15 cycles
 Normal termination of Gaussian 16 at Sat Apr  5 22:27:01 2025.
 Gaussian 16:  ES64L-G16RevC.01  3-Jul-2019

 ----------------------------------------------------------------------
 #t hf aug-cc-pvdz iop(5/13=1,5/36=2,99/5=2) pseudo=read geom=check gue
 ss=(read,tcheck) scf=(maxcycle=1)
 ----------------------------------------------------------------------
 -----
 title
 -----
 Structure from the checkpoint file:  "2-difluoroaminomethylacrylonitrile.chk"
 Charge =  0 Multiplicity = 1

                         Standard orientation:
 ---------------------------------------------------------------------
 Center     Atomic      Atomic             Coordinates (Angstroms)
 Number     Number       Type             X           Y           Z
 ---------------------------------------------------------------------
      1          9           0       -1.560515    0.669193    1.027935
      2          9           0       -2.395956   -0.758181   -0.402751
      3          7           0       -1.190368   -0.448376    0.254141
      4          7           0        2.540504   -1.531236    0.370739
      5          6           0       -0.339313    0.108786   -0.819505
      6          6           0        1.022612    0.458263   -0.274893
      7          6           0        1.448448    1.716095   -0.160431
      8          6           0        1.869720   -0.636358    0.095191
      9          1           0       -0.826459    0.978775   -1.258076
     10          1           0       -0.271637   -0.689646   -1.557439
     11          1           0        0.810176    2.542787   -0.438338
     12          1           0        2.436402    1.945546    0.210865
 ---------------------------------------------------------------------

 SCF Done:  E(RHF) =  -461.600306380     A.U. after    2 cycles

 The electronic state is 1-A.
 Alpha  occ. eigenvalues --  -26.17533 -26.17377 -15.85505 -15.65823 -11.33466
 Alpha  occ. eigenvalues --  -11.32626 -11.30823 -11.30452  -1.72450  -1.66625
 Alpha  occ. eigenvalues --   -1.22251  -1.19532  -1.11275  -0.97137  -0.89406
 Alpha  occ. eigenvalues --   -0.82592  -0.81793  -0.80701  -0.75714  -0.72688
 Alpha  occ. eigenvalues --   -0.71010  -0.68597  -0.66705  -0.62232  -0.59315
 Alpha  occ. eigenvalues --   -0.55866  -0.53013  -0.50923  -0.48407  -0.41306
 Alpha virt. eigenvalues --    0.02432   0.03714   0.04535   0.05164   0.06461
 Alpha virt. eigenvalues --    0.08616   0.08876   0.10648   0.11651   0.11896
 Alpha virt. eigenvalues --    0.13247   0.14539   0.14555   0.15258   0.15787

 Mulliken charges:
               1
     1  F   -0.355561
     2  F   -0.352451
     3  N    0.025194
     4  N   -0.139620
     5  C    0.781719
     6  C    0.967564
     7  C    0.810351
     8  C   -0.884818
     9  H   -0.134339
    10  H   -0.073582
    11  H   -0.278072
    12  H   -0.366386
 Sum of Mulliken charges =  -0.00000

 Dipole moment (field-independent basis, Debye):
    X=              0.4653    Y=              3.8705    Z=             -2.5877  Tot=              4.6790

 Test job not archived.
 1\1\GINC-SE171\SP\RHF\Aug-CC-pVDZ\C4H4F2N2\OHZDE\05-Apr-2025\0\\#t hf
 aug-cc-pvdz iop(5/13=1,5/36=2,99/5=2) pseudo=read geom=check guess=(re
 ad,tcheck) scf=(maxcycle=1)\\title\\0,1\F,0,-1.560515,0.669193,1.02793
 5\F,0,-2.395956,-0.758181,-0.402751\N,0,-1.190368,-0.448376,0.254141\N
 ,0,2.540504,-1.531236,0.370739\C,0,-0.339313,0.108786,-0.819505\C,0,1.
 022612,0.458263,-0.274893\C,0,1.448448,1.716095,-0.160431\C,0,1.86972,
 -0.636358,0.095191\H,0,-0.826459,0.978775,-1.258076\H,0,-0.271637,-0.6
 89646,-1.557439\H,0,0.810176,2.542787,-0.438338\H,0,2.436402,1.945546,

 Normal termination of Gaussian 16 at Sat Apr  5 22:27:07 2025.
