 Gaussian 16, Revision C.01,

 ----------------------------------------------------------------------
 #t hf aug-cc-pvdz symm=none int=(grid=ultrafine) guess=(read,tcheck) s
 table=(opt,rrhf)
 ----------------------------------------------------------------------
 -----
 title
 -----
 Symbolic Z-matrix:
 Charge =  0 Multiplicity = 1

 SCF Done:  E(RHF) =  -430.140907278     A.U. after   16 cycles
 Normal termination of Gaussian 16 at Sat Apr  5 22:27:45 2025.
 Gaussian 16:  ES64L-G16RevC.01  3-Jul-2019

 ----------------------------------------------------------------------
 #t hf aug-cc-pvdz iop(5/13=1,5/36=2,99/5=2) pseudo=read geom=check gue
 ss=(read,tcheck) scf=(maxcycle=1)
 ----------------------------------------------------------------------
 -----
 title
 -----
 Structure from the checkpoint file:  "2-ethynylpyrimidine-5-carbonitrile.chk"
 Charge =  0 Multiplicity = 1

                         Standard orientation:
 ---------------------------------------------------------------------
 Center     Atomic      Atomic             Coordinates (Angstroms)
 Number     Number       Type             X           Y           Z
 ---------------------------------------------------------------------
      1          6           0        0.000000   -0.000000   -3.930784
      2          6           0        0.000000   -0.000000   -2.731540
      3          6           0        0.000000    0.000000    2.793427
      4          6           0        0.000000    1.188249    0.632112
      5          6           0       -0.000000   -1.188249    0.632112
      6          6           0        0.000000   -0.000000   -1.302335
      7          6           0        0.000000    0.000000    1.369921
      8          7           0        0.000000    0.000000    3.945700
      9          7           0        0.000000    1.194481   -0.690626
     10          7           0       -0.000000   -1.194481   -0.690626
     11          1           0        0.000000   -0.000000   -4.992828
     12          1           0        0.000000    2.149383    1.132106
     13          1           0       -0.000000   -2.149383    1.132106
 ---------------------------------------------------------------------

 SCF Done:  E(RHF) =  -430.264660349     A.U. after    2 cycles

 The electronic state is 1-A1.
 Alpha  occ. eigenvalues --  -15.67540 -15.67538 -15.66250 -11.39046 -11.35261
 Alpha  occ. eigenvalues --  -11.35259 -11.31958 -11.31094 -11.27951 -11.27339
 Alpha  occ. eigenvalues --   -1.32970  -1.21810  -1.20695  -1.13413  -1.05624
 Alpha  occ. eigenvalues --   -0.96269  -0.93619  -0.81217  -0.79471  -0.75969
 Alpha  occ. eigenvalues --   -0.73461  -0.64859  -0.64040  -0.63065  -0.57144
 Alpha  occ. eigenvalues --   -0.53302  -0.51896  -0.49823  -0.45968  -0.45556
 Alpha  occ. eigenvalues --   -0.44172  -0.43066  -0.37660
 Alpha virt. eigenvalues --    0.02591   0.02994   0.03448   0.03790   0.05574
 Alpha virt. eigenvalues --    0.06616   0.07462   0.09249   0.09258   0.09938
 Alpha virt. eigenvalues --    0.10294   0.10508   0.12410   0.13132   0.13284

 Mulliken charges:
               1
     1  C    1.189895
     2  C   -0.071474
     3  C   -1.000742
     4  C    0.732174
     5  C    0.732174
     6  C   -0.495579
     7  C    1.208165
     8  N   -0.083456
     9  N   -0.491346
    10  N   -0.491346
    11  H   -0.528142
    12  H   -0.350162
    13  H   -0.350162
 Sum of Mulliken charges =  -0.00000

 Dipole moment (field-independent basis, Debye):
    X=              0.0000    Y=              0.0000    Z=             -2.7458  Tot=              2.7458

 Test job not archived.
 1\1\GINC-SE045\SP\RHF\Aug-CC-pVDZ\C7H3N3\OHZDE\05-Apr-2025\0\\#t hf au
 g-cc-pvdz iop(5/13=1,5/36=2,99/5=2) pseudo=read geom=check guess=(read
 ,tcheck) scf=(maxcycle=1)\\title\\0,1\C,0,0.,0.,-3.930784\C,0,0.,0.,-2
 .73154\C,0,0.,0.,2.793427\C,0,0.,1.188249,0.632112\C,0,0.,-1.188249,0.
 632112\C,0,0.,0.,-1.302335\C,0,0.,0.,1.369921\N,0,0.,0.,3.9457\N,0,0.,
 1.194481,-0.690626\N,0,0.,-1.194481,-0.690626\H,0,0.,0.,-4.992828\H,0,
 0.,2.149383,1.132106\H,0,0.,-2.149383,1.132106\\Version=ES64L-G16RevC.
 01\State=1-A1\HF=-430.2646603\RMSD=9.689e-03\Dipole=0.,0.,-1.0802808\Q

 Normal termination of Gaussian 16 at Sat Apr  5 22:28:06 2025.
