 Gaussian 16, Revision C.01,

 ----------------------------------------------------------------------
 #t hf aug-cc-pvdz symm=none int=(grid=ultrafine) guess=(read,tcheck) s
 table=(opt,rrhf)
 ----------------------------------------------------------------------
 -----
 title
 -----
 Symbolic Z-matrix:
 Charge =  0 Multiplicity = 1

 SCF Done:  E(RHF) =  -268.871810812     A.U. after   14 cycles
 Normal termination of Gaussian 16 at Sat Apr  5 22:27:02 2025.
 Gaussian 16:  ES64L-G16RevC.01  3-Jul-2019

 ----------------------------------------------------------------------
 #t hf aug-cc-pvdz iop(5/13=1,5/36=2,99/5=2) pseudo=read geom=check gue
 ss=(read,tcheck) scf=(maxcycle=1)
 ----------------------------------------------------------------------
 -----
 title
 -----
 Structure from the checkpoint file:  "2-ethylacrolein.chk"
 Charge =  0 Multiplicity = 1

                         Standard orientation:
 ---------------------------------------------------------------------
 Center     Atomic      Atomic             Coordinates (Angstroms)
 Number     Number       Type             X           Y           Z
 ---------------------------------------------------------------------
      1          6           0        2.315360   -0.488362    0.000127
      2          6           0        1.228339    0.539082    0.000162
      3          6           0       -0.105961    0.377961    0.000037
      4          6           0       -1.055394    1.543354    0.000099
      5          6           0       -0.727198   -0.958438   -0.000171
      6          8           0       -1.927501   -1.139157   -0.000289
      7          1           0        2.957003   -0.350601    0.874410
      8          1           0        1.962408   -1.515125   -0.000023
      9          1           0        2.957142   -0.350394   -0.874021
     10          1           0        1.592453    1.563287    0.000311
     11          1           0       -1.709375    1.509936    0.872664
     12          1           0       -1.709240    1.510139   -0.872576
     13          1           0       -0.516480    2.489320    0.000251
     14          1           0       -0.044780   -1.824879   -0.000220
 ---------------------------------------------------------------------

 SCF Done:  E(RHF) =  -268.957212294     A.U. after    2 cycles

 The electronic state is 1-A.
 Alpha  occ. eigenvalues --  -20.56584 -11.33824 -11.27382 -11.25541 -11.25375
 Alpha  occ. eigenvalues --  -11.23209  -1.35037  -1.10661  -1.00491  -0.91404
 Alpha  occ. eigenvalues --   -0.86186  -0.73831  -0.68689  -0.64322  -0.61126
 Alpha  occ. eigenvalues --   -0.59961  -0.57553  -0.54998  -0.54634  -0.53111
 Alpha  occ. eigenvalues --   -0.52503  -0.43170  -0.36957
 Alpha virt. eigenvalues --    0.02907   0.04150   0.04715   0.05043   0.06248
 Alpha virt. eigenvalues --    0.06707   0.06922   0.07658   0.09060   0.10727
 Alpha virt. eigenvalues --    0.11896   0.12657   0.14000   0.14206   0.14211

 Mulliken charges:
               1
     1  C    0.198269
     2  C    0.173928
     3  C   -0.095339
     4  C    0.410409
     5  C    0.523783
     6  O   -0.566970
     7  H    0.107863
     8  H   -0.150489
     9  H    0.107862
    10  H   -0.469290
    11  H    0.080243
    12  H    0.080244
    13  H   -0.177512
    14  H   -0.223001
 Sum of Mulliken charges =  -0.00000

 Dipole moment (field-independent basis, Debye):
    X=              4.0797    Y=              1.2126    Z=              0.0005  Tot=              4.2561

 Test job not archived.
 1\1\GINC-SE206\SP\RHF\Aug-CC-pVDZ\C5H8O1\OHZDE\05-Apr-2025\0\\#t hf au
 g-cc-pvdz iop(5/13=1,5/36=2,99/5=2) pseudo=read geom=check guess=(read
 ,tcheck) scf=(maxcycle=1)\\title\\0,1\C,0,2.31536,-0.488363,0.000127\C
 ,0,1.228339,0.539082,0.000162\C,0,-0.105961,0.377961,0.000037\C,0,-1.0
 55394,1.543354,0.000099\C,0,-0.727198,-0.958438,-0.000171\O,0,-1.92750
 1,-1.139157,-0.000289\H,0,2.957003,-0.350602,0.87441\H,0,1.962408,-1.5
 15125,-0.000023\H,0,2.957142,-0.350395,-0.874021\H,0,1.592453,1.563287
 ,0.000311\H,0,-1.709375,1.509936,0.872664\H,0,-1.70924,1.510139,-0.872

 Normal termination of Gaussian 16 at Sat Apr  5 22:27:06 2025.
