 Gaussian 16, Revision C.01,

 ----------------------------------------------------------------------
 #t hf aug-cc-pvdz symm=none int=(grid=ultrafine) guess=(read,tcheck) s
 table=(opt,rrhf)
 ----------------------------------------------------------------------
 -----
 title
 -----
 Symbolic Z-matrix:
 Charge =  0 Multiplicity = 1

 SCF Done:  E(RHF) =  -340.799122177     A.U. after   15 cycles
 Normal termination of Gaussian 16 at Sat Apr  5 22:27:45 2025.
 Gaussian 16:  ES64L-G16RevC.01  3-Jul-2019

 ----------------------------------------------------------------------
 #t hf aug-cc-pvdz iop(5/13=1,5/36=2,99/5=2) pseudo=read geom=check gue
 ss=(read,tcheck) scf=(maxcycle=1)
 ----------------------------------------------------------------------
 -----
 title
 -----
 Structure from the checkpoint file:  "2-ethylpyrazine.chk"
 Charge =  0 Multiplicity = 1

                         Standard orientation:
 ---------------------------------------------------------------------
 Center     Atomic      Atomic             Coordinates (Angstroms)
 Number     Number       Type             X           Y           Z
 ---------------------------------------------------------------------
      1          6           0        2.233334   -0.116230    0.218263
      2          6           0        1.430378   -1.225938   -0.017669
      3          6           0        0.433277    1.226506   -0.053715
      4          6           0       -0.386763    0.119094   -0.289925
      5          6           0       -2.716909   -0.220171    0.627717
      6          6           0       -1.861257    0.258329   -0.552378
      7          7           0        1.734306    1.117813    0.199732
      8          7           0        0.129285   -1.113947   -0.269666
      9          1           0        3.291804   -0.223926    0.422137
     10          1           0        1.847245   -2.226480   -0.005825
     11          1           0        0.020691    2.228991   -0.073988
     12          1           0       -2.497551   -1.261629    0.860291
     13          1           0       -3.777994   -0.138114    0.391141
     14          1           0       -2.522970    0.375105    1.521205
     15          1           0       -2.091480    1.300250   -0.781301
     16          1           0       -2.107242   -0.330802   -1.437880
 ---------------------------------------------------------------------

 SCF Done:  E(RHF) =  -340.899032233     A.U. after    2 cycles

 The electronic state is 1-A.
 Alpha  occ. eigenvalues --  -15.65408 -15.64900 -11.29472 -11.29140 -11.28688
 Alpha  occ. eigenvalues --  -11.28661 -11.24558 -11.23126  -1.27806  -1.18439
 Alpha  occ. eigenvalues --   -1.07813  -1.00683  -0.90181  -0.88893  -0.82611
 Alpha  occ. eigenvalues --   -0.71613  -0.71026  -0.66131  -0.61588  -0.60581
 Alpha  occ. eigenvalues --   -0.58158  -0.56152  -0.52615  -0.50936  -0.50255
 Alpha  occ. eigenvalues --   -0.48465  -0.42712  -0.39908  -0.34899
 Alpha virt. eigenvalues --    0.03452   0.03506   0.04273   0.04818   0.05728
 Alpha virt. eigenvalues --    0.06666   0.07336   0.07707   0.08048   0.10498
 Alpha virt. eigenvalues --    0.10788   0.11196   0.11879   0.12203   0.13600

 Mulliken charges:
               1
     1  C    0.483186
     2  C    0.746123
     3  C    0.534374
     4  C    0.371022
     5  C    0.314011
     6  C    0.085056
     7  N   -0.541358
     8  N   -0.723014
     9  H   -0.291670
    10  H   -0.326166
    11  H   -0.347986
    12  H   -0.035816
    13  H   -0.089857
    14  H   -0.090077
    15  H   -0.082694
    16  H   -0.005135
 Sum of Mulliken charges =  -0.00000

 Dipole moment (field-independent basis, Debye):
    X=             -0.6450    Y=             -0.1521    Z=             -0.0594  Tot=              0.6654

 Test job not archived.
 1\1\GINC-SE225\SP\RHF\Aug-CC-pVDZ\C6H8N2\OHZDE\05-Apr-2025\0\\#t hf au
 g-cc-pvdz iop(5/13=1,5/36=2,99/5=2) pseudo=read geom=check guess=(read
 ,tcheck) scf=(maxcycle=1)\\title\\0,1\C,0,2.233334,-0.11623,0.218263\C
 ,0,1.430378,-1.225938,-0.017669\C,0,0.433277,1.226506,-0.053715\C,0,-0
 .386763,0.119094,-0.289925\C,0,-2.716909,-0.220171,0.627717\C,0,-1.861
 257,0.258329,-0.552378\N,0,1.734306,1.117813,0.199732\N,0,0.129285,-1.
 113947,-0.269666\H,0,3.291804,-0.223926,0.422137\H,0,1.847245,-2.22648
 ,-0.005825\H,0,0.020691,2.228991,-0.073988\H,0,-2.497551,-1.261629,0.8

 Normal termination of Gaussian 16 at Sat Apr  5 22:28:08 2025.
