 Gaussian 16, Revision C.01,

 ----------------------------------------------------------------------
 #t hf aug-cc-pvdz symm=none int=(grid=ultrafine) guess=(read,tcheck) s
 table=(opt,rrhf)
 ----------------------------------------------------------------------
 -----
 title
 -----
 Symbolic Z-matrix:
 Charge =  0 Multiplicity = 1

 SCF Done:  E(RHF) =  -782.594792500     A.U. after   13 cycles
 Normal termination of Gaussian 16 at Sat Apr  5 22:29:00 2025.
 Gaussian 16:  ES64L-G16RevC.01  3-Jul-2019

 ----------------------------------------------------------------------
 #t hf aug-cc-pvdz iop(5/13=1,5/36=2,99/5=2) pseudo=read geom=check gue
 ss=(read,tcheck) scf=(maxcycle=1)
 ----------------------------------------------------------------------
 -----
 title
 -----
 Structure from the checkpoint file:  "2-ethylsulphonyl-2-methylpropane.chk"
 Charge =  0 Multiplicity = 1

                         Standard orientation:
 ---------------------------------------------------------------------
 Center     Atomic      Atomic             Coordinates (Angstroms)
 Number     Number       Type             X           Y           Z
 ---------------------------------------------------------------------
      1          6           0        2.997773    0.483515    0.000057
      2          6           0        1.557720    0.984322    0.000121
      3         16           0        0.416742   -0.436191   -0.000065
      4          8           0        0.613609   -1.153289    1.261894
      5          8           0        0.613589   -1.152943   -1.262224
      6          6           0       -1.319656    0.252037    0.000043
      7          6           0       -1.530669    1.078796   -1.268848
      8          6           0       -2.218473   -0.990363   -0.000134
      9          6           0       -1.530653    1.078424    1.269179
     10          1           0        3.200853   -0.118000    0.883955
     11          1           0        3.200858   -0.117760   -0.884004
     12          1           0        3.675634    1.337082    0.000174
     13          1           0        1.333115    1.569196   -0.889556
     14          1           0        1.333115    1.568964    0.889950
     15          1           0       -1.294421    0.500665   -2.160245
     16          1           0       -2.578720    1.378917   -1.323741
     17          1           0       -0.931778    1.989640   -1.272598
     18          1           0       -2.047743   -1.601398    0.884308
     19          1           0       -3.260021   -0.665474   -0.000085
     20          1           0       -2.047745   -1.601141   -0.884754
     21          1           0       -0.931790    1.989286    1.273173
     22          1           0       -2.578712    1.378497    1.324194
     23          1           0       -1.294359    0.500043    2.160402
 ---------------------------------------------------------------------

 SCF Done:  E(RHF) =  -782.784565323     A.U. after    2 cycles

 The electronic state is 1-A.
 Alpha  occ. eigenvalues --  -93.75754 -20.54292 -20.54290 -11.29914 -11.28507
 Alpha  occ. eigenvalues --  -11.24886 -11.24877 -11.24526 -11.23967  -9.02646
 Alpha  occ. eigenvalues --   -6.37250  -6.37041  -6.36976  -1.39441  -1.28144
 Alpha  occ. eigenvalues --   -1.11802  -1.06550  -0.95975  -0.95413  -0.92123
 Alpha  occ. eigenvalues --   -0.84064  -0.75351  -0.69605  -0.66625  -0.66473
 Alpha  occ. eigenvalues --   -0.63829  -0.62887  -0.61381  -0.58740  -0.57035
 Alpha  occ. eigenvalues --   -0.56828  -0.55096  -0.54527  -0.54239  -0.52571
 Alpha  occ. eigenvalues --   -0.50297  -0.50218  -0.50092  -0.47991  -0.47352
 Alpha  occ. eigenvalues --   -0.41717
 Alpha virt. eigenvalues --    0.02728   0.03627   0.04429   0.04689   0.05824
 Alpha virt. eigenvalues --    0.05978   0.06169   0.06933   0.07285   0.08191
 Alpha virt. eigenvalues --    0.08579   0.09338   0.09394   0.10097   0.11989

 Mulliken charges:
               1
     1  C    0.459873
     2  C   -0.305264
     3  S    2.786827
     4  O   -1.225578
     5  O   -1.225578
     6  C   -3.629464
     7  C    1.085849
     8  C    1.377552
     9  C    1.085841
    10  H   -0.023548
    11  H   -0.023547
    12  H   -0.035236
    13  H   -0.081512
    14  H   -0.081515
    15  H    0.030092
    16  H    0.009892
    17  H   -0.128626
    18  H    0.018580
    19  H   -0.024573
    20  H    0.018578
    21  H   -0.128618
    22  H    0.009884
    23  H    0.030092
 Sum of Mulliken charges =  -0.00000

 Dipole moment (field-independent basis, Debye):
    X=             -1.6195    Y=              5.0662    Z=              0.0007  Tot=              5.3187

 Test job not archived.
 1\1\GINC-SE085\SP\RHF\Aug-CC-pVDZ\C6H14O2S1\OHZDE\05-Apr-2025\0\\#t hf
  aug-cc-pvdz iop(5/13=1,5/36=2,99/5=2) pseudo=read geom=check guess=(r
 ead,tcheck) scf=(maxcycle=1)\\title\\0,1\C,0,2.997773,0.483515,0.00005
 7\C,0,1.55772,0.984322,0.000121\S,0,0.416742,-0.436191,-0.000065\O,0,0
 .613609,-1.153289,1.261894\O,0,0.613589,-1.152943,-1.262224\C,0,-1.319
 656,0.252037,0.000043\C,0,-1.530669,1.078796,-1.268848\C,0,-2.218473,-
 0.990363,-0.000134\C,0,-1.530653,1.078424,1.269179\H,0,3.200853,-0.118
 ,0.883955\H,0,3.200858,-0.11776,-0.884004\H,0,3.675634,1.337082,0.0001

 Normal termination of Gaussian 16 at Sat Apr  5 22:29:36 2025.
