 Gaussian 16, Revision C.01,

 ----------------------------------------------------------------------
 #t hf aug-cc-pvdz symm=none int=(grid=ultrafine) guess=(read,tcheck) s
 table=(opt,rrhf)
 ----------------------------------------------------------------------
 -----
 title
 -----
 Symbolic Z-matrix:
 Charge =  0 Multiplicity = 1

 SCF Done:  E(RHF) =  -830.504046385     A.U. after   18 cycles
 Normal termination of Gaussian 16 at Sat Apr  5 22:27:44 2025.
 Gaussian 16:  ES64L-G16RevC.01  3-Jul-2019

 ----------------------------------------------------------------------
 #t hf aug-cc-pvdz iop(5/13=1,5/36=2,99/5=2) pseudo=read geom=check gue
 ss=(read,tcheck) scf=(maxcycle=1)
 ----------------------------------------------------------------------
 -----
 title
 -----
 Structure from the checkpoint file:  "2-ethynyl-5-nitrothiophene.chk"
 Charge =  0 Multiplicity = 1

                         Standard orientation:
 ---------------------------------------------------------------------
 Center     Atomic      Atomic             Coordinates (Angstroms)
 Number     Number       Type             X           Y           Z
 ---------------------------------------------------------------------
      1         16           0       -0.341510   -0.991986   -0.000006
      2          8           0        2.519011   -1.365713   -0.000008
      3          8           0        3.108200    0.731357    0.000007
      4          7           0        2.272192   -0.162941    0.000001
      5          6           0        0.889034    0.218887    0.000002
      6          6           0        0.400378    1.497039    0.000009
      7          6           0       -1.005032    1.513710    0.000008
      8          6           0       -1.562355    0.249687    0.000001
      9          6           0       -2.927020   -0.091395   -0.000003
     10          6           0       -4.090699   -0.393484   -0.000005
     11          1           0        1.038617    2.365715    0.000015
     12          1           0       -1.603763    2.410935    0.000014
     13          1           0       -5.119557   -0.656096   -0.000007
 ---------------------------------------------------------------------

 SCF Done:  E(RHF) =  -830.656281621     A.U. after    2 cycles

 The electronic state is 1-A.
 Alpha  occ. eigenvalues --  -93.61242 -20.62696 -20.62647 -15.93527 -11.34799
 Alpha  occ. eigenvalues --  -11.34128 -11.30422 -11.29151 -11.28546 -11.28020
 Alpha  occ. eigenvalues --   -8.90917  -6.25031  -6.24904  -6.24508  -1.56047
 Alpha  occ. eigenvalues --   -1.37512  -1.22228  -1.10982  -1.05869  -1.02348
 Alpha  occ. eigenvalues --   -0.95546  -0.85247  -0.81410  -0.76919  -0.74880
 Alpha  occ. eigenvalues --   -0.74058  -0.73899  -0.68736  -0.63562  -0.59663
 Alpha  occ. eigenvalues --   -0.57838  -0.53926  -0.52283  -0.51506  -0.48439
 Alpha  occ. eigenvalues --   -0.47035  -0.43286  -0.38983  -0.35302
 Alpha virt. eigenvalues --    0.00141   0.02636   0.03268   0.05188   0.07137
 Alpha virt. eigenvalues --    0.08005   0.08565   0.09509   0.09876   0.09923
 Alpha virt. eigenvalues --    0.11265   0.11474   0.13426   0.13643   0.13701

 Mulliken charges:
               1
     1  S    0.648482
     2  O   -0.582248
     3  O   -0.598290
     4  N    0.238119
     5  C    0.247953
     6  C    0.321530
     7  C    0.491007
     8  C   -0.398671
     9  C    0.535077
    10  C    0.408046
    11  H   -0.346092
    12  H   -0.466493
    13  H   -0.498420
 Sum of Mulliken charges =  -0.00000

 Dipole moment (field-independent basis, Debye):
    X=             -5.2478    Y=              2.0907    Z=              0.0000  Tot=              5.6489

 Test job not archived.
 1\1\GINC-SE045\SP\RHF\Aug-CC-pVDZ\C6H3N1O2S1\OHZDE\05-Apr-2025\0\\#t h
 f aug-cc-pvdz iop(5/13=1,5/36=2,99/5=2) pseudo=read geom=check guess=(
 read,tcheck) scf=(maxcycle=1)\\title\\0,1\S,0,-0.34151,-0.991986,-0.00
 0006\O,0,2.519011,-1.365713,-0.000008\O,0,3.1082,0.731357,0.000007\N,0
 ,2.272192,-0.162941,0.000001\C,0,0.889034,0.218887,0.000002\C,0,0.4003
 78,1.497039,0.000009\C,0,-1.005032,1.51371,0.000008\C,0,-1.562355,0.24
 9687,0.000001\C,0,-2.92702,-0.091395,-0.000003\C,0,-4.090699,-0.393484
 ,-0.000005\H,0,1.038617,2.365715,0.000015\H,0,-1.603763,2.410935,0.000

 Normal termination of Gaussian 16 at Sat Apr  5 22:28:08 2025.
