 Gaussian 16, Revision C.01,

 ----------------------------------------------------------------------
 #t hf aug-cc-pvdz symm=none int=(grid=ultrafine) guess=(read,tcheck) s
 table=(opt,rrhf)
 ----------------------------------------------------------------------
 -----
 title
 -----
 Symbolic Z-matrix:
 Charge =  0 Multiplicity = 1

 SCF Done:  E(RHF) =  -593.881109352     A.U. after   12 cycles

 1\1\GINC-SE013\Stability\RHF\Aug-CC-pVDZ\C5H12S1\OHZDE\05-Apr-2025\0\\
 #t hf aug-cc-pvdz symm=none int=(grid=ultrafine) guess=(read,tcheck) s
 table=(opt,rrhf)\\title\\0,1\C,0,2.666741,0.979974,0.\C,0,1.486493,0.0
 14956,0.\C,0,-1.390067,-1.170055,1.269098\C,0,-1.390067,-1.170055,-1.2
 69098\S,0,-0.07432,0.976753,0.\C,0,-1.390067,-0.320258,0.\H,0,3.605889
 ,0.424701,0.\H,0,-2.287687,0.301951,0.\H,0,-1.434533,-0.547568,2.16140
 9\H,0,-1.434533,-0.547568,-2.161409\H,0,2.652471,1.620505,0.882058\H,0
 ,2.652471,1.620505,-0.882058\H,0,1.518737,-0.621415,-0.883489\H,0,1.51

 Normal termination of Gaussian 16 at Sat Apr  5 22:27:17 2025.
 Gaussian 16:  ES64L-G16RevC.01  3-Jul-2019

 ----------------------------------------------------------------------
 #t hf aug-cc-pvdz iop(5/13=1,5/36=2,99/5=2) pseudo=read geom=check gue
 ss=(read,tcheck) scf=(maxcycle=1)
 ----------------------------------------------------------------------
 -----
 title
 -----
 Structure from the checkpoint file:  "2-ethylsulfanylpropane.chk"
 Charge =  0 Multiplicity = 1

                         Standard orientation:
 ---------------------------------------------------------------------
 Center     Atomic      Atomic             Coordinates (Angstroms)
 Number     Number       Type             X           Y           Z
 ---------------------------------------------------------------------
      1          6           0        2.666741    0.979974   -0.000000
      2          6           0        1.486493    0.014956   -0.000000
      3          6           0       -1.390067   -1.170055    1.269098
      4          6           0       -1.390067   -1.170055   -1.269098
      5         16           0       -0.074320    0.976753   -0.000000
      6          6           0       -1.390067   -0.320258    0.000000
      7          1           0        3.605889    0.424701   -0.000000
      8          1           0       -2.287687    0.301951    0.000000
      9          1           0       -1.434533   -0.547568    2.161409
     10          1           0       -1.434533   -0.547568   -2.161409
     11          1           0        2.652471    1.620505    0.882058
     12          1           0        2.652471    1.620505   -0.882058
     13          1           0        1.518737   -0.621415   -0.883489
     14          1           0        1.518737   -0.621415    0.883489
     15          1           0       -2.253602   -1.839615    1.272426
     16          1           0       -2.253602   -1.839615   -1.272426
     17          1           0       -0.496721   -1.792940    1.332175
     18          1           0       -0.496721   -1.792940   -1.332175
 ---------------------------------------------------------------------

 SCF Done:  E(RHF) =  -593.965445655     A.U. after    2 cycles

 The electronic state is 1-A'.
 Alpha  occ. eigenvalues --  -93.51309 -11.27057 -11.26170 -11.23131 -11.22968
 Alpha  occ. eigenvalues --  -11.22959  -8.81054  -6.15215  -6.14994  -6.14684
 Alpha  occ. eigenvalues --   -1.08527  -1.03614  -0.93587  -0.91523  -0.83236
 Alpha  occ. eigenvalues --   -0.75173  -0.63112  -0.62802  -0.61404  -0.57434
 Alpha  occ. eigenvalues --   -0.56727  -0.54638  -0.52796  -0.50689  -0.50558
 Alpha  occ. eigenvalues --   -0.49427  -0.44613  -0.40890  -0.32945
 Alpha virt. eigenvalues --    0.03409   0.04116   0.04813   0.04922   0.06192
 Alpha virt. eigenvalues --    0.06390   0.06407   0.07346   0.07658   0.08762
 Alpha virt. eigenvalues --    0.09145   0.10605   0.11509   0.12987   0.13572

 Mulliken charges:
               1
     1  C    0.416111
     2  C   -0.149237
     3  C    0.606879
     4  C    0.606879
     5  S    0.365903
     6  C   -0.711997
     7  H   -0.043282
     8  H   -0.129381
     9  H   -0.084624
    10  H   -0.084624
    11  H   -0.058823
    12  H   -0.058823
    13  H   -0.147606
    14  H   -0.147606
    15  H   -0.067925
    16  H   -0.067925
    17  H   -0.121959
    18  H   -0.121959
 Sum of Mulliken charges =  -0.00000

 Dipole moment (field-independent basis, Debye):
    X=              0.1555    Y=             -1.8060    Z=              0.0000  Tot=              1.8127

 Test job not archived.
 1\1\GINC-SE013\SP\RHF\Aug-CC-pVDZ\C5H12S1\OHZDE\05-Apr-2025\0\\#t hf a
 ug-cc-pvdz iop(5/13=1,5/36=2,99/5=2) pseudo=read geom=check guess=(rea
 d,tcheck) scf=(maxcycle=1)\\title\\0,1\C,0,2.666741,0.979974,0.\C,0,1.
 486493,0.014956,0.\C,0,-1.390067,-1.170055,1.269098\C,0,-1.390067,-1.1
 70055,-1.269098\S,0,-0.07432,0.976753,0.\C,0,-1.390067,-0.320258,0.\H,
 0,3.605889,0.424701,0.\H,0,-2.287687,0.301951,0.\H,0,-1.434533,-0.5475
 68,2.161409\H,0,-1.434533,-0.547568,-2.161409\H,0,2.652471,1.620505,0.
 882058\H,0,2.652471,1.620505,-0.882058\H,0,1.518737,-0.621415,-0.88348

 Normal termination of Gaussian 16 at Sat Apr  5 22:28:07 2025.
