 Gaussian 16, Revision C.01,

 ----------------------------------------------------------------------
 #t hf aug-cc-pvdz symm=none int=(grid=ultrafine) guess=(read,tcheck) s
 table=(opt,rrhf)
 ----------------------------------------------------------------------
 -----
 title
 -----
 Symbolic Z-matrix:
 Charge =  0 Multiplicity = 1

 SCF Done:  E(RHF) =  -324.807542536     A.U. after   14 cycles
 Normal termination of Gaussian 16 at Sat Apr  5 22:27:45 2025.
 Gaussian 16:  ES64L-G16RevC.01  3-Jul-2019

 ----------------------------------------------------------------------
 #t hf aug-cc-pvdz iop(5/13=1,5/36=2,99/5=2) pseudo=read geom=check gue
 ss=(read,tcheck) scf=(maxcycle=1)
 ----------------------------------------------------------------------
 -----
 title
 -----
 Structure from the checkpoint file:  "2-ethylpyridine.chk"
 Charge =  0 Multiplicity = 1

                         Standard orientation:
 ---------------------------------------------------------------------
 Center     Atomic      Atomic             Coordinates (Angstroms)
 Number     Number       Type             X           Y           Z
 ---------------------------------------------------------------------
      1          6           0        1.751556    1.082901    0.182606
      2          6           0        2.271460   -0.203318    0.214278
      3          6           0        0.398740    1.250753   -0.075620
      4          6           0        1.403367   -1.263547   -0.016890
      5          6           0       -0.401322    0.128061   -0.295305
      6          6           0       -2.726106   -0.194903    0.645780
      7          6           0       -1.881035    0.248415   -0.555272
      8          7           0        0.103790   -1.111829   -0.264838
      9          1           0        2.388226    1.940873    0.354047
     10          1           0        3.319053   -0.385161    0.408951
     11          1           0       -0.037426    2.240056   -0.109962
     12          1           0        1.770415   -2.283998   -0.005475
     13          1           0       -2.495860   -1.225772    0.912489
     14          1           0       -3.789953   -0.129702    0.414763
     15          1           0       -2.530642    0.432256    1.517119
     16          1           0       -2.122699    1.279481   -0.819168
     17          1           0       -2.127609   -0.375408   -1.416356
 ---------------------------------------------------------------------

 SCF Done:  E(RHF) =  -324.904530579     A.U. after    2 cycles

 The electronic state is 1-A.
 Alpha  occ. eigenvalues --  -15.62191 -11.28549 -11.28194 -11.26496 -11.24424
 Alpha  occ. eigenvalues --  -11.24358 -11.23484 -11.22326  -1.23058  -1.07576
 Alpha  occ. eigenvalues --   -1.06229  -0.99019  -0.87822  -0.85593  -0.80732
 Alpha  occ. eigenvalues --   -0.70469  -0.67389  -0.64377  -0.60369  -0.59751
 Alpha  occ. eigenvalues --   -0.57664  -0.55653  -0.53668  -0.50618  -0.49236
 Alpha  occ. eigenvalues --   -0.49079  -0.40593  -0.38027  -0.33911
 Alpha virt. eigenvalues --    0.03163   0.03700   0.04271   0.05276   0.05648
 Alpha virt. eigenvalues --    0.05980   0.07398   0.08050   0.08468   0.09404
 Alpha virt. eigenvalues --    0.10704   0.11261   0.11365   0.12665   0.13937

 Mulliken charges:
               1
     1  C   -0.384587
     2  C    0.845675
     3  C    0.864331
     4  C    0.549489
     5  C    0.251707
     6  C    0.329082
     7  C    0.174376
     8  N   -0.559633
     9  H   -0.417461
    10  H   -0.415868
    11  H   -0.524222
    12  H   -0.389494
    13  H   -0.040587
    14  H   -0.085900
    15  H   -0.094600
    16  H   -0.096665
    17  H   -0.005642
 Sum of Mulliken charges =  -0.00000

 Dipole moment (field-independent basis, Debye):
    X=              0.7863    Y=              1.5801    Z=              0.2934  Tot=              1.7891

 Test job not archived.
 1\1\GINC-SE221\SP\RHF\Aug-CC-pVDZ\C7H9N1\OHZDE\05-Apr-2025\0\\#t hf au
 g-cc-pvdz iop(5/13=1,5/36=2,99/5=2) pseudo=read geom=check guess=(read
 ,tcheck) scf=(maxcycle=1)\\title\\0,1\C,0,1.751556,1.082901,0.182606\C
 ,0,2.27146,-0.203318,0.214278\C,0,0.39874,1.250753,-0.07562\C,0,1.4033
 67,-1.263547,-0.01689\C,0,-0.401322,0.128061,-0.295305\C,0,-2.726106,-
 0.194903,0.64578\C,0,-1.881035,0.248415,-0.555272\N,0,0.10379,-1.11182
 9,-0.264838\H,0,2.388226,1.940873,0.354047\H,0,3.319053,-0.385161,0.40
 8951\H,0,-0.037426,2.240056,-0.109962\H,0,1.770415,-2.283998,-0.005475

 Normal termination of Gaussian 16 at Sat Apr  5 22:28:09 2025.
