 Gaussian 16, Revision C.01,

 ----------------------------------------------------------------------
 #t hf aug-cc-pvdz symm=none int=(grid=ultrafine) guess=(read,tcheck) s
 table=(opt,rrhf)
 ----------------------------------------------------------------------
 -----
 title
 -----
 Symbolic Z-matrix:
 Charge =  0 Multiplicity = 1

 SCF Done:  E(RHF) =  -307.039810707     A.U. after   12 cycles

 1\1\GINC-SE176\Stability\RHF\Aug-CC-pVDZ\C4H10O2\OHZDE\05-Apr-2025\0\\
 #t hf aug-cc-pvdz symm=none int=(grid=ultrafine) guess=(read,tcheck) s
 table=(opt,rrhf)\\title\\0,1\C,0,-2.749765,-0.583904,-0.153459\C,0,-1.
 683862,0.394741,0.292969\C,0,1.943584,0.269479,-0.404816\C,0,0.63875,0
 .818274,0.137976\O,0,2.3662,-0.943905,0.203717\O,0,-0.429726,-0.030575
 ,-0.21494\H,0,-3.725084,-0.279288,0.228236\H,0,-2.80247,-0.625322,-1.2
 41261\H,0,-2.530599,-1.585069,0.21698\H,0,-1.640996,0.446136,1.389514\
 H,0,-1.909147,1.406285,-0.072242\H,0,2.712674,1.045372,-0.307406\H,0,1

 Normal termination of Gaussian 16 at Sat Apr  5 22:25:11 2025.
 Gaussian 16:  ES64L-G16RevC.01  3-Jul-2019

 ----------------------------------------------------------------------
 #t hf aug-cc-pvdz iop(5/13=1,5/36=2,99/5=2) pseudo=read geom=check gue
 ss=(read,tcheck) scf=(maxcycle=1)
 ----------------------------------------------------------------------
 -----
 title
 -----
 Structure from the checkpoint file:  "2-ethoxyethanol.chk"
 Charge =  0 Multiplicity = 1

                         Standard orientation:
 ---------------------------------------------------------------------
 Center     Atomic      Atomic             Coordinates (Angstroms)
 Number     Number       Type             X           Y           Z
 ---------------------------------------------------------------------
      1          6           0       -2.749765   -0.583904   -0.153459
      2          6           0       -1.683862    0.394741    0.292969
      3          6           0        1.943584    0.269479   -0.404816
      4          6           0        0.638750    0.818274    0.137976
      5          8           0        2.366200   -0.943905    0.203717
      6          8           0       -0.429726   -0.030575   -0.214940
      7          1           0       -3.725084   -0.279288    0.228236
      8          1           0       -2.802470   -0.625322   -1.241261
      9          1           0       -2.530599   -1.585069    0.216980
     10          1           0       -1.640996    0.446136    1.389514
     11          1           0       -1.909147    1.406285   -0.072242
     12          1           0        2.712674    1.045372   -0.307406
     13          1           0        1.826768    0.042599   -1.464123
     14          1           0        0.481049    1.826798   -0.273000
     15          1           0        0.701134    0.920416    1.233025
     16          1           0        2.502636   -0.793628    1.144037
 ---------------------------------------------------------------------

 SCF Done:  E(RHF) =  -307.140332371     A.U. after    2 cycles

 The electronic state is 1-A.
 Alpha  occ. eigenvalues --  -20.56878 -20.56838 -11.28936 -11.28628 -11.28619
 Alpha  occ. eigenvalues --  -11.22385  -1.33869  -1.31380  -1.03724  -0.97407
 Alpha  occ. eigenvalues --   -0.85086  -0.83466  -0.70679  -0.68917  -0.66301
 Alpha  occ. eigenvalues --   -0.63217  -0.62268  -0.56800  -0.56222  -0.53718
 Alpha  occ. eigenvalues --   -0.50591  -0.50287  -0.48285  -0.45556  -0.43574
 Alpha virt. eigenvalues --    0.03286   0.04286   0.04572   0.05029   0.06189
 Alpha virt. eigenvalues --    0.06364   0.06635   0.07457   0.08721   0.09337
 Alpha virt. eigenvalues --    0.12193   0.12984   0.13921   0.15246   0.15716

 Mulliken charges:
               1
     1  C    0.284830
     2  C    0.468725
     3  C    0.864305
     4  C    0.436287
     5  O   -0.568101
     6  O   -0.636953
     7  H   -0.046051
     8  H   -0.052406
     9  H   -0.045314
    10  H   -0.134753
    11  H   -0.138213
    12  H   -0.086955
    13  H   -0.165363
    14  H   -0.126776
    15  H   -0.195455
    16  H    0.142194
 Sum of Mulliken charges =  -0.00000

 Dipole moment (field-independent basis, Debye):
    X=             -0.6612    Y=              2.7119    Z=              1.5540  Tot=              3.1948

 Test job not archived.
 1\1\GINC-SE176\SP\RHF\Aug-CC-pVDZ\C4H10O2\OHZDE\05-Apr-2025\0\\#t hf a
 ug-cc-pvdz iop(5/13=1,5/36=2,99/5=2) pseudo=read geom=check guess=(rea
 d,tcheck) scf=(maxcycle=1)\\title\\0,1\C,0,-2.749765,-0.583904,-0.1534
 59\C,0,-1.683862,0.394741,0.292969\C,0,1.943584,0.269479,-0.404816\C,0
 ,0.63875,0.818274,0.137976\O,0,2.3662,-0.943905,0.203717\O,0,-0.429726
 ,-0.030575,-0.21494\H,0,-3.725084,-0.279288,0.228236\H,0,-2.80247,-0.6
 25322,-1.241261\H,0,-2.530599,-1.585069,0.21698\H,0,-1.640996,0.446136
 ,1.389514\H,0,-1.909147,1.406285,-0.072242\H,0,2.712674,1.045372,-0.30

 Normal termination of Gaussian 16 at Sat Apr  5 22:26:44 2025.
