 Gaussian 16, Revision C.01,

 ----------------------------------------------------------------------
 #t hf aug-cc-pvdz symm=none int=(grid=ultrafine) guess=(read,tcheck) s
 table=(opt,rrhf)
 ----------------------------------------------------------------------
 -----
 title
 -----
 Symbolic Z-matrix:
 Charge =  0 Multiplicity = 1

 SCF Done:  E(RHF) =  -404.464725817     A.U. after   16 cycles
 Normal termination of Gaussian 16 at Sat Apr  5 22:25:38 2025.
 Gaussian 16:  ES64L-G16RevC.01  3-Jul-2019

 ----------------------------------------------------------------------
 #t hf aug-cc-pvdz iop(5/13=1,5/36=2,99/5=2) pseudo=read geom=check gue
 ss=(read,tcheck) scf=(maxcycle=1)
 ----------------------------------------------------------------------
 -----
 title
 -----
 Structure from the checkpoint file:  "2-fluorophenol.chk"
 Charge =  0 Multiplicity = 1

                         Standard orientation:
 ---------------------------------------------------------------------
 Center     Atomic      Atomic             Coordinates (Angstroms)
 Number     Number       Type             X           Y           Z
 ---------------------------------------------------------------------
      1          6           0       -1.104968   -1.663429   -0.000000
      2          6           0       -1.932817   -0.545821   -0.000000
      3          6           0        0.277669   -1.523878    0.000000
      4          6           0       -1.373010    0.728438   -0.000000
      5          6           0        0.848168   -0.256096    0.000000
      6          6           0        0.000000    0.846928   -0.000000
      7          8           0        2.201785   -0.118858    0.000000
      8          9           0        0.585079    2.077027    0.000000
      9          1           0       -1.536548   -2.654610   -0.000000
     10          1           0       -3.007204   -0.659939   -0.000000
     11          1           0        0.930968   -2.385091    0.000000
     12          1           0       -1.982396    1.621014   -0.000000
     13          1           0        2.424943    0.819401    0.000000
 ---------------------------------------------------------------------

 SCF Done:  E(RHF) =  -404.592936955     A.U. after    2 cycles

 The electronic state is 1-A'.
 Alpha  occ. eigenvalues --  -26.14764 -20.61439 -11.33961 -11.32595 -11.26328
 Alpha  occ. eigenvalues --  -11.25709 -11.25336 -11.25303  -1.68318  -1.37868
 Alpha  occ. eigenvalues --   -1.15978  -1.03465  -1.02162  -0.88387  -0.86358
 Alpha  occ. eigenvalues --   -0.80354  -0.76232  -0.76199  -0.72377  -0.67930
 Alpha  occ. eigenvalues --   -0.64637  -0.62348  -0.61522  -0.59660  -0.54673
 Alpha  occ. eigenvalues --   -0.52319  -0.50428  -0.35810  -0.33426
 Alpha virt. eigenvalues --    0.03436   0.04133   0.04237   0.05801   0.06268
 Alpha virt. eigenvalues --    0.09762   0.10310   0.11434   0.11882   0.11931
 Alpha virt. eigenvalues --    0.13848   0.13920   0.14166   0.14302   0.14740

 Mulliken charges:
               1
     1  C    0.414984
     2  C    0.600035
     3  C    0.705195
     4  C    0.373885
     5  C    0.078073
     6  C    0.378256
     7  O   -0.594812
     8  F   -0.347584
     9  H   -0.428717
    10  H   -0.428109
    11  H   -0.467313
    12  H   -0.423729
    13  H    0.139837
 Sum of Mulliken charges =   0.00000

 Dipole moment (field-independent basis, Debye):
    X=             -1.3549    Y=             -0.4821    Z=             -0.0000  Tot=              1.4381

 Test job not archived.
 1\1\GINC-SE107\SP\RHF\Aug-CC-pVDZ\C6H5F1O1\OHZDE\05-Apr-2025\0\\#t hf
 aug-cc-pvdz iop(5/13=1,5/36=2,99/5=2) pseudo=read geom=check guess=(re
 ad,tcheck) scf=(maxcycle=1)\\title\\0,1\C,0,-1.104968,-1.663429,0.\C,0
 ,-1.932817,-0.545821,0.\C,0,0.277669,-1.523878,0.\C,0,-1.37301,0.72843
 8,0.\C,0,0.848168,-0.256096,0.\C,0,0.,0.846928,0.\O,0,2.201785,-0.1188
 58,0.\F,0,0.585079,2.077027,0.\H,0,-1.536548,-2.65461,0.\H,0,-3.007204
 ,-0.659939,0.\H,0,0.930968,-2.385091,0.\H,0,-1.982396,1.621014,0.\H,0,
 2.424943,0.819401,0.\\Version=ES64L-G16RevC.01\State=1-A'\HF=-404.5929

 Normal termination of Gaussian 16 at Sat Apr  5 22:26:44 2025.
