 Gaussian 16, Revision C.01,

 ----------------------------------------------------------------------
 #t hf aug-cc-pvdz symm=none int=(grid=ultrafine) guess=(read,tcheck) s
 table=(opt,rrhf)
 ----------------------------------------------------------------------
 -----
 title
 -----
 Symbolic Z-matrix:
 Charge =  0 Multiplicity = 1

 SCF Done:  E(RHF) =  -532.195667128     A.U. after   16 cycles
 Normal termination of Gaussian 16 at Sat Apr  5 22:25:38 2025.
 Gaussian 16:  ES64L-G16RevC.01  3-Jul-2019

 ----------------------------------------------------------------------
 #t hf aug-cc-pvdz iop(5/13=1,5/36=2,99/5=2) pseudo=read geom=check gue
 ss=(read,tcheck) scf=(maxcycle=1)
 ----------------------------------------------------------------------
 -----
 title
 -----
 Structure from the checkpoint file:  "2-fluoro-2-nitro-3H-furan.chk"
 Charge =  0 Multiplicity = 1

                         Standard orientation:
 ---------------------------------------------------------------------
 Center     Atomic      Atomic             Coordinates (Angstroms)
 Number     Number       Type             X           Y           Z
 ---------------------------------------------------------------------
      1          9           0       -0.375818    1.697446    0.222764
      2          8           0        0.626983    0.220870   -1.127340
      3          8           0       -2.388585    0.216606   -0.155235
      4          8           0       -1.228699   -1.610380    0.030610
      5          7           0       -1.359931   -0.402241   -0.018206
      6          6           0       -0.021614    0.404745    0.085285
      7          6           0        0.896960   -0.092476    1.209348
      8          6           0        1.920548   -0.209156   -0.846755
      9          6           0        2.155262   -0.394312    0.440990
     10          1           0        0.482254   -0.975565    1.692874
     11          1           0        1.010076    0.694126    1.955231
     12          1           0        2.540130   -0.330936   -1.718095
     13          1           0        3.084893   -0.718520    0.875072
 ---------------------------------------------------------------------

 SCF Done:  E(RHF) =  -532.365105219     A.U. after    2 cycles

 The electronic state is 1-A.
 Alpha  occ. eigenvalues --  -26.16939 -20.65295 -20.63913 -20.63141 -15.92668
 Alpha  occ. eigenvalues --  -11.48368 -11.34007 -11.29278 -11.27355  -1.71914
 Alpha  occ. eigenvalues --   -1.56884  -1.43899  -1.38850  -1.12080  -1.09093
 Alpha  occ. eigenvalues --   -0.96074  -0.89299  -0.87006  -0.83106  -0.80059
 Alpha  occ. eigenvalues --   -0.76365  -0.75322  -0.74268  -0.73219  -0.69070
 Alpha  occ. eigenvalues --   -0.65272  -0.61854  -0.61029  -0.58581  -0.57267
 Alpha  occ. eigenvalues --   -0.53357  -0.50841  -0.48654  -0.38864
 Alpha virt. eigenvalues --    0.02567   0.03711   0.04719   0.05331   0.07061
 Alpha virt. eigenvalues --    0.08492   0.09867   0.10075   0.10542   0.11915
 Alpha virt. eigenvalues --    0.12622   0.13231   0.13544   0.14459   0.15230

 Mulliken charges:
               1
     1  F   -0.246935
     2  O   -0.668068
     3  O   -0.487634
     4  O   -0.552624
     5  N    0.227246
     6  C    1.246568
     7  C   -0.000006
     8  C    0.465949
     9  C    0.561262
    10  H    0.020892
    11  H    0.011086
    12  H   -0.295124
    13  H   -0.282611
 Sum of Mulliken charges =  -0.00000

 Dipole moment (field-independent basis, Debye):
    X=              5.0441    Y=             -0.2355    Z=              1.6475  Tot=              5.3115

 Test job not archived.
 1\1\GINC-SE047\SP\RHF\Aug-CC-pVDZ\C4H4F1N1O3\OHZDE\05-Apr-2025\0\\#t h
 f aug-cc-pvdz iop(5/13=1,5/36=2,99/5=2) pseudo=read geom=check guess=(
 read,tcheck) scf=(maxcycle=1)\\title\\0,1\F,0,-0.375818,1.697446,0.222
 764\O,0,0.626983,0.22087,-1.12734\O,0,-2.388585,0.216606,-0.155235\O,0
 ,-1.228699,-1.61038,0.03061\N,0,-1.359931,-0.402241,-0.018206\C,0,-0.0
 21614,0.404745,0.085285\C,0,0.89696,-0.092476,1.209348\C,0,1.920548,-0
 .209156,-0.846755\C,0,2.155262,-0.394312,0.44099\H,0,0.482254,-0.97556
 5,1.692874\H,0,1.010076,0.694126,1.955231\H,0,2.54013,-0.330936,-1.718

 Normal termination of Gaussian 16 at Sat Apr  5 22:26:44 2025.
