 Gaussian 16, Revision C.01,

 ----------------------------------------------------------------------
 #t hf aug-cc-pvdz symm=none int=(grid=ultrafine) guess=(read,tcheck) s
 table=(opt,rrhf)
 ----------------------------------------------------------------------
 -----
 title
 -----
 Symbolic Z-matrix:
 Charge =  0 Multiplicity = 1

 SCF Done:  E(RHF) =  -345.597348721     A.U. after   14 cycles
 Normal termination of Gaussian 16 at Sat Apr  5 22:26:53 2025.
 Gaussian 16:  ES64L-G16RevC.01  3-Jul-2019

 ----------------------------------------------------------------------
 #t hf aug-cc-pvdz iop(5/13=1,5/36=2,99/5=2) pseudo=read geom=check gue
 ss=(read,tcheck) scf=(maxcycle=1)
 ----------------------------------------------------------------------
 -----
 title
 -----
 Structure from the checkpoint file:  "2-fluoropyridine.chk"
 Charge =  0 Multiplicity = 1

                         Standard orientation:
 ---------------------------------------------------------------------
 Center     Atomic      Atomic             Coordinates (Angstroms)
 Number     Number       Type             X           Y           Z
 ---------------------------------------------------------------------
      1          6           0       -0.000000    0.890610   -0.000000
      2          6           0        1.213082    0.212929    0.000000
      3          6           0        1.150826   -1.170346    0.000000
      4          6           0       -0.094041   -1.795003    0.000000
      5          6           0       -1.228714   -0.999639   -0.000000
      6          7           0       -1.183800    0.338362   -0.000000
      7          9           0        0.025740    2.234588   -0.000000
      8          1           0        2.146052    0.755943    0.000000
      9          1           0        2.060970   -1.754404    0.000000
     10          1           0       -0.181364   -2.871685    0.000000
     11          1           0       -2.217635   -1.440986   -0.000000
 ---------------------------------------------------------------------

 SCF Done:  E(RHF) =  -345.706030851     A.U. after    2 cycles

 The electronic state is 1-A'.
 Alpha  occ. eigenvalues --  -26.14073 -15.64436 -11.38402 -11.30437 -11.28614
 Alpha  occ. eigenvalues --  -11.26607 -11.25976  -1.68362  -1.25984  -1.09968
 Alpha  occ. eigenvalues --   -1.04807  -0.89639  -0.89403  -0.79194  -0.75763
 Alpha  occ. eigenvalues --   -0.75720  -0.70359  -0.65740  -0.64248  -0.59271
 Alpha  occ. eigenvalues --   -0.55937  -0.55812  -0.44281  -0.40356  -0.36209
 Alpha virt. eigenvalues --    0.02806   0.03723   0.04762   0.06060   0.07831
 Alpha virt. eigenvalues --    0.08976   0.09765   0.10453   0.11573   0.12786
 Alpha virt. eigenvalues --    0.13113   0.13138   0.14085   0.14205   0.14835

 Mulliken charges:
               1
     1  C    0.502677
     2  C    0.561900
     3  C   -0.165630
     4  C    0.838882
     5  C    0.453169
     6  N   -0.398249
     7  F   -0.292216
     8  H   -0.385231
     9  H   -0.381867
    10  H   -0.402499
    11  H   -0.330938
 Sum of Mulliken charges =  -0.00000

 Dipole moment (field-independent basis, Debye):
    X=              1.8503    Y=             -3.3731    Z=             -0.0000  Tot=              3.8472

 Test job not archived.
 1\1\GINC-SE108\SP\RHF\Aug-CC-pVDZ\C5H4F1N1\OHZDE\05-Apr-2025\0\\#t hf
 aug-cc-pvdz iop(5/13=1,5/36=2,99/5=2) pseudo=read geom=check guess=(re
 ad,tcheck) scf=(maxcycle=1)\\title\\0,1\C,0,0.,0.89061,0.\C,0,1.213082
 ,0.212929,0.\C,0,1.150826,-1.170346,0.\C,0,-0.094041,-1.795003,0.\C,0,
 -1.228714,-0.999639,0.\N,0,-1.1838,0.338362,0.\F,0,0.02574,2.234588,0.
 \H,0,2.146052,0.755943,0.\H,0,2.06097,-1.754404,0.\H,0,-0.181364,-2.87
 1685,0.\H,0,-2.217635,-1.440986,0.\\Version=ES64L-G16RevC.01\State=1-A
 '\HF=-345.7060309\RMSD=1.049e-02\Dipole=0.7279486,-1.3270798,0.\Quadru

 Normal termination of Gaussian 16 at Sat Apr  5 22:26:59 2025.
