 Gaussian 16, Revision C.01,

 ----------------------------------------------------------------------
 #t hf aug-cc-pvdz symm=none int=(grid=ultrafine) guess=(read,tcheck) s
 table=(opt,rrhf)
 ----------------------------------------------------------------------
 -----
 title
 -----
 Symbolic Z-matrix:
 Charge =  0 Multiplicity = 1

 SCF Done:  E(RHF) =  -230.736857228     A.U. after   14 cycles
 Normal termination of Gaussian 16 at Sat Apr  5 22:24:45 2025.
 Gaussian 16:  ES64L-G16RevC.01  3-Jul-2019

 ----------------------------------------------------------------------
 #t hf aug-cc-pvdz iop(5/13=1,5/36=2,99/5=2) pseudo=read geom=check gue
 ss=(read,tcheck) scf=(maxcycle=1)
 ----------------------------------------------------------------------
 -----
 title
 -----
 Structure from the checkpoint file:  "2-fluoroethenimine.chk"
 Charge =  0 Multiplicity = 1

                         Standard orientation:
 ---------------------------------------------------------------------
 Center     Atomic      Atomic             Coordinates (Angstroms)
 Number     Number       Type             X           Y           Z
 ---------------------------------------------------------------------
      1          9           0        1.606461   -0.410727    0.002376
      2          7           0       -1.822683   -0.186473   -0.129924
      3          6           0        0.603795    0.505949    0.008579
      4          6           0       -0.650353    0.130122    0.010605
      5          1           0       -2.343052   -0.348985    0.733356
      6          1           0        0.923032    1.534412    0.039623
 ---------------------------------------------------------------------

 SCF Done:  E(RHF) =  -230.814351153     A.U. after    2 cycles

 The electronic state is 1-A.
 Alpha  occ. eigenvalues --  -26.14054 -15.67652 -11.34478 -11.34238  -1.67368
 Alpha  occ. eigenvalues --   -1.23504  -1.04153  -0.83225  -0.77533  -0.75863
 Alpha  occ. eigenvalues --   -0.74951  -0.64010  -0.56946  -0.49834  -0.36841
 Alpha virt. eigenvalues --    0.03092   0.04275   0.08067   0.09484   0.11016
 Alpha virt. eigenvalues --    0.11330   0.12233   0.12851   0.14637   0.16816
 Alpha virt. eigenvalues --    0.17129   0.20240   0.22151   0.23390   0.25336

 Mulliken charges:
               1
     1  F   -0.345517
     2  N   -0.139676
     3  C    0.977322
     4  C   -0.441110
     5  H    0.106420
     6  H   -0.157439
 Sum of Mulliken charges =  -0.00000

 Dipole moment (field-independent basis, Debye):
    X=             -1.2099    Y=              1.3019    Z=              1.5200  Tot=              2.3387

 Test job not archived.
 1\1\GINC-SE106\SP\RHF\Aug-CC-pVDZ\C2H2F1N1\OHZDE\05-Apr-2025\0\\#t hf
 aug-cc-pvdz iop(5/13=1,5/36=2,99/5=2) pseudo=read geom=check guess=(re
 ad,tcheck) scf=(maxcycle=1)\\title\\0,1\F,0,1.606461,-0.410727,0.00237
 6\N,0,-1.822683,-0.186473,-0.129924\C,0,0.603795,0.505949,0.008579\C,0
 ,-0.650353,0.130122,0.010605\H,0,-2.343052,-0.348985,0.733356\H,0,0.92
 3032,1.534412,0.039623\\Version=ES64L-G16RevC.01\State=1-A\HF=-230.814
 3512\RMSD=5.582e-03\Dipole=-0.4760299,0.5122238,0.5980059\Quadrupole=-
 0.7390457,1.1367702,-0.3977245,1.8009963,-2.9063345,-0.4267867\PG=C01

 Normal termination of Gaussian 16 at Sat Apr  5 22:26:41 2025.
