 Gaussian 16, Revision C.01,

 ----------------------------------------------------------------------
 #t hf aug-cc-pvdz symm=none int=(grid=ultrafine) guess=(read,tcheck) s
 table=(opt,rrhf)
 ----------------------------------------------------------------------
 -----
 title
 -----
 Symbolic Z-matrix:
 Charge =  0 Multiplicity = 1

 SCF Done:  E(RHF) =  -378.584281918     A.U. after   16 cycles
 Normal termination of Gaussian 16 at Sat Apr  5 22:26:54 2025.
 Gaussian 16:  ES64L-G16RevC.01  3-Jul-2019

 ----------------------------------------------------------------------
 #t hf aug-cc-pvdz iop(5/13=1,5/36=2,99/5=2) pseudo=read geom=check gue
 ss=(read,tcheck) scf=(maxcycle=1)
 ----------------------------------------------------------------------
 -----
 title
 -----
 Structure from the checkpoint file:  "2-fluoro-1H-triazine.chk"
 Charge =  0 Multiplicity = 1

                         Standard orientation:
 ---------------------------------------------------------------------
 Center     Atomic      Atomic             Coordinates (Angstroms)
 Number     Number       Type             X           Y           Z
 ---------------------------------------------------------------------
      1          9           0       -2.150096   -0.001054    0.020213
      2          7           0       -0.814685    0.069525   -0.443341
      3          7           0       -0.277930    1.215684    0.168577
      4          7           0       -0.249750   -1.157396    0.094708
      5          6           0        1.005130    1.204416    0.110976
      6          6           0        1.127688   -1.139416    0.040064
      7          6           0        1.779078    0.018424   -0.196713
      8          1           0       -0.688110   -1.456788    0.966414
      9          1           0        1.504722    2.099325    0.462256
     10          1           0        1.610500   -2.086619    0.240445
     11          1           0        2.848926    0.058330   -0.316594
 ---------------------------------------------------------------------

 SCF Done:  E(RHF) =  -378.699292547     A.U. after    2 cycles

 The electronic state is 1-A.
 Alpha  occ. eigenvalues --  -26.13958 -15.79778 -15.69945 -15.66991 -11.33185
 Alpha  occ. eigenvalues --  -11.31612 -11.26067  -1.66274  -1.33732  -1.20204
 Alpha  occ. eigenvalues --   -1.10464  -0.97516  -0.89996  -0.78690  -0.78478
 Alpha  occ. eigenvalues --   -0.75876  -0.72552  -0.68307  -0.66632  -0.62360
 Alpha  occ. eigenvalues --   -0.60747  -0.57473  -0.50142  -0.45211  -0.42828
 Alpha  occ. eigenvalues --   -0.33663
 Alpha virt. eigenvalues --    0.02392   0.03436   0.04478   0.06225   0.07057
 Alpha virt. eigenvalues --    0.09184   0.10260   0.12108   0.12574   0.13423
 Alpha virt. eigenvalues --    0.13877   0.13934   0.14641   0.15962   0.16492

 Mulliken charges:
               1
     1  F   -0.327160
     2  N   -0.371804
     3  N   -0.114676
     4  N    0.014730
     5  C    0.450133
     6  C    0.435549
     7  C    0.742124
     8  H    0.076541
     9  H   -0.261457
    10  H   -0.295695
    11  H   -0.348287
 Sum of Mulliken charges =  -0.00000

 Dipole moment (field-independent basis, Debye):
    X=              4.2084    Y=             -1.8294    Z=              1.5690  Tot=              4.8496

 Test job not archived.
 1\1\GINC-SE046\SP\RHF\Aug-CC-pVDZ\C3H4F1N3\OHZDE\05-Apr-2025\0\\#t hf
 aug-cc-pvdz iop(5/13=1,5/36=2,99/5=2) pseudo=read geom=check guess=(re
 ad,tcheck) scf=(maxcycle=1)\\title\\0,1\F,0,-2.150096,-0.001053,0.0202
 13\N,0,-0.814685,0.069525,-0.443341\N,0,-0.27793,1.215684,0.168577\N,0
 ,-0.24975,-1.157396,0.094708\C,0,1.00513,1.204416,0.110976\C,0,1.12768
 8,-1.139416,0.040064\C,0,1.779078,0.018424,-0.196713\H,0,-0.68811,-1.4
 56788,0.966414\H,0,1.504722,2.099325,0.462256\H,0,1.610499,-2.086619,0
 .240445\H,0,2.848926,0.058329,-0.316594\\Version=ES64L-G16RevC.01\Stat

 Normal termination of Gaussian 16 at Sat Apr  5 22:26:59 2025.
