 Gaussian 16, Revision C.01,

 ----------------------------------------------------------------------
 #t hf aug-cc-pvdz symm=none int=(grid=ultrafine) guess=(read,tcheck) s
 table=(opt,rrhf)
 ----------------------------------------------------------------------
 -----
 title
 -----
 Symbolic Z-matrix:
 Charge =  0 Multiplicity = 1

 SCF Done:  E(RHF) =  -356.230091578     A.U. after   16 cycles
 Normal termination of Gaussian 16 at Sat Apr  5 22:26:49 2025.
 Gaussian 16:  ES64L-G16RevC.01  3-Jul-2019

 ----------------------------------------------------------------------
 #t hf aug-cc-pvdz iop(5/13=1,5/36=2,99/5=2) pseudo=read geom=check gue
 ss=(read,tcheck) scf=(maxcycle=1)
 ----------------------------------------------------------------------
 -----
 title
 -----
 Structure from the checkpoint file:  "2-formyl-3-oxoacrylonitrile.chk"
 Charge =  0 Multiplicity = 1

                         Standard orientation:
 ---------------------------------------------------------------------
 Center     Atomic      Atomic             Coordinates (Angstroms)
 Number     Number       Type             X           Y           Z
 ---------------------------------------------------------------------
      1          8           0       -1.068208    2.068569   -0.000013
      2          8           0       -1.835661   -1.349616    0.000009
      3          7           0        2.746608   -0.160913    0.000000
      4          6           0        0.178758   -0.075978    0.000000
      5          6           0       -0.472690    1.094157   -0.000007
      6          6           0       -0.632050   -1.322264    0.000009
      7          6           0        1.595368   -0.094455    0.000000
      8          1           0       -0.011615   -2.233995    0.000017
 ---------------------------------------------------------------------

 SCF Done:  E(RHF) =  -356.339522770     A.U. after    2 cycles

 The electronic state is 1-A.
 Alpha  occ. eigenvalues --  -20.73247 -20.60796 -15.67069 -11.48468 -11.40064
 Alpha  occ. eigenvalues --  -11.33612 -11.32696  -1.53235  -1.40183  -1.23033
 Alpha  occ. eigenvalues --   -1.14863  -0.92541  -0.85825  -0.82008  -0.74719
 Alpha  occ. eigenvalues --   -0.73756  -0.69515  -0.68019  -0.60661  -0.57686
 Alpha  occ. eigenvalues --   -0.54167  -0.51370  -0.48119  -0.40990
 Alpha virt. eigenvalues --    0.03304   0.04653   0.04978   0.05905   0.06997
 Alpha virt. eigenvalues --    0.07591   0.09395   0.09910   0.10939   0.11796
 Alpha virt. eigenvalues --    0.12619   0.13802   0.14428   0.15064   0.15768

 Mulliken charges:
               1
     1  O   -0.112050
     2  O   -0.456573
     3  N   -0.128752
     4  C    1.723247
     5  C   -0.534949
     6  C    0.566465
     7  C   -0.904450
     8  H   -0.152937
 Sum of Mulliken charges =  -0.00000

 Dipole moment (field-independent basis, Debye):
    X=             -0.2540    Y=              0.3050    Z=              0.0000  Tot=              0.3969

 Test job not archived.
 1\1\GINC-SE208\SP\RHF\Aug-CC-pVDZ\C4H1N1O2\OHZDE\05-Apr-2025\0\\#t hf
 aug-cc-pvdz iop(5/13=1,5/36=2,99/5=2) pseudo=read geom=check guess=(re
 ad,tcheck) scf=(maxcycle=1)\\title\\0,1\O,0,-1.068209,2.068569,-0.0000
 13\O,0,-1.835661,-1.349617,0.000009\N,0,2.746608,-0.160912,0.\C,0,0.17
 8758,-0.075978,0.\C,0,-0.472691,1.094157,-0.000007\C,0,-0.63205,-1.322
 264,0.000009\C,0,1.595368,-0.094455,0.\H,0,-0.011614,-2.233995,0.00001
 7\\Version=ES64L-G16RevC.01\State=1-A\HF=-356.3395228\RMSD=5.926e-03\D
 ipole=-0.099921,0.1200008,0.0000002\Quadrupole=-9.4517765,4.7721318,4.

 Normal termination of Gaussian 16 at Sat Apr  5 22:26:53 2025.
