 Gaussian 16, Revision C.01,

 ----------------------------------------------------------------------
 #t hf aug-cc-pvdz symm=none int=(grid=ultrafine) guess=(read,tcheck) s
 table=(opt,rrhf)
 ----------------------------------------------------------------------
 -----
 title
 -----
 Symbolic Z-matrix:
 Charge =  0 Multiplicity = 1

 SCF Done:  E(RHF) =  -342.563418541     A.U. after   14 cycles
 Normal termination of Gaussian 16 at Sat Apr  5 22:27:06 2025.
 Gaussian 16:  ES64L-G16RevC.01  3-Jul-2019

 ----------------------------------------------------------------------
 #t hf aug-cc-pvdz iop(5/13=1,5/36=2,99/5=2) pseudo=read geom=check gue
 ss=(read,tcheck) scf=(maxcycle=1)
 ----------------------------------------------------------------------
 -----
 title
 -----
 Structure from the checkpoint file:  "2-furylmethanol.chk"
 Charge =  0 Multiplicity = 1

                         Standard orientation:
 ---------------------------------------------------------------------
 Center     Atomic      Atomic             Coordinates (Angstroms)
 Number     Number       Type             X           Y           Z
 ---------------------------------------------------------------------
      1          8           0        2.347421   -0.187082   -0.656389
      2          6           0        1.620033    0.221901    0.509756
      3          6           0        0.166572    0.196034    0.229739
      4          6           0       -0.747500    1.169251   -0.020672
      5          6           0       -2.002371    0.514222   -0.220304
      6          6           0       -1.758701   -0.811172   -0.075955
      7          8           0       -0.446384   -1.026217    0.202246
      8          1           0        3.264764   -0.337168   -0.408291
      9          1           0        1.894901    1.240412    0.798884
     10          1           0        1.842877   -0.446236    1.347719
     11          1           0       -0.548601    2.226247   -0.064386
     12          1           0       -2.952138    0.969176   -0.441152
     13          1           0       -2.378300   -1.687460   -0.135014
 ---------------------------------------------------------------------

 SCF Done:  E(RHF) =  -342.670965101     A.U. after    2 cycles

 The electronic state is 1-A.
 Alpha  occ. eigenvalues --  -20.63309 -20.57777 -11.30543 -11.29828 -11.29778
 Alpha  occ. eigenvalues --  -11.23892 -11.23752  -1.41764  -1.32346  -1.07877
 Alpha  occ. eigenvalues --   -1.03879  -0.92309  -0.81789  -0.76954  -0.72717
 Alpha  occ. eigenvalues --   -0.71390  -0.64669  -0.64164  -0.61091  -0.58068
 Alpha  occ. eigenvalues --   -0.57457  -0.55418  -0.52295  -0.47363  -0.40430
 Alpha  occ. eigenvalues --   -0.31986
 Alpha virt. eigenvalues --    0.03321   0.03836   0.04450   0.05474   0.05844
 Alpha virt. eigenvalues --    0.06691   0.10129   0.11035   0.11506   0.12178
 Alpha virt. eigenvalues --    0.13080   0.13949   0.14794   0.15148   0.15299

 Mulliken charges:
               1
     1  O   -0.538431
     2  C    0.774094
     3  C   -0.176938
     4  C    0.570557
     5  C    0.341236
     6  C    0.670132
     7  O   -0.573519
     8  H    0.126008
     9  H   -0.073520
    10  H   -0.106820
    11  H   -0.360960
    12  H   -0.308070
    13  H   -0.343769
 Sum of Mulliken charges =   0.00000

 Dipole moment (field-independent basis, Debye):
    X=              0.3794    Y=              1.0037    Z=              1.5239  Tot=              1.8638

 Test job not archived.
 1\1\GINC-SE209\SP\RHF\Aug-CC-pVDZ\C5H6O2\OHZDE\05-Apr-2025\0\\#t hf au
 g-cc-pvdz iop(5/13=1,5/36=2,99/5=2) pseudo=read geom=check guess=(read
 ,tcheck) scf=(maxcycle=1)\\title\\0,1\O,0,2.347421,-0.187082,-0.656389
 \C,0,1.620033,0.221901,0.509756\C,0,0.166572,0.196034,0.229739\C,0,-0.
 7475,1.169251,-0.020672\C,0,-2.002371,0.514222,-0.220304\C,0,-1.758701
 ,-0.811172,-0.075955\O,0,-0.446384,-1.026217,0.202246\H,0,3.264764,-0.
 337168,-0.408291\H,0,1.894901,1.240412,0.798884\H,0,1.842877,-0.446236
 ,1.347719\H,0,-0.548601,2.226247,-0.064386\H,0,-2.952138,0.969176,-0.4

 Normal termination of Gaussian 16 at Sat Apr  5 22:27:10 2025.
