 Gaussian 16, Revision C.01,

 ----------------------------------------------------------------------
 #t hf aug-cc-pvdz symm=none int=(grid=ultrafine) guess=(read,tcheck) s
 table=(opt,rrhf)
 ----------------------------------------------------------------------
 -----
 title
 -----
 Symbolic Z-matrix:
 Charge =  0 Multiplicity = 1

 SCF Done:  E(RHF) =  -309.105550925     A.U. after   13 cycles

 1\1\GINC-SE212\Stability\RHF\Aug-CC-pVDZ\C6H12O1\OHZDE\05-Apr-2025\0\\
 #t hf aug-cc-pvdz symm=none int=(grid=ultrafine) guess=(read,tcheck) s
 table=(opt,rrhf)\\title\\0,1\C,0,1.713767,0.184314,-0.006094\C,0,2.992
 613,-0.627337,0.018624\C,0,-3.398174,0.257813,0.014447\C,0,0.415711,-0
 .605242,-0.018955\C,0,-2.129427,-0.592675,-0.013892\C,0,-0.849467,0.24
 3536,0.010725\O,0,1.732799,1.394734,-0.012565\H,0,3.048893,-1.205545,0
 .943733\H,0,3.010172,-1.344276,-0.804455\H,0,3.853628,0.032351,-0.0479
 22\H,0,-3.440169,0.930013,-0.844742\H,0,-4.294888,-0.362918,-0.005028\

 Normal termination of Gaussian 16 at Sat Apr  5 22:27:45 2025.
 Gaussian 16:  ES64L-G16RevC.01  3-Jul-2019

 ----------------------------------------------------------------------
 #t hf aug-cc-pvdz iop(5/13=1,5/36=2,99/5=2) pseudo=read geom=check gue
 ss=(read,tcheck) scf=(maxcycle=1)
 ----------------------------------------------------------------------
 -----
 title
 -----
 Structure from the checkpoint file:  "2-hexanone.chk"
 Charge =  0 Multiplicity = 1

                         Standard orientation:
 ---------------------------------------------------------------------
 Center     Atomic      Atomic             Coordinates (Angstroms)
 Number     Number       Type             X           Y           Z
 ---------------------------------------------------------------------
      1          6           0        1.713767    0.184314   -0.006094
      2          6           0        2.992613   -0.627337    0.018624
      3          6           0       -3.398174    0.257813    0.014447
      4          6           0        0.415711   -0.605242   -0.018955
      5          6           0       -2.129427   -0.592675   -0.013892
      6          6           0       -0.849467    0.243536    0.010725
      7          8           0        1.732799    1.394734   -0.012565
      8          1           0        3.048893   -1.205545    0.943733
      9          1           0        3.010172   -1.344276   -0.804455
     10          1           0        3.853628    0.032351   -0.047922
     11          1           0       -3.440169    0.930013   -0.844742
     12          1           0       -4.294888   -0.362918   -0.005028
     13          1           0       -3.439164    0.873178    0.915292
     14          1           0        0.440487   -1.300663    0.827754
     15          1           0        0.432242   -1.246871   -0.907744
     16          1           0       -2.134229   -1.223254   -0.908517
     17          1           0       -2.132488   -1.278680    0.838933
     18          1           0       -0.837342    0.875293    0.901856
     19          1           0       -0.839678    0.931040   -0.837776
 ---------------------------------------------------------------------

 SCF Done:  E(RHF) =  -309.204253511     A.U. after    2 cycles

 The electronic state is 1-A.
 Alpha  occ. eigenvalues --  -20.55838 -11.34006 -11.24532 -11.24339 -11.23066
 Alpha  occ. eigenvalues --  -11.22811 -11.22242  -1.35068  -1.07779  -1.02485
 Alpha  occ. eigenvalues --   -0.97979  -0.88465  -0.80078  -0.73862  -0.65933
 Alpha  occ. eigenvalues --   -0.65835  -0.63551  -0.61440  -0.58559  -0.57117
 Alpha  occ. eigenvalues --   -0.55904  -0.53393  -0.51453  -0.49562  -0.48441
 Alpha  occ. eigenvalues --   -0.47729  -0.46953  -0.41913
 Alpha virt. eigenvalues --    0.03113   0.03827   0.04438   0.04925   0.05745
 Alpha virt. eigenvalues --    0.06166   0.06681   0.07483   0.08298   0.08705
 Alpha virt. eigenvalues --    0.08808   0.10732   0.11043   0.12288   0.13699

 Mulliken charges:
               1
     1  C   -0.152418
     2  C    0.517369
     3  C    0.576296
     4  C    0.032354
     5  C    0.384378
     6  C    0.146078
     7  O   -0.530242
     8  H    0.043059
     9  H    0.026820
    10  H   -0.081176
    11  H   -0.087106
    12  H   -0.063212
    13  H   -0.086618
    14  H   -0.050127
    15  H   -0.038422
    16  H   -0.158670
    17  H   -0.162718
    18  H   -0.161279
    19  H   -0.154367
 Sum of Mulliken charges =  -0.00000

 Dipole moment (field-independent basis, Debye):
    X=             -0.2131    Y=             -3.3896    Z=              0.0240  Tot=              3.3963

 Test job not archived.
 1\1\GINC-SE212\SP\RHF\Aug-CC-pVDZ\C6H12O1\OHZDE\05-Apr-2025\0\\#t hf a
 ug-cc-pvdz iop(5/13=1,5/36=2,99/5=2) pseudo=read geom=check guess=(rea
 d,tcheck) scf=(maxcycle=1)\\title\\0,1\C,0,1.713767,0.184314,-0.006094
 \C,0,2.992613,-0.627337,0.018624\C,0,-3.398174,0.257813,0.014447\C,0,0
 .415711,-0.605242,-0.018955\C,0,-2.129427,-0.592675,-0.013892\C,0,-0.8
 49467,0.243536,0.010725\O,0,1.732799,1.394734,-0.012565\H,0,3.048893,-
 1.205545,0.943733\H,0,3.010172,-1.344276,-0.804455\H,0,3.853628,0.0323
 51,-0.047922\H,0,-3.440169,0.930013,-0.844742\H,0,-4.294888,-0.362918,

 Normal termination of Gaussian 16 at Sat Apr  5 22:28:09 2025.
