 Gaussian 16, Revision C.01,

 ----------------------------------------------------------------------
 #t hf aug-cc-pvdz symm=none int=(grid=ultrafine) guess=(read,tcheck) s
 table=(opt,rrhf)
 ----------------------------------------------------------------------
 -----
 title
 -----
 Symbolic Z-matrix:
 Charge =  0 Multiplicity = 1

 SCF Done:  E(RHF) =  -987.022556762     A.U. after   16 cycles
 Normal termination of Gaussian 16 at Sat Apr  5 22:24:57 2025.
 Gaussian 16:  ES64L-G16RevC.01  3-Jul-2019

 ----------------------------------------------------------------------
 #t hf aug-cc-pvdz iop(5/13=1,5/36=2,99/5=2) pseudo=read geom=check gue
 ss=(read,tcheck) scf=(maxcycle=1)
 ----------------------------------------------------------------------
 -----
 title
 -----
 Structure from the checkpoint file:  "2-hydroxy-3-sulfanylpropanethial.chk"
 Charge =  0 Multiplicity = 1

                         Standard orientation:
 ---------------------------------------------------------------------
 Center     Atomic      Atomic             Coordinates (Angstroms)
 Number     Number       Type             X           Y           Z
 ---------------------------------------------------------------------
      1          8           0       -0.433596    1.791440   -0.034122
      2          6           0        0.092369    0.494830   -0.264861
      3          6           0       -0.760877   -0.602898    0.406048
      4         16           0       -2.513763   -0.566762   -0.143480
      5         16           0        2.654148   -0.553579   -0.123783
      6          6           0        1.477017    0.465249    0.314637
      7          1           0       -1.327788    1.811360   -0.398006
      8          1           0        0.147240    0.280150   -1.336058
      9          1           0       -0.734102   -0.508767    1.489120
     10          1           0       -0.369979   -1.580613    0.134186
     11          1           0       -2.975713    0.256316    0.814023
     12          1           0        1.631903    1.192396    1.110975
 ---------------------------------------------------------------------

 SCF Done:  E(RHF) =  -987.119407657     A.U. after    2 cycles

 The electronic state is 1-A.
 Alpha  occ. eigenvalues --  -93.55759 -93.53383 -20.59715 -11.33683 -11.32933
 Alpha  occ. eigenvalues --  -11.29751  -8.85485  -8.83249  -6.19652  -6.19435
 Alpha  occ. eigenvalues --   -6.19114  -6.17408  -6.17075  -6.16780  -1.35362
 Alpha  occ. eigenvalues --   -1.10661  -1.04746  -0.94791  -0.85888  -0.79028
 Alpha  occ. eigenvalues --   -0.72034  -0.67362  -0.65056  -0.61322  -0.55329
 Alpha  occ. eigenvalues --   -0.54927  -0.53239  -0.49832  -0.47236  -0.40917
 Alpha  occ. eigenvalues --   -0.38190  -0.35085
 Alpha virt. eigenvalues --    0.03358   0.03495   0.04654   0.05077   0.05274
 Alpha virt. eigenvalues --    0.07059   0.07223   0.08504   0.09422   0.11422
 Alpha virt. eigenvalues --    0.12681   0.13262   0.14165   0.14381   0.15371

 Mulliken charges:
               1
     1  O   -0.609591
     2  C    0.698452
     3  C   -0.342940
     4  S    0.275533
     5  S    0.062924
     6  C    0.119730
     7  H    0.174396
     8  H   -0.073678
     9  H   -0.140643
    10  H    0.029890
    11  H    0.084256
    12  H   -0.278328
 Sum of Mulliken charges =  -0.00000

 Dipole moment (field-independent basis, Debye):
    X=             -1.8688    Y=              0.2311    Z=              0.7747  Tot=              2.0361

 Test job not archived.
 1\1\GINC-SE211\SP\RHF\Aug-CC-pVDZ\C3H6O1S2\OHZDE\05-Apr-2025\0\\#t hf
 aug-cc-pvdz iop(5/13=1,5/36=2,99/5=2) pseudo=read geom=check guess=(re
 ad,tcheck) scf=(maxcycle=1)\\title\\0,1\O,0,-0.433596,1.79144,-0.03412
 2\C,0,0.092369,0.49483,-0.264861\C,0,-0.760877,-0.602898,0.406048\S,0,
 -2.513763,-0.566762,-0.14348\S,0,2.654148,-0.553579,-0.123783\C,0,1.47
 7017,0.465249,0.314637\H,0,-1.327788,1.81136,-0.398006\H,0,0.14724,0.2
 8015,-1.336058\H,0,-0.734102,-0.508767,1.48912\H,0,-0.369979,-1.580613
 ,0.134186\H,0,-2.975713,0.256316,0.814023\H,0,1.631903,1.192396,1.1109

 Normal termination of Gaussian 16 at Sat Apr  5 22:26:44 2025.
