 Gaussian 16, Revision C.01,

 ----------------------------------------------------------------------
 #t hf aug-cc-pvdz symm=none int=(grid=ultrafine) guess=(read,tcheck) s
 table=(opt,rrhf)
 ----------------------------------------------------------------------
 -----
 title
 -----
 Symbolic Z-matrix:
 Charge =  0 Multiplicity = 1

 SCF Done:  E(RHF) =  -549.242436740     A.U. after   14 cycles
 Normal termination of Gaussian 16 at Sat Apr  5 22:26:43 2025.
 Gaussian 16:  ES64L-G16RevC.01  3-Jul-2019

 ----------------------------------------------------------------------
 #t hf aug-cc-pvdz iop(5/13=1,5/36=2,99/5=2) pseudo=read geom=check gue
 ss=(read,tcheck) scf=(maxcycle=1)
 ----------------------------------------------------------------------
 -----
 title
 -----
 Structure from the checkpoint file:  "2-hydroxyethenethione.chk"
 Charge =  0 Multiplicity = 1

                         Standard orientation:
 ---------------------------------------------------------------------
 Center     Atomic      Atomic             Coordinates (Angstroms)
 Number     Number       Type             X           Y           Z
 ---------------------------------------------------------------------
      1         16           0       -1.667961   -0.117975   -0.000019
      2          8           0        2.177698   -0.373093    0.000025
      3          6           0       -0.141968    0.236010   -0.000001
      4          6           0        1.136462    0.528571    0.000012
      5          1           0        1.833657   -1.273070    0.000026
      6          1           0        1.465171    1.557929    0.000014
 ---------------------------------------------------------------------

 SCF Done:  E(RHF) =  -549.310521776     A.U. after    2 cycles

 The electronic state is 1-A.
 Alpha  occ. eigenvalues --  -93.56187 -20.62709 -11.33948 -11.33423  -8.85980
 Alpha  occ. eigenvalues --   -6.20192  -6.19765  -6.19470  -1.37954  -1.09605
 Alpha  occ. eigenvalues --   -0.97965  -0.81835  -0.68203  -0.62891  -0.62090
 Alpha  occ. eigenvalues --   -0.57588  -0.48871  -0.43600  -0.31849
 Alpha virt. eigenvalues --    0.02489   0.04180   0.04597   0.07033   0.09487
 Alpha virt. eigenvalues --    0.09554   0.12802   0.13717   0.14138   0.15375
 Alpha virt. eigenvalues --    0.16210   0.16866   0.17520   0.20162   0.20181

 Mulliken charges:
               1
     1  S    0.153089
     2  O   -0.459202
     3  C   -0.465240
     4  C    0.838585
     5  H    0.124125
     6  H   -0.191357
 Sum of Mulliken charges =   0.00000

 Dipole moment (field-independent basis, Debye):
    X=              0.3425    Y=             -0.3092    Z=              0.0000  Tot=              0.4614

 Test job not archived.
 1\1\GINC-SE214\SP\RHF\Aug-CC-pVDZ\C2H2O1S1\OHZDE\05-Apr-2025\0\\#t hf
 aug-cc-pvdz iop(5/13=1,5/36=2,99/5=2) pseudo=read geom=check guess=(re
 ad,tcheck) scf=(maxcycle=1)\\title\\0,1\S,0,-1.667961,-0.117975,-0.000
 019\O,0,2.177698,-0.373093,0.000025\C,0,-0.141968,0.23601,-0.000001\C,
 0,1.136462,0.528571,0.000012\H,0,1.833657,-1.27307,0.000026\H,0,1.4651
 71,1.557929,0.000014\\Version=ES64L-G16RevC.01\State=1-A\HF=-549.31052
 18\RMSD=7.931e-03\Dipole=0.1347581,-0.1216378,0.0000037\Quadrupole=-2.
 3378451,4.1383678,-1.8005227,-0.2114238,0.0000046,-0.0000201\PG=C01 [X

 Normal termination of Gaussian 16 at Sat Apr  5 22:26:47 2025.
