 Gaussian 16, Revision C.01,

 ----------------------------------------------------------------------
 #t hf aug-cc-pvdz symm=none int=(grid=ultrafine) guess=(read,tcheck) s
 table=(opt,rrhf)
 ----------------------------------------------------------------------
 -----
 title
 -----
 Symbolic Z-matrix:
 Charge =  0 Multiplicity = 1

 SCF Done:  E(RHF) =  -623.573715065     A.U. after   13 cycles
 Normal termination of Gaussian 16 at Sat Apr  5 22:28:17 2025.
 Gaussian 16:  ES64L-G16RevC.01  3-Jul-2019

 ----------------------------------------------------------------------
 #t hf aug-cc-pvdz iop(5/13=1,5/36=2,99/5=2) pseudo=read geom=check gue
 ss=(read,tcheck) scf=(maxcycle=1)
 ----------------------------------------------------------------------
 -----
 title
 -----
 Structure from the checkpoint file:  "2-imidazolidinethione.chk"
 Charge =  0 Multiplicity = 1

                         Standard orientation:
 ---------------------------------------------------------------------
 Center     Atomic      Atomic             Coordinates (Angstroms)
 Number     Number       Type             X           Y           Z
 ---------------------------------------------------------------------
      1         16           0       -0.000000   -0.000000    2.086086
      2          6           0       -0.000000   -0.000000    0.422971
      3          7           0        0.000000    1.095429   -0.390077
      4          6           0       -0.231274    0.733283   -1.785169
      5          6           0        0.231274   -0.733283   -1.785169
      6          7           0       -0.000000   -1.095429   -0.390077
      7          1           0       -0.275915    1.980156   -0.001574
      8          1           0        0.347846    1.354361   -2.465670
      9          1           0       -1.290782    0.811565   -2.048808
     10          1           0        1.290782   -0.811565   -2.048808
     11          1           0       -0.347846   -1.354361   -2.465670
     12          1           0        0.275915   -1.980156   -0.001574
 ---------------------------------------------------------------------

 SCF Done:  E(RHF) =  -623.659776895     A.U. after    2 cycles

 The electronic state is 1-A.
 Alpha  occ. eigenvalues --  -93.46776 -15.66565 -15.66558 -11.38140 -11.30533
 Alpha  occ. eigenvalues --  -11.30483  -8.76709  -6.10979  -6.10396  -6.10326
 Alpha  occ. eigenvalues --   -1.31438  -1.16387  -1.06038  -0.92363  -0.87602
 Alpha  occ. eigenvalues --   -0.83798  -0.70506  -0.68999  -0.65960  -0.61751
 Alpha  occ. eigenvalues --   -0.58203  -0.55351  -0.53431  -0.50301  -0.39917
 Alpha  occ. eigenvalues --   -0.31882  -0.31636
 Alpha virt. eigenvalues --    0.02327   0.03414   0.03926   0.05046   0.06715
 Alpha virt. eigenvalues --    0.06891   0.09509   0.10241   0.11795   0.11965
 Alpha virt. eigenvalues --    0.12720   0.12989   0.14309   0.14689   0.15884

 Mulliken charges:
               1
     1  S   -0.025386
     2  C    0.185399
     3  N   -0.424839
     4  C    0.755660
     5  C    0.755660
     6  N   -0.424839
     7  H   -0.095626
     8  H   -0.130637
     9  H   -0.184564
    10  H   -0.184564
    11  H   -0.130637
    12  H   -0.095626
 Sum of Mulliken charges =   0.00000

 Dipole moment (field-independent basis, Debye):
    X=              0.0000    Y=              0.0000    Z=             -6.2157  Tot=              6.2157

 Test job not archived.
 1\1\GINC-SE042\SP\RHF\Aug-CC-pVDZ\C3H6N2S1\OHZDE\05-Apr-2025\0\\#t hf
 aug-cc-pvdz iop(5/13=1,5/36=2,99/5=2) pseudo=read geom=check guess=(re
 ad,tcheck) scf=(maxcycle=1)\\title\\0,1\S,0,0.,0.,2.086086\C,0,0.,0.,0
 .422971\N,0,0.,1.095429,-0.390077\C,0,-0.231274,0.733283,-1.785169\C,0
 ,0.231274,-0.733283,-1.785169\N,0,0.,-1.095429,-0.390077\H,0,-0.275915
 ,1.980156,-0.001574\H,0,0.347846,1.354361,-2.46567\H,0,-1.290782,0.811
 565,-2.048808\H,0,1.290782,-0.811565,-2.048808\H,0,-0.347846,-1.354361
 ,-2.46567\H,0,0.275915,-1.980156,-0.001574\\Version=ES64L-G16RevC.01\S

 Normal termination of Gaussian 16 at Sat Apr  5 22:29:04 2025.
