 Gaussian 16, Revision C.01,

 ----------------------------------------------------------------------
 #t hf aug-cc-pvdz symm=none int=(grid=ultrafine) guess=(read,tcheck) s
 table=(opt,rrhf)
 ----------------------------------------------------------------------
 -----
 title
 -----
 Symbolic Z-matrix:
 Charge =  0 Multiplicity = 1

 SCF Done:  E(RHF) =  -697.272877737     A.U. after   15 cycles
 Normal termination of Gaussian 16 at Sat Apr  5 22:28:17 2025.
 Gaussian 16:  ES64L-G16RevC.01  3-Jul-2019

 ----------------------------------------------------------------------
 #t hf aug-cc-pvdz iop(5/13=1,5/36=2,99/5=2) pseudo=read geom=check gue
 ss=(read,tcheck) scf=(maxcycle=1)
 ----------------------------------------------------------------------
 -----
 title
 -----
 Structure from the checkpoint file:  "2-isothiocyanatoacetamide.chk"
 Charge =  0 Multiplicity = 1

                         Standard orientation:
 ---------------------------------------------------------------------
 Center     Atomic      Atomic             Coordinates (Angstroms)
 Number     Number       Type             X           Y           Z
 ---------------------------------------------------------------------
      1         16           0        2.745348   -0.356309    0.000063
      2          8           0       -0.994220   -1.299184    0.000009
      3          7           0       -3.011806   -0.267700   -0.000097
      4          7           0        0.394126    1.102920   -0.000391
      5          6           0       -1.019553    1.122041    0.000287
      6          6           0       -1.651289   -0.284113    0.000026
      7          6           0        1.362947    0.407332   -0.000131
      8          1           0       -1.377130    1.669767   -0.876347
      9          1           0       -1.376320    1.668960    0.877770
     10          1           0       -3.544575    0.582927   -0.000097
     11          1           0       -3.502658   -1.145330   -0.000094
 ---------------------------------------------------------------------

 SCF Done:  E(RHF) =  -697.385166465     A.U. after    2 cycles

 The electronic state is 1-A.
 Alpha  occ. eigenvalues --  -93.52277 -20.56219 -15.67367 -15.66994 -11.39388
 Alpha  occ. eigenvalues --  -11.38692 -11.33632  -8.82218  -6.16533  -6.15851
 Alpha  occ. eigenvalues --   -6.15809  -1.37802  -1.26219  -1.20601  -1.06500
 Alpha  occ. eigenvalues --   -0.99239  -0.84861  -0.77381  -0.71732  -0.69754
 Alpha  occ. eigenvalues --   -0.68467  -0.64323  -0.58534  -0.58297  -0.53739
 Alpha  occ. eigenvalues --   -0.52501  -0.47137  -0.44315  -0.35740  -0.34739
 Alpha virt. eigenvalues --    0.01639   0.03722   0.04177   0.05265   0.07865
 Alpha virt. eigenvalues --    0.08800   0.10333   0.10965   0.11661   0.12383
 Alpha virt. eigenvalues --    0.12729   0.13385   0.13500   0.14844   0.15344

 Mulliken charges:
               1
     1  S    0.187692
     2  O   -0.471259
     3  N   -0.117903
     4  N   -0.167212
     5  C    0.766023
     6  C    0.485541
     7  C   -0.505701
     8  H   -0.069260
     9  H   -0.068833
    10  H   -0.030652
    11  H   -0.008437
 Sum of Mulliken charges =  -0.00000

 Dipole moment (field-independent basis, Debye):
    X=             -6.2873    Y=              3.2869    Z=              0.0011  Tot=              7.0947

 Test job not archived.
 1\1\GINC-SE164\SP\RHF\Aug-CC-pVDZ\C3H4N2O1S1\OHZDE\05-Apr-2025\0\\#t h
 f aug-cc-pvdz iop(5/13=1,5/36=2,99/5=2) pseudo=read geom=check guess=(
 read,tcheck) scf=(maxcycle=1)\\title\\0,1\S,0,2.745348,-0.356309,0.000
 063\O,0,-0.99422,-1.299184,0.000009\N,0,-3.011806,-0.2677,-0.000097\N,
 0,0.394126,1.10292,-0.000391\C,0,-1.019553,1.122041,0.000287\C,0,-1.65
 1289,-0.284113,0.000026\C,0,1.362947,0.407332,-0.000131\H,0,-1.37713,1
 .669767,-0.876347\H,0,-1.37632,1.66896,0.87777\H,0,-3.544575,0.582927,
 -0.000097\H,0,-3.502658,-1.14533,-0.000094\\Version=ES64L-G16RevC.01\S

 Normal termination of Gaussian 16 at Sat Apr  5 22:29:03 2025.
