 Gaussian 16, Revision C.01,

 ----------------------------------------------------------------------
 #t hf aug-cc-pvdz symm=none int=(grid=ultrafine) guess=(read,tcheck) s
 table=(opt,rrhf)
 ----------------------------------------------------------------------
 -----
 title
 -----
 Symbolic Z-matrix:
 Charge =  0 Multiplicity = 1

 SCF Done:  E(RHF) =  -632.920927181     A.U. after   12 cycles

 1\1\GINC-SE040\Stability\RHF\Aug-CC-pVDZ\C6H14S1\OHZDE\05-Apr-2025\0\\
 #t hf aug-cc-pvdz symm=none int=(grid=ultrafine) guess=(read,tcheck) s
 table=(opt,rrhf)\\title\\0,1\C,0,1.734839,-1.077796,-1.065905\C,0,2.63
 2719,0.591958,0.605922\C,0,-1.73484,-1.077794,1.065906\C,0,-2.632718,0
 .591958,-0.605923\C,0,1.441089,-0.271419,0.195238\C,0,-1.441089,-0.271
 419,-0.195238\S,0,0.,0.866458,0.\H,0,2.591479,-1.736141,-0.899071\H,0,
 0.892872,-1.704377,-1.358644\H,0,1.969701,-0.41564,-1.900083\H,0,3.513
 715,-0.035344,0.754087\H,0,2.435115,1.129802,1.532456\H,0,2.869539,1.3

 Normal termination of Gaussian 16 at Sat Apr  5 22:29:20 2025.
 Gaussian 16:  ES64L-G16RevC.01  3-Jul-2019

 ----------------------------------------------------------------------
 #t hf aug-cc-pvdz iop(5/13=1,5/36=2,99/5=2) pseudo=read geom=check gue
 ss=(read,tcheck) scf=(maxcycle=1)
 ----------------------------------------------------------------------
 -----
 title
 -----
 Structure from the checkpoint file:  "2-isopropylsulfanylpropane.chk"
 Charge =  0 Multiplicity = 1

                         Standard orientation:
 ---------------------------------------------------------------------
 Center     Atomic      Atomic             Coordinates (Angstroms)
 Number     Number       Type             X           Y           Z
 ---------------------------------------------------------------------
      1          6           0        1.734839   -1.077796   -1.065905
      2          6           0        2.632719    0.591958    0.605922
      3          6           0       -1.734840   -1.077794    1.065906
      4          6           0       -2.632718    0.591958   -0.605923
      5          6           0        1.441089   -0.271419    0.195238
      6          6           0       -1.441089   -0.271419   -0.195238
      7         16           0       -0.000000    0.866458    0.000000
      8          1           0        2.591479   -1.736141   -0.899071
      9          1           0        0.892872   -1.704377   -1.358644
     10          1           0        1.969701   -0.415640   -1.900083
     11          1           0        3.513715   -0.035344    0.754087
     12          1           0        2.435115    1.129802    1.532456
     13          1           0        2.869539    1.323680   -0.168464
     14          1           0       -2.591478   -1.736141    0.899071
     15          1           0       -0.892872   -1.704375    1.358647
     16          1           0       -1.969704   -0.415638    1.900082
     17          1           0       -3.513714   -0.035344   -0.754090
     18          1           0       -2.435113    1.129802   -1.532458
     19          1           0       -2.869540    1.323680    0.168462
     20          1           0        1.204385   -0.950113    1.015660
     21          1           0       -1.204384   -0.950114   -1.015659
 ---------------------------------------------------------------------

 SCF Done:  E(RHF) =  -633.016762544     A.U. after    2 cycles

 The electronic state is 1-A.
 Alpha  occ. eigenvalues --  -93.51051 -11.26857 -11.26848 -11.22890 -11.22890
 Alpha  occ. eigenvalues --  -11.22881 -11.22881  -8.80809  -6.14987  -6.14756
 Alpha  occ. eigenvalues --   -6.14447  -1.09275  -1.05693  -0.93552  -0.93448
 Alpha  occ. eigenvalues --   -0.90993  -0.80061  -0.74772  -0.64415  -0.63024
 Alpha  occ. eigenvalues --   -0.60640  -0.57985  -0.56600  -0.56576  -0.54421
 Alpha  occ. eigenvalues --   -0.54410  -0.50050  -0.49713  -0.49670  -0.48772
 Alpha  occ. eigenvalues --   -0.43874  -0.40480  -0.32899
 Alpha virt. eigenvalues --    0.03397   0.04129   0.04753   0.04813   0.06122
 Alpha virt. eigenvalues --    0.06217   0.06417   0.06870   0.07359   0.08166
 Alpha virt. eigenvalues --    0.08659   0.08819   0.09851   0.10318   0.13234

 Mulliken charges:
               1
     1  C    0.485128
     2  C    0.740986
     3  C    0.485128
     4  C    0.740984
     5  C   -0.846180
     6  C   -0.846178
     7  S    0.463131
     8  H   -0.052127
     9  H   -0.209589
    10  H   -0.021480
    11  H   -0.034776
    12  H   -0.096903
    13  H   -0.028237
    14  H   -0.052128
    15  H   -0.209585
    16  H   -0.021484
    17  H   -0.034776
    18  H   -0.096900
    19  H   -0.028238
    20  H   -0.168389
    21  H   -0.168389
 Sum of Mulliken charges =  -0.00000

 Dipole moment (field-independent basis, Debye):
    X=             -0.0000    Y=             -1.8271    Z=              0.0000  Tot=              1.8271

 Test job not archived.
 1\1\GINC-SE040\SP\RHF\Aug-CC-pVDZ\C6H14S1\OHZDE\05-Apr-2025\0\\#t hf a
 ug-cc-pvdz iop(5/13=1,5/36=2,99/5=2) pseudo=read geom=check guess=(rea
 d,tcheck) scf=(maxcycle=1)\\title\\0,1\C,0,1.734839,-1.077796,-1.06590
 5\C,0,2.632719,0.591958,0.605922\C,0,-1.73484,-1.077794,1.065906\C,0,-
 2.632718,0.591958,-0.605923\C,0,1.441089,-0.271419,0.195238\C,0,-1.441
 089,-0.271419,-0.195238\S,0,0.,0.866458,0.\H,0,2.591479,-1.736141,-0.8
 99071\H,0,0.892872,-1.704377,-1.358644\H,0,1.969701,-0.41564,-1.900083
 \H,0,3.513715,-0.035344,0.754087\H,0,2.435115,1.129802,1.532456\H,0,2.

 Normal termination of Gaussian 16 at Sat Apr  5 22:29:31 2025.
