 Gaussian 16, Revision C.01,

 ----------------------------------------------------------------------
 #t hf aug-cc-pvdz symm=none int=(grid=ultrafine) guess=(read,tcheck) s
 table=(opt,rrhf)
 ----------------------------------------------------------------------
 -----
 title
 -----
 Symbolic Z-matrix:
 Charge =  0 Multiplicity = 1

 SCF Done:  E(RHF) =  -1056.59685262     A.U. after   16 cycles
 Normal termination of Gaussian 16 at Sat Apr  5 22:28:21 2025.
 Gaussian 16:  ES64L-G16RevC.01  3-Jul-2019

 ----------------------------------------------------------------------
 #t hf aug-cc-pvdz iop(5/13=1,5/36=2,99/5=2) pseudo=read geom=check gue
 ss=(read,tcheck) scf=(maxcycle=1)
 ----------------------------------------------------------------------
 -----
 title
 -----
 Structure from the checkpoint file:  "2-isothiocyanato-1-3-thiazole.chk"
 Charge =  0 Multiplicity = 1

                         Standard orientation:
 ---------------------------------------------------------------------
 Center     Atomic      Atomic             Coordinates (Angstroms)
 Number     Number       Type             X           Y           Z
 ---------------------------------------------------------------------
      1         16           0        1.667226    0.132752    0.000000
      2         16           0       -2.103556   -2.717686    0.000000
      3          7           0       -0.130356    1.993182    0.000000
      4          7           0       -1.046411   -0.162402    0.000000
      5          6           0       -0.000000    0.701076    0.000000
      6          6           0        2.177319    1.781734    0.000000
      7          6           0        1.092676    2.603047    0.000000
      8          6           0       -1.460327   -1.282961    0.000000
      9          1           0        3.220864    2.044973    0.000000
     10          1           0        1.139778    3.681128    0.000000
 ---------------------------------------------------------------------

 SCF Done:  E(RHF) =  -1056.71485072     A.U. after    2 cycles

 The electronic state is 1-A'.
 Alpha  occ. eigenvalues --  -93.59802 -93.55667 -15.70369 -15.65637 -11.41876
 Alpha  occ. eigenvalues --  -11.39719 -11.29883 -11.29359  -8.89613  -8.85574
 Alpha  occ. eigenvalues --   -6.23704  -6.23591  -6.23218  -6.19888  -6.19196
 Alpha  occ. eigenvalues --   -6.19165  -1.31896  -1.26007  -1.07965  -1.06740
 Alpha  occ. eigenvalues --   -1.01366  -0.89963  -0.81677  -0.72741  -0.66036
 Alpha  occ. eigenvalues --   -0.63961  -0.63862  -0.61254  -0.55655  -0.55559
 Alpha  occ. eigenvalues --   -0.52313  -0.45454  -0.42172  -0.39877  -0.38579
 Alpha  occ. eigenvalues --   -0.33199
 Alpha virt. eigenvalues --    0.02909   0.04477   0.04899   0.05662   0.07169
 Alpha virt. eigenvalues --    0.07845   0.08775   0.08932   0.10200   0.11411
 Alpha virt. eigenvalues --    0.11976   0.12069   0.12081   0.12981   0.13447

 Mulliken charges:
               1
     1  S    0.558416
     2  S    0.223160
     3  N   -0.358525
     4  N   -0.273171
     5  C    0.096993
     6  C    0.216323
     7  C    0.788550
     8  C   -0.607690
     9  H   -0.380214
    10  H   -0.263843
 Sum of Mulliken charges =  -0.00000

 Dipole moment (field-independent basis, Debye):
    X=              2.8337    Y=              0.8596    Z=              0.0000  Tot=              2.9612

 Test job not archived.
 1\1\GINC-SE115\SP\RHF\Aug-CC-pVDZ\C4H2N2S2\OHZDE\05-Apr-2025\0\\#t hf
 aug-cc-pvdz iop(5/13=1,5/36=2,99/5=2) pseudo=read geom=check guess=(re
 ad,tcheck) scf=(maxcycle=1)\\title\\0,1\S,0,-1.176502,1.188742,0.\S,0,
 3.433639,0.144524,0.\N,0,-1.439432,-1.384848,0.\N,0,0.798861,-0.695105
 ,0.\C,0,-0.535866,-0.452056,0.\C,0,-2.765808,0.515362,0.\C,0,-2.694196
 ,-0.843269,0.\C,0,1.922253,-0.288941,0.\H,0,-3.639896,1.143256,0.\H,0,
 -3.548597,-1.502417,0.\\Version=ES64L-G16RevC.01\State=1-A'\HF=-1056.7
 148507\RMSD=7.675e-03\Dipole=-0.9773533,0.6340925,0.\Quadrupole=4.5211

 Normal termination of Gaussian 16 at Sat Apr  5 22:29:04 2025.
