 Gaussian 16, Revision C.01,

 ----------------------------------------------------------------------
 #t hf aug-cc-pvdz symm=none int=(grid=ultrafine) guess=(read,tcheck) s
 table=(opt,rrhf)
 ----------------------------------------------------------------------
 -----
 title
 -----
 Symbolic Z-matrix:
 Charge =  0 Multiplicity = 1

 SCF Done:  E(RHF) =  -418.873983733     A.U. after   15 cycles

 1\1\GINC-SE055\Stability\RHF\Aug-CC-pVDZ\C8H12N2\OHZDE\05-Apr-2025\0\\
 #t hf aug-cc-pvdz symm=none int=(grid=ultrafine) guess=(read,tcheck) s
 table=(opt,rrhf)\\title\\0,1\C,0,2.780946,0.03409,-0.496412\C,0,2.0819
 79,1.196215,-0.197941\C,0,1.046417,-1.191362,0.282233\C,0,0.324882,-0.
 029326,0.5818\C,0,-2.293729,1.300701,-0.581142\C,0,-2.259009,-1.219791
 ,-0.767466\C,0,-1.051716,-0.083716,1.186804\C,0,-2.235332,-0.02209,0.1
 85648\N,0,2.262542,-1.168677,-0.252894\N,0,0.864183,1.170413,0.338964\
 H,0,3.772639,0.071644,-0.930765\H,0,2.515504,2.170975,-0.390188\H,0,0.

 Normal termination of Gaussian 16 at Sat Apr  5 22:30:30 2025.
 Gaussian 16:  ES64L-G16RevC.01  3-Jul-2019

 ----------------------------------------------------------------------
 #t hf aug-cc-pvdz iop(5/13=1,5/36=2,99/5=2) pseudo=read geom=check gue
 ss=(read,tcheck) scf=(maxcycle=1)
 ----------------------------------------------------------------------
 -----
 title
 -----
 Structure from the checkpoint file:  "2-isobutylpyrazine.chk"
 Charge =  0 Multiplicity = 1

                         Standard orientation:
 ---------------------------------------------------------------------
 Center     Atomic      Atomic             Coordinates (Angstroms)
 Number     Number       Type             X           Y           Z
 ---------------------------------------------------------------------
      1          6           0        2.780946    0.034090   -0.496412
      2          6           0        2.081979    1.196215   -0.197941
      3          6           0        1.046417   -1.191362    0.282233
      4          6           0        0.324882   -0.029326    0.581800
      5          6           0       -2.293729    1.300701   -0.581142
      6          6           0       -2.259009   -1.219791   -0.767466
      7          6           0       -1.051716   -0.083716    1.186804
      8          6           0       -2.235332   -0.022090    0.185648
      9          7           0        2.262542   -1.168677   -0.252894
     10          7           0        0.864183    1.170413    0.338964
     11          1           0        3.772639    0.071644   -0.930765
     12          1           0        2.515504    2.170975   -0.390188
     13          1           0        0.623598   -2.167465    0.490849
     14          1           0       -1.429831    1.424092   -1.234865
     15          1           0       -2.314015    2.154514    0.096934
     16          1           0       -3.190666    1.339309   -1.201754
     17          1           0       -3.158002   -1.199555   -1.385241
     18          1           0       -1.400440   -1.213979   -1.441787
     19          1           0       -2.251536   -2.166685   -0.224003
     20          1           0       -1.144990   -1.004046    1.767797
     21          1           0       -1.141864    0.752268    1.881855
     22          1           0       -3.134101   -0.081540    0.807527
 ---------------------------------------------------------------------

 SCF Done:  E(RHF) =  -418.997312137     A.U. after    2 cycles

 The electronic state is 1-A.
 Alpha  occ. eigenvalues --  -15.65312 -15.64803 -11.29391 -11.28972 -11.28619
 Alpha  occ. eigenvalues --  -11.28608 -11.24332 -11.24079 -11.22432 -11.21800
 Alpha  occ. eigenvalues --   -1.27686  -1.18325  -1.09365  -1.04206  -0.95251
 Alpha  occ. eigenvalues --   -0.92868  -0.88845  -0.85921  -0.77318  -0.71280
 Alpha  occ. eigenvalues --   -0.70788  -0.65991  -0.63836  -0.60412  -0.59701
 Alpha  occ. eigenvalues --   -0.58351  -0.56632  -0.54027  -0.53907  -0.52045
 Alpha  occ. eigenvalues --   -0.48627  -0.47807  -0.47209  -0.46924  -0.42551
 Alpha  occ. eigenvalues --   -0.39695  -0.34737
 Alpha virt. eigenvalues --    0.03292   0.03466   0.04204   0.04475   0.05578
 Alpha virt. eigenvalues --    0.05986   0.06666   0.06785   0.06955   0.07878
 Alpha virt. eigenvalues --    0.08378   0.09299   0.09543   0.10522   0.11295

 Mulliken charges:
               1
     1  C    0.571123
     2  C    0.681507
     3  C    0.772673
     4  C    0.215209
     5  C    0.869200
     6  C    0.817282
     7  C    0.426841
     8  C   -1.462069
     9  N   -0.586179
    10  N   -0.601275
    11  H   -0.301869
    12  H   -0.368389
    13  H   -0.451082
    14  H   -0.032161
    15  H   -0.072989
    16  H   -0.056671
    17  H   -0.094923
    18  H   -0.004679
    19  H   -0.060039
    20  H   -0.111887
    21  H   -0.048809
    22  H   -0.100818
 Sum of Mulliken charges =  -0.00000

 Dipole moment (field-independent basis, Debye):
    X=             -0.7331    Y=              0.1803    Z=              0.1523  Tot=              0.7701

 Test job not archived.
 1\1\GINC-SE055\SP\RHF\Aug-CC-pVDZ\C8H12N2\OHZDE\05-Apr-2025\0\\#t hf a
 ug-cc-pvdz iop(5/13=1,5/36=2,99/5=2) pseudo=read geom=check guess=(rea
 d,tcheck) scf=(maxcycle=1)\\title\\0,1\C,0,2.780946,0.03409,-0.496412\
 C,0,2.081979,1.196215,-0.197941\C,0,1.046417,-1.191362,0.282233\C,0,0.
 324882,-0.029326,0.5818\C,0,-2.293729,1.300701,-0.581142\C,0,-2.259009
 ,-1.219791,-0.767466\C,0,-1.051716,-0.083716,1.186804\C,0,-2.235332,-0
 .02209,0.185648\N,0,2.262542,-1.168677,-0.252894\N,0,0.864183,1.170413
 ,0.338964\H,0,3.772639,0.071644,-0.930765\H,0,2.515504,2.170975,-0.390

 Normal termination of Gaussian 16 at Sat Apr  5 22:30:44 2025.
