 Gaussian 16, Revision C.01,

 ----------------------------------------------------------------------
 #t hf aug-cc-pvdz symm=none int=(grid=ultrafine) guess=(read,tcheck) s
 table=(opt,rrhf)
 ----------------------------------------------------------------------
 -----
 title
 -----
 Symbolic Z-matrix:
 Charge =  0 Multiplicity = 1

 SCF Done:  E(RHF) =  -310.256460364     A.U. after   12 cycles

 1\1\GINC-SE040\Stability\RHF\Aug-CC-pVDZ\C6H14O1\OHZDE\05-Apr-2025\0\\
 #t hf aug-cc-pvdz symm=none int=(grid=ultrafine) guess=(read,tcheck) s
 table=(opt,rrhf)\\title\\0,1\C,0,0.,2.369897,0.648656\C,0,1.795861,1.1
 49187,-0.648464\C,0,0.,-2.369897,0.648656\C,0,-1.795861,-1.149187,-0.6
 48464\C,0,0.328511,1.169473,-0.22525\C,0,-0.328511,-1.169473,-0.22525\
 O,0,0.,0.,0.530194\H,0,0.237389,3.300652,0.131809\H,0,-1.057482,2.3765
 95,0.91075\H,0,0.579665,2.331751,1.572195\H,0,2.036399,2.028649,-1.248
 423\H,0,2.027144,0.266481,-1.245332\H,0,2.440231,1.144037,0.231844\H,0

 Normal termination of Gaussian 16 at Sat Apr  5 22:29:05 2025.
 Gaussian 16:  ES64L-G16RevC.01  3-Jul-2019

 ----------------------------------------------------------------------
 #t hf aug-cc-pvdz iop(5/13=1,5/36=2,99/5=2) pseudo=read geom=check gue
 ss=(read,tcheck) scf=(maxcycle=1)
 ----------------------------------------------------------------------
 -----
 title
 -----
 Structure from the checkpoint file:  "2-isopropoxypropane.chk"
 Charge =  0 Multiplicity = 1

                         Standard orientation:
 ---------------------------------------------------------------------
 Center     Atomic      Atomic             Coordinates (Angstroms)
 Number     Number       Type             X           Y           Z
 ---------------------------------------------------------------------
      1          6           0        0.000000    2.369897    0.648656
      2          6           0        1.795861    1.149187   -0.648464
      3          6           0       -0.000000   -2.369897    0.648656
      4          6           0       -1.795861   -1.149187   -0.648464
      5          6           0        0.328511    1.169473   -0.225250
      6          6           0       -0.328511   -1.169473   -0.225250
      7          8           0        0.000000    0.000000    0.530194
      8          1           0        0.237389    3.300652    0.131809
      9          1           0       -1.057482    2.376595    0.910750
     10          1           0        0.579665    2.331751    1.572195
     11          1           0        2.036399    2.028649   -1.248423
     12          1           0        2.027144    0.266481   -1.245332
     13          1           0        2.440231    1.144037    0.231844
     14          1           0       -0.237389   -3.300652    0.131809
     15          1           0        1.057482   -2.376595    0.910750
     16          1           0       -0.579665   -2.331751    1.572195
     17          1           0       -2.036399   -2.028649   -1.248423
     18          1           0       -2.027144   -0.266481   -1.245332
     19          1           0       -2.440231   -1.144037    0.231844
     20          1           0       -0.300157    1.205375   -1.123271
     21          1           0        0.300157   -1.205375   -1.123271
 ---------------------------------------------------------------------

 SCF Done:  E(RHF) =  -310.357852622     A.U. after    2 cycles

 The electronic state is 1-A.
 Alpha  occ. eigenvalues --  -20.55522 -11.28499 -11.28474 -11.22064 -11.22063
 Alpha  occ. eigenvalues --  -11.21813 -11.21810  -1.31968  -1.06375  -1.00590
 Alpha  occ. eigenvalues --   -0.93345  -0.92961  -0.81559  -0.78088  -0.68562
 Alpha  occ. eigenvalues --   -0.63584  -0.62980  -0.58321  -0.58280  -0.56371
 Alpha  occ. eigenvalues --   -0.54044  -0.53910  -0.52275  -0.51723  -0.51180
 Alpha  occ. eigenvalues --   -0.48636  -0.47780  -0.45419  -0.41765
 Alpha virt. eigenvalues --    0.03499   0.04424   0.04659   0.04777   0.06169
 Alpha virt. eigenvalues --    0.06280   0.06324   0.06772   0.07262   0.08592
 Alpha virt. eigenvalues --    0.09196   0.09363   0.09557   0.09763   0.13627

 Mulliken charges:
               1
     1  C    0.574199
     2  C    0.518869
     3  C    0.574199
     4  C    0.518869
     5  C   -0.289679
     6  C   -0.289679
     7  O   -0.752605
     8  H   -0.035025
     9  H   -0.076719
    10  H   -0.023983
    11  H   -0.041383
    12  H   -0.149823
    13  H    0.014059
    14  H   -0.035025
    15  H   -0.076719
    16  H   -0.023983
    17  H   -0.041383
    18  H   -0.149823
    19  H    0.014059
    20  H   -0.114213
    21  H   -0.114213
 Sum of Mulliken charges =  -0.00000

 Dipole moment (field-independent basis, Debye):
    X=             -0.0000    Y=             -0.0000    Z=             -1.4597  Tot=              1.4597

 Test job not archived.
 1\1\GINC-SE040\SP\RHF\Aug-CC-pVDZ\C6H14O1\OHZDE\05-Apr-2025\0\\#t hf a
 ug-cc-pvdz iop(5/13=1,5/36=2,99/5=2) pseudo=read geom=check guess=(rea
 d,tcheck) scf=(maxcycle=1)\\title\\0,1\C,0,0.,2.369897,0.648656\C,0,1.
 795861,1.149187,-0.648464\C,0,0.,-2.369897,0.648656\C,0,-1.795861,-1.1
 49187,-0.648464\C,0,0.328511,1.169473,-0.22525\C,0,-0.328511,-1.169473
 ,-0.22525\O,0,0.,0.,0.530194\H,0,0.237389,3.300652,0.131809\H,0,-1.057
 482,2.376595,0.91075\H,0,0.579665,2.331751,1.572195\H,0,2.036399,2.028
 649,-1.248423\H,0,2.027144,0.266481,-1.245332\H,0,2.440231,1.144037,0.

 Normal termination of Gaussian 16 at Sat Apr  5 22:29:27 2025.
