 Gaussian 16, Revision C.01,

 ----------------------------------------------------------------------
 #t hf aug-cc-pvdz symm=none int=(grid=ultrafine) guess=(read,tcheck) s
 table=(opt,rrhf)
 ----------------------------------------------------------------------
 -----
 title
 -----
 Symbolic Z-matrix:
 Charge =  0 Multiplicity = 1

 SCF Done:  E(RHF) =  -298.553660464     A.U. after   15 cycles
 Normal termination of Gaussian 16 at Sat Apr  5 22:28:10 2025.
 Gaussian 16:  ES64L-G16RevC.01  3-Jul-2019

 ----------------------------------------------------------------------
 #t hf aug-cc-pvdz iop(5/13=1,5/36=2,99/5=2) pseudo=read geom=check gue
 ss=(read,tcheck) scf=(maxcycle=1)
 ----------------------------------------------------------------------
 -----
 title
 -----
 Structure from the checkpoint file:  "2-isocyanatoacetonitrile.chk"
 Charge =  0 Multiplicity = 1

                         Standard orientation:
 ---------------------------------------------------------------------
 Center     Atomic      Atomic             Coordinates (Angstroms)
 Number     Number       Type             X           Y           Z
 ---------------------------------------------------------------------
      1          8           0        2.314952   -0.784408    0.074091
      2          7           0        0.623911    0.847435   -0.202435
      3          7           0       -2.202485   -1.136869   -0.048234
      4          6           0       -0.767680    1.044455    0.111907
      5          6           0        1.438243   -0.023374   -0.027656
      6          6           0       -1.574416   -0.177183    0.019351
      7          1           0       -1.175339    1.782439   -0.578436
      8          1           0       -0.871142    1.455478    1.118785
 ---------------------------------------------------------------------

 SCF Done:  E(RHF) =  -298.646035603     A.U. after    2 cycles

 The electronic state is 1-A.
 Alpha  occ. eigenvalues --  -20.64844 -15.68323 -15.66640 -11.44457 -11.37499
 Alpha  occ. eigenvalues --  -11.31160  -1.45216  -1.27970  -1.21733  -1.06424
 Alpha  occ. eigenvalues --   -0.81098  -0.75909  -0.72642  -0.71144  -0.66573
 Alpha  occ. eigenvalues --   -0.65120  -0.57348  -0.50723  -0.49485  -0.47297
 Alpha  occ. eigenvalues --   -0.45315
 Alpha virt. eigenvalues --    0.02347   0.04067   0.06331   0.06677   0.09938
 Alpha virt. eigenvalues --    0.10445   0.10689   0.11078   0.11726   0.11850
 Alpha virt. eigenvalues --    0.14312   0.14993   0.16030   0.16168   0.16638

 Mulliken charges:
               1
     1  O   -0.201041
     2  N   -0.217945
     3  N   -0.184937
     4  C    0.949714
     5  C   -0.088134
     6  C   -0.217018
     7  H   -0.055485
     8  H    0.014846
 Sum of Mulliken charges =  -0.00000

 Dipole moment (field-independent basis, Debye):
    X=             -0.5806    Y=              3.8905    Z=              0.6179  Tot=              3.9818

 Test job not archived.
 1\1\GINC-SE158\SP\RHF\Aug-CC-pVDZ\C3H2N2O1\OHZDE\05-Apr-2025\0\\#t hf
 aug-cc-pvdz iop(5/13=1,5/36=2,99/5=2) pseudo=read geom=check guess=(re
 ad,tcheck) scf=(maxcycle=1)\\title\\0,1\O,0,2.314952,-0.784408,0.07409
 1\N,0,0.623911,0.847435,-0.202435\N,0,-2.202485,-1.136869,-0.048234\C,
 0,-0.76768,1.044455,0.111907\C,0,1.438243,-0.023374,-0.027656\C,0,-1.5
 74416,-0.177183,0.019351\H,0,-1.175339,1.782439,-0.578436\H,0,-0.87114
 2,1.455478,1.118785\\Version=ES64L-G16RevC.01\State=1-A\HF=-298.646035
 6\RMSD=3.380e-03\Dipole=-0.228437,1.5306405,0.2430986\Quadrupole=-4.96

 Normal termination of Gaussian 16 at Sat Apr  5 22:28:12 2025.
