 Gaussian 16, Revision C.01,

 ----------------------------------------------------------------------
 #t hf aug-cc-pvdz symm=none int=(grid=ultrafine) guess=(read,tcheck) s
 table=(opt,rrhf)
 ----------------------------------------------------------------------
 -----
 title
 -----
 Symbolic Z-matrix:
 Charge =  0 Multiplicity = 1

 SCF Done:  E(RHF) =  -1039.73958833     A.U. after   15 cycles
 Normal termination of Gaussian 16 at Sat Apr  5 22:28:18 2025.
 Gaussian 16:  ES64L-G16RevC.01  3-Jul-2019

 ----------------------------------------------------------------------
 #t hf aug-cc-pvdz iop(5/13=1,5/36=2,99/5=2) pseudo=read geom=check gue
 ss=(read,tcheck) scf=(maxcycle=1)
 ----------------------------------------------------------------------
 -----
 title
 -----
 Structure from the checkpoint file:  "2-isocyanatoethanedithioicacid.chk"
 Charge =  0 Multiplicity = 1

                         Standard orientation:
 ---------------------------------------------------------------------
 Center     Atomic      Atomic             Coordinates (Angstroms)
 Number     Number       Type             X           Y           Z
 ---------------------------------------------------------------------
      1         16           0        2.378504   -0.996830   -0.060055
      2         16           0        1.032305    1.615124   -0.000766
      3          8           0       -3.857822   -0.222967   -0.090876
      4          7           0       -1.504533   -0.005601    0.047838
      5          6           0        0.996939   -0.123544    0.017628
      6          6           0       -0.336437   -0.850557    0.141815
      7          6           0       -2.693129   -0.177700   -0.020459
      8          1           0       -0.301843    1.818938    0.055450
      9          1           0       -0.325396   -1.359868    1.107578
     10          1           0       -0.355645   -1.618027   -0.631648
 ---------------------------------------------------------------------

 SCF Done:  E(RHF) =  -1039.85353409     A.U. after    2 cycles

 The electronic state is 1-A.
 Alpha  occ. eigenvalues --  -93.58499 -93.52487 -20.64895 -15.68207 -11.44458
 Alpha  occ. eigenvalues --  -11.38175 -11.34823  -8.88329  -8.82402  -6.22471
 Alpha  occ. eigenvalues --   -6.22260  -6.21918  -6.16587  -6.16156  -6.15967
 Alpha  occ. eigenvalues --   -1.45187  -1.27559  -1.13863  -1.01256  -0.96989
 Alpha  occ. eigenvalues --   -0.78517  -0.75162  -0.73412  -0.70610  -0.68987
 Alpha  occ. eigenvalues --   -0.64999  -0.63849  -0.53620  -0.50578  -0.48185
 Alpha  occ. eigenvalues --   -0.47878  -0.45084  -0.35751  -0.35362
 Alpha virt. eigenvalues --    0.02803   0.03089   0.04355   0.05526   0.06448
 Alpha virt. eigenvalues --    0.08458   0.08955   0.09883   0.10017   0.10917
 Alpha virt. eigenvalues --    0.12125   0.12765   0.13184   0.14156   0.15362

 Mulliken charges:
               1
     1  S   -0.057946
     2  S    0.356571
     3  O   -0.194212
     4  N   -0.089540
     5  C   -0.584548
     6  C    0.689010
     7  C   -0.277654
     8  H    0.137351
     9  H    0.029978
    10  H   -0.009011
 Sum of Mulliken charges =  -0.00000

 Dipole moment (field-independent basis, Debye):
    X=             -0.9711    Y=              0.0601    Z=              0.4008  Tot=              1.0523

 Test job not archived.
 1\1\GINC-SE208\SP\RHF\Aug-CC-pVDZ\C3H3N1O1S2\OHZDE\05-Apr-2025\0\\#t h
 f aug-cc-pvdz iop(5/13=1,5/36=2,99/5=2) pseudo=read geom=check guess=(
 read,tcheck) scf=(maxcycle=1)\\title\\0,1\S,0,2.378504,-0.99683,-0.060
 055\S,0,1.032305,1.615124,-0.000766\O,0,-3.857822,-0.222967,-0.090876\
 N,0,-1.504533,-0.005601,0.047838\C,0,0.996939,-0.123544,0.017628\C,0,-
 0.336437,-0.850557,0.141815\C,0,-2.693129,-0.1777,-0.020459\H,0,-0.301
 843,1.818938,0.05545\H,0,-0.325396,-1.359868,1.107578\H,0,-0.355645,-1
 .618027,-0.631648\\Version=ES64L-G16RevC.01\State=1-A\HF=-1039.8535341

 Normal termination of Gaussian 16 at Sat Apr  5 22:29:03 2025.
