 Gaussian 16, Revision C.01,

 ----------------------------------------------------------------------
 #t hf aug-cc-pvdz symm=none int=(grid=ultrafine) guess=(read,tcheck) s
 table=(opt,rrhf)
 ----------------------------------------------------------------------
 -----
 title
 -----
 Symbolic Z-matrix:
 Charge =  0 Multiplicity = 1

 SCF Done:  E(RHF) =  -263.894898459     A.U. after   14 cycles
 Normal termination of Gaussian 16 at Sat Apr  5 22:28:17 2025.
 Gaussian 16:  ES64L-G16RevC.01  3-Jul-2019

 ----------------------------------------------------------------------
 #t hf aug-cc-pvdz iop(5/13=1,5/36=2,99/5=2) pseudo=read geom=check gue
 ss=(read,tcheck) scf=(maxcycle=1)
 ----------------------------------------------------------------------
 -----
 title
 -----
 Structure from the checkpoint file:  "2-methyl-1H-imidazole.chk"
 Charge =  0 Multiplicity = 1

                         Standard orientation:
 ---------------------------------------------------------------------
 Center     Atomic      Atomic             Coordinates (Angstroms)
 Number     Number       Type             X           Y           Z
 ---------------------------------------------------------------------
      1          6           0       -0.211213    2.098944    0.000000
      2          1           0       -0.763664    2.429115    0.882489
      3          1           0        0.758858    2.588726    0.000000
      4          1           0       -0.763664    2.429115   -0.882489
      5          7           0       -1.022980   -0.282177    0.000000
      6          1           0       -2.004898   -0.069530    0.000000
      7          6           0        0.000000    0.624449    0.000000
      8          7           0        1.160665    0.009381    0.000000
      9          6           0        0.880939   -1.338149    0.000000
     10          1           0        1.664738   -2.075911    0.000000
     11          6           0       -0.467672   -1.544500    0.000000
     12          1           0       -1.067486   -2.436412    0.000000
 ---------------------------------------------------------------------

 SCF Done:  E(RHF) =  -263.974118395     A.U. after    2 cycles

 The electronic state is 1-A'.
 Alpha  occ. eigenvalues --  -15.67716 -15.60070 -11.30906 -11.26519 -11.24790
 Alpha  occ. eigenvalues --  -11.24688  -1.30560  -1.12765  -1.04098  -0.93852
 Alpha  occ. eigenvalues --   -0.81225  -0.79013  -0.71784  -0.62000  -0.61298
 Alpha  occ. eigenvalues --   -0.59811  -0.55916  -0.55242  -0.54291  -0.42319
 Alpha  occ. eigenvalues --   -0.39129  -0.31192
 Alpha virt. eigenvalues --    0.02609   0.03532   0.04816   0.05383   0.06347
 Alpha virt. eigenvalues --    0.07507   0.10239   0.10929   0.12395   0.12735
 Alpha virt. eigenvalues --    0.12825   0.14276   0.15038   0.15523   0.16209

 Mulliken charges:
               1
     1  C    0.571382
     2  H   -0.000560
     3  H   -0.067979
     4  H   -0.000560
     5  N   -0.481327
     6  H   -0.107173
     7  C   -0.073383
     8  N   -0.662279
     9  C    0.630113
    10  H   -0.272036
    11  C    0.747674
    12  H   -0.283874
 Sum of Mulliken charges =  -0.00000

 Dipole moment (field-independent basis, Debye):
    X=             -3.7164    Y=              0.3468    Z=             -0.0000  Tot=              3.7325

 Test job not archived.
 1\1\GINC-SE177\SP\RHF\Aug-CC-pVDZ\C4H6N2\OHZDE\05-Apr-2025\0\\#t hf au
 g-cc-pvdz iop(5/13=1,5/36=2,99/5=2) pseudo=read geom=check guess=(read
 ,tcheck) scf=(maxcycle=1)\\title\\0,1\C,0,-0.211213,2.098944,0.\H,0,-0
 .763664,2.429115,0.882489\H,0,0.758858,2.588726,0.\H,0,-0.763664,2.429
 115,-0.882489\N,0,-1.02298,-0.282177,0.\H,0,-2.004898,-0.06953,0.\C,0,
 0.,0.624449,0.\N,0,1.160665,0.009381,0.\C,0,0.880939,-1.338149,0.\H,0,
 1.664738,-2.075911,0.\C,0,-0.467672,-1.5445,0.\H,0,-1.067486,-2.436412
 ,0.\\Version=ES64L-G16RevC.01\State=1-A'\HF=-263.9741184\RMSD=4.762e-0

 Normal termination of Gaussian 16 at Sat Apr  5 22:29:04 2025.
