 Gaussian 16, Revision C.01,

 ----------------------------------------------------------------------
 #t hf aug-cc-pvdz symm=none int=(grid=ultrafine) guess=(read,tcheck) s
 table=(opt,rrhf)
 ----------------------------------------------------------------------
 -----
 title
 -----
 Symbolic Z-matrix:
 Charge =  0 Multiplicity = 1

 SCF Done:  E(RHF) =  -289.261802209     A.U. after   12 cycles

 1\1\GINC-SE129\Stability\RHF\Aug-CC-pVDZ\C6H13N1\OHZDE\05-Apr-2025\0\\
 #t hf aug-cc-pvdz symm=none int=(grid=ultrafine) guess=(read,tcheck) s
 table=(opt,rrhf)\\title\\0,1\C,0,-1.876724,-0.056528,0.292117\C,0,-1.2
 20756,1.238754,-0.193233\C,0,0.269212,1.266716,0.162963\C,0,0.99315,0.
 003566,-0.331778\N,0,0.336494,-1.236054,0.10124\C,0,-1.09353,-1.276574
 ,-0.20657\C,0,2.45808,-0.02292,0.084158\H,0,-2.914516,-0.113656,-0.046
 636\H,0,-1.90032,-0.067386,1.38704\H,0,-1.33115,1.311007,-1.280554\H,0
 ,-1.729106,2.108897,0.227207\H,0,0.744092,2.1563,-0.259637\H,0,0.38553

 Normal termination of Gaussian 16 at Sat Apr  5 22:31:24 2025.
 Gaussian 16:  ES64L-G16RevC.01  3-Jul-2019

 ----------------------------------------------------------------------
 #t hf aug-cc-pvdz iop(5/13=1,5/36=2,99/5=2) pseudo=read geom=check gue
 ss=(read,tcheck) scf=(maxcycle=1)
 ----------------------------------------------------------------------
 -----
 title
 -----
 Structure from the checkpoint file:  "2-methylpiperidine.chk"
 Charge =  0 Multiplicity = 1

                         Standard orientation:
 ---------------------------------------------------------------------
 Center     Atomic      Atomic             Coordinates (Angstroms)
 Number     Number       Type             X           Y           Z
 ---------------------------------------------------------------------
      1          6           0       -1.876724   -0.056528    0.292117
      2          6           0       -1.220756    1.238754   -0.193233
      3          6           0        0.269212    1.266716    0.162963
      4          6           0        0.993150    0.003566   -0.331778
      5          7           0        0.336494   -1.236054    0.101240
      6          6           0       -1.093530   -1.276574   -0.206570
      7          6           0        2.458080   -0.022920    0.084158
      8          1           0       -2.914516   -0.113656   -0.046636
      9          1           0       -1.900320   -0.067386    1.387040
     10          1           0       -1.331150    1.311007   -1.280554
     11          1           0       -1.729106    2.108897    0.227207
     12          1           0        0.744092    2.156300   -0.259637
     13          1           0        0.385539    1.333833    1.250920
     14          1           0        0.947191    0.002171   -1.427861
     15          1           0        0.478094   -1.362314    1.097987
     16          1           0       -1.506343   -2.198011    0.207370
     17          1           0       -1.194856   -1.349044   -1.294590
     18          1           0        2.954195   -0.908747   -0.311642
     19          1           0        2.551510   -0.040360    1.173496
     20          1           0        2.983619    0.861609   -0.277729
 ---------------------------------------------------------------------

 SCF Done:  E(RHF) =  -289.350115194     A.U. after    2 cycles

 The electronic state is 1-A.
 Alpha  occ. eigenvalues --  -15.59708 -11.25543 -11.25011 -11.22522 -11.22277
 Alpha  occ. eigenvalues --  -11.22172 -11.21836  -1.18079  -1.04250  -1.02971
 Alpha  occ. eigenvalues --   -0.92862  -0.85283  -0.81175  -0.77149  -0.64693
 Alpha  occ. eigenvalues --   -0.62473  -0.61896  -0.60282  -0.58059  -0.54793
 Alpha  occ. eigenvalues --   -0.52134  -0.51271  -0.50818  -0.48275  -0.47416
 Alpha  occ. eigenvalues --   -0.45723  -0.44548  -0.34854
 Alpha virt. eigenvalues --    0.03553   0.04081   0.04172   0.04505   0.06306
 Alpha virt. eigenvalues --    0.06536   0.06771   0.06845   0.07114   0.08893
 Alpha virt. eigenvalues --    0.09198   0.09296   0.09562   0.12867   0.13454

 Mulliken charges:
               1
     1  C    0.209771
     2  C    0.254885
     3  C    0.375388
     4  C   -0.213285
     5  N   -0.577091
     6  C    0.649032
     7  C    0.719697
     8  H   -0.096825
     9  H   -0.110715
    10  H   -0.105521
    11  H   -0.075203
    12  H   -0.125699
    13  H   -0.106630
    14  H   -0.300132
    15  H    0.026021
    16  H   -0.209645
    17  H   -0.156264
    18  H   -0.011671
    19  H   -0.080654
    20  H   -0.065458
 Sum of Mulliken charges =  -0.00000

 Dipole moment (field-independent basis, Debye):
    X=             -0.5232    Y=              0.8748    Z=              0.5206  Tot=              1.1446

 Test job not archived.
 1\1\GINC-SE129\SP\RHF\Aug-CC-pVDZ\C6H13N1\OHZDE\05-Apr-2025\0\\#t hf a
 ug-cc-pvdz iop(5/13=1,5/36=2,99/5=2) pseudo=read geom=check guess=(rea
 d,tcheck) scf=(maxcycle=1)\\title\\0,1\C,0,-1.876724,-0.056528,0.29211
 7\C,0,-1.220756,1.238754,-0.193233\C,0,0.269212,1.266716,0.162963\C,0,
 0.99315,0.003566,-0.331778\N,0,0.336494,-1.236054,0.10124\C,0,-1.09353
 ,-1.276574,-0.20657\C,0,2.45808,-0.02292,0.084158\H,0,-2.914516,-0.113
 656,-0.046636\H,0,-1.90032,-0.067386,1.38704\H,0,-1.33115,1.311007,-1.
 280554\H,0,-1.729106,2.108897,0.227207\H,0,0.744092,2.1563,-0.259637\H

 Normal termination of Gaussian 16 at Sat Apr  5 22:32:22 2025.
