 Gaussian 16, Revision C.01,

 ----------------------------------------------------------------------
 #t hf aug-cc-pvdz symm=none int=(grid=ultrafine) guess=(read,tcheck) s
 table=(opt,rrhf)
 ----------------------------------------------------------------------
 -----
 title
 -----
 Symbolic Z-matrix:
 Charge =  0 Multiplicity = 1

 SCF Done:  E(RHF) =  -232.183750668     A.U. after   12 cycles

 1\1\GINC-SE146\Stability\RHF\Aug-CC-pVDZ\C4H10O1\OHZDE\05-Apr-2025\0\\
 #t hf aug-cc-pvdz symm=none int=(grid=ultrafine) guess=(read,tcheck) s
 table=(opt,rrhf)\\title\\0,1\C,0,0.590555,1.457337,0.129753\C,0,1.6947
 39,-0.815651,0.002549\C,0,-0.789368,-0.654893,0.262196\C,0,0.447978,0.
 006154,-0.333326\O,0,-1.954191,0.041487,-0.185733\H,0,1.450174,1.93317
 6,-0.344932\H,0,0.740265,1.505313,1.211861\H,0,-0.298201,2.037207,-0.1
 13238\H,0,2.583805,-0.37069,-0.44573\H,0,1.613928,-1.840373,-0.36471\H
 ,0,1.858337,-0.858604,1.082387\H,0,-0.832465,-1.704406,-0.050526\H,0,-

 Normal termination of Gaussian 16 at Sat Apr  5 22:28:21 2025.
 Gaussian 16:  ES64L-G16RevC.01  3-Jul-2019

 ----------------------------------------------------------------------
 #t hf aug-cc-pvdz iop(5/13=1,5/36=2,99/5=2) pseudo=read geom=check gue
 ss=(read,tcheck) scf=(maxcycle=1)
 ----------------------------------------------------------------------
 -----
 title
 -----
 Structure from the checkpoint file:  "2-methyl-1-propanol.chk"
 Charge =  0 Multiplicity = 1

                         Standard orientation:
 ---------------------------------------------------------------------
 Center     Atomic      Atomic             Coordinates (Angstroms)
 Number     Number       Type             X           Y           Z
 ---------------------------------------------------------------------
      1          6           0        0.590555    1.457337    0.129753
      2          6           0        1.694739   -0.815651    0.002549
      3          6           0       -0.789368   -0.654893    0.262196
      4          6           0        0.447978    0.006154   -0.333326
      5          8           0       -1.954191    0.041487   -0.185733
      6          1           0        1.450174    1.933176   -0.344932
      7          1           0        0.740265    1.505313    1.211861
      8          1           0       -0.298201    2.037207   -0.113238
      9          1           0        2.583805   -0.370690   -0.445730
     10          1           0        1.613928   -1.840373   -0.364710
     11          1           0        1.858337   -0.858604    1.082387
     12          1           0       -0.832465   -1.704406   -0.050526
     13          1           0       -0.727572   -0.631330    1.357984
     14          1           0        0.314167    0.004019   -1.419727
     15          1           0       -2.732335   -0.363889    0.205458
 ---------------------------------------------------------------------

 SCF Done:  E(RHF) =  -232.259516270     A.U. after    2 cycles

 The electronic state is 1-A.
 Alpha  occ. eigenvalues --  -20.56830 -11.28148 -11.23195 -11.22290 -11.21354
 Alpha  occ. eigenvalues --   -1.31579  -1.06917  -0.92451  -0.91331  -0.77186
 Alpha  occ. eigenvalues --   -0.70439  -0.65491  -0.61288  -0.59141  -0.54730
 Alpha  occ. eigenvalues --   -0.54167  -0.53171  -0.48225  -0.47555  -0.46095
 Alpha  occ. eigenvalues --   -0.44923
 Alpha virt. eigenvalues --    0.03487   0.04336   0.04908   0.04998   0.06722
 Alpha virt. eigenvalues --    0.07114   0.07315   0.07674   0.07808   0.09295
 Alpha virt. eigenvalues --    0.12952   0.14326   0.14924   0.15673   0.15959

 Mulliken charges:
               1
     1  C    0.748282
     2  C    0.744444
     3  C    1.101006
     4  C   -1.494919
     5  O   -0.565044
     6  H   -0.069782
     7  H   -0.029935
     8  H   -0.050795
     9  H   -0.080440
    10  H   -0.085316
    11  H   -0.016559
    12  H   -0.154349
    13  H   -0.111752
    14  H   -0.070559
    15  H    0.135719
 Sum of Mulliken charges =  -0.00000

 Dipole moment (field-independent basis, Debye):
    X=              0.0423    Y=             -1.3320    Z=              0.9462  Tot=              1.6344

 Test job not archived.
 1\1\GINC-SE146\SP\RHF\Aug-CC-pVDZ\C4H10O1\OHZDE\05-Apr-2025\0\\#t hf a
 ug-cc-pvdz iop(5/13=1,5/36=2,99/5=2) pseudo=read geom=check guess=(rea
 d,tcheck) scf=(maxcycle=1)\\title\\0,1\C,0,0.590555,1.457337,0.129753\
 C,0,1.694739,-0.815651,0.002549\C,0,-0.789368,-0.654893,0.262196\C,0,0
 .447978,0.006154,-0.333326\O,0,-1.954191,0.041487,-0.185733\H,0,1.4501
 74,1.933176,-0.344932\H,0,0.740265,1.505313,1.211861\H,0,-0.298201,2.0
 37207,-0.113238\H,0,2.583805,-0.37069,-0.44573\H,0,1.613928,-1.840373,
 -0.36471\H,0,1.858337,-0.858604,1.082387\H,0,-0.832465,-1.704406,-0.05

 Normal termination of Gaussian 16 at Sat Apr  5 22:29:03 2025.
