 Gaussian 16, Revision C.01,

 ----------------------------------------------------------------------
 #t hf aug-cc-pvdz symm=none int=(grid=ultrafine) guess=(read,tcheck) s
 table=(opt,rrhf)
 ----------------------------------------------------------------------
 -----
 title
 -----
 Symbolic Z-matrix:
 Charge =  0 Multiplicity = 1

 SCF Done:  E(RHF) =  -590.370753950     A.U. after   15 cycles
 Normal termination of Gaussian 16 at Sat Apr  5 22:30:48 2025.
 Gaussian 16:  ES64L-G16RevC.01  3-Jul-2019

 ----------------------------------------------------------------------
 #t hf aug-cc-pvdz iop(5/13=1,5/36=2,99/5=2) pseudo=read geom=check gue
 ss=(read,tcheck) scf=(maxcycle=1)
 ----------------------------------------------------------------------
 -----
 title
 -----
 Structure from the checkpoint file:  "2-methylthiophene.chk"
 Charge =  0 Multiplicity = 1

                         Standard orientation:
 ---------------------------------------------------------------------
 Center     Atomic      Atomic             Coordinates (Angstroms)
 Number     Number       Type             X           Y           Z
 ---------------------------------------------------------------------
      1          6           0       -1.431534   -1.031992    0.000000
      2          6           0       -1.295454    0.385519    0.000000
      3          6           0       -0.233038   -1.675211    0.000000
      4          6           0        0.000000    0.813659    0.000000
      5          6           0        0.515874    2.217453    0.000000
      6         16           0        1.080231   -0.550999    0.000000
      7          1           0       -2.381672   -1.545414    0.000000
      8          1           0       -2.133617    1.068000    0.000000
      9          1           0       -0.039022   -2.734092    0.000000
     10          1           0       -0.319300    2.917141    0.000000
     11          1           0        1.127412    2.426894    0.879789
     12          1           0        1.127412    2.426894   -0.879789
 ---------------------------------------------------------------------

 SCF Done:  E(RHF) =  -590.452274177     A.U. after    2 cycles

 The electronic state is 1-A'.
 Alpha  occ. eigenvalues --  -93.55612 -11.27612 -11.26609 -11.24655 -11.24436
 Alpha  occ. eigenvalues --  -11.23897  -8.85473  -6.19594  -6.19465  -6.19106
 Alpha  occ. eigenvalues --   -1.15986  -1.02728  -0.97140  -0.91945  -0.76046
 Alpha  occ. eigenvalues --   -0.72668  -0.68199  -0.59121  -0.59056  -0.56914
 Alpha  occ. eigenvalues --   -0.53799  -0.50583  -0.50522  -0.46374  -0.34401
 Alpha  occ. eigenvalues --   -0.32036
 Alpha virt. eigenvalues --    0.03543   0.03981   0.04702   0.05835   0.06030
 Alpha virt. eigenvalues --    0.07168   0.09819   0.10436   0.10578   0.12578
 Alpha virt. eigenvalues --    0.12620   0.13800   0.14156   0.14778   0.15126

 Mulliken charges:
               1
     1  C    0.105942
     2  C    0.631002
     3  C    0.077895
     4  C   -0.689151
     5  C    0.331148
     6  S    0.705429
     7  H   -0.327112
     8  H   -0.448758
     9  H   -0.365186
    10  H   -0.107458
    11  H    0.043125
    12  H    0.043125
 Sum of Mulliken charges =  -0.00000

 Dipole moment (field-independent basis, Debye):
    X=             -0.6443    Y=              0.6172    Z=              0.0000  Tot=              0.8923

 Test job not archived.
 1\1\GINC-SE052\SP\RHF\Aug-CC-pVDZ\C5H6S1\OHZDE\05-Apr-2025\0\\#t hf au
 g-cc-pvdz iop(5/13=1,5/36=2,99/5=2) pseudo=read geom=check guess=(read
 ,tcheck) scf=(maxcycle=1)\\title\\0,1\C,0,-1.431534,-1.031992,0.\C,0,-
 1.295454,0.385519,0.\C,0,-0.233038,-1.675211,0.\C,0,0.,0.813659,0.\C,0
 ,0.515874,2.217453,0.\S,0,1.080231,-0.550999,0.\H,0,-2.381672,-1.54541
 4,0.\H,0,-2.133617,1.068,0.\H,0,-0.039022,-2.734092,0.\H,0,-0.3193,2.9
 17141,0.\H,0,1.127412,2.426894,0.879789\H,0,1.127412,2.426894,-0.87978
 9\\Version=ES64L-G16RevC.01\State=1-A'\HF=-590.4522742\RMSD=1.430e-02\

 Normal termination of Gaussian 16 at Sat Apr  5 22:32:18 2025.
