 Gaussian 16, Revision C.01,

 ----------------------------------------------------------------------
 #t hf aug-cc-pvdz symm=none int=(grid=ultrafine) guess=(read,tcheck) s
 table=(opt,rrhf)
 ----------------------------------------------------------------------
 -----
 title
 -----
 Symbolic Z-matrix:
 Charge =  0 Multiplicity = 1

 SCF Done:  E(RHF) =  -284.888906491     A.U. after   13 cycles
 Normal termination of Gaussian 16 at Sat Apr  5 22:29:41 2025.
 Gaussian 16:  ES64L-G16RevC.01  3-Jul-2019

 ----------------------------------------------------------------------
 #t hf aug-cc-pvdz iop(5/13=1,5/36=2,99/5=2) pseudo=read geom=check gue
 ss=(read,tcheck) scf=(maxcycle=1)
 ----------------------------------------------------------------------
 -----
 title
 -----
 Structure from the checkpoint file:  "2-methyl-4-5-dihydro-1-3-oxazole.chk"
 Charge =  0 Multiplicity = 1

                         Standard orientation:
 ---------------------------------------------------------------------
 Center     Atomic      Atomic             Coordinates (Angstroms)
 Number     Number       Type             X           Y           Z
 ---------------------------------------------------------------------
      1          6           0        0.336343    2.129295    0.000000
      2          6           0        0.540978   -1.506450    0.000000
      3          6           0       -0.989729   -1.289163    0.000000
      4          7           0       -1.159293    0.170312    0.000000
      5          8           0        1.078204   -0.160300    0.000000
      6          6           0        0.000000    0.680984    0.000000
      7          1           0        0.910587   -2.017738    0.887540
      8          1           0        0.910587   -2.017738   -0.887540
      9          1           0       -1.473240   -1.716662    0.879292
     10          1           0       -1.473240   -1.716662   -0.879292
     11          1           0        0.932661    2.376888    0.879004
     12          1           0        0.932661    2.376888   -0.879004
     13          1           0       -0.576148    2.717242    0.000000
 ---------------------------------------------------------------------

 SCF Done:  E(RHF) =  -284.977412674     A.U. after    2 cycles

 The electronic state is 1-A'.
 Alpha  occ. eigenvalues --  -20.60239 -15.60418 -11.34284 -11.29885 -11.26672
 Alpha  occ. eigenvalues --  -11.24454  -1.38997  -1.17670  -1.05031  -0.95629
 Alpha  occ. eigenvalues --   -0.86101  -0.75846  -0.69455  -0.68815  -0.62423
 Alpha  occ. eigenvalues --   -0.59448  -0.56811  -0.55633  -0.54790  -0.52158
 Alpha  occ. eigenvalues --   -0.51151  -0.42412  -0.37582
 Alpha virt. eigenvalues --    0.03483   0.04165   0.04705   0.05210   0.06858
 Alpha virt. eigenvalues --    0.06977   0.07422   0.09074   0.11540   0.12244
 Alpha virt. eigenvalues --    0.13350   0.14816   0.14824   0.16069   0.16093

 Mulliken charges:
               1
     1  C    0.518625
     2  C    0.842743
     3  C    0.514177
     4  N   -0.517122
     5  O   -0.733725
     6  C    0.105876
     7  H   -0.183485
     8  H   -0.183485
     9  H   -0.174046
    10  H   -0.174046
    11  H    0.016199
    12  H    0.016199
    13  H   -0.047910
 Sum of Mulliken charges =  -0.00000

 Dipole moment (field-independent basis, Debye):
    X=              0.8633    Y=             -0.9257    Z=             -0.0000  Tot=              1.2658

 Test job not archived.
 1\1\GINC-SE047\SP\RHF\Aug-CC-pVDZ\C4H7N1O1\OHZDE\05-Apr-2025\0\\#t hf
 aug-cc-pvdz iop(5/13=1,5/36=2,99/5=2) pseudo=read geom=check guess=(re
 ad,tcheck) scf=(maxcycle=1)\\title\\0,1\C,0,0.336343,2.129295,0.\C,0,0
 .540978,-1.50645,0.\C,0,-0.989729,-1.289163,0.\N,0,-1.159293,0.170312,
 0.\O,0,1.078204,-0.1603,0.\C,0,0.,0.680984,0.\H,0,0.910587,-2.017738,0
 .88754\H,0,0.910587,-2.017738,-0.88754\H,0,-1.47324,-1.716662,0.879292
 \H,0,-1.47324,-1.716662,-0.879292\H,0,0.932661,2.376888,0.879004\H,0,0
 .932661,2.376888,-0.879004\H,0,-0.576148,2.717242,0.\\Version=ES64L-G1

 Normal termination of Gaussian 16 at Sat Apr  5 22:30:28 2025.
