 Gaussian 16, Revision C.01,

 ----------------------------------------------------------------------
 #t hf aug-cc-pvdz symm=none int=(grid=ultrafine) guess=(read,tcheck) s
 table=(opt,rrhf)
 ----------------------------------------------------------------------
 -----
 title
 -----
 Symbolic Z-matrix:
 Charge =  0 Multiplicity = 1

 SCF Done:  E(RHF) =  -286.090245833     A.U. after   13 cycles
 Normal termination of Gaussian 16 at Sat Apr  5 22:30:52 2025.
 Gaussian 16:  ES64L-G16RevC.01  3-Jul-2019

 ----------------------------------------------------------------------
 #t hf aug-cc-pvdz iop(5/13=1,5/36=2,99/5=2) pseudo=read geom=check gue
 ss=(read,tcheck) scf=(maxcycle=1)
 ----------------------------------------------------------------------
 -----
 title
 -----
 Structure from the checkpoint file:  "2-methylpropanamide.chk"
 Charge =  0 Multiplicity = 1

                         Standard orientation:
 ---------------------------------------------------------------------
 Center     Atomic      Atomic             Coordinates (Angstroms)
 Number     Number       Type             X           Y           Z
 ---------------------------------------------------------------------
      1          6           0        1.353431    1.270810    0.013760
      2          1           0        0.841398    2.180726   -0.302096
      3          1           0        1.417446    1.279075    1.101271
      4          1           0        2.364879    1.292140   -0.393745
      5          6           0        1.362786   -1.262502   -0.056829
      6          1           0        0.858541   -2.157090   -0.424699
      7          1           0        1.425064   -1.331889    1.028585
      8          6           0        0.615424    0.013505   -0.461515
      9          1           0        0.538032    0.043857   -1.552099
     10          7           0       -1.818851    0.026866   -0.759937
     11          1           0       -2.762329    0.014931   -0.411347
     12          1           0       -1.665858    0.059091   -1.750368
     13          6           0       -0.791440   -0.007396    0.135988
     14          8           0       -0.987670   -0.050347    1.337337
     15          1           0        2.374939   -1.252626   -0.463060
 ---------------------------------------------------------------------

 SCF Done:  E(RHF) =  -286.181754995     A.U. after    2 cycles

 The electronic state is 1-A.
 Alpha  occ. eigenvalues --  -20.52975 -15.64989 -11.35972 -11.25478 -11.23034
 Alpha  occ. eigenvalues --  -11.23010  -1.34270  -1.17700  -1.07159  -0.93496
 Alpha  occ. eigenvalues --   -0.87011  -0.77394  -0.71338  -0.68857  -0.61768
 Alpha  occ. eigenvalues --   -0.60928  -0.60165  -0.55046  -0.53334  -0.53017
 Alpha  occ. eigenvalues --   -0.48866  -0.48740  -0.42817  -0.41681
 Alpha virt. eigenvalues --    0.02712   0.03913   0.04629   0.04923   0.06502
 Alpha virt. eigenvalues --    0.07131   0.07340   0.08086   0.08475   0.11949
 Alpha virt. eigenvalues --    0.13277   0.14021   0.14347   0.14949   0.15358

 Mulliken charges:
               1
     1  C    0.739180
     2  H   -0.080887
     3  H    0.014691
     4  H   -0.053811
     5  C    0.739264
     6  H   -0.080099
     7  H    0.014246
     8  C   -1.037858
     9  H   -0.172495
    10  N   -0.098382
    11  H   -0.037690
    12  H   -0.015315
    13  C    0.664092
    14  O   -0.541817
    15  H   -0.053118
 Sum of Mulliken charges =  -0.00000

 Dipole moment (field-independent basis, Debye):
    X=              0.1536    Y=              0.1479    Z=             -4.1817  Tot=              4.1872

 Test job not archived.
 1\1\GINC-SE183\SP\RHF\Aug-CC-pVDZ\C4H9N1O1\OHZDE\05-Apr-2025\0\\#t hf
 aug-cc-pvdz iop(5/13=1,5/36=2,99/5=2) pseudo=read geom=check guess=(re
 ad,tcheck) scf=(maxcycle=1)\\title\\0,1\C,0,1.353431,1.27081,0.01376\H
 ,0,0.841398,2.180726,-0.302096\H,0,1.417446,1.279075,1.101271\H,0,2.36
 4879,1.29214,-0.393745\C,0,1.362786,-1.262502,-0.056829\H,0,0.858541,-
 2.15709,-0.424699\H,0,1.425064,-1.331889,1.028585\C,0,0.615424,0.01350
 5,-0.461515\H,0,0.538032,0.043857,-1.552099\N,0,-1.818851,0.026866,-0.
 759937\H,0,-2.762329,0.014931,-0.411347\H,0,-1.665858,0.059091,-1.7503

 Normal termination of Gaussian 16 at Sat Apr  5 22:32:18 2025.
