 Gaussian 16, Revision C.01,

 ----------------------------------------------------------------------
 #t hf aug-cc-pvdz symm=none int=(grid=ultrafine) guess=(read,tcheck) s
 table=(opt,rrhf)
 ----------------------------------------------------------------------
 -----
 title
 -----
 Symbolic Z-matrix:
 Charge =  0 Multiplicity = 1

 SCF Done:  E(RHF) =  -156.129603611     A.U. after   12 cycles
 Normal termination of Gaussian 16 at Sat Apr  5 22:28:09 2025.
 Gaussian 16:  ES64L-G16RevC.01  3-Jul-2019

 ----------------------------------------------------------------------
 #t hf aug-cc-pvdz iop(5/13=1,5/36=2,99/5=2) pseudo=read geom=check gue
 ss=(read,tcheck) scf=(maxcycle=1)
 ----------------------------------------------------------------------
 -----
 title
 -----
 Structure from the checkpoint file:  "2-methyl-1-propene.chk"
 Charge =  0 Multiplicity = 1

                         Standard orientation:
 ---------------------------------------------------------------------
 Center     Atomic      Atomic             Coordinates (Angstroms)
 Number     Number       Type             X           Y           Z
 ---------------------------------------------------------------------
      1          6           0        0.000000   -0.000000    1.454540
      2          6           0        0.000000   -0.000000    0.123825
      3          6           0        0.000000    1.272551   -0.676777
      4          6           0       -0.000000   -1.272551   -0.676777
      5          1           0        0.000000   -0.922142    2.021334
      6          1           0        0.000000    0.922142    2.021334
      7          1           0        0.876282    1.321528   -1.329331
      8          1           0       -0.876282    1.321528   -1.329331
      9          1           0        0.000000    2.153807   -0.037106
     10          1           0       -0.876282   -1.321528   -1.329331
     11          1           0        0.876282   -1.321528   -1.329331
     12          1           0       -0.000000   -2.153807   -0.037106
 ---------------------------------------------------------------------

 SCF Done:  E(RHF) =  -156.181420499     A.U. after    2 cycles

 The electronic state is 1-A1.
 Alpha  occ. eigenvalues --  -11.24706 -11.22930 -11.22924 -11.21794  -1.08158
 Alpha  occ. eigenvalues --   -0.93908  -0.92509  -0.72086  -0.62378  -0.61452
 Alpha  occ. eigenvalues --   -0.59286  -0.53938  -0.52417  -0.51919  -0.48222
 Alpha  occ. eigenvalues --   -0.35002
 Alpha virt. eigenvalues --    0.03546   0.04772   0.04827   0.05543   0.06500
 Alpha virt. eigenvalues --    0.07077   0.08152   0.09553   0.11202   0.11310
 Alpha virt. eigenvalues --    0.15084   0.15258   0.15423   0.17005   0.17287

 Mulliken charges:
               1
     1  C    0.994472
     2  C   -0.595420
     3  C    0.282226
     4  C    0.282226
     5  H   -0.380367
     6  H   -0.380367
     7  H    0.029228
     8  H    0.029228
     9  H   -0.159842
    10  H    0.029228
    11  H    0.029228
    12  H   -0.159842
 Sum of Mulliken charges =  -0.00000

 Dipole moment (field-independent basis, Debye):
    X=              0.0000    Y=              0.0000    Z=             -0.5923  Tot=              0.5923

 Test job not archived.
 1\1\GINC-SE175\SP\RHF\Aug-CC-pVDZ\C4H8\OHZDE\05-Apr-2025\0\\#t hf aug-
 cc-pvdz iop(5/13=1,5/36=2,99/5=2) pseudo=read geom=check guess=(read,t
 check) scf=(maxcycle=1)\\title\\0,1\C,0,0.,0.,1.45454\C,0,0.,0.,0.1238
 25\C,0,0.,1.272551,-0.676777\C,0,0.,-1.272551,-0.676777\H,0,0.,-0.9221
 42,2.021334\H,0,0.,0.922142,2.021334\H,0,0.876282,1.321528,-1.329331\H
 ,0,-0.876282,1.321528,-1.329331\H,0,0.,2.153807,-0.037106\H,0,-0.87628
 2,-1.321528,-1.329331\H,0,0.876282,-1.321528,-1.329331\H,0,0.,-2.15380
 7,-0.037106\\Version=ES64L-G16RevC.01\State=1-A1\HF=-156.1814205\RMSD=

 Normal termination of Gaussian 16 at Sat Apr  5 22:28:12 2025.
