 Gaussian 16, Revision C.01,

 ----------------------------------------------------------------------
 #t hf aug-cc-pvdz symm=none int=(grid=ultrafine) guess=(read,tcheck) s
 table=(opt,rrhf)
 ----------------------------------------------------------------------
 -----
 title
 -----
 Symbolic Z-matrix:
 Charge =  0 Multiplicity = 1

 SCF Done:  E(RHF) =  -230.982407330     A.U. after   13 cycles
 Normal termination of Gaussian 16 at Sat Apr  5 22:28:18 2025.
 Gaussian 16:  ES64L-G16RevC.01  3-Jul-2019

 ----------------------------------------------------------------------
 #t hf aug-cc-pvdz iop(5/13=1,5/36=2,99/5=2) pseudo=read geom=check gue
 ss=(read,tcheck) scf=(maxcycle=1)
 ----------------------------------------------------------------------
 -----
 title
 -----
 Structure from the checkpoint file:  "2-methoxy-1-propene.chk"
 Charge =  0 Multiplicity = 1

                         Standard orientation:
 ---------------------------------------------------------------------
 Center     Atomic      Atomic             Coordinates (Angstroms)
 Number     Number       Type             X           Y           Z
 ---------------------------------------------------------------------
      1          6           0        1.837929   -0.075225    0.168133
      2          1           0        1.826268    0.039396    1.255725
      3          1           0        2.650139   -0.742755   -0.108297
      4          1           0        2.008448    0.898348   -0.296127
      5          8           0        0.647190   -0.693975   -0.300207
      6          6           0       -0.598702    1.412224   -0.036759
      7          1           0       -0.014163    1.839066    0.780446
      8          1           0       -0.198576    1.814610   -0.970439
      9          1           0       -1.625342    1.752574    0.072846
     10          6           0       -0.558029   -0.087441   -0.037725
     11          6           0       -1.627694   -0.863197    0.124504
     12          1           0       -2.606952   -0.428216    0.248327
     13          1           0       -1.538361   -1.939393    0.110257
 ---------------------------------------------------------------------

 SCF Done:  E(RHF) =  -231.059456091     A.U. after    2 cycles

 The electronic state is 1-A.
 Alpha  occ. eigenvalues --  -20.58601 -11.30286 -11.29178 -11.24062 -11.21101
 Alpha  occ. eigenvalues --   -1.35441  -1.05612  -0.96270  -0.91703  -0.75816
 Alpha  occ. eigenvalues --   -0.66894  -0.66520  -0.65480  -0.57953  -0.56624
 Alpha  occ. eigenvalues --   -0.56253  -0.53572  -0.50629  -0.47694  -0.33831
 Alpha virt. eigenvalues --    0.03358   0.04548   0.04849   0.05341   0.06423
 Alpha virt. eigenvalues --    0.06708   0.07474   0.09165   0.10755   0.11408
 Alpha virt. eigenvalues --    0.13572   0.14615   0.15161   0.16263   0.16430

 Mulliken charges:
               1
     1  C    0.749710
     2  H   -0.107583
     3  H   -0.269836
     4  H   -0.091923
     5  O   -0.687636
     6  C    0.198144
     7  H    0.065990
     8  H    0.051146
     9  H   -0.191471
    10  C    0.010333
    11  C    0.967489
    12  H   -0.325903
    13  H   -0.368459
 Sum of Mulliken charges =   0.00000

 Dipole moment (field-independent basis, Debye):
    X=              0.8698    Y=              1.7994    Z=              0.6114  Tot=              2.0901

 Test job not archived.
 1\1\GINC-SE183\SP\RHF\Aug-CC-pVDZ\C4H8O1\OHZDE\05-Apr-2025\0\\#t hf au
 g-cc-pvdz iop(5/13=1,5/36=2,99/5=2) pseudo=read geom=check guess=(read
 ,tcheck) scf=(maxcycle=1)\\title\\0,1\C,0,1.837929,-0.075225,0.168133\
 H,0,1.826268,0.039396,1.255725\H,0,2.650139,-0.742755,-0.108297\H,0,2.
 008448,0.898348,-0.296127\O,0,0.64719,-0.693975,-0.300207\C,0,-0.59870
 2,1.412224,-0.036759\H,0,-0.014163,1.839066,0.780446\H,0,-0.198576,1.8
 1461,-0.970439\H,0,-1.625342,1.752574,0.072846\C,0,-0.558029,-0.087441
 ,-0.037725\C,0,-1.627694,-0.863197,0.124504\H,0,-2.606952,-0.428216,0.

 Normal termination of Gaussian 16 at Sat Apr  5 22:29:02 2025.
