 Gaussian 16, Revision C.01,

 ----------------------------------------------------------------------
 #t hf aug-cc-pvdz symm=none int=(grid=ultrafine) guess=(read,tcheck) s
 table=(opt,rrhf)
 ----------------------------------------------------------------------
 -----
 title
 -----
 Symbolic Z-matrix:
 Charge =  0 Multiplicity = 1

 SCF Done:  E(RHF) =  -305.879259691     A.U. after   12 cycles
 Normal termination of Gaussian 16 at Sat Apr  5 22:28:24 2025.
 Gaussian 16:  ES64L-G16RevC.01  3-Jul-2019

 ----------------------------------------------------------------------
 #t hf aug-cc-pvdz iop(5/13=1,5/36=2,99/5=2) pseudo=read geom=check gue
 ss=(read,tcheck) scf=(maxcycle=1)
 ----------------------------------------------------------------------
 -----
 title
 -----
 Structure from the checkpoint file:  "2-methyl-1-3-dioxolane.chk"
 Charge =  0 Multiplicity = 1

                         Standard orientation:
 ---------------------------------------------------------------------
 Center     Atomic      Atomic             Coordinates (Angstroms)
 Number     Number       Type             X           Y           Z
 ---------------------------------------------------------------------
      1          6           0       -2.091969    0.010752   -0.180597
      2          1           0       -2.635094   -0.893942    0.090351
      3          1           0       -2.624543    0.872125    0.220077
      4          1           0       -2.045431    0.092193   -1.265498
      5          6           0       -0.698672   -0.035879    0.388299
      6          1           0       -0.716959   -0.130269    1.485995
      7          8           0        0.030683    1.138373    0.045279
      8          8           0        0.034322   -1.115337   -0.154500
      9          6           0        1.399093   -0.761458    0.034643
     10          1           0        1.998042   -1.291310   -0.702163
     11          1           0        1.730930   -1.043846    1.039807
     12          6           0        1.397982    0.765704   -0.146745
     13          1           0        1.700345    1.065105   -1.151226
     14          1           0        2.034073    1.270939    0.582825
 ---------------------------------------------------------------------

 SCF Done:  E(RHF) =  -305.977723234     A.U. after    2 cycles

 The electronic state is 1-A.
 Alpha  occ. eigenvalues --  -20.58038 -20.57339 -11.34252 -11.29482 -11.29193
 Alpha  occ. eigenvalues --  -11.22570  -1.39541  -1.28971  -1.05252  -0.95529
 Alpha  occ. eigenvalues --   -0.85930  -0.82826  -0.72299  -0.69117  -0.65325
 Alpha  occ. eigenvalues --   -0.63127  -0.59934  -0.54924  -0.54018  -0.53773
 Alpha  occ. eigenvalues --   -0.52828  -0.49925  -0.45558  -0.43544
 Alpha virt. eigenvalues --    0.03580   0.04674   0.04758   0.05160   0.06351
 Alpha virt. eigenvalues --    0.06652   0.06865   0.07990   0.10255   0.12888
 Alpha virt. eigenvalues --    0.13224   0.13492   0.14712   0.15280   0.15665

 Mulliken charges:
               1
     1  C    0.275890
     2  H    0.006261
     3  H   -0.001746
     4  H    0.011868
     5  C    0.901434
     6  H   -0.272041
     7  O   -0.766420
     8  O   -0.773760
     9  C    0.634768
    10  H   -0.197537
    11  H   -0.160513
    12  C    0.726689
    13  H   -0.215036
    14  H   -0.169857
 Sum of Mulliken charges =  -0.00000

 Dipole moment (field-independent basis, Debye):
    X=              1.2828    Y=             -0.2064    Z=              0.6768  Tot=              1.4650

 Test job not archived.
 1\1\GINC-SE211\SP\RHF\Aug-CC-pVDZ\C4H8O2\OHZDE\05-Apr-2025\0\\#t hf au
 g-cc-pvdz iop(5/13=1,5/36=2,99/5=2) pseudo=read geom=check guess=(read
 ,tcheck) scf=(maxcycle=1)\\title\\0,1\C,0,-2.091969,0.010752,-0.180597
 \H,0,-2.635094,-0.893942,0.090351\H,0,-2.624543,0.872125,0.220077\H,0,
 -2.045431,0.092193,-1.265498\C,0,-0.698672,-0.035879,0.388299\H,0,-0.7
 16959,-0.130269,1.485995\O,0,0.030683,1.138373,0.045279\O,0,0.034322,-
 1.115337,-0.1545\C,0,1.399093,-0.761458,0.034643\H,0,1.998042,-1.29131
 ,-0.702163\H,0,1.73093,-1.043846,1.039807\C,0,1.397982,0.765704,-0.146

 Normal termination of Gaussian 16 at Sat Apr  5 22:29:03 2025.
