 Gaussian 16, Revision C.01,

 ----------------------------------------------------------------------
 #t hf aug-cc-pvdz symm=none int=(grid=ultrafine) guess=(read,tcheck) s
 table=(opt,rrhf)
 ----------------------------------------------------------------------
 -----
 title
 -----
 Symbolic Z-matrix:
 Charge =  0 Multiplicity = 1

 SCF Done:  E(RHF) =  -554.843201521     A.U. after   12 cycles

 1\1\GINC-SE041\Stability\RHF\Aug-CC-pVDZ\C4H10S1\OHZDE\05-Apr-2025\0\\
 #t hf aug-cc-pvdz symm=none int=(grid=ultrafine) guess=(read,tcheck) s
 table=(opt,rrhf)\\title\\0,1\C,0,2.099858,0.369973,0.299455\S,0,0.7696
 7,-0.705032,-0.323442\C,0,-0.727952,0.124983,0.364432\C,0,-0.985167,1.
 492597,-0.260375\C,0,-1.906973,-0.823775,0.163596\H,0,3.037274,-0.1058
 1,0.018885\H,0,2.064635,1.361496,-0.147229\H,0,2.058488,0.449131,1.385
 117\H,0,-0.544665,0.242009,1.4349\H,0,-0.145508,2.172003,-0.117608\H,0
 ,-1.738088,-1.779969,0.657497\H,0,-1.166779,1.398813,-1.331795\H,0,-1.

 Normal termination of Gaussian 16 at Sat Apr  5 22:30:02 2025.
 Gaussian 16:  ES64L-G16RevC.01  3-Jul-2019

 ----------------------------------------------------------------------
 #t hf aug-cc-pvdz iop(5/13=1,5/36=2,99/5=2) pseudo=read geom=check gue
 ss=(read,tcheck) scf=(maxcycle=1)
 ----------------------------------------------------------------------
 -----
 title
 -----
 Structure from the checkpoint file:  "2-methylsulfanylpropane.chk"
 Charge =  0 Multiplicity = 1

                         Standard orientation:
 ---------------------------------------------------------------------
 Center     Atomic      Atomic             Coordinates (Angstroms)
 Number     Number       Type             X           Y           Z
 ---------------------------------------------------------------------
      1          6           0        2.099858    0.369973    0.299455
      2         16           0        0.769670   -0.705032   -0.323442
      3          6           0       -0.727952    0.124983    0.364432
      4          6           0       -0.985167    1.492597   -0.260375
      5          6           0       -1.906973   -0.823775    0.163596
      6          1           0        3.037274   -0.105810    0.018885
      7          1           0        2.064635    1.361496   -0.147229
      8          1           0        2.058488    0.449131    1.385117
      9          1           0       -0.544665    0.242009    1.434900
     10          1           0       -0.145508    2.172003   -0.117608
     11          1           0       -1.738088   -1.779969    0.657497
     12          1           0       -1.166779    1.398813   -1.331795
     13          1           0       -1.863937    1.955096    0.196475
     14          1           0       -2.816392   -0.380971    0.573674
     15          1           0       -2.078342   -1.013952   -0.897490
 ---------------------------------------------------------------------

 SCF Done:  E(RHF) =  -554.915956681     A.U. after    2 cycles

 The electronic state is 1-A.
 Alpha  occ. eigenvalues --  -93.51730 -11.27077 -11.25901 -11.23051 -11.23009
 Alpha  occ. eigenvalues --   -8.81469  -6.15624  -6.15405  -6.15081  -1.08464
 Alpha  occ. eigenvalues --   -0.99784  -0.93660  -0.85926  -0.76183  -0.63274
 Alpha  occ. eigenvalues --   -0.61353  -0.59022  -0.58072  -0.55898  -0.54548
 Alpha  occ. eigenvalues --   -0.50201  -0.49628  -0.46523  -0.41417  -0.33148
 Alpha virt. eigenvalues --    0.03522   0.04363   0.04955   0.05100   0.06474
 Alpha virt. eigenvalues --    0.06903   0.07222   0.07552   0.08471   0.09600
 Alpha virt. eigenvalues --    0.11022   0.13699   0.13924   0.14589   0.15324

 Mulliken charges:
               1
     1  C    0.146373
     2  S    0.385112
     3  C   -0.870277
     4  C    0.510139
     5  C    0.658278
     6  H   -0.109806
     7  H   -0.083880
     8  H   -0.099640
     9  H   -0.144115
    10  H   -0.185843
    11  H   -0.089081
    12  H   -0.023658
    13  H   -0.025862
    14  H   -0.032046
    15  H   -0.035694
 Sum of Mulliken charges =  -0.00000

 Dipole moment (field-independent basis, Debye):
    X=             -0.3126    Y=              1.4675    Z=              1.0393  Tot=              1.8252

 Test job not archived.
 1\1\GINC-SE041\SP\RHF\Aug-CC-pVDZ\C4H10S1\OHZDE\05-Apr-2025\0\\#t hf a
 ug-cc-pvdz iop(5/13=1,5/36=2,99/5=2) pseudo=read geom=check guess=(rea
 d,tcheck) scf=(maxcycle=1)\\title\\0,1\C,0,2.099858,0.369973,0.299455\
 S,0,0.76967,-0.705032,-0.323442\C,0,-0.727952,0.124983,0.364432\C,0,-0
 .985167,1.492597,-0.260375\C,0,-1.906973,-0.823775,0.163596\H,0,3.0372
 74,-0.10581,0.018885\H,0,2.064635,1.361496,-0.147229\H,0,2.058488,0.44
 9131,1.385117\H,0,-0.544665,0.242009,1.4349\H,0,-0.145508,2.172003,-0.
 117608\H,0,-1.738088,-1.779969,0.657497\H,0,-1.166779,1.398813,-1.3317

 Normal termination of Gaussian 16 at Sat Apr  5 22:30:30 2025.
