 Gaussian 16, Revision C.01,

 ----------------------------------------------------------------------
 #t hf aug-cc-pvdz symm=none int=(grid=ultrafine) guess=(read,tcheck) s
 table=(opt,rrhf)
 ----------------------------------------------------------------------
 -----
 title
 -----
 Symbolic Z-matrix:
 Charge =  0 Multiplicity = 1

 SCF Done:  E(RHF) =  -310.261242137     A.U. after   12 cycles

 1\1\GINC-SE221\Stability\RHF\Aug-CC-pVDZ\C6H14O1\OHZDE\05-Apr-2025\0\\
 #t hf aug-cc-pvdz symm=none int=(grid=ultrafine) guess=(read,tcheck) s
 table=(opt,rrhf)\\title\\0,1\C,0,-2.743598,0.27938,0.263321\C,0,1.5276
 37,1.583398,0.042847\C,0,2.22605,-0.822775,0.228502\C,0,-1.371578,0.64
 9289,-0.298578\C,0,1.159473,0.137171,-0.308936\C,0,-0.242383,-0.258067
 ,0.197134\O,0,-0.529559,-1.629626,-0.1126\H,0,-3.515575,0.944672,-0.12
 5339\H,0,-2.752787,0.361074,1.352137\H,0,-3.015995,-0.743733,0.008715\
 H,0,0.893332,2.312783,-0.458542\H,0,1.450647,1.75347,1.119924\H,0,2.55

 Normal termination of Gaussian 16 at Sat Apr  5 22:29:26 2025.
 Gaussian 16:  ES64L-G16RevC.01  3-Jul-2019

 ----------------------------------------------------------------------
 #t hf aug-cc-pvdz iop(5/13=1,5/36=2,99/5=2) pseudo=read geom=check gue
 ss=(read,tcheck) scf=(maxcycle=1)
 ----------------------------------------------------------------------
 -----
 title
 -----
 Structure from the checkpoint file:  "2-methyl-3-pentanol.chk"
 Charge =  0 Multiplicity = 1

                         Standard orientation:
 ---------------------------------------------------------------------
 Center     Atomic      Atomic             Coordinates (Angstroms)
 Number     Number       Type             X           Y           Z
 ---------------------------------------------------------------------
      1          6           0       -2.743598    0.279380    0.263321
      2          6           0        1.527637    1.583398    0.042847
      3          6           0        2.226050   -0.822775    0.228502
      4          6           0       -1.371578    0.649289   -0.298578
      5          6           0        1.159473    0.137171   -0.308936
      6          6           0       -0.242383   -0.258067    0.197134
      7          8           0       -0.529559   -1.629626   -0.112600
      8          1           0       -3.515575    0.944672   -0.125339
      9          1           0       -2.752787    0.361074    1.352137
     10          1           0       -3.015995   -0.743733    0.008715
     11          1           0        0.893332    2.312783   -0.458542
     12          1           0        1.450647    1.753470    1.119924
     13          1           0        2.558304    1.792091   -0.246918
     14          1           0        3.203847   -0.588092   -0.194843
     15          1           0        1.989120   -1.858593   -0.004759
     16          1           0        2.306790   -0.736724    1.315244
     17          1           0       -1.393282    0.611750   -1.394424
     18          1           0       -1.144600    1.683054   -0.034580
     19          1           0        1.140378    0.049342   -1.403355
     20          1           0       -0.228904   -0.235027    1.291831
     21          1           0       -0.588412   -1.719433   -1.070029
 ---------------------------------------------------------------------

 SCF Done:  E(RHF) =  -310.360261114     A.U. after    2 cycles

 The electronic state is 1-A.
 Alpha  occ. eigenvalues --  -20.56441 -11.28334 -11.23605 -11.22929 -11.22449
 Alpha  occ. eigenvalues --  -11.21892 -11.21540  -1.31495  -1.07659  -1.02572
 Alpha  occ. eigenvalues --   -0.92530  -0.91260  -0.82012  -0.78728  -0.66428
 Alpha  occ. eigenvalues --   -0.65037  -0.63243  -0.61260  -0.57862  -0.55770
 Alpha  occ. eigenvalues --   -0.54771  -0.53617  -0.52173  -0.51016  -0.49199
 Alpha  occ. eigenvalues --   -0.48094  -0.47482  -0.45256  -0.42942
 Alpha virt. eigenvalues --    0.03367   0.04127   0.04305   0.04712   0.06075
 Alpha virt. eigenvalues --    0.06384   0.06420   0.06749   0.07246   0.08559
 Alpha virt. eigenvalues --    0.09021   0.09330   0.09529   0.11013   0.13266

 Mulliken charges:
               1
     1  C    0.559167
     2  C    0.836647
     3  C    0.918631
     4  C    0.284018
     5  C   -1.212600
     6  C    0.299597
     7  O   -0.633660
     8  H   -0.044493
     9  H   -0.063817
    10  H   -0.049136
    11  H   -0.075592
    12  H   -0.010228
    13  H   -0.101633
    14  H   -0.041297
    15  H   -0.058731
    16  H   -0.014241
    17  H   -0.153227
    18  H   -0.157633
    19  H   -0.165002
    20  H   -0.282144
    21  H    0.165373
 Sum of Mulliken charges =  -0.00000

 Dipole moment (field-independent basis, Debye):
    X=              0.2365    Y=              1.4116    Z=             -1.1510  Tot=              1.8367

 Test job not archived.
 1\1\GINC-SE221\SP\RHF\Aug-CC-pVDZ\C6H14O1\OHZDE\05-Apr-2025\0\\#t hf a
 ug-cc-pvdz iop(5/13=1,5/36=2,99/5=2) pseudo=read geom=check guess=(rea
 d,tcheck) scf=(maxcycle=1)\\title\\0,1\C,0,-2.743598,0.27938,0.263321\
 C,0,1.527637,1.583398,0.042847\C,0,2.22605,-0.822775,0.228502\C,0,-1.3
 71578,0.649289,-0.298578\C,0,1.159473,0.137171,-0.308936\C,0,-0.242383
 ,-0.258067,0.197134\O,0,-0.529559,-1.629626,-0.1126\H,0,-3.515575,0.94
 4672,-0.125339\H,0,-2.752787,0.361074,1.352137\H,0,-3.015995,-0.743733
 ,0.008715\H,0,0.893332,2.312783,-0.458542\H,0,1.450647,1.75347,1.11992

 Normal termination of Gaussian 16 at Sat Apr  5 22:29:35 2025.
