 Gaussian 16, Revision C.01,

 ----------------------------------------------------------------------
 #t hf aug-cc-pvdz symm=none int=(grid=ultrafine) guess=(read,tcheck) s
 table=(opt,rrhf)
 ----------------------------------------------------------------------
 -----
 title
 -----
 Symbolic Z-matrix:
 Charge =  0 Multiplicity = 1

 SCF Done:  E(RHF) =  -593.880558901     A.U. after   13 cycles

 1\1\GINC-SE213\Stability\RHF\Aug-CC-pVDZ\C5H12S1\OHZDE\05-Apr-2025\0\\
 #t hf aug-cc-pvdz symm=none int=(grid=ultrafine) guess=(read,tcheck) s
 table=(opt,rrhf)\\title\\0,1\S,0,-0.692409,-1.055906,0.\C,0,-0.026867,
 0.686541,0.\C,0,-1.284091,1.562967,0.\C,0,0.800267,-2.097232,0.\H,0,0.
 440552,-3.124595,0.\H,0,-0.998307,2.616921,0.\C,0,0.800267,0.953171,1.
 259728\C,0,0.800267,0.953171,-1.259728\H,0,1.404795,-1.943574,0.891889
 \H,0,1.404795,-1.943574,-0.891889\H,0,0.214552,0.768111,-2.159589\H,0,
 0.214552,0.768111,2.159589\H,0,1.131617,1.995073,1.274003\H,0,1.131617

 Normal termination of Gaussian 16 at Sat Apr  5 22:29:01 2025.
 Gaussian 16:  ES64L-G16RevC.01  3-Jul-2019

 ----------------------------------------------------------------------
 #t hf aug-cc-pvdz iop(5/13=1,5/36=2,99/5=2) pseudo=read geom=check gue
 ss=(read,tcheck) scf=(maxcycle=1)
 ----------------------------------------------------------------------
 -----
 title
 -----
 Structure from the checkpoint file:  "2-methyl-2-methylsulfanylpropane.chk"
 Charge =  0 Multiplicity = 1

                         Standard orientation:
 ---------------------------------------------------------------------
 Center     Atomic      Atomic             Coordinates (Angstroms)
 Number     Number       Type             X           Y           Z
 ---------------------------------------------------------------------
      1         16           0       -0.692409   -1.055906    0.000000
      2          6           0       -0.026867    0.686541    0.000000
      3          6           0       -1.284091    1.562967    0.000000
      4          6           0        0.800267   -2.097232    0.000000
      5          1           0        0.440552   -3.124595    0.000000
      6          1           0       -0.998307    2.616921    0.000000
      7          6           0        0.800267    0.953171    1.259728
      8          6           0        0.800267    0.953171   -1.259728
      9          1           0        1.404795   -1.943574    0.891889
     10          1           0        1.404795   -1.943574   -0.891889
     11          1           0        0.214552    0.768111   -2.159589
     12          1           0        0.214552    0.768111    2.159589
     13          1           0        1.131617    1.995073    1.274003
     14          1           0        1.131617    1.995073   -1.274003
     15          1           0        1.692762    0.328379    1.299095
     16          1           0        1.692762    0.328379   -1.299095
     17          1           0       -1.895101    1.377247   -0.883681
     18          1           0       -1.895101    1.377247    0.883681
 ---------------------------------------------------------------------

 SCF Done:  E(RHF) =  -593.964361408     A.U. after    2 cycles

 The electronic state is 1-A'.
 Alpha  occ. eigenvalues --  -93.51499 -11.27804 -11.25731 -11.22872 -11.22868
 Alpha  occ. eigenvalues --  -11.22852  -8.81222  -6.15389  -6.15164  -6.14855
 Alpha  occ. eigenvalues --   -1.10283  -0.99935  -0.93748  -0.93742  -0.85079
 Alpha  occ. eigenvalues --   -0.72603  -0.62886  -0.61172  -0.61163  -0.59131
 Alpha  occ. eigenvalues --   -0.56827  -0.55093  -0.54223  -0.52230  -0.49162
 Alpha  occ. eigenvalues --   -0.48295  -0.45731  -0.40588  -0.33066
 Alpha virt. eigenvalues --    0.03483   0.04337   0.04917   0.04957   0.06349
 Alpha virt. eigenvalues --    0.06777   0.06793   0.07150   0.07430   0.09418
 Alpha virt. eigenvalues --    0.09519   0.09763   0.11149   0.12901   0.13397

 Mulliken charges:
               1
     1  S    0.368437
     2  C   -2.687098
     3  C    1.181207
     4  C    0.120218
     5  H   -0.112775
     6  H   -0.001161
     7  C    0.925573
     8  C    0.925573
     9  H   -0.087903
    10  H   -0.087903
    11  H   -0.045111
    12  H   -0.045111
    13  H   -0.008036
    14  H   -0.008036
    15  H   -0.161945
    16  H   -0.161945
    17  H   -0.056991
    18  H   -0.056991
 Sum of Mulliken charges =  -0.00000

 Dipole moment (field-independent basis, Debye):
    X=              1.6207    Y=              0.7561    Z=             -0.0000  Tot=              1.7884

 Test job not archived.
 1\1\GINC-SE213\SP\RHF\Aug-CC-pVDZ\C5H12S1\OHZDE\05-Apr-2025\0\\#t hf a
 ug-cc-pvdz iop(5/13=1,5/36=2,99/5=2) pseudo=read geom=check guess=(rea
 d,tcheck) scf=(maxcycle=1)\\title\\0,1\S,0,-0.692409,-1.055906,0.\C,0,
 -0.026867,0.686541,0.\C,0,-1.284091,1.562967,0.\C,0,0.800267,-2.097232
 ,0.\H,0,0.440552,-3.124595,0.\H,0,-0.998307,2.616921,0.\C,0,0.800267,0
 .953171,1.259728\C,0,0.800267,0.953171,-1.259728\H,0,1.404795,-1.94357
 4,0.891889\H,0,1.404795,-1.943574,-0.891889\H,0,0.214552,0.768111,-2.1
 59589\H,0,0.214552,0.768111,2.159589\H,0,1.131617,1.995073,1.274003\H,

 Normal termination of Gaussian 16 at Sat Apr  5 22:29:26 2025.
