 Gaussian 16, Revision C.01,

 ----------------------------------------------------------------------
 #t hf aug-cc-pvdz symm=none int=(grid=ultrafine) guess=(read,tcheck) s
 table=(opt,rrhf)
 ----------------------------------------------------------------------
 -----
 title
 -----
 Symbolic Z-matrix:
 Charge =  0 Multiplicity = 1

 SCF Done:  E(RHF) =  -301.760551194     A.U. after   14 cycles
 Normal termination of Gaussian 16 at Sat Apr  5 22:30:52 2025.
 Gaussian 16:  ES64L-G16RevC.01  3-Jul-2019

 ----------------------------------------------------------------------
 #t hf aug-cc-pvdz iop(5/13=1,5/36=2,99/5=2) pseudo=read geom=check gue
 ss=(read,tcheck) scf=(maxcycle=1)
 ----------------------------------------------------------------------
 -----
 title
 -----
 Structure from the checkpoint file:  "2-methylpyrazine.chk"
 Charge =  0 Multiplicity = 1

                         Standard orientation:
 ---------------------------------------------------------------------
 Center     Atomic      Atomic             Coordinates (Angstroms)
 Number     Number       Type             X           Y           Z
 ---------------------------------------------------------------------
      1          6           0       -0.001868   -1.820771    0.000000
      2          6           0       -1.182467   -1.087059    0.000000
      3          6           0        1.179811    0.108531    0.000000
      4          6           0        0.000000    0.858405    0.000000
      5          6           0        0.008652    2.358272    0.000000
      6          7           0        1.186439   -1.221482    0.000000
      7          7           0       -1.186506    0.242772    0.000000
      8          1           0       -0.015053   -2.903968    0.000000
      9          1           0       -2.145893   -1.583765    0.000000
     10          1           0        2.144697    0.602719    0.000000
     11          1           0       -0.515539    2.739063    0.877425
     12          1           0        1.023030    2.753583    0.000000
     13          1           0       -0.515539    2.739063   -0.877425
 ---------------------------------------------------------------------

 SCF Done:  E(RHF) =  -301.848371950     A.U. after    2 cycles

 The electronic state is 1-A'.
 Alpha  occ. eigenvalues --  -15.65476 -15.64945 -11.29869 -11.29217 -11.28739
 Alpha  occ. eigenvalues --  -11.28726 -11.24329  -1.27879  -1.18478  -1.06830
 Alpha  occ. eigenvalues --   -0.96870  -0.89115  -0.85291  -0.71533  -0.71161
 Alpha  occ. eigenvalues --   -0.65849  -0.60535  -0.59525  -0.56234  -0.54810
 Alpha  occ. eigenvalues --   -0.54139  -0.48512  -0.42816  -0.40068  -0.34984
 Alpha virt. eigenvalues --    0.03480   0.03525   0.04403   0.05577   0.05954
 Alpha virt. eigenvalues --    0.06994   0.07343   0.10280   0.10695   0.11504
 Alpha virt. eigenvalues --    0.11916   0.12004   0.12672   0.14712   0.15056

 Mulliken charges:
               1
     1  C    0.484354
     2  C    0.731294
     3  C    0.612884
     4  C   -0.037335
     5  C    0.371249
     6  N   -0.534023
     7  N   -0.673210
     8  H   -0.285816
     9  H   -0.309671
    10  H   -0.336604
    11  H    0.031994
    12  H   -0.087109
    13  H    0.031994
 Sum of Mulliken charges =  -0.00000

 Dipole moment (field-independent basis, Debye):
    X=             -0.1260    Y=              0.5782    Z=              0.0000  Tot=              0.5918

 Test job not archived.
 1\1\GINC-SE190\SP\RHF\Aug-CC-pVDZ\C5H6N2\OHZDE\05-Apr-2025\0\\#t hf au
 g-cc-pvdz iop(5/13=1,5/36=2,99/5=2) pseudo=read geom=check guess=(read
 ,tcheck) scf=(maxcycle=1)\\title\\0,1\C,0,-0.001868,-1.820771,0.\C,0,-
 1.182467,-1.087059,0.\C,0,1.179811,0.108531,0.\C,0,0.,0.858405,0.\C,0,
 0.008652,2.358272,0.\N,0,1.186439,-1.221482,0.\N,0,-1.186506,0.242772,
 0.\H,0,-0.015053,-2.903968,0.\H,0,-2.145893,-1.583765,0.\H,0,2.144697,
 0.602719,0.\H,0,-0.515539,2.739063,0.877425\H,0,1.02303,2.753583,0.\H,
 0,-0.515539,2.739063,-0.877425\\Version=ES64L-G16RevC.01\State=1-A'\HF

 Normal termination of Gaussian 16 at Sat Apr  5 22:32:17 2025.
