 Gaussian 16, Revision C.01,

 ----------------------------------------------------------------------
 #t hf aug-cc-pvdz symm=none int=(grid=ultrafine) guess=(read,tcheck) s
 table=(opt,rrhf)
 ----------------------------------------------------------------------
 -----
 title
 -----
 Symbolic Z-matrix:
 Charge =  0 Multiplicity = 1

 SCF Done:  E(RHF) =  -271.227431174     A.U. after   12 cycles

 1\1\GINC-SE198\Stability\RHF\Aug-CC-pVDZ\C5H12O1\OHZDE\05-Apr-2025\0\\
 #t hf aug-cc-pvdz symm=none int=(grid=ultrafine) guess=(read,tcheck) s
 table=(opt,rrhf)\\title\\0,1\C,0,-2.165229,-0.019777,-0.016641\C,0,0.5
 34517,1.417395,-0.549756\C,0,1.641044,-0.836748,-0.424661\C,0,-0.86497
 5,-0.71006,-0.425335\C,0,0.429999,-0.005131,0.007651\O,0,0.376349,0.04
 3462,1.448394\H,0,-3.021673,-0.639001,-0.286612\H,0,-2.292415,0.942994
 ,-0.512746\H,0,-2.195466,0.147199,1.059086\H,0,0.507717,1.416045,-1.64
 0747\H,0,-0.278903,2.041128,-0.183517\H,0,1.4768,1.877169,-0.242684\H,

 Normal termination of Gaussian 16 at Sat Apr  5 22:28:40 2025.
 Gaussian 16:  ES64L-G16RevC.01  3-Jul-2019

 ----------------------------------------------------------------------
 #t hf aug-cc-pvdz iop(5/13=1,5/36=2,99/5=2) pseudo=read geom=check gue
 ss=(read,tcheck) scf=(maxcycle=1)
 ----------------------------------------------------------------------
 -----
 title
 -----
 Structure from the checkpoint file:  "2-methyl-2-butanol.chk"
 Charge =  0 Multiplicity = 1

                         Standard orientation:
 ---------------------------------------------------------------------
 Center     Atomic      Atomic             Coordinates (Angstroms)
 Number     Number       Type             X           Y           Z
 ---------------------------------------------------------------------
      1          6           0       -2.165229   -0.019777   -0.016641
      2          6           0        0.534517    1.417395   -0.549756
      3          6           0        1.641044   -0.836748   -0.424661
      4          6           0       -0.864975   -0.710060   -0.425335
      5          6           0        0.429999   -0.005131    0.007651
      6          8           0        0.376349    0.043462    1.448394
      7          1           0       -3.021673   -0.639001   -0.286612
      8          1           0       -2.292415    0.942994   -0.512746
      9          1           0       -2.195466    0.147199    1.059086
     10          1           0        0.507717    1.416045   -1.640747
     11          1           0       -0.278903    2.041128   -0.183517
     12          1           0        1.476800    1.877169   -0.242684
     13          1           0        1.695208   -0.921627   -1.511210
     14          1           0        2.569524   -0.374559   -0.081065
     15          1           0        1.582438   -1.839278   -0.001025
     16          1           0       -0.835262   -0.834371   -1.510827
     17          1           0       -0.842950   -1.714358    0.004098
     18          1           0        1.172045    0.476886    1.772546
 ---------------------------------------------------------------------

 SCF Done:  E(RHF) =  -271.314353674     A.U. after    2 cycles

 The electronic state is 1-A.
 Alpha  occ. eigenvalues --  -20.56277 -11.29284 -11.22401 -11.22394 -11.22370
 Alpha  occ. eigenvalues --  -11.21389  -1.31429  -1.06560  -0.98809  -0.93770
 Alpha  occ. eigenvalues --   -0.86024  -0.76829  -0.67778  -0.63803  -0.61386
 Alpha  occ. eigenvalues --   -0.58994  -0.58021  -0.55743  -0.53803  -0.51644
 Alpha  occ. eigenvalues --   -0.51273  -0.49544  -0.48091  -0.45241  -0.43932
 Alpha virt. eigenvalues --    0.03384   0.04377   0.04680   0.05016   0.06416
 Alpha virt. eigenvalues --    0.06512   0.06749   0.07096   0.07542   0.09257
 Alpha virt. eigenvalues --    0.09560   0.09818   0.13307   0.13931   0.14165

 Mulliken charges:
               1
     1  C    0.436260
     2  C    1.004794
     3  C    1.167338
     4  C    0.703341
     5  C   -2.544254
     6  O   -0.518270
     7  H   -0.067081
     8  H   -0.104096
     9  H   -0.041143
    10  H    0.043798
    11  H    0.003620
    12  H   -0.055163
    13  H    0.041434
    14  H   -0.050473
    15  H    0.010980
    16  H   -0.065937
    17  H   -0.081605
    18  H    0.116455
 Sum of Mulliken charges =  -0.00000

 Dipole moment (field-independent basis, Debye):
    X=              1.2001    Y=              0.5526    Z=             -1.1267  Tot=              1.7364

 Test job not archived.
 1\1\GINC-SE198\SP\RHF\Aug-CC-pVDZ\C5H12O1\OHZDE\05-Apr-2025\0\\#t hf a
 ug-cc-pvdz iop(5/13=1,5/36=2,99/5=2) pseudo=read geom=check guess=(rea
 d,tcheck) scf=(maxcycle=1)\\title\\0,1\C,0,-2.165229,-0.019777,-0.0166
 41\C,0,0.534517,1.417395,-0.549756\C,0,1.641044,-0.836748,-0.424661\C,
 0,-0.864975,-0.71006,-0.425335\C,0,0.429999,-0.005131,0.007651\O,0,0.3
 76349,0.043462,1.448394\H,0,-3.021673,-0.639001,-0.286612\H,0,-2.29241
 5,0.942994,-0.512746\H,0,-2.195466,0.147199,1.059086\H,0,0.507717,1.41
 6045,-1.640747\H,0,-0.278903,2.041128,-0.183517\H,0,1.4768,1.877169,-0

 Normal termination of Gaussian 16 at Sat Apr  5 22:29:05 2025.
