 Gaussian 16, Revision C.01,

 ----------------------------------------------------------------------
 #t hf aug-cc-pvdz symm=none int=(grid=ultrafine) guess=(read,tcheck) s
 table=(opt,rrhf)
 ----------------------------------------------------------------------
 -----
 title
 -----
 Symbolic Z-matrix:
 Charge =  0 Multiplicity = 1

 SCF Done:  E(RHF) =  -235.391427047     A.U. after   11 cycles
 Normal termination of Gaussian 16 at Sat Apr  5 22:30:52 2025.
 Gaussian 16:  ES64L-G16RevC.01  3-Jul-2019

 ----------------------------------------------------------------------
 #t hf aug-cc-pvdz iop(5/13=1,5/36=2,99/5=2) pseudo=read geom=check gue
 ss=(read,tcheck) scf=(maxcycle=1)
 ----------------------------------------------------------------------
 -----
 title
 -----
 Structure from the checkpoint file:  "2-methylpentane.chk"
 Charge =  0 Multiplicity = 1

                         Standard orientation:
 ---------------------------------------------------------------------
 Center     Atomic      Atomic             Coordinates (Angstroms)
 Number     Number       Type             X           Y           Z
 ---------------------------------------------------------------------
      1          6           0        2.838715   -0.210284    0.151499
      2          6           0       -1.452331    1.374908    0.194977
      3          6           0       -2.150229   -1.037838    0.031809
      4          6           0        1.495560    0.356257   -0.307569
      5          6           0        0.304604   -0.477105    0.169426
      6          6           0       -1.071855   -0.012797   -0.331369
      7          1           0        2.897031   -0.252318    1.241150
      8          1           0        2.988894   -1.224454   -0.224592
      9          1           0        3.671051    0.400513   -0.201048
     10          1           0       -0.743775    2.142198   -0.116896
     11          1           0       -1.487672    1.377435    1.287781
     12          1           0       -2.438033    1.672153   -0.167266
     13          1           0       -2.241995   -1.138272    1.116369
     14          1           0       -3.126439   -0.741164   -0.355760
     15          1           0       -1.914534   -2.023603   -0.373148
     16          1           0        1.400426    1.383805    0.050622
     17          1           0        1.479386    0.411612   -1.400581
     18          1           0        0.457236   -1.513257   -0.149856
     19          1           0        0.293963   -0.498723    1.265583
     20          1           0       -1.022318    0.045239   -1.424998
 ---------------------------------------------------------------------

 SCF Done:  E(RHF) =  -235.468566726     A.U. after    2 cycles

 The electronic state is 1-A.
 Alpha  occ. eigenvalues --  -11.22994 -11.22321 -11.21996 -11.21902 -11.21702
 Alpha  occ. eigenvalues --  -11.21675  -1.08334  -1.02127  -0.92265  -0.91469
 Alpha  occ. eigenvalues --   -0.81064  -0.76180  -0.64413  -0.61047  -0.60344
 Alpha  occ. eigenvalues --   -0.57565  -0.55182  -0.53367  -0.52900  -0.51135
 Alpha  occ. eigenvalues --   -0.49095  -0.47433  -0.45550  -0.45097  -0.44317
 Alpha virt. eigenvalues --    0.03589   0.04210   0.04548   0.04657   0.06257
 Alpha virt. eigenvalues --    0.06332   0.06599   0.06887   0.07387   0.08567
 Alpha virt. eigenvalues --    0.09179   0.09516   0.09725   0.11345   0.13283

 Mulliken charges:
               1
     1  C    0.537437
     2  C    0.743367
     3  C    0.858731
     4  C    0.159265
     5  C    0.436811
     6  C   -1.274346
     7  H   -0.068198
     8  H   -0.087933
     9  H   -0.064664
    10  H   -0.114499
    11  H   -0.028898
    12  H   -0.084602
    13  H   -0.011193
    14  H   -0.058707
    15  H   -0.089869
    16  H   -0.177892
    17  H   -0.145488
    18  H   -0.170236
    19  H   -0.169387
    20  H   -0.189702
 Sum of Mulliken charges =  -0.00000

 Dipole moment (field-independent basis, Debye):
    X=              0.0185    Y=              0.0422    Z=             -0.1246  Tot=              0.1328

 Test job not archived.
 1\1\GINC-SE050\SP\RHF\Aug-CC-pVDZ\C6H14\OHZDE\05-Apr-2025\0\\#t hf aug
 -cc-pvdz iop(5/13=1,5/36=2,99/5=2) pseudo=read geom=check guess=(read,
 tcheck) scf=(maxcycle=1)\\title\\0,1\C,0,2.838715,-0.210284,0.151499\C
 ,0,-1.452331,1.374908,0.194977\C,0,-2.150229,-1.037838,0.031809\C,0,1.
 49556,0.356257,-0.307569\C,0,0.304604,-0.477105,0.169426\C,0,-1.071855
 ,-0.012797,-0.331369\H,0,2.897031,-0.252318,1.24115\H,0,2.988894,-1.22
 4454,-0.224592\H,0,3.671051,0.400513,-0.201048\H,0,-0.743775,2.142198,
 -0.116896\H,0,-1.487672,1.377435,1.287781\H,0,-2.438033,1.672153,-0.16

 Normal termination of Gaussian 16 at Sat Apr  5 22:32:21 2025.
