 Gaussian 16, Revision C.01,

 ----------------------------------------------------------------------
 #t hf aug-cc-pvdz symm=none int=(grid=ultrafine) guess=(read,tcheck) s
 table=(opt,rrhf)
 ----------------------------------------------------------------------
 -----
 title
 -----
 Symbolic Z-matrix:
 Charge =  0 Multiplicity = 1

 SCF Done:  E(RHF) =  -193.981971304     A.U. after   13 cycles
 Normal termination of Gaussian 16 at Sat Apr  5 22:28:19 2025.
 Gaussian 16:  ES64L-G16RevC.01  3-Jul-2019

 ----------------------------------------------------------------------
 #t hf aug-cc-pvdz iop(5/13=1,5/36=2,99/5=2) pseudo=read geom=check gue
 ss=(read,tcheck) scf=(maxcycle=1)
 ----------------------------------------------------------------------
 -----
 title
 -----
 Structure from the checkpoint file:  "2-methyl-1-3-butadiene.chk"
 Charge =  0 Multiplicity = 1

                         Standard orientation:
 ---------------------------------------------------------------------
 Center     Atomic      Atomic             Coordinates (Angstroms)
 Number     Number       Type             X           Y           Z
 ---------------------------------------------------------------------
      1          6           0       -0.370784   -1.943846    0.000000
      2          6           0       -0.590876    1.724659    0.000000
      3          6           0       -0.821447   -0.687962    0.000000
      4          6           0        0.000000    0.523640    0.000000
      5          6           0        1.497508    0.383184    0.000000
      6          1           0       -1.054523   -2.781159    0.000000
      7          1           0        0.684570   -2.180530    0.000000
      8          1           0       -0.016812    2.641330    0.000000
      9          1           0       -1.668879    1.820992    0.000000
     10          1           0       -1.893631   -0.520009    0.000000
     11          1           0        1.840844   -0.168419    0.877918
     12          1           0        1.981179    1.358162    0.000000
     13          1           0        1.840844   -0.168419   -0.877918
 ---------------------------------------------------------------------

 SCF Done:  E(RHF) =  -194.044281206     A.U. after    2 cycles

 The electronic state is 1-A'.
 Alpha  occ. eigenvalues --  -11.25305 -11.24600 -11.23686 -11.23240 -11.23190
 Alpha  occ. eigenvalues --   -1.10174  -1.00606  -0.93781  -0.82172  -0.71979
 Alpha  occ. eigenvalues --   -0.65583  -0.63645  -0.57673  -0.56324  -0.54704
 Alpha  occ. eigenvalues --   -0.52611  -0.48595  -0.42788  -0.32476
 Alpha virt. eigenvalues --    0.03607   0.04218   0.04557   0.05951   0.06113
 Alpha virt. eigenvalues --    0.06288   0.08517   0.08894   0.09578   0.10924
 Alpha virt. eigenvalues --    0.11482   0.13782   0.14541   0.14698   0.15910

 Mulliken charges:
               1
     1  C    0.551128
     2  C    1.069514
     3  C    0.465632
     4  C   -0.377401
     5  C    0.272390
     6  H   -0.340756
     7  H   -0.381467
     8  H   -0.393721
     9  H   -0.399283
    10  H   -0.524438
    11  H    0.141269
    12  H   -0.224136
    13  H    0.141269
 Sum of Mulliken charges =  -0.00000

 Dipole moment (field-independent basis, Debye):
    X=              0.2752    Y=             -0.0245    Z=             -0.0000  Tot=              0.2763

 Test job not archived.
 1\1\GINC-SE188\SP\RHF\Aug-CC-pVDZ\C5H8\OHZDE\05-Apr-2025\0\\#t hf aug-
 cc-pvdz iop(5/13=1,5/36=2,99/5=2) pseudo=read geom=check guess=(read,t
 check) scf=(maxcycle=1)\\title\\0,1\C,0,-0.370784,-1.943846,0.\C,0,-0.
 590876,1.724659,0.\C,0,-0.821447,-0.687962,0.\C,0,0.,0.52364,0.\C,0,1.
 497508,0.383184,0.\H,0,-1.054523,-2.781159,0.\H,0,0.68457,-2.18053,0.\
 H,0,-0.016812,2.64133,0.\H,0,-1.668879,1.820992,0.\H,0,-1.893631,-0.52
 0009,0.\H,0,1.840844,-0.168419,0.877918\H,0,1.981179,1.358162,0.\H,0,1
 .840844,-0.168419,-0.877918\\Version=ES64L-G16RevC.01\State=1-A'\HF=-1

 Normal termination of Gaussian 16 at Sat Apr  5 22:29:02 2025.
