 Gaussian 16, Revision C.01,

 ----------------------------------------------------------------------
 #t hf aug-cc-pvdz symm=none int=(grid=ultrafine) guess=(read,tcheck) s
 table=(opt,rrhf)
 ----------------------------------------------------------------------
 -----
 title
 -----
 Symbolic Z-matrix:
 Charge =  0 Multiplicity = 1

 SCF Done:  E(RHF) =  -212.354594725     A.U. after   12 cycles

 1\1\GINC-SE210\Stability\RHF\Aug-CC-pVDZ\C4H11N1\OHZDE\05-Apr-2025\0\\
 #t hf aug-cc-pvdz symm=none int=(grid=ultrafine) guess=(read,tcheck) s
 table=(opt,rrhf)\\title\\0,1\N,0,0.544724,1.387269,0.\H,0,0.216989,1.8
 95686,0.813925\H,0,0.216989,1.895686,-0.813925\C,0,-1.527556,-0.018978
 ,0.\H,0,-1.923151,0.487103,0.883105\H,0,-1.923151,0.487103,-0.883105\H
 ,0,-1.91004,-1.041945,0.\C,0,0.544724,-0.686055,1.255867\H,0,1.634333,
 -0.676871,1.262856\H,0,0.196491,-0.179088,2.158818\H,0,0.203288,-1.720
 826,1.303577\C,0,0.01162,0.01093,0.\C,0,0.544724,-0.686055,-1.255867\H

 Normal termination of Gaussian 16 at Sat Apr  5 22:28:31 2025.
 Gaussian 16:  ES64L-G16RevC.01  3-Jul-2019

 ----------------------------------------------------------------------
 #t hf aug-cc-pvdz iop(5/13=1,5/36=2,99/5=2) pseudo=read geom=check gue
 ss=(read,tcheck) scf=(maxcycle=1)
 ----------------------------------------------------------------------
 -----
 title
 -----
 Structure from the checkpoint file:  "2-methyl-2-propanamine.chk"
 Charge =  0 Multiplicity = 1

                         Standard orientation:
 ---------------------------------------------------------------------
 Center     Atomic      Atomic             Coordinates (Angstroms)
 Number     Number       Type             X           Y           Z
 ---------------------------------------------------------------------
      1          7           0        0.544724    1.387269   -0.000000
      2          1           0        0.216989    1.895686    0.813925
      3          1           0        0.216989    1.895686   -0.813925
      4          6           0       -1.527556   -0.018978    0.000000
      5          1           0       -1.923151    0.487103    0.883105
      6          1           0       -1.923151    0.487103   -0.883105
      7          1           0       -1.910040   -1.041945    0.000000
      8          6           0        0.544724   -0.686055    1.255867
      9          1           0        1.634333   -0.676871    1.262856
     10          1           0        0.196491   -0.179088    2.158818
     11          1           0        0.203288   -1.720826    1.303577
     12          6           0        0.011620    0.010930   -0.000000
     13          6           0        0.544724   -0.686055   -1.255867
     14          1           0        1.634333   -0.676871   -1.262856
     15          1           0        0.203288   -1.720826   -1.303577
     16          1           0        0.196491   -0.179088   -2.158818
 ---------------------------------------------------------------------

 SCF Done:  E(RHF) =  -212.422636073     A.U. after    2 cycles

 The electronic state is 1-A'.
 Alpha  occ. eigenvalues --  -15.59848 -11.26820 -11.22059 -11.21765 -11.21758
 Alpha  occ. eigenvalues --   -1.16067  -1.01514  -0.92951  -0.92945  -0.75042
 Alpha  occ. eigenvalues --   -0.65479  -0.63000  -0.60509  -0.57734  -0.54816
 Alpha  occ. eigenvalues --   -0.52910  -0.51424  -0.50178  -0.47543  -0.46423
 Alpha  occ. eigenvalues --   -0.38056
 Alpha virt. eigenvalues --    0.03413   0.04496   0.04551   0.04928   0.06999
 Alpha virt. eigenvalues --    0.07157   0.07323   0.07485   0.07765   0.09453
 Alpha virt. eigenvalues --    0.09782   0.12312   0.14628   0.14680   0.15525

 Mulliken charges:
               1
     1  N    0.014418
     2  H   -0.012191
     3  H   -0.012191
     4  C    1.283860
     5  H   -0.034790
     6  H   -0.034790
     7  H    0.004335
     8  C    1.244914
     9  H    0.010132
    10  H   -0.066659
    11  H    0.013695
    12  C   -3.612817
    13  C    1.244914
    14  H    0.010132
    15  H    0.013695
    16  H   -0.066659
 Sum of Mulliken charges =  -0.00000

 Dipole moment (field-independent basis, Debye):
    X=             -1.2594    Y=             -0.0022    Z=              0.0000  Tot=              1.2594

 Test job not archived.
 1\1\GINC-SE210\SP\RHF\Aug-CC-pVDZ\C4H11N1\OHZDE\05-Apr-2025\0\\#t hf a
 ug-cc-pvdz iop(5/13=1,5/36=2,99/5=2) pseudo=read geom=check guess=(rea
 d,tcheck) scf=(maxcycle=1)\\title\\0,1\N,0,0.544724,1.387269,0.\H,0,0.
 216989,1.895686,0.813925\H,0,0.216989,1.895686,-0.813925\C,0,-1.527556
 ,-0.018978,0.\H,0,-1.923151,0.487103,0.883105\H,0,-1.923151,0.487103,-
 0.883105\H,0,-1.91004,-1.041945,0.\C,0,0.544724,-0.686055,1.255867\H,0
 ,1.634333,-0.676871,1.262856\H,0,0.196491,-0.179088,2.158818\H,0,0.203
 288,-1.720826,1.303577\C,0,0.01162,0.01093,0.\C,0,0.544724,-0.686055,-

 Normal termination of Gaussian 16 at Sat Apr  5 22:29:02 2025.
