 Gaussian 16, Revision C.01,

 ----------------------------------------------------------------------
 #t hf aug-cc-pvdz symm=none int=(grid=ultrafine) guess=(read,tcheck) s
 table=(opt,rrhf)
 ----------------------------------------------------------------------
 -----
 title
 -----
 Symbolic Z-matrix:
 Charge =  0 Multiplicity = 1

 SCF Done:  E(RHF) =  -267.701478487     A.U. after   14 cycles
 Normal termination of Gaussian 16 at Sat Apr  5 22:29:34 2025.
 Gaussian 16:  ES64L-G16RevC.01  3-Jul-2019

 ----------------------------------------------------------------------
 #t hf aug-cc-pvdz iop(5/13=1,5/36=2,99/5=2) pseudo=read geom=check gue
 ss=(read,tcheck) scf=(maxcycle=1)
 ----------------------------------------------------------------------
 -----
 title
 -----
 Structure from the checkpoint file:  "2-methylfuran.chk"
 Charge =  0 Multiplicity = 1

                         Standard orientation:
 ---------------------------------------------------------------------
 Center     Atomic      Atomic             Coordinates (Angstroms)
 Number     Number       Type             X           Y           Z
 ---------------------------------------------------------------------
      1          8           0        1.035246   -0.245795    0.000000
      2          6           0        0.000000    0.646987    0.000000
      3          6           0        0.492364   -1.497390    0.000000
      4          6           0       -1.179136   -0.026476    0.000000
      5          6           0       -0.858244   -1.422573    0.000000
      6          6           0        0.358496    2.086650    0.000000
      7          1           0        1.190884   -2.314077    0.000000
      8          1           0       -2.160525    0.415739    0.000000
      9          1           0       -1.544479   -2.251632    0.000000
     10          1           0       -0.545250    2.693073    0.000000
     11          1           0        0.948262    2.350033    0.880725
     12          1           0        0.948262    2.350033   -0.880725
 ---------------------------------------------------------------------

 SCF Done:  E(RHF) =  -267.786319769     A.U. after    2 cycles

 The electronic state is 1-A'.
 Alpha  occ. eigenvalues --  -20.62890 -11.30045 -11.29151 -11.24422 -11.23513
 Alpha  occ. eigenvalues --  -11.22976  -1.41251  -1.07399  -1.04421  -0.93197
 Alpha  occ. eigenvalues --   -0.81236  -0.76490  -0.71503  -0.65283  -0.61135
 Alpha  occ. eigenvalues --   -0.56959  -0.56909  -0.56678  -0.56262  -0.52748
 Alpha  occ. eigenvalues --   -0.40095  -0.31057
 Alpha virt. eigenvalues --    0.03517   0.04064   0.04497   0.05749   0.06165
 Alpha virt. eigenvalues --    0.06932   0.10425   0.11071   0.11922   0.12527
 Alpha virt. eigenvalues --    0.13320   0.14012   0.14859   0.15366   0.16137

 Mulliken charges:
               1
     1  O   -0.576241
     2  C   -0.482641
     3  C    0.651580
     4  C    0.679587
     5  C    0.325911
     6  C    0.320853
     7  H   -0.340697
     8  H   -0.364170
     9  H   -0.310788
    10  H   -0.011690
    11  H    0.054147
    12  H    0.054147
 Sum of Mulliken charges =   0.00000

 Dipole moment (field-independent basis, Debye):
    X=             -0.7587    Y=              0.3800    Z=              0.0000  Tot=              0.8485

 Test job not archived.
 1\1\GINC-SE115\SP\RHF\Aug-CC-pVDZ\C5H6O1\OHZDE\05-Apr-2025\0\\#t hf au
 g-cc-pvdz iop(5/13=1,5/36=2,99/5=2) pseudo=read geom=check guess=(read
 ,tcheck) scf=(maxcycle=1)\\title\\0,1\O,0,1.035246,-0.245795,0.\C,0,0.
 ,0.646987,0.\C,0,0.492364,-1.49739,0.\C,0,-1.179136,-0.026476,0.\C,0,-
 0.858244,-1.422573,0.\C,0,0.358496,2.08665,0.\H,0,1.190884,-2.314077,0
 .\H,0,-2.160525,0.415739,0.\H,0,-1.544479,-2.251632,0.\H,0,-0.54525,2.
 693073,0.\H,0,0.948262,2.350033,0.880725\H,0,0.948262,2.350033,-0.8807
 25\\Version=ES64L-G16RevC.01\State=1-A'\HF=-267.7863198\RMSD=8.662e-03

 Normal termination of Gaussian 16 at Sat Apr  5 22:29:39 2025.
