 Gaussian 16, Revision C.01,

 ----------------------------------------------------------------------
 #t hf aug-cc-pvdz symm=none int=(grid=ultrafine) guess=(read,tcheck) s
 table=(opt,rrhf)
 ----------------------------------------------------------------------
 -----
 title
 -----
 Symbolic Z-matrix:
 Charge =  0 Multiplicity = 1

 SCF Done:  E(RHF) =  -195.167457114     A.U. after   13 cycles
 Normal termination of Gaussian 16 at Sat Apr  5 22:28:22 2025.
 Gaussian 16:  ES64L-G16RevC.01  3-Jul-2019

 ----------------------------------------------------------------------
 #t hf aug-cc-pvdz iop(5/13=1,5/36=2,99/5=2) pseudo=read geom=check gue
 ss=(read,tcheck) scf=(maxcycle=1)
 ----------------------------------------------------------------------
 -----
 title
 -----
 Structure from the checkpoint file:  "2-methyl-2-butene.chk"
 Charge =  0 Multiplicity = 1

                         Standard orientation:
 ---------------------------------------------------------------------
 Center     Atomic      Atomic             Coordinates (Angstroms)
 Number     Number       Type             X           Y           Z
 ---------------------------------------------------------------------
      1          6           0       -0.735351   -0.665405    0.000000
      2          6           0        0.000000    0.449055    0.000000
      3          6           0       -0.272212   -2.090707    0.000000
      4          6           0       -0.654331    1.805181    0.000000
      5          6           0        1.503840    0.487539    0.000000
      6          1           0       -1.815046   -0.542325    0.000000
      7          1           0        0.811162   -2.190686    0.000000
      8          1           0       -0.654736   -2.622552    0.875627
      9          1           0       -0.654736   -2.622552   -0.875627
     10          1           0       -1.741078    1.730857    0.000000
     11          1           0       -0.352201    2.386480    0.876320
     12          1           0       -0.352201    2.386480   -0.876320
     13          1           0        1.872880    1.029375   -0.875759
     14          1           0        1.872880    1.029375    0.875759
     15          1           0        1.961399   -0.498430    0.000000
 ---------------------------------------------------------------------

 SCF Done:  E(RHF) =  -195.231565973     A.U. after    2 cycles

 The electronic state is 1-A'.
 Alpha  occ. eigenvalues --  -11.23686 -11.22564 -11.22500 -11.22425 -11.22355
 Alpha  occ. eigenvalues --   -1.08548  -0.98609  -0.93462  -0.87002  -0.70365
 Alpha  occ. eigenvalues --   -0.63374  -0.59836  -0.59259  -0.55704  -0.53413
 Alpha  occ. eigenvalues --   -0.53367  -0.51879  -0.50658  -0.46753  -0.33367
 Alpha virt. eigenvalues --    0.03572   0.04353   0.04826   0.05443   0.06260
 Alpha virt. eigenvalues --    0.06822   0.06934   0.08008   0.09169   0.09524
 Alpha virt. eigenvalues --    0.11320   0.13603   0.13763   0.15078   0.15427

 Mulliken charges:
               1
     1  C    0.145830
     2  C   -0.579149
     3  C    0.213675
     4  C    0.414522
     5  C    0.381838
     6  H   -0.494828
     7  H   -0.151590
     8  H    0.086741
     9  H    0.086741
    10  H   -0.202152
    11  H    0.031791
    12  H    0.031791
    13  H    0.094532
    14  H    0.094532
    15  H   -0.154276
 Sum of Mulliken charges =  -0.00000

 Dipole moment (field-independent basis, Debye):
    X=              0.2129    Y=              0.0671    Z=             -0.0000  Tot=              0.2232

 Test job not archived.
 1\1\GINC-SE199\SP\RHF\Aug-CC-pVDZ\C5H10\OHZDE\05-Apr-2025\0\\#t hf aug
 -cc-pvdz iop(5/13=1,5/36=2,99/5=2) pseudo=read geom=check guess=(read,
 tcheck) scf=(maxcycle=1)\\title\\0,1\C,0,-0.735351,-0.665405,0.\C,0,0.
 ,0.449055,0.\C,0,-0.272212,-2.090707,0.\C,0,-0.654331,1.805181,0.\C,0,
 1.50384,0.487539,0.\H,0,-1.815046,-0.542325,0.\H,0,0.811162,-2.190686,
 0.\H,0,-0.654737,-2.622552,0.875627\H,0,-0.654737,-2.622552,-0.875627\
 H,0,-1.741078,1.730857,0.\H,0,-0.352201,2.38648,0.87632\H,0,-0.352201,
 2.38648,-0.87632\H,0,1.87288,1.029375,-0.875759\H,0,1.87288,1.029375,0

 Normal termination of Gaussian 16 at Sat Apr  5 22:29:02 2025.
