 Gaussian 16, Revision C.01,

 ----------------------------------------------------------------------
 #t hf aug-cc-pvdz symm=none int=(grid=ultrafine) guess=(read,tcheck) s
 table=(opt,rrhf)
 ----------------------------------------------------------------------
 -----
 title
 -----
 Symbolic Z-matrix:
 Charge =  0 Multiplicity = 1

 SCF Done:  E(RHF) =  -554.849194926     A.U. after   13 cycles

 1\1\GINC-SE045\Stability\RHF\Aug-CC-pVDZ\C4H10S1\OHZDE\05-Apr-2025\0\\
 #t hf aug-cc-pvdz symm=none int=(grid=ultrafine) guess=(read,tcheck) s
 table=(opt,rrhf)\\title\\0,1\C,0,0.836982,-0.734002,1.259163\C,0,0.836
 982,-0.734002,-1.259163\C,0,0.836982,1.444049,0.\C,0,0.356343,-0.01036
 6,0.\S,0,-1.509289,0.094963,0.\H,0,0.477461,-1.763198,1.286405\H,0,1.9
 29912,-0.76142,1.279568\H,0,0.489091,-0.229768,2.159568\H,0,0.489091,-
 0.229768,-2.159568\H,0,0.477461,-1.763198,-1.286405\H,0,1.929912,-0.76
 142,-1.279568\H,0,0.487296,1.977794,0.88398\H,0,1.928534,1.468659,0.\H

 Normal termination of Gaussian 16 at Sat Apr  5 22:29:22 2025.
 Gaussian 16:  ES64L-G16RevC.01  3-Jul-2019

 ----------------------------------------------------------------------
 #t hf aug-cc-pvdz iop(5/13=1,5/36=2,99/5=2) pseudo=read geom=check gue
 ss=(read,tcheck) scf=(maxcycle=1)
 ----------------------------------------------------------------------
 -----
 title
 -----
 Structure from the checkpoint file:  "2-methyl-2-propanethiol.chk"
 Charge =  0 Multiplicity = 1

                         Standard orientation:
 ---------------------------------------------------------------------
 Center     Atomic      Atomic             Coordinates (Angstroms)
 Number     Number       Type             X           Y           Z
 ---------------------------------------------------------------------
      1          6           0        0.836982   -0.734002    1.259163
      2          6           0        0.836982   -0.734002   -1.259163
      3          6           0        0.836982    1.444049    0.000000
      4          6           0        0.356343   -0.010366    0.000000
      5         16           0       -1.509289    0.094963    0.000000
      6          1           0        0.477461   -1.763198    1.286405
      7          1           0        1.929912   -0.761420    1.279568
      8          1           0        0.489091   -0.229768    2.159568
      9          1           0        0.489091   -0.229768   -2.159568
     10          1           0        0.477461   -1.763198   -1.286405
     11          1           0        1.929912   -0.761420   -1.279568
     12          1           0        0.487296    1.977794    0.883980
     13          1           0        1.928534    1.468659    0.000000
     14          1           0        0.487296    1.977794   -0.883980
     15          1           0       -1.751158   -1.228962    0.000000
 ---------------------------------------------------------------------

 SCF Done:  E(RHF) =  -554.919001714     A.U. after    2 cycles

 The electronic state is 1-A'.
 Alpha  occ. eigenvalues --  -93.52402 -11.28587 -11.23377 -11.23234 -11.23225
 Alpha  occ. eigenvalues --   -8.82149  -6.16337  -6.16103  -6.15787  -1.10540
 Alpha  occ. eigenvalues --   -0.94231  -0.94079  -0.92721  -0.74322  -0.63052
 Alpha  occ. eigenvalues --   -0.61495  -0.61391  -0.56038  -0.55398  -0.52665
 Alpha  occ. eigenvalues --   -0.50702  -0.48797  -0.47894  -0.42426  -0.35025
 Alpha virt. eigenvalues --    0.03395   0.04647   0.04944   0.05258   0.06869
 Alpha virt. eigenvalues --    0.06995   0.07098   0.07590   0.07766   0.09409
 Alpha virt. eigenvalues --    0.11170   0.12174   0.13845   0.13922   0.15282

 Mulliken charges:
               1
     1  C    0.946627
     2  C    0.946627
     3  C    0.938772
     4  C   -2.733491
     5  S    0.256687
     6  H   -0.101790
     7  H   -0.002517
     8  H   -0.035749
     9  H   -0.035749
    10  H   -0.101790
    11  H   -0.002517
    12  H   -0.059760
    13  H    0.001929
    14  H   -0.059760
    15  H    0.042480
 Sum of Mulliken charges =  -0.00000

 Dipole moment (field-independent basis, Debye):
    X=              1.7279    Y=             -0.7388    Z=             -0.0000  Tot=              1.8792

 Test job not archived.
 1\1\GINC-SE045\SP\RHF\Aug-CC-pVDZ\C4H10S1\OHZDE\05-Apr-2025\0\\#t hf a
 ug-cc-pvdz iop(5/13=1,5/36=2,99/5=2) pseudo=read geom=check guess=(rea
 d,tcheck) scf=(maxcycle=1)\\title\\0,1\C,0,0.836982,-0.734002,1.259163
 \C,0,0.836982,-0.734002,-1.259163\C,0,0.836982,1.444049,0.\C,0,0.35634
 3,-0.010366,0.\S,0,-1.509289,0.094963,0.\H,0,0.477461,-1.763198,1.2864
 05\H,0,1.929912,-0.76142,1.279568\H,0,0.489091,-0.229768,2.159568\H,0,
 0.489091,-0.229768,-2.159568\H,0,0.477461,-1.763198,-1.286405\H,0,1.92
 9912,-0.76142,-1.279568\H,0,0.487296,1.977794,0.88398\H,0,1.928534,1.4

 Normal termination of Gaussian 16 at Sat Apr  5 22:29:27 2025.
