 Gaussian 16, Revision C.01,

 ----------------------------------------------------------------------
 #t hf aug-cc-pvdz symm=none int=(grid=ultrafine) guess=(read,tcheck) s
 table=(opt,rrhf)
 ----------------------------------------------------------------------
 -----
 title
 -----
 Symbolic Z-matrix:
 Charge =  0 Multiplicity = 1

 SCF Done:  E(RHF) =  -192.769370609     A.U. after   15 cycles
 Normal termination of Gaussian 16 at Sat Apr  5 22:28:12 2025.
 Gaussian 16:  ES64L-G16RevC.01  3-Jul-2019

 ----------------------------------------------------------------------
 #t hf aug-cc-pvdz iop(5/13=1,5/36=2,99/5=2) pseudo=read geom=check gue
 ss=(read,tcheck) scf=(maxcycle=1)
 ----------------------------------------------------------------------
 -----
 title
 -----
 Structure from the checkpoint file:  "2-methyl-1-buten-3-yne.chk"
 Charge =  0 Multiplicity = 1

                         Standard orientation:
 ---------------------------------------------------------------------
 Center     Atomic      Atomic             Coordinates (Angstroms)
 Number     Number       Type             X           Y           Z
 ---------------------------------------------------------------------
      1          6           0       -1.467731    0.790367    0.000000
      2          1           0       -1.610102    1.869749    0.000000
      3          1           0       -1.963613    0.371038    0.877295
      4          1           0       -1.963613    0.371038   -0.877295
      5          6           0        0.530643   -2.135031    0.000000
      6          1           0        0.736992   -3.175778    0.000000
      7          6           0        0.314957   -0.952176    0.000000
      8          6           0        0.000000    0.441174    0.000000
      9          6           0        0.966097    1.364809    0.000000
     10          1           0        2.010863    1.089814    0.000000
     11          1           0        0.725678    2.419275    0.000000
 ---------------------------------------------------------------------

 SCF Done:  E(RHF) =  -192.832040220     A.U. after    2 cycles

 The electronic state is 1-A'.
 Alpha  occ. eigenvalues --  -11.27523 -11.24961 -11.24597 -11.24163 -11.24074
 Alpha  occ. eigenvalues --   -1.10436  -1.00840  -0.94437  -0.82411  -0.71389
 Alpha  occ. eigenvalues --   -0.66509  -0.61596  -0.58390  -0.54900  -0.52600
 Alpha  occ. eigenvalues --   -0.45079  -0.39979  -0.34211
 Alpha virt. eigenvalues --    0.03547   0.04091   0.04812   0.05869   0.05991
 Alpha virt. eigenvalues --    0.07468   0.08950   0.10380   0.11546   0.11902
 Alpha virt. eigenvalues --    0.12201   0.14968   0.15040   0.15132   0.16714

 Mulliken charges:
               1
     1  C    0.154729
     2  H   -0.123324
     3  H    0.129520
     4  H    0.129520
     5  C    0.654833
     6  H   -0.479393
     7  C   -0.464262
     8  C   -0.251196
     9  C    0.973414
    10  H   -0.380284
    11  H   -0.343558
 Sum of Mulliken charges =   0.00000

 Dipole moment (field-independent basis, Debye):
    X=             -0.3355    Y=              0.4351    Z=             -0.0000  Tot=              0.5494

 Test job not archived.
 1\1\GINC-SE046\SP\RHF\Aug-CC-pVDZ\C5H6\OHZDE\05-Apr-2025\0\\#t hf aug-
 cc-pvdz iop(5/13=1,5/36=2,99/5=2) pseudo=read geom=check guess=(read,t
 check) scf=(maxcycle=1)\\title\\0,1\C,0,-1.467731,0.790367,0.\H,0,-1.6
 10102,1.869749,0.\H,0,-1.963613,0.371038,0.877295\H,0,-1.963613,0.3710
 38,-0.877295\C,0,0.530643,-2.135031,0.\H,0,0.736992,-3.175778,0.\C,0,0
 .314957,-0.952176,0.\C,0,0.,0.441174,0.\C,0,0.966097,1.364809,0.\H,0,2
 .010863,1.089814,0.\H,0,0.725678,2.419275,0.\\Version=ES64L-G16RevC.01
 \State=1-A'\HF=-192.8320402\RMSD=8.266e-03\Dipole=-0.131994,0.1711927,

 Normal termination of Gaussian 16 at Sat Apr  5 22:29:02 2025.
