 Gaussian 16, Revision C.01,

 ----------------------------------------------------------------------
 #t hf aug-cc-pvdz symm=none int=(grid=ultrafine) guess=(read,tcheck) s
 table=(opt,rrhf)
 ----------------------------------------------------------------------
 -----
 title
 -----
 Symbolic Z-matrix:
 Charge =  0 Multiplicity = 1

 SCF Done:  E(RHF) =  -419.497847687     A.U. after   15 cycles
 Normal termination of Gaussian 16 at Sat Apr  5 22:29:09 2025.
 Gaussian 16:  ES64L-G16RevC.01  3-Jul-2019

 ----------------------------------------------------------------------
 #t hf aug-cc-pvdz iop(5/13=1,5/36=2,99/5=2) pseudo=read geom=check gue
 ss=(read,tcheck) scf=(maxcycle=1)
 ----------------------------------------------------------------------
 -----
 title
 -----
 Structure from the checkpoint file:  "2-methoxyphenol.chk"
 Charge =  0 Multiplicity = 1

                         Standard orientation:
 ---------------------------------------------------------------------
 Center     Atomic      Atomic             Coordinates (Angstroms)
 Number     Number       Type             X           Y           Z
 ---------------------------------------------------------------------
      1          6           0       -0.983062   -2.154025    0.000000
      2          6           0       -1.860094   -1.080555    0.000000
      3          6           0        0.392477   -1.934250    0.000000
      4          6           0       -1.369349    0.225898    0.000000
      5          6           0        0.887643   -0.641461    0.000000
      6          6           0        0.000000    0.446658    0.000000
      7          6           0       -0.195214    2.837494    0.000000
      8          8           0        2.233459   -0.428850    0.000000
      9          8           0        0.616159    1.672471    0.000000
     10          1           0       -1.361602   -3.166654    0.000000
     11          1           0       -2.928255   -1.246184    0.000000
     12          1           0        1.093761   -2.757095    0.000000
     13          1           0       -2.058350    1.057052    0.000000
     14          1           0       -0.824743    2.879274    0.891811
     15          1           0       -0.824743    2.879274   -0.891811
     16          1           0        0.488417    3.681876    0.000000
     17          1           0        2.384168    0.524940    0.000000
 ---------------------------------------------------------------------

 SCF Done:  E(RHF) =  -419.628384826     A.U. after    2 cycles

 The electronic state is 1-A'.
 Alpha  occ. eigenvalues --  -20.61137 -20.59501 -11.30906 -11.30607 -11.30544
 Alpha  occ. eigenvalues --  -11.24742 -11.24082 -11.23960 -11.23827  -1.38713
 Alpha  occ. eigenvalues --   -1.35128  -1.13868  -1.02164  -1.01002  -0.95128
 Alpha  occ. eigenvalues --   -0.83513  -0.83169  -0.75807  -0.71769  -0.68720
 Alpha  occ. eigenvalues --   -0.67921  -0.63956  -0.62719  -0.60692  -0.59896
 Alpha  occ. eigenvalues --   -0.57882  -0.54887  -0.52458  -0.51745  -0.50282
 Alpha  occ. eigenvalues --   -0.47665  -0.33838  -0.30951
 Alpha virt. eigenvalues --    0.03063   0.03923   0.04393   0.05565   0.05706
 Alpha virt. eigenvalues --    0.05757   0.07362   0.08668   0.09861   0.11270
 Alpha virt. eigenvalues --    0.12417   0.13036   0.13244   0.13397   0.13951

 Mulliken charges:
               1
     1  C    0.470193
     2  C    0.498087
     3  C    1.083678
     4  C    0.426138
     5  C   -0.242817
     6  C    0.744444
     7  C    0.837304
     8  O   -0.584702
     9  O   -0.759402
    10  H   -0.451211
    11  H   -0.450118
    12  H   -0.500995
    13  H   -0.735304
    14  H   -0.086663
    15  H   -0.086663
    16  H   -0.311517
    17  H    0.149547
 Sum of Mulliken charges =   0.00000

 Dipole moment (field-independent basis, Debye):
    X=             -1.8597    Y=              2.3011    Z=              0.0000  Tot=              2.9587

 Test job not archived.
 1\1\GINC-SE168\SP\RHF\Aug-CC-pVDZ\C7H8O2\OHZDE\05-Apr-2025\0\\#t hf au
 g-cc-pvdz iop(5/13=1,5/36=2,99/5=2) pseudo=read geom=check guess=(read
 ,tcheck) scf=(maxcycle=1)\\title\\0,1\C,0,-0.983062,-2.154025,0.\C,0,-
 1.860094,-1.080555,0.\C,0,0.392477,-1.93425,0.\C,0,-1.369349,0.225898,
 0.\C,0,0.887643,-0.641461,0.\C,0,0.,0.446658,0.\C,0,-0.195214,2.837494
 ,0.\O,0,2.233459,-0.42885,0.\O,0,0.616159,1.672471,0.\H,0,-1.361602,-3
 .166654,0.\H,0,-2.928255,-1.246184,0.\H,0,1.093761,-2.757095,0.\H,0,-2
 .05835,1.057052,0.\H,0,-0.824743,2.879274,0.891811\H,0,-0.824743,2.879

 Normal termination of Gaussian 16 at Sat Apr  5 22:29:29 2025.
