 Gaussian 16, Revision C.01,

 ----------------------------------------------------------------------
 #t hf aug-cc-pvdz symm=none int=(grid=ultrafine) guess=(read,tcheck) s
 table=(opt,rrhf)
 ----------------------------------------------------------------------
 -----
 title
 -----
 Symbolic Z-matrix:
 Charge =  0 Multiplicity = 1

 SCF Done:  E(RHF) =  -704.516524495     A.U. after   13 cycles
 Normal termination of Gaussian 16 at Sat Apr  5 22:31:12 2025.
 Gaussian 16:  ES64L-G16RevC.01  3-Jul-2019

 ----------------------------------------------------------------------
 #t hf aug-cc-pvdz iop(5/13=1,5/36=2,99/5=2) pseudo=read geom=check gue
 ss=(read,tcheck) scf=(maxcycle=1)
 ----------------------------------------------------------------------
 -----
 title
 -----
 Structure from the checkpoint file:  "2-methylsulphonylpropane.chk"
 Charge =  0 Multiplicity = 1

                         Standard orientation:
 ---------------------------------------------------------------------
 Center     Atomic      Atomic             Coordinates (Angstroms)
 Number     Number       Type             X           Y           Z
 ---------------------------------------------------------------------
      1          6           0        1.914502   -1.078827   -0.104407
      2          6           0        1.061527    0.128342   -0.489304
      3          6           0        1.601028    1.440504    0.068529
      4         16           0       -0.649449   -0.198934    0.095737
      5          6           0       -1.646361    1.149605   -0.566671
      6          8           0       -1.109835   -1.428241   -0.547411
      7          8           0       -0.671628   -0.094970    1.553917
      8          1           0        1.500968   -2.001807   -0.504676
      9          1           0        2.919668   -0.945748   -0.505540
     10          1           0        1.988659   -1.170348    0.978888
     11          1           0        0.955561    0.177066   -1.574814
     12          1           0        2.625980    1.581977   -0.276903
     13          1           0        1.023347    2.303886   -0.259803
     14          1           0        1.607003    1.421611    1.157570
     15          1           0       -1.554403    1.165976   -1.649467
     16          1           0       -2.667243    0.908254   -0.279320
     17          1           0       -1.340835    2.090018   -0.118649
 ---------------------------------------------------------------------

 SCF Done:  E(RHF) =  -704.684973293     A.U. after    2 cycles

 The electronic state is 1-A.
 Alpha  occ. eigenvalues --  -93.76890 -20.54898 -20.54825 -11.29584 -11.28607
 Alpha  occ. eigenvalues --  -11.25520 -11.24568  -9.03708  -6.38321  -6.38111
 Alpha  occ. eigenvalues --   -6.38040  -1.40231  -1.28869  -1.10239  -1.03008
 Alpha  occ. eigenvalues --   -0.95840  -0.88554  -0.78296  -0.70195  -0.66919
 Alpha  occ. eigenvalues --   -0.66288  -0.64726  -0.61233  -0.60358  -0.59123
 Alpha  occ. eigenvalues --   -0.56766  -0.56144  -0.52090  -0.51924  -0.50678
 Alpha  occ. eigenvalues --   -0.49450  -0.48003  -0.43346
 Alpha virt. eigenvalues --    0.02654   0.03853   0.04471   0.04886   0.06157
 Alpha virt. eigenvalues --    0.06479   0.06929   0.07649   0.08332   0.09122
 Alpha virt. eigenvalues --    0.11641   0.12337   0.13505   0.14145   0.14196

 Mulliken charges:
               1
     1  C    0.729022
     2  C   -1.394636
     3  C    0.767298
     4  S    2.450382
     5  C    0.075581
     6  O   -1.144852
     7  O   -1.167030
     8  H   -0.045478
     9  H   -0.033097
    10  H    0.018669
    11  H   -0.146806
    12  H   -0.033477
    13  H   -0.134647
    14  H    0.032720
    15  H   -0.009279
    16  H    0.036083
    17  H   -0.000452
 Sum of Mulliken charges =  -0.00000

 Dipole moment (field-independent basis, Debye):
    X=              2.2423    Y=              4.0972    Z=             -2.8941  Tot=              5.4946

 Test job not archived.
 1\1\GINC-SE040\SP\RHF\Aug-CC-pVDZ\C4H10O2S1\OHZDE\05-Apr-2025\0\\#t hf
  aug-cc-pvdz iop(5/13=1,5/36=2,99/5=2) pseudo=read geom=check guess=(r
 ead,tcheck) scf=(maxcycle=1)\\title\\0,1\C,0,1.914502,-1.078827,-0.104
 407\C,0,1.061527,0.128342,-0.489304\C,0,1.601028,1.440504,0.068529\S,0
 ,-0.649449,-0.198934,0.095737\C,0,-1.646361,1.149604,-0.566671\O,0,-1.
 109835,-1.428241,-0.547411\O,0,-0.671628,-0.09497,1.553917\H,0,1.50096
 8,-2.001807,-0.504676\H,0,2.919668,-0.945747,-0.50554\H,0,1.988659,-1.
 170348,0.978888\H,0,0.955561,0.177066,-1.574814\H,0,2.625979,1.581977,

 Normal termination of Gaussian 16 at Sat Apr  5 22:32:21 2025.
