 Gaussian 16, Revision C.01,

 ----------------------------------------------------------------------
 #t hf aug-cc-pvdz symm=none int=(grid=ultrafine) guess=(read,tcheck) s
 table=(opt,rrhf)
 ----------------------------------------------------------------------
 -----
 title
 -----
 Symbolic Z-matrix:
 Charge =  0 Multiplicity = 1

 SCF Done:  E(RHF) =  -399.665034215     A.U. after   16 cycles
 Normal termination of Gaussian 16 at Sat Apr  5 22:29:18 2025.
 Gaussian 16:  ES64L-G16RevC.01  3-Jul-2019

 ----------------------------------------------------------------------
 #t hf aug-cc-pvdz iop(5/13=1,5/36=2,99/5=2) pseudo=read geom=check gue
 ss=(read,tcheck) scf=(maxcycle=1)
 ----------------------------------------------------------------------
 -----
 title
 -----
 Structure from the checkpoint file:  "2-methoxyaniline.chk"
 Charge =  0 Multiplicity = 1

                         Standard orientation:
 ---------------------------------------------------------------------
 Center     Atomic      Atomic             Coordinates (Angstroms)
 Number     Number       Type             X           Y           Z
 ---------------------------------------------------------------------
      1          6           0       -2.271210   -0.667396    0.006455
      2          6           0       -1.340708   -1.693820    0.003564
      3          6           0       -1.847275    0.658049   -0.000251
      4          6           0        0.022067   -1.392654   -0.001131
      5          6           0       -0.492758    0.980526   -0.008667
      6          6           0        0.445302   -0.071805   -0.005646
      7          6           0        2.767671   -0.660845    0.004342
      8          7           0       -0.043263    2.295390   -0.074695
      9          8           0        1.756422    0.332204    0.000731
     10          1           0       -3.329530   -0.889156    0.012129
     11          1           0       -1.659536   -2.726611    0.006451
     12          1           0       -2.575105    1.460127   -0.006553
     13          1           0        0.743830   -2.195462    0.001739
     14          1           0        2.710088   -1.289626   -0.887662
     15          1           0        2.704278   -1.291535    0.894876
     16          1           0        3.714636   -0.127595    0.007528
     17          1           0       -0.670523    2.990656    0.293401
     18          1           0        0.914787    2.431518    0.203116
 ---------------------------------------------------------------------

 SCF Done:  E(RHF) =  -399.788104550     A.U. after    2 cycles

 The electronic state is 1-A.
 Alpha  occ. eigenvalues --  -20.59805 -15.62105 -11.29850 -11.29645 -11.28075
 Alpha  occ. eigenvalues --  -11.23843 -11.23369 -11.23163 -11.23007  -1.36747
 Alpha  occ. eigenvalues --   -1.18902  -1.11288  -1.01104  -0.98812  -0.93824
 Alpha  occ. eigenvalues --   -0.82780  -0.81063  -0.72657  -0.70227  -0.67926
 Alpha  occ. eigenvalues --   -0.66650  -0.63229  -0.62176  -0.60231  -0.58193
 Alpha  occ. eigenvalues --   -0.54568  -0.53784  -0.50876  -0.49480  -0.48519
 Alpha  occ. eigenvalues --   -0.44381  -0.32850  -0.28387
 Alpha virt. eigenvalues --    0.03317   0.03806   0.04060   0.05354   0.05728
 Alpha virt. eigenvalues --    0.05975   0.07290   0.08115   0.09237   0.11147
 Alpha virt. eigenvalues --    0.11659   0.12510   0.13423   0.13508   0.13662

 Mulliken charges:
               1
     1  C    0.332039
     2  C    0.502472
     3  C    1.176725
     4  C    0.547592
     5  C   -0.117943
     6  C    0.624983
     7  C    0.823757
     8  N   -0.298168
     9  O   -0.775251
    10  H   -0.451710
    11  H   -0.467078
    12  H   -0.576006
    13  H   -0.763136
    14  H   -0.090281
    15  H   -0.092930
    16  H   -0.315116
    17  H   -0.050614
    18  H   -0.009334
 Sum of Mulliken charges =   0.00000

 Dipole moment (field-independent basis, Debye):
    X=              1.0706    Y=             -0.2309    Z=              0.9263  Tot=              1.4344

 Test job not archived.
 1\1\GINC-SE194\SP\RHF\Aug-CC-pVDZ\C7H9N1O1\OHZDE\05-Apr-2025\0\\#t hf
 aug-cc-pvdz iop(5/13=1,5/36=2,99/5=2) pseudo=read geom=check guess=(re
 ad,tcheck) scf=(maxcycle=1)\\title\\0,1\C,0,-2.27121,-0.667396,0.00645
 5\C,0,-1.340708,-1.69382,0.003564\C,0,-1.847275,0.658049,-0.000251\C,0
 ,0.022067,-1.392654,-0.001131\C,0,-0.492758,0.980526,-0.008667\C,0,0.4
 45302,-0.071805,-0.005646\C,0,2.767671,-0.660845,0.004342\N,0,-0.04326
 3,2.29539,-0.074695\O,0,1.756422,0.332204,0.000731\H,0,-3.32953,-0.889
 156,0.012129\H,0,-1.659536,-2.726611,0.006451\H,0,-2.575105,1.460127,-

 Normal termination of Gaussian 16 at Sat Apr  5 22:29:30 2025.
