 Gaussian 16, Revision C.01,

 ----------------------------------------------------------------------
 #t hf aug-cc-pvdz symm=none int=(grid=ultrafine) guess=(read,tcheck) s
 table=(opt,rrhf)
 ----------------------------------------------------------------------
 -----
 title
 -----
 Symbolic Z-matrix:
 Charge =  0 Multiplicity = 1

 SCF Done:  E(RHF) =  -267.995601340     A.U. after   12 cycles
 Normal termination of Gaussian 16 at Sat Apr  5 22:28:18 2025.
 Gaussian 16:  ES64L-G16RevC.01  3-Jul-2019

 ----------------------------------------------------------------------
 #t hf aug-cc-pvdz iop(5/13=1,5/36=2,99/5=2) pseudo=read geom=check gue
 ss=(read,tcheck) scf=(maxcycle=1)
 ----------------------------------------------------------------------
 -----
 title
 -----
 Structure from the checkpoint file:  "2-methoxyethanol.chk"
 Charge =  0 Multiplicity = 1

                         Standard orientation:
 ---------------------------------------------------------------------
 Center     Atomic      Atomic             Coordinates (Angstroms)
 Number     Number       Type             X           Y           Z
 ---------------------------------------------------------------------
      1          6           0       -2.240901   -0.228900    0.078947
      2          6           0        1.357635    0.506201   -0.241163
      3          6           0       -0.057727    0.632576    0.286522
      4          8           0        1.985166   -0.733246    0.058970
      5          8           0       -0.911332   -0.260311   -0.393888
      6          1           0       -2.296798   -0.511289    1.137407
      7          1           0       -2.810353   -0.945359   -0.509172
      8          1           0       -2.687110    0.766333   -0.039775
      9          1           0        1.946368    1.347748    0.143838
     10          1           0        1.344535    0.574466   -1.328580
     11          1           0       -0.397375    1.669916    0.147193
     12          1           0       -0.075546    0.427374    1.368715
     13          1           0        2.031563   -0.840001    1.013883
 ---------------------------------------------------------------------

 SCF Done:  E(RHF) =  -268.084166992     A.U. after    2 cycles

 The electronic state is 1-A.
 Alpha  occ. eigenvalues --  -20.57189 -20.56954 -11.29106 -11.28727 -11.28412
 Alpha  occ. eigenvalues --   -1.34067  -1.31483  -1.01681  -0.91558  -0.84292
 Alpha  occ. eigenvalues --   -0.70460  -0.68495  -0.66875  -0.63679  -0.61228
 Alpha  occ. eigenvalues --   -0.57611  -0.54159  -0.51499  -0.48709  -0.45781
 Alpha  occ. eigenvalues --   -0.44063
 Alpha virt. eigenvalues --    0.03242   0.04416   0.04687   0.05423   0.06591
 Alpha virt. eigenvalues --    0.06801   0.07295   0.08264   0.12219   0.12441
 Alpha virt. eigenvalues --    0.14036   0.15205   0.15628   0.16142   0.16457

 Mulliken charges:
               1
     1  C    0.689447
     2  C    0.746995
     3  C    0.572781
     4  O   -0.551378
     5  O   -0.639309
     6  H   -0.069047
     7  H   -0.261794
     8  H   -0.066134
     9  H   -0.079953
    10  H   -0.155241
    11  H   -0.130951
    12  H   -0.192126
    13  H    0.136711
 Sum of Mulliken charges =   0.00000

 Dipole moment (field-independent basis, Debye):
    X=             -1.2288    Y=              2.0855    Z=              2.2357  Tot=              3.2951

 Test job not archived.
 1\1\GINC-SE169\SP\RHF\Aug-CC-pVDZ\C3H8O2\OHZDE\05-Apr-2025\0\\#t hf au
 g-cc-pvdz iop(5/13=1,5/36=2,99/5=2) pseudo=read geom=check guess=(read
 ,tcheck) scf=(maxcycle=1)\\title\\0,1\C,0,-2.240901,-0.2289,0.078947\C
 ,0,1.357635,0.506201,-0.241163\C,0,-0.057727,0.632576,0.286522\O,0,1.9
 85166,-0.733246,0.05897\O,0,-0.911332,-0.260311,-0.393888\H,0,-2.29679
 8,-0.511289,1.137407\H,0,-2.810353,-0.945359,-0.509172\H,0,-2.68711,0.
 766333,-0.039775\H,0,1.946368,1.347748,0.143838\H,0,1.344535,0.574466,
 -1.32858\H,0,-0.397375,1.669916,0.147193\H,0,-0.075546,0.427374,1.3687

 Normal termination of Gaussian 16 at Sat Apr  5 22:29:02 2025.
