 Gaussian 16, Revision C.01,

 ----------------------------------------------------------------------
 #t hf aug-cc-pvdz symm=none int=(grid=ultrafine) guess=(read,tcheck) s
 table=(opt,rrhf)
 ----------------------------------------------------------------------
 -----
 title
 -----
 Symbolic Z-matrix:
 Charge =  0 Multiplicity = 1

 SCF Done:  E(RHF) =  -267.387155176     A.U. after   12 cycles

 1\1\GINC-SE187\Stability\RHF\Aug-CC-pVDZ\C4H12N2\OHZDE\05-Apr-2025\0\\
 #t hf aug-cc-pvdz symm=none int=(grid=ultrafine) guess=(read,tcheck) s
 table=(opt,rrhf)\\title\\0,1\C,0,-0.376341,0.22036,0.\H,0,1.502631,0.8
 16125,0.875477\H,0,1.502631,0.816125,-0.875477\N,0,1.913976,-1.014914,
 0.\H,0,1.709887,-1.574258,0.817358\H,0,1.709887,-1.574258,-0.817358\N,
 0,-0.906035,1.595947,0.\H,0,-0.583445,2.106254,-0.814987\H,0,-0.583445
 ,2.106254,0.814987\C,0,1.179166,0.245313,0.\C,0,-0.906035,-0.473601,-1
 .257115\C,0,-0.906035,-0.473601,1.257115\H,0,-0.558883,0.037001,-2.158

 Normal termination of Gaussian 16 at Sat Apr  5 22:29:01 2025.
 Gaussian 16:  ES64L-G16RevC.01  3-Jul-2019

 ----------------------------------------------------------------------
 #t hf aug-cc-pvdz iop(5/13=1,5/36=2,99/5=2) pseudo=read geom=check gue
 ss=(read,tcheck) scf=(maxcycle=1)
 ----------------------------------------------------------------------
 -----
 title
 -----
 Structure from the checkpoint file:  "2-methyl-1-2-propanediamine.chk"
 Charge =  0 Multiplicity = 1

                         Standard orientation:
 ---------------------------------------------------------------------
 Center     Atomic      Atomic             Coordinates (Angstroms)
 Number     Number       Type             X           Y           Z
 ---------------------------------------------------------------------
      1          6           0       -0.376341    0.220360   -0.000000
      2          1           0        1.502631    0.816125    0.875477
      3          1           0        1.502631    0.816125   -0.875477
      4          7           0        1.913976   -1.014914    0.000000
      5          1           0        1.709887   -1.574258    0.817358
      6          1           0        1.709887   -1.574258   -0.817358
      7          7           0       -0.906035    1.595947   -0.000000
      8          1           0       -0.583445    2.106254   -0.814987
      9          1           0       -0.583445    2.106254    0.814987
     10          6           0        1.179166    0.245313   -0.000000
     11          6           0       -0.906035   -0.473601   -1.257115
     12          6           0       -0.906035   -0.473601    1.257115
     13          1           0       -0.558883    0.037001   -2.158942
     14          1           0       -0.558883    0.037001    2.158942
     15          1           0       -0.574785   -1.511227    1.310395
     16          1           0       -0.574785   -1.511227   -1.310395
     17          1           0       -1.995459   -0.462925   -1.263115
     18          1           0       -1.995459   -0.462925    1.263115
 ---------------------------------------------------------------------

 SCF Done:  E(RHF) =  -267.470332826     A.U. after    2 cycles

 The electronic state is 1-A'.
 Alpha  occ. eigenvalues --  -15.60462 -15.60282 -11.26822 -11.25546 -11.22228
 Alpha  occ. eigenvalues --  -11.22221  -1.17592  -1.13070  -1.00467  -0.93497
 Alpha  occ. eigenvalues --   -0.89902  -0.75372  -0.67648  -0.65246  -0.64522
 Alpha  occ. eigenvalues --   -0.61323  -0.56673  -0.55708  -0.53395  -0.51020
 Alpha  occ. eigenvalues --   -0.50970  -0.48902  -0.46717  -0.42276  -0.35701
 Alpha virt. eigenvalues --    0.03418   0.03992   0.04138   0.04903   0.06786
 Alpha virt. eigenvalues --    0.06814   0.06991   0.07312   0.07620   0.09287
 Alpha virt. eigenvalues --    0.09525   0.10356   0.12590   0.13989   0.14659

 Mulliken charges:
               1
     1  C   -3.384296
     2  H   -0.078135
     3  H   -0.078135
     4  N   -0.445886
     5  H    0.024073
     6  H    0.024073
     7  N   -0.000317
     8  H   -0.009589
     9  H   -0.009589
    10  C    1.580987
    11  C    1.233704
    12  C    1.233704
    13  H   -0.035643
    14  H   -0.035643
    15  H   -0.014906
    16  H   -0.014906
    17  H    0.005252
    18  H    0.005252
 Sum of Mulliken charges =  -0.00000

 Dipole moment (field-independent basis, Debye):
    X=             -0.0716    Y=             -0.3136    Z=              0.0000  Tot=              0.3217

 Test job not archived.
 1\1\GINC-SE187\SP\RHF\Aug-CC-pVDZ\C4H12N2\OHZDE\05-Apr-2025\0\\#t hf a
 ug-cc-pvdz iop(5/13=1,5/36=2,99/5=2) pseudo=read geom=check guess=(rea
 d,tcheck) scf=(maxcycle=1)\\title\\0,1\C,0,-0.376341,0.22036,0.\H,0,1.
 502631,0.816125,0.875477\H,0,1.502631,0.816125,-0.875477\N,0,1.913976,
 -1.014914,0.\H,0,1.709887,-1.574258,0.817358\H,0,1.709887,-1.574258,-0
 .817358\N,0,-0.906035,1.595947,0.\H,0,-0.583445,2.106254,-0.814987\H,0
 ,-0.583445,2.106254,0.814987\C,0,1.179166,0.245313,0.\C,0,-0.906035,-0
 .473601,-1.257115\C,0,-0.906035,-0.473601,1.257115\H,0,-0.558883,0.037

 Normal termination of Gaussian 16 at Sat Apr  5 22:29:25 2025.
