 Gaussian 16, Revision C.01,

 ----------------------------------------------------------------------
 #t hf aug-cc-pvdz symm=none int=(grid=ultrafine) guess=(read,tcheck) s
 table=(opt,rrhf)
 ----------------------------------------------------------------------
 -----
 title
 -----
 Symbolic Z-matrix:
 Charge =  0 Multiplicity = 1

 SCF Done:  E(RHF) =  -270.050103707     A.U. after   12 cycles

 1\1\GINC-SE053\Stability\RHF\Aug-CC-pVDZ\C5H10O1\OHZDE\05-Apr-2025\0\\
 #t hf aug-cc-pvdz symm=none int=(grid=ultrafine) guess=(read,tcheck) s
 table=(opt,rrhf)\\title\\0,1\C,0,-1.5452,0.674146,-0.126359\C,0,-0.105
 076,1.223728,0.00573\C,0,-1.368914,-0.846757,0.057412\C,0,0.7328,-0.01
 1059,0.378649\C,0,2.152046,-0.027585,-0.146353\O,0,0.009355,-1.112893,
 -0.176593\H,0,-2.218989,1.088613,0.622495\H,0,-1.962003,0.904798,-1.10
 5364\H,0,0.242266,1.630722,-0.944467\H,0,-0.020334,2.011011,0.754025\H
 ,0,-1.637823,-1.149102,1.077531\H,0,-1.947361,-1.446214,-0.643058\H,0,

 Normal termination of Gaussian 16 at Sat Apr  5 22:30:54 2025.
 Gaussian 16:  ES64L-G16RevC.01  3-Jul-2019

 ----------------------------------------------------------------------
 #t hf aug-cc-pvdz iop(5/13=1,5/36=2,99/5=2) pseudo=read geom=check gue
 ss=(read,tcheck) scf=(maxcycle=1)
 ----------------------------------------------------------------------
 -----
 title
 -----
 Structure from the checkpoint file:  "2-methyltetrahydrofuran.chk"
 Charge =  0 Multiplicity = 1

                         Standard orientation:
 ---------------------------------------------------------------------
 Center     Atomic      Atomic             Coordinates (Angstroms)
 Number     Number       Type             X           Y           Z
 ---------------------------------------------------------------------
      1          6           0       -1.545200    0.674146   -0.126359
      2          6           0       -0.105076    1.223728    0.005730
      3          6           0       -1.368914   -0.846757    0.057412
      4          6           0        0.732800   -0.011059    0.378649
      5          6           0        2.152046   -0.027584   -0.146353
      6          8           0        0.009355   -1.112893   -0.176593
      7          1           0       -2.218989    1.088612    0.622495
      8          1           0       -1.962003    0.904797   -1.105364
      9          1           0        0.242265    1.630722   -0.944467
     10          1           0       -0.020335    2.011011    0.754025
     11          1           0       -1.637823   -1.149102    1.077531
     12          1           0       -1.947361   -1.446215   -0.643058
     13          1           0        0.744850   -0.121334    1.473448
     14          1           0        2.155499    0.063415   -1.233368
     15          1           0        2.721516    0.803003    0.273159
     16          1           0        2.653606   -0.956605    0.123859
 ---------------------------------------------------------------------

 SCF Done:  E(RHF) =  -270.135394256     A.U. after    2 cycles

 The electronic state is 1-A.
 Alpha  occ. eigenvalues --  -20.56031 -11.28308 -11.27800 -11.23120 -11.22944
 Alpha  occ. eigenvalues --  -11.22163  -1.33200  -1.04638  -1.02315  -0.91163
 Alpha  occ. eigenvalues --   -0.81109  -0.79044  -0.68172  -0.65934  -0.63375
 Alpha  occ. eigenvalues --   -0.59014  -0.57352  -0.53378  -0.52436  -0.50334
 Alpha  occ. eigenvalues --   -0.48227  -0.46849  -0.46297  -0.42619
 Alpha virt. eigenvalues --    0.03623   0.04518   0.04666   0.05002   0.06305
 Alpha virt. eigenvalues --    0.06553   0.06712   0.07368   0.08029   0.09282
 Alpha virt. eigenvalues --    0.12320   0.13090   0.13125   0.14736   0.15221

 Mulliken charges:
               1
     1  C    0.214609
     2  C    0.086410
     3  C    0.808679
     4  C    0.171253
     5  C    0.431501
     6  O   -0.729547
     7  H   -0.062001
     8  H   -0.089920
     9  H   -0.144241
    10  H   -0.099873
    11  H   -0.151840
    12  H   -0.257166
    13  H   -0.180789
    14  H    0.025414
    15  H    0.016263
    16  H   -0.038752
 Sum of Mulliken charges =   0.00000

 Dipole moment (field-independent basis, Debye):
    X=             -0.6186    Y=              1.5498    Z=              0.6828  Tot=              1.8030

 Test job not archived.
 1\1\GINC-SE053\SP\RHF\Aug-CC-pVDZ\C5H10O1\OHZDE\05-Apr-2025\0\\#t hf a
 ug-cc-pvdz iop(5/13=1,5/36=2,99/5=2) pseudo=read geom=check guess=(rea
 d,tcheck) scf=(maxcycle=1)\\title\\0,1\C,0,-1.5452,0.674146,-0.126359\
 C,0,-0.105076,1.223728,0.00573\C,0,-1.368914,-0.846757,0.057412\C,0,0.
 7328,-0.011059,0.378649\C,0,2.152046,-0.027585,-0.146353\O,0,0.009355,
 -1.112893,-0.176593\H,0,-2.218989,1.088613,0.622495\H,0,-1.962003,0.90
 4798,-1.105364\H,0,0.242266,1.630722,-0.944467\H,0,-0.020334,2.011011,
 0.754025\H,0,-1.637823,-1.149102,1.077531\H,0,-1.947361,-1.446214,-0.6

 Normal termination of Gaussian 16 at Sat Apr  5 22:32:19 2025.
