 Gaussian 16, Revision C.01,

 ----------------------------------------------------------------------
 #t hf aug-cc-pvdz symm=none int=(grid=ultrafine) guess=(read,tcheck) s
 table=(opt,rrhf)
 ----------------------------------------------------------------------
 -----
 title
 -----
 Symbolic Z-matrix:
 Charge =  0 Multiplicity = 1

 SCF Done:  E(RHF) =  -554.846980631     A.U. after   12 cycles

 1\1\GINC-SE145\Stability\RHF\Aug-CC-pVDZ\C4H10S1\OHZDE\05-Apr-2025\0\\
 #t hf aug-cc-pvdz symm=none int=(grid=ultrafine) guess=(read,tcheck) s
 table=(opt,rrhf)\\title\\0,1\C,0,1.015957,1.451343,0.163935\H,0,0.1238
 68,2.04069,-0.046686\H,0,1.188253,1.483529,1.242634\H,0,1.861449,1.938
 979,-0.323138\S,0,-1.912944,0.066947,-0.125366\H,0,-2.706994,-0.873776
 ,0.415091\C,0,2.163432,-0.784591,-0.063963\H,0,2.089609,-1.805448,-0.4
 42007\H,0,3.013177,-0.307136,-0.553827\H,0,2.384593,-0.837208,1.004776
 \C,0,-0.305593,-0.718329,0.333908\H,0,-0.334382,-1.754724,0.003227\H,0

 Normal termination of Gaussian 16 at Sat Apr  5 22:28:24 2025.
 Gaussian 16:  ES64L-G16RevC.01  3-Jul-2019

 ----------------------------------------------------------------------
 #t hf aug-cc-pvdz iop(5/13=1,5/36=2,99/5=2) pseudo=read geom=check gue
 ss=(read,tcheck) scf=(maxcycle=1)
 ----------------------------------------------------------------------
 -----
 title
 -----
 Structure from the checkpoint file:  "2-methyl-1-propanethiol.chk"
 Charge =  0 Multiplicity = 1

                         Standard orientation:
 ---------------------------------------------------------------------
 Center     Atomic      Atomic             Coordinates (Angstroms)
 Number     Number       Type             X           Y           Z
 ---------------------------------------------------------------------
      1          6           0        1.015957    1.451343    0.163935
      2          1           0        0.123868    2.040690   -0.046686
      3          1           0        1.188253    1.483529    1.242634
      4          1           0        1.861449    1.938979   -0.323138
      5         16           0       -1.912944    0.066948   -0.125366
      6          1           0       -2.706994   -0.873775    0.415091
      7          6           0        2.163432   -0.784591   -0.063963
      8          1           0        2.089609   -1.805448   -0.442007
      9          1           0        3.013177   -0.307136   -0.553827
     10          1           0        2.384593   -0.837208    1.004776
     11          6           0       -0.305593   -0.718329    0.333908
     12          1           0       -0.334382   -1.754724    0.003227
     13          1           0       -0.203516   -0.701401    1.419378
     14          6           0        0.875283    0.005676   -0.319616
     15          1           0        0.696575    0.020737   -1.399165
 ---------------------------------------------------------------------

 SCF Done:  E(RHF) =  -554.917818508     A.U. after    2 cycles

 The electronic state is 1-A.
 Alpha  occ. eigenvalues --  -93.52852 -11.26820 -11.24670 -11.22919 -11.22410
 Alpha  occ. eigenvalues --   -8.82589  -6.16778  -6.16536  -6.16197  -1.09401
 Alpha  occ. eigenvalues --   -0.99080  -0.93307  -0.86634  -0.77361  -0.64643
 Alpha  occ. eigenvalues --   -0.61659  -0.59633  -0.56280  -0.54416  -0.52890
 Alpha  occ. eigenvalues --   -0.49197  -0.47670  -0.47330  -0.43832  -0.35076
 Alpha virt. eigenvalues --    0.03481   0.04312   0.04875   0.05027   0.06617
 Alpha virt. eigenvalues --    0.06998   0.07292   0.07559   0.07889   0.09142
 Alpha virt. eigenvalues --    0.11103   0.13570   0.14093   0.14243   0.15318

 Mulliken charges:
               1
     1  C    0.715865
     2  H   -0.100976
     3  H   -0.025745
     4  H   -0.060977
     5  S    0.294810
     6  H    0.025109
     7  C    0.728584
     8  H   -0.084259
     9  H   -0.074962
    10  H   -0.008603
    11  C    0.247305
    12  H   -0.183710
    13  H   -0.130063
    14  C   -1.199204
    15  H   -0.143176
 Sum of Mulliken charges =  -0.00000

 Dipole moment (field-independent basis, Debye):
    X=              1.2162    Y=             -1.1023    Z=              0.5716  Tot=              1.7381

 Test job not archived.
 1\1\GINC-SE145\SP\RHF\Aug-CC-pVDZ\C4H10S1\OHZDE\05-Apr-2025\0\\#t hf a
 ug-cc-pvdz iop(5/13=1,5/36=2,99/5=2) pseudo=read geom=check guess=(rea
 d,tcheck) scf=(maxcycle=1)\\title\\0,1\C,0,1.015957,1.451343,0.163935\
 H,0,0.123868,2.04069,-0.046686\H,0,1.188253,1.483529,1.242634\H,0,1.86
 1449,1.938979,-0.323138\S,0,-1.912944,0.066947,-0.125366\H,0,-2.706994
 ,-0.873776,0.415091\C,0,2.163432,-0.784591,-0.063963\H,0,2.089609,-1.8
 05448,-0.442007\H,0,3.013177,-0.307136,-0.553827\H,0,2.384593,-0.83720
 8,1.004776\C,0,-0.305593,-0.718329,0.333908\H,0,-0.334382,-1.754724,0.

 Normal termination of Gaussian 16 at Sat Apr  5 22:29:03 2025.
