 Gaussian 16, Revision C.01,

 ----------------------------------------------------------------------
 #t hf aug-cc-pvdz symm=none int=(grid=ultrafine) guess=(read,tcheck) s
 table=(opt,rrhf)
 ----------------------------------------------------------------------
 -----
 title
 -----
 Symbolic Z-matrix:
 Charge =  0 Multiplicity = 1

 SCF Done:  E(RHF) =  -232.171548729     A.U. after   12 cycles

 1\1\GINC-SE180\Stability\RHF\Aug-CC-pVDZ\C4H10O1\OHZDE\05-Apr-2025\0\\
 #t hf aug-cc-pvdz symm=none int=(grid=ultrafine) guess=(read,tcheck) s
 table=(opt,rrhf)\\title\\0,1\C,0,-0.678099,1.442161,-0.097723\C,0,-1.6
 02385,-0.90915,-0.006698\C,0,1.963999,-0.107579,0.092089\C,0,-0.421488
 ,-0.006587,0.311499\O,0,0.708102,-0.560944,-0.366728\H,0,-1.546873,1.8
 37096,0.431111\H,0,0.169074,2.086994,0.135299\H,0,-0.870837,1.501789,-
 1.170041\H,0,-2.500908,-0.561297,0.503988\H,0,-1.397458,-1.932194,0.30
 6542\H,0,-1.795646,-0.912336,-1.080473\H,0,2.130121,0.953843,-0.119355

 Normal termination of Gaussian 16 at Sat Apr  5 22:28:22 2025.
 Gaussian 16:  ES64L-G16RevC.01  3-Jul-2019

 ----------------------------------------------------------------------
 #t hf aug-cc-pvdz iop(5/13=1,5/36=2,99/5=2) pseudo=read geom=check gue
 ss=(read,tcheck) scf=(maxcycle=1)
 ----------------------------------------------------------------------
 -----
 title
 -----
 Structure from the checkpoint file:  "2-methoxypropane.chk"
 Charge =  0 Multiplicity = 1

                         Standard orientation:
 ---------------------------------------------------------------------
 Center     Atomic      Atomic             Coordinates (Angstroms)
 Number     Number       Type             X           Y           Z
 ---------------------------------------------------------------------
      1          6           0       -0.678099    1.442161   -0.097723
      2          6           0       -1.602385   -0.909150   -0.006698
      3          6           0        1.963999   -0.107579    0.092089
      4          6           0       -0.421488   -0.006587    0.311499
      5          8           0        0.708102   -0.560944   -0.366728
      6          1           0       -1.546873    1.837096    0.431111
      7          1           0        0.169074    2.086994    0.135299
      8          1           0       -0.870837    1.501789   -1.170041
      9          1           0       -2.500908   -0.561297    0.503988
     10          1           0       -1.397458   -1.932194    0.306542
     11          1           0       -1.795646   -0.912336   -1.080473
     12          1           0        2.130121    0.953843   -0.119355
     13          1           0        2.722137   -0.686882   -0.431688
     14          1           0        2.076887   -0.270336    1.171121
     15          1           0       -0.223479   -0.042199    1.392313
 ---------------------------------------------------------------------

 SCF Done:  E(RHF) =  -232.249249434     A.U. after    2 cycles

 The electronic state is 1-A.
 Alpha  occ. eigenvalues --  -20.56227 -11.28708 -11.27737 -11.22295 -11.21931
 Alpha  occ. eigenvalues --   -1.32502  -1.04566  -0.93848  -0.91123  -0.79404
 Alpha  occ. eigenvalues --   -0.67645  -0.64273  -0.64105  -0.59188  -0.55185
 Alpha  occ. eigenvalues --   -0.54467  -0.53187  -0.50282  -0.49595  -0.46598
 Alpha  occ. eigenvalues --   -0.42710
 Alpha virt. eigenvalues --    0.03576   0.04654   0.04907   0.05051   0.06553
 Alpha virt. eigenvalues --    0.06972   0.07239   0.07546   0.08195   0.09601
 Alpha virt. eigenvalues --    0.12374   0.14084   0.14689   0.15288   0.15631

 Mulliken charges:
               1
     1  C    0.409220
     2  C    0.465091
     3  C    0.755898
     4  C   -0.036615
     5  O   -0.712385
     6  H   -0.014712
     7  H   -0.157537
     8  H    0.006446
     9  H   -0.023257
    10  H   -0.070536
    11  H   -0.009363
    12  H   -0.119334
    13  H   -0.249271
    14  H   -0.095278
    15  H   -0.148367
 Sum of Mulliken charges =  -0.00000

 Dipole moment (field-independent basis, Debye):
    X=              0.0376    Y=              1.0086    Z=              1.1090  Tot=              1.4995

 Test job not archived.
 1\1\GINC-SE180\SP\RHF\Aug-CC-pVDZ\C4H10O1\OHZDE\05-Apr-2025\0\\#t hf a
 ug-cc-pvdz iop(5/13=1,5/36=2,99/5=2) pseudo=read geom=check guess=(rea
 d,tcheck) scf=(maxcycle=1)\\title\\0,1\C,0,-0.678099,1.442161,-0.09772
 3\C,0,-1.602385,-0.90915,-0.006698\C,0,1.963999,-0.107579,0.092089\C,0
 ,-0.421488,-0.006587,0.311499\O,0,0.708102,-0.560944,-0.366728\H,0,-1.
 546873,1.837096,0.431111\H,0,0.169074,2.086994,0.135299\H,0,-0.870837,
 1.501789,-1.170041\H,0,-2.500908,-0.561297,0.503988\H,0,-1.397458,-1.9
 32194,0.306542\H,0,-1.795646,-0.912336,-1.080473\H,0,2.130121,0.953843

 Normal termination of Gaussian 16 at Sat Apr  5 22:29:03 2025.
