 Gaussian 16, Revision C.01,

 ----------------------------------------------------------------------
 #t hf aug-cc-pvdz symm=none int=(grid=ultrafine) guess=(read,tcheck) s
 table=(opt,rrhf)
 ----------------------------------------------------------------------
 -----
 title
 -----
 Symbolic Z-matrix:
 Charge =  0 Multiplicity = 1

 SCF Done:  E(RHF) =  -310.265999688     A.U. after   12 cycles

 1\1\GINC-SE028\Stability\RHF\Aug-CC-pVDZ\C6H14O1\OHZDE\05-Apr-2025\0\\
 #t hf aug-cc-pvdz symm=none int=(grid=ultrafine) guess=(read,tcheck) s
 table=(opt,rrhf)\\title\\0,1\C,0,3.005568,-0.234641,-0.07587\C,0,-1.94
 6912,-1.107066,-0.387839\C,0,-1.238412,1.280682,-0.728586\C,0,1.63283,
 0.41303,0.105069\C,0,0.49271,-0.535387,-0.269388\C,0,-0.931821,-0.0291
 61,0.003653\O,0,-0.996264,0.187836,1.42867\H,0,3.165367,-0.547167,-1.1
 10366\H,0,3.109196,-1.119822,0.554911\H,0,3.807682,0.455938,0.188183\H
 ,0,-2.963517,-0.784311,-0.150713\H,0,-1.747156,-2.030635,0.155349\H,0,

 Normal termination of Gaussian 16 at Sat Apr  5 22:31:34 2025.
 Gaussian 16:  ES64L-G16RevC.01  3-Jul-2019

 ----------------------------------------------------------------------
 #t hf aug-cc-pvdz iop(5/13=1,5/36=2,99/5=2) pseudo=read geom=check gue
 ss=(read,tcheck) scf=(maxcycle=1)
 ----------------------------------------------------------------------
 -----
 title
 -----
 Structure from the checkpoint file:  "2-methylpentan-2-ol.chk"
 Charge =  0 Multiplicity = 1

                         Standard orientation:
 ---------------------------------------------------------------------
 Center     Atomic      Atomic             Coordinates (Angstroms)
 Number     Number       Type             X           Y           Z
 ---------------------------------------------------------------------
      1          6           0        3.005568   -0.234641   -0.075870
      2          6           0       -1.946912   -1.107066   -0.387839
      3          6           0       -1.238412    1.280682   -0.728586
      4          6           0        1.632830    0.413030    0.105069
      5          6           0        0.492710   -0.535387   -0.269388
      6          6           0       -0.931821   -0.029161    0.003653
      7          8           0       -0.996264    0.187836    1.428670
      8          1           0        3.165367   -0.547167   -1.110366
      9          1           0        3.109196   -1.119822    0.554911
     10          1           0        3.807682    0.455938    0.188183
     11          1           0       -2.963517   -0.784311   -0.150713
     12          1           0       -1.747156   -2.030635    0.155349
     13          1           0       -1.906985   -1.318328   -1.457633
     14          1           0       -0.578207    2.078717   -0.394031
     15          1           0       -2.268050    1.591351   -0.535843
     16          1           0       -1.124654    1.164869   -1.807771
     17          1           0        1.507934    0.728735    1.141736
     18          1           0        1.583749    1.318038   -0.504908
     19          1           0        0.564713   -0.793340   -1.330153
     20          1           0        0.615355   -1.469442    0.286075
     21          1           0       -1.879090    0.497967    1.653569
 ---------------------------------------------------------------------

 SCF Done:  E(RHF) =  -310.364856205     A.U. after    2 cycles

 The electronic state is 1-A.
 Alpha  occ. eigenvalues --  -20.56275 -11.29309 -11.22389 -11.22371 -11.22150
 Alpha  occ. eigenvalues --  -11.21841 -11.21642  -1.31416  -1.07148  -1.01874
 Alpha  occ. eigenvalues --   -0.93764  -0.92145  -0.81554  -0.76805  -0.67817
 Alpha  occ. eigenvalues --   -0.63929  -0.61855  -0.60948  -0.58544  -0.56066
 Alpha  occ. eigenvalues --   -0.54839  -0.52822  -0.51856  -0.51504  -0.50603
 Alpha  occ. eigenvalues --   -0.47689  -0.46412  -0.44840  -0.43596
 Alpha virt. eigenvalues --    0.03332   0.04155   0.04498   0.04822   0.06088
 Alpha virt. eigenvalues --    0.06238   0.06396   0.06892   0.07218   0.08549
 Alpha virt. eigenvalues --    0.09155   0.09317   0.09857   0.11196   0.13338

 Mulliken charges:
               1
     1  C    0.536681
     2  C    1.241502
     3  C    1.027034
     4  C    0.243632
     5  C    0.658988
     6  C   -2.593213
     7  O   -0.521705
     8  H   -0.071201
     9  H   -0.077089
    10  H   -0.056808
    11  H   -0.038167
    12  H    0.025157
    13  H    0.049438
    14  H    0.011509
    15  H   -0.055060
    16  H    0.037145
    17  H   -0.127220
    18  H   -0.195983
    19  H   -0.097144
    20  H   -0.115827
    21  H    0.118332
 Sum of Mulliken charges =   0.00000

 Dipole moment (field-independent basis, Debye):
    X=             -1.2184    Y=              0.2788    Z=             -1.1971  Tot=              1.7307

 Test job not archived.
 1\1\GINC-SE028\SP\RHF\Aug-CC-pVDZ\C6H14O1\OHZDE\05-Apr-2025\0\\#t hf a
 ug-cc-pvdz iop(5/13=1,5/36=2,99/5=2) pseudo=read geom=check guess=(rea
 d,tcheck) scf=(maxcycle=1)\\title\\0,1\C,0,3.005568,-0.234641,-0.07587
 \C,0,-1.946912,-1.107066,-0.387839\C,0,-1.238412,1.280682,-0.728586\C,
 0,1.63283,0.41303,0.105069\C,0,0.49271,-0.535387,-0.269388\C,0,-0.9318
 21,-0.029161,0.003653\O,0,-0.996264,0.187836,1.42867\H,0,3.165367,-0.5
 47167,-1.110366\H,0,3.109196,-1.119822,0.554911\H,0,3.807682,0.455938,
 0.188183\H,0,-2.963517,-0.784311,-0.150713\H,0,-1.747156,-2.030635,0.1

 Normal termination of Gaussian 16 at Sat Apr  5 22:32:23 2025.
