 Gaussian 16, Revision C.01,

 ----------------------------------------------------------------------
 #t hf aug-cc-pvdz symm=none int=(grid=ultrafine) guess=(read,tcheck) s
 table=(opt,rrhf)
 ----------------------------------------------------------------------
 -----
 title
 -----
 Symbolic Z-matrix:
 Charge =  0 Multiplicity = 1

 SCF Done:  E(RHF) =  -295.837133703     A.U. after   15 cycles
 Normal termination of Gaussian 16 at Sat Apr  5 22:29:09 2025.
 Gaussian 16:  ES64L-G16RevC.01  3-Jul-2019

 ----------------------------------------------------------------------
 #t hf aug-cc-pvdz iop(5/13=1,5/36=2,99/5=2) pseudo=read geom=check gue
 ss=(read,tcheck) scf=(maxcycle=1)
 ----------------------------------------------------------------------
 -----
 title
 -----
 Structure from the checkpoint file:  "2-methyl-2H-tetrazole.chk"
 Charge =  0 Multiplicity = 1

                         Standard orientation:
 ---------------------------------------------------------------------
 Center     Atomic      Atomic             Coordinates (Angstroms)
 Number     Number       Type             X           Y           Z
 ---------------------------------------------------------------------
      1          1           0        1.261590   -2.270226    0.000000
      2          6           0        0.638250   -1.394165    0.000000
      3          7           0        1.115640   -0.158335    0.000000
      4          7           0       -0.709343   -1.427292    0.000000
      5          7           0       -1.101004   -0.179300    0.000000
      6          7           0        0.000000    0.555258    0.000000
      7          1           0        0.482613    2.378013    0.888585
      8          1           0       -1.062032    2.314158    0.000000
      9          1           0        0.482613    2.378013   -0.888585
     10          6           0       -0.021889    2.005452    0.000000
 ---------------------------------------------------------------------

 SCF Done:  E(RHF) =  -295.921314054     A.U. after    2 cycles

 The electronic state is 1-A'.
 Alpha  occ. eigenvalues --  -15.77127 -15.73200 -15.69008 -15.67277 -11.31264
 Alpha  occ. eigenvalues --  -11.30888  -1.45952  -1.22815  -1.16963  -1.00813
 Alpha  occ. eigenvalues --   -0.87547  -0.84033  -0.73503  -0.70423  -0.64136
 Alpha  occ. eigenvalues --   -0.60158  -0.59826  -0.55472  -0.49065  -0.46040
 Alpha  occ. eigenvalues --   -0.42872  -0.39850
 Alpha virt. eigenvalues --    0.02806   0.03896   0.04741   0.05634   0.09581
 Alpha virt. eigenvalues --    0.09739   0.10190   0.12019   0.13487   0.13829
 Alpha virt. eigenvalues --    0.15156   0.15679   0.16172   0.17107   0.18065

 Mulliken charges:
               1
     1  H   -0.219272
     2  C    0.882780
     3  N   -0.349388
     4  N   -0.368120
     5  N   -0.328538
     6  N   -0.236265
     7  H   -0.075199
     8  H   -0.162589
     9  H   -0.075199
    10  C    0.931791
 Sum of Mulliken charges =   0.00000

 Dipole moment (field-independent basis, Debye):
    X=              1.3337    Y=              2.6025    Z=              0.0000  Tot=              2.9244

 Test job not archived.
 1\1\GINC-SE045\SP\RHF\Aug-CC-pVDZ\C2H4N4\OHZDE\05-Apr-2025\0\\#t hf au
 g-cc-pvdz iop(5/13=1,5/36=2,99/5=2) pseudo=read geom=check guess=(read
 ,tcheck) scf=(maxcycle=1)\\title\\0,1\H,0,1.26159,-2.270226,0.\C,0,0.6
 3825,-1.394165,0.\N,0,1.11564,-0.158335,0.\N,0,-0.709343,-1.427292,0.\
 N,0,-1.101004,-0.1793,0.\N,0,0.,0.555258,0.\H,0,0.482613,2.378013,0.88
 8585\H,0,-1.062032,2.314158,0.\H,0,0.482613,2.378013,-0.888585\C,0,-0.
 021889,2.005452,0.\\Version=ES64L-G16RevC.01\State=1-A'\HF=-295.921314
 1\RMSD=3.250e-03\Dipole=0.5247045,1.0239194,0.\Quadrupole=-4.0554615,4

 Normal termination of Gaussian 16 at Sat Apr  5 22:29:25 2025.
