 Gaussian 16, Revision C.01,

 ----------------------------------------------------------------------
 #t hf aug-cc-pvdz symm=none int=(grid=ultrafine) guess=(read,tcheck) s
 table=(opt,rrhf)
 ----------------------------------------------------------------------
 -----
 title
 -----
 Symbolic Z-matrix:
 Charge =  0 Multiplicity = 1

 SCF Done:  E(RHF) =  -304.095233383     A.U. after   13 cycles

 1\1\GINC-SE211\Stability\RHF\Aug-CC-pVDZ\C5H10N2\OHZDE\05-Apr-2025\0\\
 #t hf aug-cc-pvdz symm=none int=(grid=ultrafine) guess=(read,tcheck) s
 table=(opt,rrhf)\\title\\0,1\C,0,0.941514,-0.098483,-0.014842\C,0,-1.7
 81018,-0.019406,0.390258\C,0,-1.091888,-1.260357,-0.181491\C,0,-1.1370
 73,1.235394,-0.190517\C,0,2.440033,-0.02573,0.105285\N,0,0.363471,-1.2
 38193,-0.066973\N,0,0.305683,1.121283,-0.051204\H,0,-2.849215,-0.03038
 6,0.168731\H,0,-1.669794,-0.010999,1.476831\H,0,-1.454663,-2.156545,0.
 325164\H,0,-1.359693,-1.380641,-1.237877\H,0,-1.420985,1.347734,-1.243

 Normal termination of Gaussian 16 at Sat Apr  5 22:29:01 2025.
 Gaussian 16:  ES64L-G16RevC.01  3-Jul-2019

 ----------------------------------------------------------------------
 #t hf aug-cc-pvdz iop(5/13=1,5/36=2,99/5=2) pseudo=read geom=check gue
 ss=(read,tcheck) scf=(maxcycle=1)
 ----------------------------------------------------------------------
 -----
 title
 -----
 Structure from the checkpoint file:  "2-methyl-1-4-5-6-tetrahydropyrimidine.chk"
 Charge =  0 Multiplicity = 1

                         Standard orientation:
 ---------------------------------------------------------------------
 Center     Atomic      Atomic             Coordinates (Angstroms)
 Number     Number       Type             X           Y           Z
 ---------------------------------------------------------------------
      1          6           0        0.941514   -0.098483   -0.014842
      2          6           0       -1.781018   -0.019406    0.390258
      3          6           0       -1.091888   -1.260357   -0.181491
      4          6           0       -1.137073    1.235394   -0.190517
      5          6           0        2.440033   -0.025730    0.105285
      6          7           0        0.363471   -1.238193   -0.066973
      7          7           0        0.305683    1.121283   -0.051204
      8          1           0       -2.849215   -0.030386    0.168731
      9          1           0       -1.669794   -0.010999    1.476831
     10          1           0       -1.454663   -2.156545    0.325164
     11          1           0       -1.359693   -1.380641   -1.237877
     12          1           0       -1.420985    1.347734   -1.243241
     13          1           0       -1.475506    2.129505    0.335358
     14          1           0        2.734140    0.509347    1.011023
     15          1           0        2.874653    0.500871   -0.747674
     16          1           0        2.842634   -1.033035    0.140948
     17          1           0        0.864952    1.954010   -0.054174
 ---------------------------------------------------------------------

 SCF Done:  E(RHF) =  -304.187690327     A.U. after    2 cycles

 The electronic state is 1-A.
 Alpha  occ. eigenvalues --  -15.63215 -15.57553 -11.31295 -11.27316 -11.24497
 Alpha  occ. eigenvalues --  -11.23196 -11.22943  -1.24361  -1.12531  -1.05638
 Alpha  occ. eigenvalues --   -0.95831  -0.90009  -0.83470  -0.73095  -0.68874
 Alpha  occ. eigenvalues --   -0.64442  -0.63075  -0.58609  -0.58058  -0.55895
 Alpha  occ. eigenvalues --   -0.54979  -0.53195  -0.50989  -0.47872  -0.43947
 Alpha  occ. eigenvalues --   -0.37341  -0.32726
 Alpha virt. eigenvalues --    0.02935   0.03758   0.04199   0.04670   0.06539
 Alpha virt. eigenvalues --    0.06805   0.07027   0.07342   0.07662   0.09071
 Alpha virt. eigenvalues --    0.11576   0.13062   0.13237   0.13778   0.14525

 Mulliken charges:
               1
     1  C    0.083084
     2  C    0.068847
     3  C    0.625225
     4  C    0.771297
     5  C    0.583782
     6  N   -0.546066
     7  N   -0.488055
     8  H   -0.044396
     9  H   -0.155035
    10  H   -0.187691
    11  H   -0.146720
    12  H   -0.161874
    13  H   -0.172634
    14  H    0.002538
    15  H   -0.005225
    16  H   -0.097155
    17  H   -0.129924
 Sum of Mulliken charges =  -0.00000

 Dipole moment (field-independent basis, Debye):
    X=             -0.4654    Y=              3.1789    Z=             -0.0412  Tot=              3.2131

 Test job not archived.
 1\1\GINC-SE211\SP\RHF\Aug-CC-pVDZ\C5H10N2\OHZDE\05-Apr-2025\0\\#t hf a
 ug-cc-pvdz iop(5/13=1,5/36=2,99/5=2) pseudo=read geom=check guess=(rea
 d,tcheck) scf=(maxcycle=1)\\title\\0,1\C,0,0.941514,-0.098483,-0.01484
 2\C,0,-1.781018,-0.019406,0.390258\C,0,-1.091888,-1.260357,-0.181491\C
 ,0,-1.137073,1.235394,-0.190517\C,0,2.440033,-0.02573,0.105285\N,0,0.3
 63471,-1.238193,-0.066973\N,0,0.305683,1.121283,-0.051204\H,0,-2.84921
 5,-0.030386,0.168731\H,0,-1.669794,-0.010999,1.476831\H,0,-1.454663,-2
 .156545,0.325164\H,0,-1.359693,-1.380641,-1.237877\H,0,-1.420985,1.347

 Normal termination of Gaussian 16 at Sat Apr  5 22:29:27 2025.
