 Gaussian 16, Revision C.01,

 ----------------------------------------------------------------------
 #t hf aug-cc-pvdz symm=none int=(grid=ultrafine) guess=(read,tcheck) s
 table=(opt,rrhf)
 ----------------------------------------------------------------------
 -----
 title
 -----
 Symbolic Z-matrix:
 Charge =  0 Multiplicity = 1

 SCF Done:  E(RHF) =  -271.220219959     A.U. after   12 cycles

 1\1\GINC-SE012\Stability\RHF\Aug-CC-pVDZ\C5H12O1\OHZDE\05-Apr-2025\0\\
 #t hf aug-cc-pvdz symm=none int=(grid=ultrafine) guess=(read,tcheck) s
 table=(opt,rrhf)\\title\\0,1\C,0,-2.236267,-0.829238,-0.168845\C,0,-0.
 460692,1.802331,-0.02324\C,0,-0.836105,-0.683283,0.427209\C,0,1.500792
 ,0.264459,0.201369\C,0,0.043139,0.374428,-0.255318\O,0,2.109917,-0.991
 421,-0.095886\H,0,-2.822588,0.085548,-0.074475\H,0,-2.186814,-1.08279,
 -1.230252\H,0,-2.790772,-1.623663,0.332395\H,0,-0.462102,2.045466,1.04
 232\H,0,-1.476626,1.936066,-0.392815\H,0,0.171194,2.533818,-0.530269\H

 Normal termination of Gaussian 16 at Sat Apr  5 22:29:02 2025.
 Gaussian 16:  ES64L-G16RevC.01  3-Jul-2019

 ----------------------------------------------------------------------
 #t hf aug-cc-pvdz iop(5/13=1,5/36=2,99/5=2) pseudo=read geom=check gue
 ss=(read,tcheck) scf=(maxcycle=1)
 ----------------------------------------------------------------------
 -----
 title
 -----
 Structure from the checkpoint file:  "2-methyl-1-butanol.chk"
 Charge =  0 Multiplicity = 1

                         Standard orientation:
 ---------------------------------------------------------------------
 Center     Atomic      Atomic             Coordinates (Angstroms)
 Number     Number       Type             X           Y           Z
 ---------------------------------------------------------------------
      1          6           0       -2.236267   -0.829238   -0.168845
      2          6           0       -0.460692    1.802331   -0.023240
      3          6           0       -0.836105   -0.683283    0.427209
      4          6           0        1.500792    0.264459    0.201369
      5          6           0        0.043139    0.374428   -0.255318
      6          8           0        2.109917   -0.991421   -0.095886
      7          1           0       -2.822588    0.085548   -0.074475
      8          1           0       -2.186814   -1.082790   -1.230252
      9          1           0       -2.790772   -1.623663    0.332395
     10          1           0       -0.462102    2.045466    1.042320
     11          1           0       -1.476626    1.936066   -0.392815
     12          1           0        0.171194    2.533818   -0.530269
     13          1           0       -0.321864   -1.644079    0.373767
     14          1           0       -0.914617   -0.436619    1.491531
     15          1           0        1.558959    0.362361    1.287435
     16          1           0        2.087287    1.082323   -0.232344
     17          1           0        0.027882    0.181040   -1.336643
     18          1           0        2.185520   -1.080283   -1.050612
 ---------------------------------------------------------------------

 SCF Done:  E(RHF) =  -271.307852874     A.U. after    2 cycles

 The electronic state is 1-A.
 Alpha  occ. eigenvalues --  -20.56837 -11.28088 -11.23506 -11.22552 -11.22226
 Alpha  occ. eigenvalues --  -11.22049  -1.31594  -1.07981  -0.98714  -0.91690
 Alpha  occ. eigenvalues --   -0.85682  -0.77859  -0.69067  -0.64391  -0.62779
 Alpha  occ. eigenvalues --   -0.59987  -0.58658  -0.55431  -0.53975  -0.51014
 Alpha  occ. eigenvalues --   -0.50801  -0.49569  -0.46532  -0.45405  -0.43635
 Alpha virt. eigenvalues --    0.03417   0.04265   0.04423   0.04881   0.06440
 Alpha virt. eigenvalues --    0.06709   0.06808   0.07116   0.07519   0.09141
 Alpha virt. eigenvalues --    0.09505   0.09888   0.13268   0.13864   0.14212

 Mulliken charges:
               1
     1  C    0.407386
     2  C    0.708370
     3  C    0.619041
     4  C    1.259229
     5  C   -1.451859
     6  O   -0.579524
     7  H   -0.125220
     8  H   -0.064092
     9  H   -0.064168
    10  H   -0.011827
    11  H   -0.109962
    12  H   -0.066981
    13  H   -0.118326
    14  H   -0.115002
    15  H   -0.126413
    16  H   -0.103911
    17  H   -0.210326
    18  H    0.153587
 Sum of Mulliken charges =  -0.00000

 Dipole moment (field-independent basis, Debye):
    X=             -0.6951    Y=              1.1800    Z=             -1.1867  Tot=              1.8121

 Test job not archived.
 1\1\GINC-SE012\SP\RHF\Aug-CC-pVDZ\C5H12O1\OHZDE\05-Apr-2025\0\\#t hf a
 ug-cc-pvdz iop(5/13=1,5/36=2,99/5=2) pseudo=read geom=check guess=(rea
 d,tcheck) scf=(maxcycle=1)\\title\\0,1\C,0,-2.236267,-0.829238,-0.1688
 45\C,0,-0.460692,1.802331,-0.02324\C,0,-0.836105,-0.683283,0.427209\C,
 0,1.500792,0.264459,0.201369\C,0,0.043139,0.374428,-0.255318\O,0,2.109
 917,-0.991421,-0.095886\H,0,-2.822588,0.085548,-0.074475\H,0,-2.186814
 ,-1.08279,-1.230252\H,0,-2.790772,-1.623663,0.332395\H,0,-0.462102,2.0
 45466,1.04232\H,0,-1.476626,1.936066,-0.392815\H,0,0.171194,2.533818,-

 Normal termination of Gaussian 16 at Sat Apr  5 22:29:27 2025.
