 Gaussian 16, Revision C.01,

 ----------------------------------------------------------------------
 #t hf aug-cc-pvdz symm=none int=(grid=ultrafine) guess=(read,tcheck) s
 table=(opt,rrhf)
 ----------------------------------------------------------------------
 -----
 title
 -----
 Symbolic Z-matrix:
 Charge =  0 Multiplicity = 1

 SCF Done:  E(RHF) =  -248.165532626     A.U. after   12 cycles
 Normal termination of Gaussian 16 at Sat Apr  5 22:28:18 2025.
 Gaussian 16:  ES64L-G16RevC.01  3-Jul-2019

 ----------------------------------------------------------------------
 #t hf aug-cc-pvdz iop(5/13=1,5/36=2,99/5=2) pseudo=read geom=check gue
 ss=(read,tcheck) scf=(maxcycle=1)
 ----------------------------------------------------------------------
 -----
 title
 -----
 Structure from the checkpoint file:  "2-methoxyethanamine.chk"
 Charge =  0 Multiplicity = 1

                         Standard orientation:
 ---------------------------------------------------------------------
 Center     Atomic      Atomic             Coordinates (Angstroms)
 Number     Number       Type             X           Y           Z
 ---------------------------------------------------------------------
      1          6           0        2.394338   -0.198378    0.010397
      2          6           0       -1.213963    0.512011   -0.011820
      3          6           0        0.040704   -0.342423    0.060690
      4          7           0       -2.400419   -0.343513    0.068122
      5          8           0        1.170345    0.499841   -0.068361
      6          1           0        3.193257    0.531998   -0.100922
      7          1           0        2.481000   -0.946782   -0.786913
      8          1           0        2.505379   -0.705551    0.976378
      9          1           0       -1.223477    1.192544    0.840371
     10          1           0       -1.165713    1.129196   -0.917074
     11          1           0        0.034198   -1.091761   -0.745001
     12          1           0        0.066402   -0.885403    1.013302
     13          1           0       -2.543778   -0.851532   -0.796036
     14          1           0       -3.233572    0.205897    0.230329
 ---------------------------------------------------------------------

 SCF Done:  E(RHF) =  -248.246790128     A.U. after    2 cycles

 The electronic state is 1-A.
 Alpha  occ. eigenvalues --  -20.56739 -15.60750 -11.28006 -11.27908 -11.25645
 Alpha  occ. eigenvalues --   -1.33141  -1.14875  -0.99201  -0.89664  -0.82248
 Alpha  occ. eigenvalues --   -0.68757  -0.67043  -0.65279  -0.62487  -0.59237
 Alpha  occ. eigenvalues --   -0.56485  -0.51771  -0.50307  -0.48346  -0.43361
 Alpha  occ. eigenvalues --   -0.38796
 Alpha virt. eigenvalues --    0.03548   0.04179   0.04669   0.05313   0.06400
 Alpha virt. eigenvalues --    0.06810   0.07257   0.08564   0.09753   0.11941
 Alpha virt. eigenvalues --    0.12563   0.14545   0.15661   0.16051   0.16557

 Mulliken charges:
               1
     1  C    0.690680
     2  C    0.655522
     3  C    0.613608
     4  N   -0.359304
     5  O   -0.643501
     6  H   -0.269335
     7  H   -0.066819
     8  H   -0.068078
     9  H   -0.157531
    10  H   -0.092883
    11  H   -0.175611
    12  H   -0.113604
    13  H    0.006792
    14  H   -0.019936
 Sum of Mulliken charges =   0.00000

 Dipole moment (field-independent basis, Debye):
    X=             -0.2151    Y=             -0.5716    Z=             -0.7659  Tot=              0.9796

 Test job not archived.
 1\1\GINC-SE194\SP\RHF\Aug-CC-pVDZ\C3H9N1O1\OHZDE\05-Apr-2025\0\\#t hf
 aug-cc-pvdz iop(5/13=1,5/36=2,99/5=2) pseudo=read geom=check guess=(re
 ad,tcheck) scf=(maxcycle=1)\\title\\0,1\C,0,2.394338,-0.198378,0.01039
 7\C,0,-1.213963,0.512011,-0.01182\C,0,0.040704,-0.342423,0.06069\N,0,-
 2.400419,-0.343513,0.068122\O,0,1.170345,0.499841,-0.068361\H,0,3.1932
 57,0.531998,-0.100922\H,0,2.481,-0.946782,-0.786913\H,0,2.505379,-0.70
 5551,0.976378\H,0,-1.223477,1.192544,0.840371\H,0,-1.165713,1.129196,-
 0.917074\H,0,0.034198,-1.091761,-0.745001\H,0,0.066402,-0.885403,1.013

 Normal termination of Gaussian 16 at Sat Apr  5 22:29:02 2025.
