 Gaussian 16, Revision C.01,

 ----------------------------------------------------------------------
 #t hf aug-cc-pvdz symm=none int=(grid=ultrafine) guess=(read,tcheck) s
 table=(opt,rrhf)
 ----------------------------------------------------------------------
 -----
 title
 -----
 Symbolic Z-matrix:
 Charge =  0 Multiplicity = 1

 SCF Done:  E(RHF) =  -196.351222729     A.U. after   11 cycles
 Normal termination of Gaussian 16 at Sat Apr  5 22:29:47 2025.
 Gaussian 16:  ES64L-G16RevC.01  3-Jul-2019

 ----------------------------------------------------------------------
 #t hf aug-cc-pvdz iop(5/13=1,5/36=2,99/5=2) pseudo=read geom=check gue
 ss=(read,tcheck) scf=(maxcycle=1)
 ----------------------------------------------------------------------
 -----
 title
 -----
 Structure from the checkpoint file:  "2-methylbutane.chk"
 Charge =  0 Multiplicity = 1

                         Standard orientation:
 ---------------------------------------------------------------------
 Center     Atomic      Atomic             Coordinates (Angstroms)
 Number     Number       Type             X           Y           Z
 ---------------------------------------------------------------------
      1          6           0        0.350820   -1.850666    0.000000
      2          6           0        0.350820    1.050444    1.263414
      3          6           0        0.350820    1.050444   -1.263414
      4          6           0       -0.805408   -0.847966    0.000000
      5          6           0       -0.414139    0.642850   -0.000000
      6          1           0       -0.031506   -2.872394    0.000000
      7          1           0        0.984723   -1.741982    0.880927
      8          1           0        0.984723   -1.741982   -0.880927
      9          1           0        1.332012    0.574521    1.311117
     10          1           0       -0.197555    0.775240    2.166524
     11          1           0        0.512150    2.129575    1.288536
     12          1           0        1.332012    0.574521   -1.311117
     13          1           0        0.512150    2.129575   -1.288536
     14          1           0       -0.197555    0.775240   -2.166524
     15          1           0       -1.436172   -1.037018   -0.873465
     16          1           0       -1.436172   -1.037018    0.873465
     17          1           0       -1.356290    1.201080   -0.000000
 ---------------------------------------------------------------------

 SCF Done:  E(RHF) =  -196.416319132     A.U. after    2 cycles

 The electronic state is 1-A'.
 Alpha  occ. eigenvalues --  -11.23008 -11.22278 -11.21775 -11.21673 -11.21665
 Alpha  occ. eigenvalues --   -1.07771  -0.98246  -0.92272  -0.86102  -0.74664
 Alpha  occ. eigenvalues --   -0.63718  -0.61630  -0.59434  -0.55329  -0.53807
 Alpha  occ. eigenvalues --   -0.52543  -0.52114  -0.49080  -0.45636  -0.45084
 Alpha  occ. eigenvalues --   -0.44780
 Alpha virt. eigenvalues --    0.03547   0.04501   0.04746   0.04815   0.06625
 Alpha virt. eigenvalues --    0.06814   0.06930   0.07223   0.07241   0.09458
 Alpha virt. eigenvalues --    0.09910   0.10278   0.13280   0.14195   0.15332

 Mulliken charges:
               1
     1  C    0.479847
     2  C    0.762266
     3  C    0.762266
     4  C    0.376407
     5  C   -1.287315
     6  H   -0.073937
     7  H   -0.103871
     8  H   -0.103871
     9  H   -0.075729
    10  H   -0.069515
    11  H   -0.085748
    12  H   -0.075729
    13  H   -0.085748
    14  H   -0.069515
    15  H   -0.132087
    16  H   -0.132087
    17  H   -0.085635
 Sum of Mulliken charges =  -0.00000

 Dipole moment (field-independent basis, Debye):
    X=             -0.1388    Y=              0.0286    Z=             -0.0000  Tot=              0.1418

 Test job not archived.
 1\1\GINC-SE010\SP\RHF\Aug-CC-pVDZ\C5H12\OHZDE\05-Apr-2025\0\\#t hf aug
 -cc-pvdz iop(5/13=1,5/36=2,99/5=2) pseudo=read geom=check guess=(read,
 tcheck) scf=(maxcycle=1)\\title\\0,1\C,0,0.35082,-1.850666,0.\C,0,0.35
 082,1.050444,1.263414\C,0,0.35082,1.050444,-1.263414\C,0,-0.805408,-0.
 847966,0.\C,0,-0.414139,0.64285,0.\H,0,-0.031506,-2.872394,0.\H,0,0.98
 4723,-1.741982,0.880927\H,0,0.984723,-1.741982,-0.880927\H,0,1.332012,
 0.574521,1.311117\H,0,-0.197555,0.77524,2.166524\H,0,0.51215,2.129575,
 1.288536\H,0,1.332012,0.574521,-1.311117\H,0,0.51215,2.129575,-1.28853

 Normal termination of Gaussian 16 at Sat Apr  5 22:30:28 2025.
