 Gaussian 16, Revision C.01,

 ----------------------------------------------------------------------
 #t hf aug-cc-pvdz symm=none int=(grid=ultrafine) guess=(read,tcheck) s
 table=(opt,rrhf)
 ----------------------------------------------------------------------
 -----
 title
 -----
 Symbolic Z-matrix:
 Charge =  0 Multiplicity = 1

 SCF Done:  E(RHF) =  -274.428631242     A.U. after   11 cycles
 Normal termination of Gaussian 16 at Sat Apr  5 22:32:16 2025.
 Gaussian 16:  ES64L-G16RevC.01  3-Jul-2019

 ----------------------------------------------------------------------
 #t hf aug-cc-pvdz iop(5/13=1,5/36=2,99/5=2) pseudo=read geom=check gue
 ss=(read,tcheck) scf=(maxcycle=1)
 ----------------------------------------------------------------------
 -----
 title
 -----
 Structure from the checkpoint file:  "2-methylhexane.chk"
 Charge =  0 Multiplicity = 1

                         Standard orientation:
 ---------------------------------------------------------------------
 Center     Atomic      Atomic             Coordinates (Angstroms)
 Number     Number       Type             X           Y           Z
 ---------------------------------------------------------------------
      1          6           0       -0.868384    3.234895   -0.000000
      2          6           0       -0.219571   -2.152365    1.263450
      3          6           0       -0.219571   -2.152365   -1.263450
      4          6           0        0.268040    2.213869   -0.000000
      5          6           0       -0.219571    0.763488   -0.000000
      6          6           0        0.930524   -0.247686    0.000000
      7          6           0        0.542679   -1.739197    0.000000
      8          1           0       -0.486911    4.257021   -0.000000
      9          1           0       -1.503449    3.118553   -0.880742
     10          1           0       -1.503449    3.118553    0.880742
     11          1           0       -1.205277   -1.685922    1.310069
     12          1           0       -0.370188   -3.233066    1.289312
     13          1           0        0.325690   -1.871056    2.166571
     14          1           0       -1.205277   -1.685922   -1.310069
     15          1           0       -0.370188   -3.233066   -1.289312
     16          1           0        0.325690   -1.871056   -2.166571
     17          1           0        0.905576    2.378650    0.873933
     18          1           0        0.905576    2.378650   -0.873933
     19          1           0       -0.856827    0.606146    0.874834
     20          1           0       -0.856827    0.606146   -0.874834
     21          1           0        1.561967   -0.056811   -0.873944
     22          1           0        1.561967   -0.056811    0.873944
     23          1           0        1.487050   -2.293848    0.000000
 ---------------------------------------------------------------------

 SCF Done:  E(RHF) =  -274.517655386     A.U. after    2 cycles

 The electronic state is 1-A'.
 Alpha  occ. eigenvalues --  -11.23018 -11.22320 -11.22022 -11.21951 -11.21859
 Alpha  occ. eigenvalues --  -11.21654 -11.21646  -1.08472  -1.04043  -0.95955
 Alpha  occ. eigenvalues --   -0.92250  -0.86915  -0.79836  -0.74740  -0.64391
 Alpha  occ. eigenvalues --   -0.62919  -0.59636  -0.58950  -0.57383  -0.54713
 Alpha  occ. eigenvalues --   -0.53603  -0.52522  -0.49893  -0.49507  -0.48082
 Alpha  occ. eigenvalues --   -0.46776  -0.45336  -0.44600  -0.43598
 Alpha virt. eigenvalues --    0.03475   0.04019   0.04462   0.04495   0.05795
 Alpha virt. eigenvalues --    0.06149   0.06234   0.06693   0.07080   0.08168
 Alpha virt. eigenvalues --    0.08546   0.08850   0.09269   0.10241   0.11424

 Mulliken charges:
               1
     1  C    0.632803
     2  C    0.806965
     3  C    0.806965
     4  C    0.317899
     5  C    0.195576
     6  C    0.295445
     7  C   -1.094662
     8  H   -0.064503
     9  H   -0.083627
    10  H   -0.083627
    11  H   -0.066525
    12  H   -0.107195
    13  H   -0.070397
    14  H   -0.066525
    15  H   -0.107195
    16  H   -0.070397
    17  H   -0.164810
    18  H   -0.164810
    19  H   -0.241268
    20  H   -0.241268
    21  H   -0.191512
    22  H   -0.191512
    23  H   -0.045816
 Sum of Mulliken charges =  -0.00000

 Dipole moment (field-independent basis, Debye):
    X=              0.1354    Y=             -0.0422    Z=             -0.0000  Tot=              0.1418

 Test job not archived.
 1\1\GINC-SE014\SP\RHF\Aug-CC-pVDZ\C7H16\OHZDE\05-Apr-2025\0\\#t hf aug
 -cc-pvdz iop(5/13=1,5/36=2,99/5=2) pseudo=read geom=check guess=(read,
 tcheck) scf=(maxcycle=1)\\title\\0,1\C,0,-0.868384,3.234895,0.\C,0,-0.
 219571,-2.152365,1.26345\C,0,-0.219571,-2.152365,-1.26345\C,0,0.26804,
 2.213869,0.\C,0,-0.219571,0.763488,0.\C,0,0.930524,-0.247686,0.\C,0,0.
 542679,-1.739197,0.\H,0,-0.486911,4.257021,0.\H,0,-1.503449,3.118553,-
 0.880742\H,0,-1.503449,3.118553,0.880742\H,0,-1.205277,-1.685922,1.310
 069\H,0,-0.370188,-3.233066,1.289312\H,0,0.32569,-1.871056,2.166571\H,

 Normal termination of Gaussian 16 at Sat Apr  5 22:32:24 2025.
