 Gaussian 16, Revision C.01,

 ----------------------------------------------------------------------
 #t hf aug-cc-pvdz symm=none int=(grid=ultrafine) guess=(read,tcheck) s
 table=(opt,rrhf)
 ----------------------------------------------------------------------
 -----
 title
 -----
 Symbolic Z-matrix:
 Charge =  0 Multiplicity = 1

 SCF Done:  E(RHF) =  -232.191208997     A.U. after   12 cycles

 1\1\GINC-SE164\Stability\RHF\Aug-CC-pVDZ\C4H10O1\OHZDE\05-Apr-2025\0\\
 #t hf aug-cc-pvdz symm=none int=(grid=ultrafine) guess=(read,tcheck) s
 table=(opt,rrhf)\\title\\0,1\C,0,-0.486076,-0.705434,1.261168\C,0,-0.4
 86076,-0.705434,-1.261168\C,0,1.521674,0.142791,0.\C,0,0.001813,0.0122
 59,0.\O,0,-0.486076,1.369657,0.\H,0,-1.57707,-0.763138,1.276432\H,0,-0
 .09932,-1.724561,1.310729\H,0,-0.160405,-0.167882,2.151574\H,0,-0.1604
 05,-0.167882,-2.151574\H,0,-1.57707,-0.763138,-1.276432\H,0,-0.09932,-
 1.724561,-1.310729\H,0,1.854033,0.688346,0.883017\H,0,1.994672,-0.8395

 Normal termination of Gaussian 16 at Sat Apr  5 22:30:48 2025.
 Gaussian 16:  ES64L-G16RevC.01  3-Jul-2019

 ----------------------------------------------------------------------
 #t hf aug-cc-pvdz iop(5/13=1,5/36=2,99/5=2) pseudo=read geom=check gue
 ss=(read,tcheck) scf=(maxcycle=1)
 ----------------------------------------------------------------------
 -----
 title
 -----
 Structure from the checkpoint file:  "2-methylpropan-2-ol.chk"
 Charge =  0 Multiplicity = 1

                         Standard orientation:
 ---------------------------------------------------------------------
 Center     Atomic      Atomic             Coordinates (Angstroms)
 Number     Number       Type             X           Y           Z
 ---------------------------------------------------------------------
      1          6           0       -0.486076   -0.705434    1.261168
      2          6           0       -0.486076   -0.705434   -1.261168
      3          6           0        1.521674    0.142791    0.000000
      4          6           0        0.001813    0.012259    0.000000
      5          8           0       -0.486076    1.369657    0.000000
      6          1           0       -1.577070   -0.763138    1.276432
      7          1           0       -0.099320   -1.724561    1.310729
      8          1           0       -0.160405   -0.167882    2.151574
      9          1           0       -0.160405   -0.167882   -2.151574
     10          1           0       -1.577070   -0.763138   -1.276432
     11          1           0       -0.099320   -1.724561   -1.310729
     12          1           0        1.854033    0.688346    0.883017
     13          1           0        1.994672   -0.839511    0.000000
     14          1           0        1.854033    0.688346   -0.883017
     15          1           0       -1.448562    1.351622   -0.000000
 ---------------------------------------------------------------------

 SCF Done:  E(RHF) =  -232.266322623     A.U. after    2 cycles

 The electronic state is 1-A'.
 Alpha  occ. eigenvalues --  -20.56316 -11.29482 -11.22494 -11.22486 -11.21895
 Alpha  occ. eigenvalues --   -1.31434  -1.05721  -0.93810  -0.93654  -0.77826
 Alpha  occ. eigenvalues --   -0.67721  -0.62865  -0.62652  -0.58098  -0.56088
 Alpha  occ. eigenvalues --   -0.53475  -0.51928  -0.51748  -0.51042  -0.46716
 Alpha  occ. eigenvalues --   -0.44282
 Alpha virt. eigenvalues --    0.03362   0.04687   0.04830   0.05171   0.06819
 Alpha virt. eigenvalues --    0.06967   0.07078   0.07573   0.07867   0.09592
 Alpha virt. eigenvalues --    0.12302   0.14031   0.14755   0.15587   0.15680

 Mulliken charges:
               1
     1  C    1.022411
     2  C    1.022411
     3  C    0.879148
     4  C   -2.574612
     5  O   -0.451838
     6  H   -0.072269
     7  H    0.035618
     8  H    0.010006
     9  H    0.010006
    10  H   -0.072269
    11  H    0.035618
    12  H   -0.008423
    13  H    0.063778
    14  H   -0.008423
    15  H    0.108838
 Sum of Mulliken charges =  -0.00000

 Dipole moment (field-independent basis, Debye):
    X=             -0.8248    Y=             -1.6218    Z=             -0.0000  Tot=              1.8194

 Test job not archived.
 1\1\GINC-SE164\SP\RHF\Aug-CC-pVDZ\C4H10O1\OHZDE\05-Apr-2025\0\\#t hf a
 ug-cc-pvdz iop(5/13=1,5/36=2,99/5=2) pseudo=read geom=check guess=(rea
 d,tcheck) scf=(maxcycle=1)\\title\\0,1\C,0,-0.486076,-0.705434,1.26116
 8\C,0,-0.486076,-0.705434,-1.261168\C,0,1.521674,0.142791,0.\C,0,0.001
 813,0.012259,0.\O,0,-0.486076,1.369657,0.\H,0,-1.57707,-0.763138,1.276
 432\H,0,-0.09932,-1.724561,1.310729\H,0,-0.160405,-0.167882,2.151574\H
 ,0,-0.160405,-0.167882,-2.151574\H,0,-1.57707,-0.763138,-1.276432\H,0,
 -0.09932,-1.724561,-1.310729\H,0,1.854033,0.688346,0.883017\H,0,1.9946

 Normal termination of Gaussian 16 at Sat Apr  5 22:32:17 2025.
