 Gaussian 16, Revision C.01,

 ----------------------------------------------------------------------
 #t hf aug-cc-pvdz symm=none int=(grid=ultrafine) guess=(read,tcheck) s
 table=(opt,rrhf)
 ----------------------------------------------------------------------
 -----
 title
 -----
 Symbolic Z-matrix:
 Charge =  0 Multiplicity = 1

 SCF Done:  E(RHF) =  -210.022322845     A.U. after   13 cycles
 Normal termination of Gaussian 16 at Sat Apr  5 22:30:48 2025.
 Gaussian 16:  ES64L-G16RevC.01  3-Jul-2019

 ----------------------------------------------------------------------
 #t hf aug-cc-pvdz iop(5/13=1,5/36=2,99/5=2) pseudo=read geom=check gue
 ss=(read,tcheck) scf=(maxcycle=1)
 ----------------------------------------------------------------------
 -----
 title
 -----
 Structure from the checkpoint file:  "2-methylpropanenitrile.chk"
 Charge =  0 Multiplicity = 1

                         Standard orientation:
 ---------------------------------------------------------------------
 Center     Atomic      Atomic             Coordinates (Angstroms)
 Number     Number       Type             X           Y           Z
 ---------------------------------------------------------------------
      1          7           0       -0.400750   -2.173012   -0.000000
      2          6           0       -0.026829   -1.085083   -0.000000
      3          1           0        1.527406    0.267302    0.000000
      4          6           0        0.434603    0.306529    0.000000
      5          1           0        0.322951    0.513931    2.170270
      6          1           0        0.322951    0.513931   -2.170270
      7          1           0       -1.114559    1.081957   -1.317044
      8          1           0       -1.114559    1.081957    1.317044
      9          6           0       -0.026829    1.027994   -1.276481
     10          6           0       -0.026829    1.027994    1.276481
     11          1           0        0.368182    2.043699   -1.284867
     12          1           0        0.368182    2.043699    1.284867
 ---------------------------------------------------------------------

 SCF Done:  E(RHF) =  -210.088206914     A.U. after    2 cycles

 The electronic state is 1-A'.
 Alpha  occ. eigenvalues --  -15.63299 -11.29709 -11.28092 -11.25432 -11.25426
 Alpha  occ. eigenvalues --   -1.19306  -1.09933  -0.95907  -0.87898  -0.70767
 Alpha  occ. eigenvalues --   -0.64733  -0.60334  -0.56976  -0.56929  -0.53391
 Alpha  occ. eigenvalues --   -0.52669  -0.52637  -0.45328  -0.45254
 Alpha virt. eigenvalues --    0.02727   0.04277   0.04325   0.05347   0.07014
 Alpha virt. eigenvalues --    0.07069   0.07376   0.09682   0.11117   0.12760
 Alpha virt. eigenvalues --    0.14132   0.14535   0.14910   0.15467   0.15854

 Mulliken charges:
               1
     1  N   -0.168219
     2  C   -0.413309
     3  H    0.010623
     4  C   -0.460513
     5  H   -0.074936
     6  H   -0.074936
     7  H   -0.025296
     8  H   -0.025296
     9  C    0.673790
    10  C    0.673790
    11  H   -0.057848
    12  H   -0.057848
 Sum of Mulliken charges =  -0.00000

 Dipole moment (field-independent basis, Debye):
    X=              1.2313    Y=              4.1298    Z=             -0.0000  Tot=              4.3095

 Test job not archived.
 1\1\GINC-SE185\SP\RHF\Aug-CC-pVDZ\C4H7N1\OHZDE\05-Apr-2025\0\\#t hf au
 g-cc-pvdz iop(5/13=1,5/36=2,99/5=2) pseudo=read geom=check guess=(read
 ,tcheck) scf=(maxcycle=1)\\title\\0,1\N,0,-0.40075,-2.173012,0.\C,0,-0
 .026829,-1.085083,0.\H,0,1.527406,0.267302,0.\C,0,0.434603,0.306529,0.
 \H,0,0.322951,0.513931,2.17027\H,0,0.322951,0.513931,-2.17027\H,0,-1.1
 14559,1.081957,-1.317044\H,0,-1.114559,1.081957,1.317044\C,0,-0.026829
 ,1.027994,-1.276481\C,0,-0.026829,1.027994,1.276481\H,0,0.368182,2.043
 699,-1.284867\H,0,0.368182,2.043699,1.284867\\Version=ES64L-G16RevC.01

 Normal termination of Gaussian 16 at Sat Apr  5 22:32:17 2025.
