 Gaussian 16, Revision C.01,

 ----------------------------------------------------------------------
 #t hf aug-cc-pvdz symm=none int=(grid=ultrafine) guess=(read,tcheck) s
 table=(opt,rrhf)
 ----------------------------------------------------------------------
 -----
 title
 -----
 Symbolic Z-matrix:
 Charge =  0 Multiplicity = 1

 SCF Done:  E(RHF) =  -285.769100195     A.U. after   14 cycles
 Normal termination of Gaussian 16 at Sat Apr  5 22:32:21 2025.
 Gaussian 16:  ES64L-G16RevC.01  3-Jul-2019

 ----------------------------------------------------------------------
 #t hf aug-cc-pvdz iop(5/13=1,5/36=2,99/5=2) pseudo=read geom=check gue
 ss=(read,tcheck) scf=(maxcycle=1)
 ----------------------------------------------------------------------
 -----
 title
 -----
 Structure from the checkpoint file:  "2-methylpyridine.chk"
 Charge =  0 Multiplicity = 1

                         Standard orientation:
 ---------------------------------------------------------------------
 Center     Atomic      Atomic             Coordinates (Angstroms)
 Number     Number       Type             X           Y           Z
 ---------------------------------------------------------------------
      1          7           0        1.184590    0.251105    0.000000
      2          6           0       -0.000000    0.875562    0.000000
      3          6           0       -1.202367    0.166726    0.000000
      4          6           0       -1.174475   -1.220655    0.000000
      5          6           0        0.054155   -1.864985    0.000000
      6          6           0        1.201261   -1.080306    0.000000
      7          6           0        0.032915    2.378142    0.000000
      8          1           0       -2.143876    0.698947    0.000000
      9          1           0       -2.096226   -1.787364    0.000000
     10          1           0        0.127330   -2.943410    0.000000
     11          1           0        2.181582   -1.544032    0.000000
     12          1           0       -0.968801    2.804749    0.000000
     13          1           0        0.569466    2.743239    0.876757
     14          1           0        0.569466    2.743239   -0.876757
 ---------------------------------------------------------------------

 SCF Done:  E(RHF) =  -285.854018673     A.U. after    2 cycles

 The electronic state is 1-A'.
 Alpha  occ. eigenvalues --  -15.62199 -11.28920 -11.28247 -11.26548 -11.24441
 Alpha  occ. eigenvalues --  -11.24400 -11.23222  -1.23083  -1.07496  -1.05087
 Alpha  occ. eigenvalues --   -0.94848  -0.85644  -0.82482  -0.70559  -0.67250
 Alpha  occ. eigenvalues --   -0.64152  -0.58843  -0.58835  -0.57378  -0.54115
 Alpha  occ. eigenvalues --   -0.51893  -0.51371  -0.40708  -0.38079  -0.33964
 Alpha virt. eigenvalues --    0.03185   0.03774   0.04376   0.05829   0.06135
 Alpha virt. eigenvalues --    0.06200   0.08042   0.09262   0.10968   0.11132
 Alpha virt. eigenvalues --    0.12054   0.12082   0.12975   0.14239   0.14351

 Mulliken charges:
               1
     1  N   -0.510489
     2  C   -0.253852
     3  C    1.011034
     4  C   -0.390251
     5  C    0.824071
     6  C    0.517517
     7  C    0.468303
     8  H   -0.502515
     9  H   -0.414578
    10  H   -0.407603
    11  H   -0.369422
    12  H   -0.094842
    13  H    0.061313
    14  H    0.061313
 Sum of Mulliken charges =  -0.00000

 Dipole moment (field-independent basis, Debye):
    X=             -1.7411    Y=             -0.6733    Z=             -0.0000  Tot=              1.8667

 Test job not archived.
 1\1\GINC-SE194\SP\RHF\Aug-CC-pVDZ\C6H7N1\OHZDE\05-Apr-2025\0\\#t hf au
 g-cc-pvdz iop(5/13=1,5/36=2,99/5=2) pseudo=read geom=check guess=(read
 ,tcheck) scf=(maxcycle=1)\\title\\0,1\N,0,1.18459,0.251105,0.\C,0,0.,0
 .875562,0.\C,0,-1.202367,0.166726,0.\C,0,-1.174475,-1.220655,0.\C,0,0.
 054155,-1.864985,0.\C,0,1.201261,-1.080306,0.\C,0,0.032915,2.378142,0.
 \H,0,-2.143876,0.698947,0.\H,0,-2.096226,-1.787364,0.\H,0,0.12733,-2.9
 4341,0.\H,0,2.181582,-1.544032,0.\H,0,-0.968801,2.804749,0.\H,0,0.5694
 66,2.743239,0.876757\H,0,0.569466,2.743239,-0.876757\\Version=ES64L-G1

 Normal termination of Gaussian 16 at Sat Apr  5 22:32:26 2025.
