 Gaussian 16, Revision C.01,

 ----------------------------------------------------------------------
 #t hf aug-cc-pvdz symm=none int=(grid=ultrafine) guess=(read,tcheck) s
 table=(opt,rrhf)
 ----------------------------------------------------------------------
 -----
 title
 -----
 Symbolic Z-matrix:
 Charge =  0 Multiplicity = 1

 SCF Done:  E(RHF) =  -271.209671191     A.U. after   12 cycles

 1\1\GINC-SE183\Stability\RHF\Aug-CC-pVDZ\C5H12O1\OHZDE\05-Apr-2025\0\\
 #t hf aug-cc-pvdz symm=none int=(grid=ultrafine) guess=(read,tcheck) s
 table=(opt,rrhf)\\title\\0,1\C,0,-0.634025,0.771526,1.26238\C,0,1.5183
 92,1.037638,0.\C,0,-0.634025,0.771526,-1.26238\C,0,-0.634025,-1.948562
 ,0.\C,0,0.140834,0.377397,0.\O,0,0.443226,-1.034249,0.\H,0,-0.10178,0.
 437781,2.153609\H,0,-0.741929,1.855478,1.313981\H,0,-1.636409,0.343353
 ,1.277197\H,0,2.081691,0.735411,-0.882718\H,0,2.081691,0.735411,0.8827
 18\H,0,1.426783,2.124044,0.\H,0,-1.636409,0.343353,-1.277197\H,0,-0.74

 Normal termination of Gaussian 16 at Sat Apr  5 22:29:01 2025.
 Gaussian 16:  ES64L-G16RevC.01  3-Jul-2019

 ----------------------------------------------------------------------
 #t hf aug-cc-pvdz iop(5/13=1,5/36=2,99/5=2) pseudo=read geom=check gue
 ss=(read,tcheck) scf=(maxcycle=1)
 ----------------------------------------------------------------------
 -----
 title
 -----
 Structure from the checkpoint file:  "2-methoxy-2-methylpropane.chk"
 Charge =  0 Multiplicity = 1

                         Standard orientation:
 ---------------------------------------------------------------------
 Center     Atomic      Atomic             Coordinates (Angstroms)
 Number     Number       Type             X           Y           Z
 ---------------------------------------------------------------------
      1          6           0       -0.634025    0.771526    1.262380
      2          6           0        1.518392    1.037638   -0.000000
      3          6           0       -0.634025    0.771526   -1.262380
      4          6           0       -0.634025   -1.948562    0.000000
      5          6           0        0.140834    0.377397   -0.000000
      6          8           0        0.443226   -1.034249    0.000000
      7          1           0       -0.101780    0.437781    2.153609
      8          1           0       -0.741929    1.855478    1.313981
      9          1           0       -1.636409    0.343353    1.277197
     10          1           0        2.081691    0.735411   -0.882718
     11          1           0        2.081691    0.735411    0.882718
     12          1           0        1.426783    2.124044   -0.000000
     13          1           0       -1.636409    0.343353   -1.277197
     14          1           0       -0.741929    1.855478   -1.313981
     15          1           0       -0.101780    0.437781   -2.153609
     16          1           0       -1.264755   -1.854556   -0.889485
     17          1           0       -1.264755   -1.854556    0.889485
     18          1           0       -0.189132   -2.942139    0.000000
 ---------------------------------------------------------------------

 SCF Done:  E(RHF) =  -271.298730961     A.U. after    2 cycles

 The electronic state is 1-A'.
 Alpha  occ. eigenvalues --  -20.55847 -11.29289 -11.27412 -11.22201 -11.22193
 Alpha  occ. eigenvalues --  -11.21641  -1.31930  -1.06547  -0.94230  -0.93642
 Alpha  occ. eigenvalues --   -0.90788  -0.75476  -0.65926  -0.64886  -0.64076
 Alpha  occ. eigenvalues --   -0.59603  -0.57841  -0.55542  -0.53531  -0.52674
 Alpha  occ. eigenvalues --   -0.51681  -0.49239  -0.49204  -0.45180  -0.42311
 Alpha virt. eigenvalues --    0.03493   0.04568   0.04831   0.04905   0.06400
 Alpha virt. eigenvalues --    0.06740   0.06755   0.07008   0.07322   0.09524
 Alpha virt. eigenvalues --    0.09554   0.09949   0.11620   0.13216   0.14436

 Mulliken charges:
               1
     1  C    1.124424
     2  C    0.836577
     3  C    1.124424
     4  C    0.849753
     5  C   -2.593309
     6  O   -0.610265
     7  H    0.009113
     8  H   -0.006619
     9  H   -0.105754
    10  H   -0.022799
    11  H   -0.022799
    12  H    0.033759
    13  H   -0.105754
    14  H   -0.006619
    15  H    0.009113
    16  H   -0.131230
    17  H   -0.131230
    18  H   -0.250784
 Sum of Mulliken charges =  -0.00000

 Dipole moment (field-independent basis, Debye):
    X=             -1.3482    Y=              0.6209    Z=              0.0000  Tot=              1.4843

 Test job not archived.
 1\1\GINC-SE183\SP\RHF\Aug-CC-pVDZ\C5H12O1\OHZDE\05-Apr-2025\0\\#t hf a
 ug-cc-pvdz iop(5/13=1,5/36=2,99/5=2) pseudo=read geom=check guess=(rea
 d,tcheck) scf=(maxcycle=1)\\title\\0,1\C,0,-0.634025,0.771526,1.26238\
 C,0,1.518392,1.037638,0.\C,0,-0.634025,0.771526,-1.26238\C,0,-0.634025
 ,-1.948562,0.\C,0,0.140834,0.377397,0.\O,0,0.443226,-1.034249,0.\H,0,-
 0.10178,0.437781,2.153609\H,0,-0.741929,1.855478,1.313981\H,0,-1.63640
 9,0.343353,1.277197\H,0,2.081691,0.735411,-0.882718\H,0,2.081691,0.735
 411,0.882718\H,0,1.426783,2.124044,0.\H,0,-1.636409,0.343353,-1.277197

 Normal termination of Gaussian 16 at Sat Apr  5 22:29:26 2025.
