 Gaussian 16, Revision C.01,

 ----------------------------------------------------------------------
 #t hf aug-cc-pvdz symm=none int=(grid=ultrafine) guess=(read,tcheck) s
 table=(opt,rrhf)
 ----------------------------------------------------------------------
 -----
 title
 -----
 Symbolic Z-matrix:
 Charge =  0 Multiplicity = 1

 SCF Done:  E(RHF) =  -212.349709747     A.U. after   12 cycles

 1\1\GINC-SE106\Stability\RHF\Aug-CC-pVDZ\C4H11N1\OHZDE\05-Apr-2025\0\\
 #t hf aug-cc-pvdz symm=none int=(grid=ultrafine) guess=(read,tcheck) s
 table=(opt,rrhf)\\title\\0,1\N,0,-2.017293,-0.02783,-0.195165\H,0,-2.8
 20908,-0.592269,0.048212\H,0,-2.147266,0.872192,0.248999\C,0,-0.776018
 ,-0.669821,0.249843\H,0,-0.672045,-0.698833,1.345476\H,0,-0.809076,-1.
 707432,-0.088935\C,0,1.722505,-0.804982,0.017003\H,0,1.877218,-0.83259
 9,1.098733\H,0,1.649672,-1.835748,-0.334919\H,0,2.613446,-0.362479,-0.
 430967\C,0,0.606424,1.454776,0.111148\H,0,1.501894,1.911846,-0.313053\

 Normal termination of Gaussian 16 at Sat Apr  5 22:28:24 2025.
 Gaussian 16:  ES64L-G16RevC.01  3-Jul-2019

 ----------------------------------------------------------------------
 #t hf aug-cc-pvdz iop(5/13=1,5/36=2,99/5=2) pseudo=read geom=check gue
 ss=(read,tcheck) scf=(maxcycle=1)
 ----------------------------------------------------------------------
 -----
 title
 -----
 Structure from the checkpoint file:  "2-methyl-1-propanamine.chk"
 Charge =  0 Multiplicity = 1

                         Standard orientation:
 ---------------------------------------------------------------------
 Center     Atomic      Atomic             Coordinates (Angstroms)
 Number     Number       Type             X           Y           Z
 ---------------------------------------------------------------------
      1          7           0       -2.017293   -0.027830   -0.195165
      2          1           0       -2.820908   -0.592269    0.048212
      3          1           0       -2.147266    0.872192    0.248999
      4          6           0       -0.776018   -0.669821    0.249843
      5          1           0       -0.672045   -0.698833    1.345476
      6          1           0       -0.809076   -1.707432   -0.088935
      7          6           0        1.722505   -0.804982    0.017003
      8          1           0        1.877218   -0.832599    1.098733
      9          1           0        1.649672   -1.835748   -0.334919
     10          1           0        2.613446   -0.362479   -0.430967
     11          6           0        0.606424    1.454776    0.111148
     12          1           0        1.501894    1.911846   -0.313053
     13          1           0       -0.244796    2.059218   -0.204351
     14          1           0        0.687235    1.520067    1.200032
     15          6           0        0.469897   -0.001587   -0.340529
     16          1           0        0.348831   -0.009471   -1.427859
 ---------------------------------------------------------------------

 SCF Done:  E(RHF) =  -212.418093555     A.U. after    2 cycles

 The electronic state is 1-A.
 Alpha  occ. eigenvalues --  -15.60140 -11.25265 -11.22848 -11.21902 -11.21868
 Alpha  occ. eigenvalues --   -1.14675  -1.05112  -0.92522  -0.88957  -0.76429
 Alpha  occ. eigenvalues --   -0.66773  -0.63489  -0.59653  -0.58164  -0.55422
 Alpha  occ. eigenvalues --   -0.53676  -0.51887  -0.47122  -0.46587  -0.46206
 Alpha  occ. eigenvalues --   -0.38036
 Alpha virt. eigenvalues --    0.03559   0.04249   0.04519   0.04942   0.06701
 Alpha virt. eigenvalues --    0.06781   0.07302   0.07629   0.07803   0.09374
 Alpha virt. eigenvalues --    0.10060   0.13997   0.14602   0.15041   0.15675

 Mulliken charges:
               1
     1  N   -0.336777
     2  H   -0.022749
     3  H    0.032178
     4  C    0.965723
     5  H   -0.103138
     6  H   -0.181938
     7  C    0.700344
     8  H   -0.009565
     9  H   -0.072388
    10  H   -0.086298
    11  C    0.756758
    12  H   -0.076189
    13  H   -0.123725
    14  H   -0.014165
    15  C   -1.302061
    16  H   -0.126011
 Sum of Mulliken charges =  -0.00000

 Dipole moment (field-independent basis, Debye):
    X=             -0.1135    Y=             -0.1640    Z=              1.1285  Tot=              1.1460

 Test job not archived.
 1\1\GINC-SE106\SP\RHF\Aug-CC-pVDZ\C4H11N1\OHZDE\05-Apr-2025\0\\#t hf a
 ug-cc-pvdz iop(5/13=1,5/36=2,99/5=2) pseudo=read geom=check guess=(rea
 d,tcheck) scf=(maxcycle=1)\\title\\0,1\N,0,-2.017293,-0.02783,-0.19516
 5\H,0,-2.820908,-0.592269,0.048212\H,0,-2.147266,0.872192,0.248999\C,0
 ,-0.776018,-0.669821,0.249843\H,0,-0.672045,-0.698833,1.345476\H,0,-0.
 809076,-1.707432,-0.088935\C,0,1.722505,-0.804982,0.017003\H,0,1.87721
 8,-0.832599,1.098733\H,0,1.649672,-1.835748,-0.334919\H,0,2.613446,-0.
 362479,-0.430967\C,0,0.606424,1.454776,0.111148\H,0,1.501894,1.911846,

 Normal termination of Gaussian 16 at Sat Apr  5 22:29:03 2025.
