 Gaussian 16, Revision C.01,

 ----------------------------------------------------------------------
 #t hf aug-cc-pvdz symm=none int=(grid=ultrafine) guess=(read,tcheck) s
 table=(opt,rrhf)
 ----------------------------------------------------------------------
 -----
 title
 -----
 Symbolic Z-matrix:
 Charge =  0 Multiplicity = 1

 SCF Done:  E(RHF) =  -231.017228773     A.U. after   14 cycles
 Normal termination of Gaussian 16 at Sat Apr  5 22:30:48 2025.
 Gaussian 16:  ES64L-G16RevC.01  3-Jul-2019

 ----------------------------------------------------------------------
 #t hf aug-cc-pvdz iop(5/13=1,5/36=2,99/5=2) pseudo=read geom=check gue
 ss=(read,tcheck) scf=(maxcycle=1)
 ----------------------------------------------------------------------
 -----
 title
 -----
 Structure from the checkpoint file:  "2-methylpropanal.chk"
 Charge =  0 Multiplicity = 1

                         Standard orientation:
 ---------------------------------------------------------------------
 Center     Atomic      Atomic             Coordinates (Angstroms)
 Number     Number       Type             X           Y           Z
 ---------------------------------------------------------------------
      1          6           0        0.937510   -0.611838   -0.203807
      2          6           0       -1.492937   -0.871126    0.255516
      3          6           0       -0.484064    1.465272    0.040969
      4          6           0       -0.424750    0.011005   -0.411659
      5          8           0        1.895644   -0.059647    0.273304
      6          1           0        1.010075   -1.671440   -0.531638
      7          1           0       -1.421771   -1.909326   -0.072827
      8          1           0       -2.490925   -0.510469    0.007755
      9          1           0       -1.387988   -0.851505    1.341538
     10          1           0       -1.458921    1.896199   -0.188710
     11          1           0        0.282989    2.063378   -0.448681
     12          1           0       -0.321325    1.543319    1.116354
     13          1           0       -0.591848   -0.042855   -1.496335
 ---------------------------------------------------------------------

 SCF Done:  E(RHF) =  -231.091904257     A.U. after    2 cycles

 The electronic state is 1-A.
 Alpha  occ. eigenvalues --  -20.57281 -11.34120 -11.25765 -11.24437 -11.22926
 Alpha  occ. eigenvalues --   -1.36060  -1.08455  -0.94364  -0.88776  -0.76460
 Alpha  occ. eigenvalues --   -0.68970  -0.65446  -0.63004  -0.57286  -0.55546
 Alpha  occ. eigenvalues --   -0.54110  -0.53549  -0.49880  -0.48822  -0.42727
 Alpha virt. eigenvalues --    0.03109   0.04396   0.04554   0.05234   0.06828
 Alpha virt. eigenvalues --    0.07090   0.07674   0.07748   0.10286   0.12347
 Alpha virt. eigenvalues --    0.13158   0.14491   0.14704   0.15064   0.15720

 Mulliken charges:
               1
     1  C    0.742062
     2  C    0.584081
     3  C    0.764091
     4  C   -1.178120
     5  O   -0.452050
     6  H   -0.144401
     7  H   -0.105203
     8  H   -0.079070
     9  H   -0.008181
    10  H   -0.042575
    11  H   -0.077581
    12  H   -0.012269
    13  H    0.009215
 Sum of Mulliken charges =  -0.00000

 Dipole moment (field-independent basis, Debye):
    X=             -3.0083    Y=             -1.0342    Z=             -1.2048  Tot=              3.4016

 Test job not archived.
 1\1\GINC-SE011\SP\RHF\Aug-CC-pVDZ\C4H8O1\OHZDE\05-Apr-2025\0\\#t hf au
 g-cc-pvdz iop(5/13=1,5/36=2,99/5=2) pseudo=read geom=check guess=(read
 ,tcheck) scf=(maxcycle=1)\\title\\0,1\C,0,0.93751,-0.611839,-0.203807\
 C,0,-1.492937,-0.871125,0.255516\C,0,-0.484063,1.465272,0.040969\C,0,-
 0.42475,0.011005,-0.411659\O,0,1.895644,-0.059648,0.273304\H,0,1.01007
 4,-1.671441,-0.531638\H,0,-1.421772,-1.909325,-0.072827\H,0,-2.490925,
 -0.510468,0.007755\H,0,-1.387988,-0.851504,1.341538\H,0,-1.45892,1.896
 2,-0.18871\H,0,0.28299,2.063378,-0.448681\H,0,-0.321324,1.543319,1.116

 Normal termination of Gaussian 16 at Sat Apr  5 22:32:17 2025.
