 Gaussian 16, Revision C.01,

 ----------------------------------------------------------------------
 #t hf aug-cc-pvdz symm=none int=(grid=ultrafine) guess=(read,tcheck) s
 table=(opt,rrhf)
 ----------------------------------------------------------------------
 -----
 title
 -----
 Symbolic Z-matrix:
 Charge =  0 Multiplicity = 1

 SCF Done:  E(RHF) =  -234.205521903     A.U. after   13 cycles
 Normal termination of Gaussian 16 at Sat Apr  5 22:31:05 2025.
 Gaussian 16:  ES64L-G16RevC.01  3-Jul-2019

 ----------------------------------------------------------------------
 #t hf aug-cc-pvdz iop(5/13=1,5/36=2,99/5=2) pseudo=read geom=check gue
 ss=(read,tcheck) scf=(maxcycle=1)
 ----------------------------------------------------------------------
 -----
 title
 -----
 Structure from the checkpoint file:  "2-methylpentene.chk"
 Charge =  0 Multiplicity = 1

                         Standard orientation:
 ---------------------------------------------------------------------
 Center     Atomic      Atomic             Coordinates (Angstroms)
 Number     Number       Type             X           Y           Z
 ---------------------------------------------------------------------
      1          6           0       -1.943932   -1.168905   -0.210590
      2          6           0       -1.162345   -0.135589    0.096240
      3          6           0       -1.665731    1.281359    0.033583
      4          6           0        2.748156   -0.046354    0.013425
      5          6           0        0.268935   -0.331004    0.532941
      6          6           0        1.316548    0.202314   -0.457619
      7          1           0       -1.582768   -2.188058   -0.155400
      8          1           0       -2.970744   -1.031650   -0.524857
      9          1           0       -1.553525    1.775593    1.002859
     10          1           0       -1.100728    1.876555   -0.687415
     11          1           0       -2.716479    1.319449   -0.249678
     12          1           0        2.941697   -1.113171    0.142398
     13          1           0        2.938946    0.440991    0.971889
     14          1           0        3.474380    0.337828   -0.704090
     15          1           0        0.450856   -1.395047    0.699684
     16          1           0        0.420342    0.167127    1.497865
     17          1           0        1.169178    1.273433   -0.612395
     18          1           0        1.159056   -0.273982   -1.428743
 ---------------------------------------------------------------------

 SCF Done:  E(RHF) =  -234.281338184     A.U. after    2 cycles

 The electronic state is 1-A.
 Alpha  occ. eigenvalues --  -11.24395 -11.22991 -11.22912 -11.22787 -11.22270
 Alpha  occ. eigenvalues --  -11.21740  -1.09250  -1.02782  -0.93216  -0.91798
 Alpha  occ. eigenvalues --   -0.81156  -0.71938  -0.64299  -0.62972  -0.59261
 Alpha  occ. eigenvalues --   -0.58163  -0.56426  -0.53253  -0.52149  -0.51076
 Alpha  occ. eigenvalues --   -0.48304  -0.47026  -0.46364  -0.34835
 Alpha virt. eigenvalues --    0.03530   0.04324   0.04488   0.04747   0.06079
 Alpha virt. eigenvalues --    0.06280   0.06984   0.07271   0.07754   0.08578
 Alpha virt. eigenvalues --    0.09280   0.11065   0.11805   0.12825   0.13721

 Mulliken charges:
               1
     1  C    1.112449
     2  C   -0.340599
     3  C    0.257834
     4  C    0.482601
     5  C    0.259352
     6  C    0.061458
     7  H   -0.374862
     8  H   -0.421611
     9  H    0.043144
    10  H    0.003221
    11  H   -0.185325
    12  H   -0.079608
    13  H   -0.061993
    14  H   -0.067225
    15  H   -0.232045
    16  H   -0.136192
    17  H   -0.179429
    18  H   -0.141174
 Sum of Mulliken charges =  -0.00000

 Dipole moment (field-independent basis, Debye):
    X=              0.3912    Y=              0.4644    Z=              0.0515  Tot=              0.6093

 Test job not archived.
 1\1\GINC-SE104\SP\RHF\Aug-CC-pVDZ\C6H12\OHZDE\05-Apr-2025\0\\#t hf aug
 -cc-pvdz iop(5/13=1,5/36=2,99/5=2) pseudo=read geom=check guess=(read,
 tcheck) scf=(maxcycle=1)\\title\\0,1\C,0,-1.943932,-1.168905,-0.21059\
 C,0,-1.162345,-0.135589,0.09624\C,0,-1.665731,1.281359,0.033583\C,0,2.
 748156,-0.046354,0.013425\C,0,0.268935,-0.331004,0.532941\C,0,1.316548
 ,0.202314,-0.457619\H,0,-1.582768,-2.188058,-0.1554\H,0,-2.970744,-1.0
 3165,-0.524857\H,0,-1.553525,1.775593,1.002859\H,0,-1.100728,1.876555,
 -0.687415\H,0,-2.716479,1.319449,-0.249678\H,0,2.941697,-1.113171,0.14

 Normal termination of Gaussian 16 at Sat Apr  5 22:32:19 2025.
