 Gaussian 16, Revision C.01,

 ----------------------------------------------------------------------
 #t hf aug-cc-pvdz symm=none int=(grid=ultrafine) guess=(read,tcheck) s
 table=(opt,rrhf)
 ----------------------------------------------------------------------
 -----
 title
 -----
 Symbolic Z-matrix:
 Charge =  0 Multiplicity = 1

 SCF Done:  E(RHF) =  -195.166614866     A.U. after   12 cycles
 Normal termination of Gaussian 16 at Sat Apr  5 22:28:22 2025.
 Gaussian 16:  ES64L-G16RevC.01  3-Jul-2019

 ----------------------------------------------------------------------
 #t hf aug-cc-pvdz iop(5/13=1,5/36=2,99/5=2) pseudo=read geom=check gue
 ss=(read,tcheck) scf=(maxcycle=1)
 ----------------------------------------------------------------------
 -----
 title
 -----
 Structure from the checkpoint file:  "2-methyl-1-butene.chk"
 Charge =  0 Multiplicity = 1

                         Standard orientation:
 ---------------------------------------------------------------------
 Center     Atomic      Atomic             Coordinates (Angstroms)
 Number     Number       Type             X           Y           Z
 ---------------------------------------------------------------------
      1          6           0        0.997463    1.325679    0.022163
      2          1           0        0.373584    1.884891   -0.678759
      3          1           0        2.034359    1.430874   -0.293345
      4          1           0        0.884792    1.810232    0.996291
      5          6           0       -1.914097    0.084632   -0.392799
      6          1           0       -1.882388    1.165754   -0.529981
      7          1           0       -2.902148   -0.167486   -0.005719
      8          1           0       -1.807245   -0.381100   -1.373424
      9          6           0       -0.819378   -0.403315    0.566621
     10          1           0       -0.933041   -1.477083    0.723891
     11          1           0       -0.969525    0.073773    1.541238
     12          6           0        0.586621   -0.119984    0.095100
     13          6           0        1.423162   -1.102883   -0.231347
     14          1           0        1.127074   -2.142429   -0.169432
     15          1           0        2.431914   -0.902201   -0.569192
 ---------------------------------------------------------------------

 SCF Done:  E(RHF) =  -195.230476498     A.U. after    2 cycles

 The electronic state is 1-A.
 Alpha  occ. eigenvalues --  -11.24413 -11.23271 -11.22813 -11.22505 -11.21772
 Alpha  occ. eigenvalues --   -1.08899  -0.99350  -0.92961  -0.85362  -0.71750
 Alpha  occ. eigenvalues --   -0.63126  -0.62977  -0.58704  -0.56764  -0.54457
 Alpha  occ. eigenvalues --   -0.51809  -0.51341  -0.48382  -0.46707  -0.34931
 Alpha virt. eigenvalues --    0.03580   0.04431   0.04654   0.05074   0.06307
 Alpha virt. eigenvalues --    0.06558   0.07333   0.07651   0.09265   0.09713
 Alpha virt. eigenvalues --    0.11351   0.12998   0.14118   0.14576   0.14821

 Mulliken charges:
               1
     1  C    0.250646
     2  H   -0.002425
     3  H   -0.160173
     4  H    0.040175
     5  C    0.391149
     6  H   -0.127410
     7  H   -0.082066
     8  H   -0.093316
     9  C    0.186910
    10  H   -0.157557
    11  H   -0.061262
    12  C   -0.445207
    13  C    1.043363
    14  H   -0.383450
    15  H   -0.399378
 Sum of Mulliken charges =  -0.00000

 Dipole moment (field-independent basis, Debye):
    X=             -0.4041    Y=              0.4041    Z=              0.1393  Tot=              0.5882

 Test job not archived.
 1\1\GINC-SE107\SP\RHF\Aug-CC-pVDZ\C5H10\OHZDE\05-Apr-2025\0\\#t hf aug
 -cc-pvdz iop(5/13=1,5/36=2,99/5=2) pseudo=read geom=check guess=(read,
 tcheck) scf=(maxcycle=1)\\title\\0,1\C,0,0.997463,1.325679,0.022163\H,
 0,0.373584,1.884891,-0.678759\H,0,2.034359,1.430874,-0.293345\H,0,0.88
 4792,1.810232,0.996291\C,0,-1.914097,0.084632,-0.392799\H,0,-1.882388,
 1.165754,-0.529981\H,0,-2.902148,-0.167486,-0.005719\H,0,-1.807245,-0.
 3811,-1.373424\C,0,-0.819378,-0.403315,0.566621\H,0,-0.933041,-1.47708
 3,0.723891\H,0,-0.969525,0.073773,1.541238\C,0,0.586621,-0.119984,0.09

 Normal termination of Gaussian 16 at Sat Apr  5 22:29:03 2025.
