 Gaussian 16, Revision C.01,

 ----------------------------------------------------------------------
 #t hf aug-cc-pvdz symm=none int=(grid=ultrafine) guess=(read,tcheck) s
 table=(opt,rrhf)
 ----------------------------------------------------------------------
 -----
 title
 -----
 Symbolic Z-matrix:
 Charge =  0 Multiplicity = 1

 SCF Done:  E(RHF) =  -593.883462026     A.U. after   12 cycles

 1\1\GINC-SE011\Stability\RHF\Aug-CC-pVDZ\C5H12S1\OHZDE\05-Apr-2025\0\\
 #t hf aug-cc-pvdz symm=none int=(grid=ultrafine) guess=(read,tcheck) s
 table=(opt,rrhf)\\title\\0,1\C,0,0.033256,1.911012,-0.006826\H,0,-0.98
 6044,2.108323,-0.337943\H,0,0.093132,2.170909,1.052977\H,0,0.697112,2.
 582639,-0.552731\S,0,-2.221681,-0.406315,-0.170182\H,0,-2.696542,-1.50
 7291,0.437978\C,0,-0.500845,-0.518317,0.493893\H,0,-0.520646,-0.291581
 ,1.560399\H,0,-0.169368,-1.544432,0.361547\C,0,0.437737,0.451031,-0.23
 1891\H,0,0.370711,0.237349,-1.303989\C,0,2.508461,-1.112816,-0.216529\

 Normal termination of Gaussian 16 at Sat Apr  5 22:29:01 2025.
 Gaussian 16:  ES64L-G16RevC.01  3-Jul-2019

 ----------------------------------------------------------------------
 #t hf aug-cc-pvdz iop(5/13=1,5/36=2,99/5=2) pseudo=read geom=check gue
 ss=(read,tcheck) scf=(maxcycle=1)
 ----------------------------------------------------------------------
 -----
 title
 -----
 Structure from the checkpoint file:  "2-methyl-1-butanethiol.chk"
 Charge =  0 Multiplicity = 1

                         Standard orientation:
 ---------------------------------------------------------------------
 Center     Atomic      Atomic             Coordinates (Angstroms)
 Number     Number       Type             X           Y           Z
 ---------------------------------------------------------------------
      1          6           0        0.033256    1.911012   -0.006826
      2          1           0       -0.986044    2.108323   -0.337943
      3          1           0        0.093132    2.170909    1.052977
      4          1           0        0.697112    2.582639   -0.552731
      5         16           0       -2.221681   -0.406315   -0.170182
      6          1           0       -2.696542   -1.507291    0.437978
      7          6           0       -0.500845   -0.518317    0.493893
      8          1           0       -0.520646   -0.291581    1.560399
      9          1           0       -0.169368   -1.544432    0.361547
     10          6           0        0.437737    0.451031   -0.231891
     11          1           0        0.370711    0.237349   -1.303989
     12          6           0        2.508461   -1.112816   -0.216529
     13          1           0        3.564281   -1.156476    0.053666
     14          1           0        2.018303   -1.959968    0.264207
     15          1           0        2.437887   -1.258057   -1.296481
     16          6           0        1.899038    0.226212    0.199414
     17          1           0        2.499117    1.032331   -0.230492
     18          1           0        1.973065    0.344573    1.285406
 ---------------------------------------------------------------------

 SCF Done:  E(RHF) =  -593.966214018     A.U. after    2 cycles

 The electronic state is 1-A.
 Alpha  occ. eigenvalues --  -93.52803 -11.26700 -11.24416 -11.23367 -11.22721
 Alpha  occ. eigenvalues --  -11.22341  -8.82532  -6.16727  -6.16481  -6.16143
 Alpha  occ. eigenvalues --   -1.09927  -1.01213  -0.97110  -0.88444  -0.84365
 Alpha  occ. eigenvalues --   -0.76954  -0.64367  -0.62324  -0.61140  -0.57828
 Alpha  occ. eigenvalues --   -0.55898  -0.53986  -0.51974  -0.50607  -0.47777
 Alpha  occ. eigenvalues --   -0.47229  -0.46268  -0.43463  -0.35007
 Alpha virt. eigenvalues --    0.03445   0.04196   0.04636   0.04785   0.06365
 Alpha virt. eigenvalues --    0.06657   0.06810   0.07099   0.07536   0.08865
 Alpha virt. eigenvalues --    0.09538   0.09588   0.11791   0.13388   0.13887

 Mulliken charges:
               1
     1  C    0.688769
     2  H   -0.092325
     3  H   -0.015053
     4  H   -0.070070
     5  S    0.314657
     6  H    0.008487
     7  C    0.250992
     8  H   -0.125552
     9  H   -0.203027
    10  C   -0.987411
    11  H   -0.232438
    12  C    0.467514
    13  H   -0.064856
    14  H   -0.108047
    15  H   -0.062355
    16  C    0.481452
    17  H   -0.131735
    18  H   -0.119002
 Sum of Mulliken charges =  -0.00000

 Dipole moment (field-independent basis, Debye):
    X=              1.5576    Y=             -0.5432    Z=              0.7989  Tot=              1.8328

 Test job not archived.
 1\1\GINC-SE011\SP\RHF\Aug-CC-pVDZ\C5H12S1\OHZDE\05-Apr-2025\0\\#t hf a
 ug-cc-pvdz iop(5/13=1,5/36=2,99/5=2) pseudo=read geom=check guess=(rea
 d,tcheck) scf=(maxcycle=1)\\title\\0,1\C,0,0.033256,1.911012,-0.006826
 \H,0,-0.986044,2.108323,-0.337943\H,0,0.093132,2.170909,1.052977\H,0,0
 .697112,2.582639,-0.552731\S,0,-2.221681,-0.406315,-0.170182\H,0,-2.69
 6542,-1.507291,0.437978\C,0,-0.500845,-0.518317,0.493893\H,0,-0.520646
 ,-0.291581,1.560399\H,0,-0.169368,-1.544432,0.361547\C,0,0.437737,0.45
 1031,-0.231891\H,0,0.370711,0.237349,-1.303989\C,0,2.508461,-1.112816,

 Normal termination of Gaussian 16 at Sat Apr  5 22:29:28 2025.
