 Gaussian 16, Revision C.01,

 ----------------------------------------------------------------------
 #t hf aug-cc-pvdz symm=none int=(grid=ultrafine) guess=(read,tcheck) s
 table=(opt,rrhf)
 ----------------------------------------------------------------------
 -----
 title
 -----
 Symbolic Z-matrix:
 Charge =  0 Multiplicity = 1

 SCF Done:  E(RHF) =  -1115.65622355     A.U. after   17 cycles
 Normal termination of Gaussian 16 at Sat Apr  5 22:31:12 2025.
 Gaussian 16:  ES64L-G16RevC.01  3-Jul-2019

 ----------------------------------------------------------------------
 #t hf aug-cc-pvdz iop(5/13=1,5/36=2,99/5=2) pseudo=read geom=check gue
 ss=(read,tcheck) scf=(maxcycle=1)
 ----------------------------------------------------------------------
 -----
 title
 -----
 Structure from the checkpoint file:  "2-nitropropanedithioic_acid.chk"
 Charge =  0 Multiplicity = 1

                         Standard orientation:
 ---------------------------------------------------------------------
 Center     Atomic      Atomic             Coordinates (Angstroms)
 Number     Number       Type             X           Y           Z
 ---------------------------------------------------------------------
      1         16           0       -1.970085   -1.004827    0.404057
      2         16           0       -1.139600    1.747515   -0.120095
      3          8           0        2.148970    1.195733   -0.147249
      4          8           0        1.936106   -0.474437    1.215650
      5          7           0        1.643397    0.143181    0.214618
      6          6           0        0.530339   -0.432912   -0.684238
      7          6           0       -0.823235    0.025273   -0.124545
      8          6           0        0.716286   -1.928719   -0.821212
      9          1           0        0.055106    2.176069   -0.582816
     10          1           0        0.695123    0.073347   -1.632561
     11          1           0        0.587914   -2.431303    0.132211
     12          1           0       -0.020665   -2.316756   -1.520848
     13          1           0        1.712760   -2.138854   -1.208928
 ---------------------------------------------------------------------

 SCF Done:  E(RHF) =  -1115.79078062     A.U. after    2 cycles

 The electronic state is 1-A.
 Alpha  occ. eigenvalues --  -93.59028 -93.54453 -20.64358 -20.63852 -15.93375
 Alpha  occ. eigenvalues --  -11.39170 -11.36058 -11.26726  -8.88833  -8.84340
 Alpha  occ. eigenvalues --   -6.22984  -6.22766  -6.22421  -6.18503  -6.18123
 Alpha  occ. eigenvalues --   -6.17903  -1.57345  -1.39126  -1.17833  -1.08067
 Alpha  occ. eigenvalues --   -0.99021  -0.96279  -0.87295  -0.80344  -0.77011
 Alpha  occ. eigenvalues --   -0.75392  -0.71689  -0.67212  -0.62213  -0.59418
 Alpha  occ. eigenvalues --   -0.57394  -0.54886  -0.53723  -0.51633  -0.50740
 Alpha  occ. eigenvalues --   -0.49134  -0.48245  -0.37026  -0.36802
 Alpha virt. eigenvalues --    0.01104   0.03092   0.04331   0.05136   0.05600
 Alpha virt. eigenvalues --    0.06938   0.07531   0.08382   0.09252   0.10314
 Alpha virt. eigenvalues --    0.11384   0.11921   0.13055   0.13898   0.14337

 Mulliken charges:
               1
     1  S    0.060028
     2  S    0.350590
     3  O   -0.586679
     4  O   -0.561197
     5  N    0.372791
     6  C    0.179688
     7  C   -0.432359
     8  C    0.631349
     9  H    0.112049
    10  H   -0.187760
    11  H    0.050302
    12  H    0.027238
    13  H   -0.016039
 Sum of Mulliken charges =  -0.00000

 Dipole moment (field-independent basis, Debye):
    X=             -0.4735    Y=             -0.6983    Z=             -3.2011  Tot=              3.3104

 Test job not archived.
 1\1\GINC-SE188\SP\RHF\Aug-CC-pVDZ\C3H5N1O2S2\OHZDE\05-Apr-2025\0\\#t h
 f aug-cc-pvdz iop(5/13=1,5/36=2,99/5=2) pseudo=read geom=check guess=(
 read,tcheck) scf=(maxcycle=1)\\title\\0,1\S,0,-1.970085,-1.004828,0.40
 4057\S,0,-1.139601,1.747515,-0.120095\O,0,2.14897,1.195734,-0.147249\O
 ,0,1.936106,-0.474436,1.21565\N,0,1.643397,0.143182,0.214618\C,0,0.530
 339,-0.432912,-0.684238\C,0,-0.823235,0.025273,-0.124545\C,0,0.716287,
 -1.928719,-0.821212\H,0,0.055105,2.176069,-0.582816\H,0,0.695123,0.073
 347,-1.632561\H,0,0.587915,-2.431303,0.132211\H,0,-0.020664,-2.316756,

 Normal termination of Gaussian 16 at Sat Apr  5 22:32:19 2025.
