 Gaussian 16, Revision C.01,

 ----------------------------------------------------------------------
 #t hf aug-cc-pvdz symm=none int=(grid=ultrafine) guess=(read,tcheck) s
 table=(opt,rrhf)
 ----------------------------------------------------------------------
 -----
 title
 -----
 Symbolic Z-matrix:
 Charge =  0 Multiplicity = 1

 SCF Done:  E(RHF) =  -450.257577457     A.U. after   16 cycles
 Normal termination of Gaussian 16 at Sat Apr  5 22:31:08 2025.
 Gaussian 16:  ES64L-G16RevC.01  3-Jul-2019

 ----------------------------------------------------------------------
 #t hf aug-cc-pvdz iop(5/13=1,5/36=2,99/5=2) pseudo=read geom=check gue
 ss=(read,tcheck) scf=(maxcycle=1)
 ----------------------------------------------------------------------
 -----
 title
 -----
 Structure from the checkpoint file:  "2-nitroso-3-pyridinol.chk"
 Charge =  0 Multiplicity = 1

                         Standard orientation:
 ---------------------------------------------------------------------
 Center     Atomic      Atomic             Coordinates (Angstroms)
 Number     Number       Type             X           Y           Z
 ---------------------------------------------------------------------
      1          8           0        2.164676   -0.539196    0.000000
      2          8           0        0.084580    2.775541    0.000000
      3          7           0       -1.331579    0.475000   -0.000000
      4          7           0        0.726390    1.750983    0.000000
      5          6           0        0.000000    0.522358    0.000000
      6          6           0        0.824411   -0.616949    0.000000
      7          6           0        0.204822   -1.870177   -0.000000
      8          6           0       -1.905774   -0.710961   -0.000000
      9          6           0       -1.171952   -1.910799   -0.000000
     10          1           0        2.405510    0.402858    0.000000
     11          1           0        0.809768   -2.765739   -0.000000
     12          1           0       -2.988888   -0.732364   -0.000000
     13          1           0       -1.693161   -2.858226   -0.000000
 ---------------------------------------------------------------------

 SCF Done:  E(RHF) =  -450.390150696     A.U. after    2 cycles

 The electronic state is 1-A'.
 Alpha  occ. eigenvalues --  -20.64948 -20.63143 -15.77581 -15.66440 -11.35532
 Alpha  occ. eigenvalues --  -11.32324 -11.30256 -11.28758 -11.28408  -1.47277
 Alpha  occ. eigenvalues --   -1.40468  -1.26463  -1.10605  -1.09035  -0.98012
 Alpha  occ. eigenvalues --   -0.88503  -0.85709  -0.79394  -0.75062  -0.72165
 Alpha  occ. eigenvalues --   -0.67818  -0.65717  -0.65425  -0.62683  -0.60915
 Alpha  occ. eigenvalues --   -0.60004  -0.58686  -0.54309  -0.44804  -0.42480
 Alpha  occ. eigenvalues --   -0.40678  -0.35505
 Alpha virt. eigenvalues --    0.01976   0.02635   0.03730   0.04850   0.05884
 Alpha virt. eigenvalues --    0.08615   0.09168   0.09561   0.10213   0.12474
 Alpha virt. eigenvalues --    0.12475   0.12905   0.13504   0.13719   0.14585

 Mulliken charges:
               1
     1  O   -0.608194
     2  O   -0.385244
     3  N   -0.327268
     4  N   -0.338356
     5  C    0.924094
     6  C    0.239739
     7  C    0.289430
     8  C    0.501034
     9  C    0.705068
    10  H    0.177894
    11  H   -0.431878
    12  H   -0.350407
    13  H   -0.395913
 Sum of Mulliken charges =  -0.00000

 Dipole moment (field-independent basis, Debye):
    X=             -0.2096    Y=             -4.1740    Z=             -0.0000  Tot=              4.1793

 Test job not archived.
 1\1\GINC-SE231\SP\RHF\Aug-CC-pVDZ\C5H4N2O2\OHZDE\05-Apr-2025\0\\#t hf
 aug-cc-pvdz iop(5/13=1,5/36=2,99/5=2) pseudo=read geom=check guess=(re
 ad,tcheck) scf=(maxcycle=1)\\title\\0,1\O,0,2.164676,-0.539196,0.\O,0,
 0.08458,2.775541,0.\N,0,-1.331579,0.475,0.\N,0,0.72639,1.750983,0.\C,0
 ,0.,0.522358,0.\C,0,0.824411,-0.616949,0.\C,0,0.204822,-1.870177,0.\C,
 0,-1.905774,-0.710961,0.\C,0,-1.171952,-1.910799,0.\H,0,2.40551,0.4028
 58,0.\H,0,0.809768,-2.765739,0.\H,0,-2.988888,-0.732364,0.\H,0,-1.6931
 61,-2.858226,0.\\Version=ES64L-G16RevC.01\State=1-A'\HF=-450.3901507\R

 Normal termination of Gaussian 16 at Sat Apr  5 22:32:19 2025.
