 Gaussian 16, Revision C.01,

 ----------------------------------------------------------------------
 #t hf aug-cc-pvdz symm=none int=(grid=ultrafine) guess=(read,tcheck) s
 table=(opt,rrhf)
 ----------------------------------------------------------------------
 -----
 title
 -----
 Symbolic Z-matrix:
 Charge =  0 Multiplicity = 1

 SCF Done:  E(RHF) =  -509.095663438     A.U. after   17 cycles
 Normal termination of Gaussian 16 at Sat Apr  5 22:31:38 2025.
 Gaussian 16:  ES64L-G16RevC.01  3-Jul-2019

 ----------------------------------------------------------------------
 #t hf aug-cc-pvdz iop(5/13=1,5/36=2,99/5=2) pseudo=read geom=check gue
 ss=(read,tcheck) scf=(maxcycle=1)
 ----------------------------------------------------------------------
 -----
 title
 -----
 Structure from the checkpoint file:  "2-nitrophenol.chk"
 Charge =  0 Multiplicity = 1

                         Standard orientation:
 ---------------------------------------------------------------------
 Center     Atomic      Atomic             Coordinates (Angstroms)
 Number     Number       Type             X           Y           Z
 ---------------------------------------------------------------------
      1          6           0       -1.835597   -1.471168    0.106759
      2          6           0       -2.531726   -0.267314    0.040621
      3          6           0       -0.452973   -1.452868    0.080538
      4          6           0       -1.850063    0.934346   -0.048731
      5          6           0        0.235671   -0.246214    0.013147
      6          6           0       -0.453434    0.973310   -0.060215
      7          7           0        1.703827   -0.306080    0.022093
      8          8           0        2.221476   -1.316605   -0.438893
      9          8           0        2.315378    0.632296    0.504570
     10          8           0        0.220545    2.138083   -0.177817
     11          1           0       -2.364481   -2.410267    0.175643
     12          1           0       -3.612989   -0.262930    0.054068
     13          1           0        0.123143   -2.364653    0.116206
     14          1           0       -2.397052    1.867174   -0.114478
     15          1           0       -0.405870    2.862503   -0.281682
 ---------------------------------------------------------------------

 SCF Done:  E(RHF) =  -509.248878023     A.U. after    2 cycles

 The electronic state is 1-A.
 Alpha  occ. eigenvalues --  -20.63421 -20.61346 -20.60899 -15.91591 -11.36333
 Alpha  occ. eigenvalues --  -11.31804 -11.28802 -11.28779 -11.27399 -11.26632
 Alpha  occ. eigenvalues --   -1.54626  -1.40412  -1.35988  -1.18742  -1.08966
 Alpha  occ. eigenvalues --   -1.04222  -0.95489  -0.89061  -0.83777  -0.79037
 Alpha  occ. eigenvalues --   -0.76854  -0.73574  -0.72836  -0.69846  -0.67923
 Alpha  occ. eigenvalues --   -0.64437  -0.63701  -0.61720  -0.57033  -0.54909
 Alpha  occ. eigenvalues --   -0.52677  -0.50938  -0.50184  -0.46639  -0.38604
 Alpha  occ. eigenvalues --   -0.35572
 Alpha virt. eigenvalues --    0.02172   0.03126   0.04179   0.04335   0.05827
 Alpha virt. eigenvalues --    0.06673   0.08946   0.10161   0.10649   0.12014
 Alpha virt. eigenvalues --    0.12086   0.12813   0.13017   0.13302   0.13523

 Mulliken charges:
               1
     1  C    0.430714
     2  C    0.347635
     3  C    0.518068
     4  C    0.910136
     5  C    0.854959
     6  C    0.306045
     7  N    0.045832
     8  O   -0.569263
     9  O   -0.514656
    10  O   -0.559796
    11  H   -0.423366
    12  H   -0.423881
    13  H   -0.485764
    14  H   -0.595045
    15  H    0.158384
 Sum of Mulliken charges =  -0.00000

 Dipole moment (field-independent basis, Debye):
    X=             -6.6378    Y=              0.9377    Z=             -0.1191  Tot=              6.7048

 Test job not archived.
 1\1\GINC-SE180\SP\RHF\Aug-CC-pVDZ\C6H5N1O3\OHZDE\05-Apr-2025\0\\#t hf
 aug-cc-pvdz iop(5/13=1,5/36=2,99/5=2) pseudo=read geom=check guess=(re
 ad,tcheck) scf=(maxcycle=1)\\title\\0,1\C,0,-1.835597,-1.471168,0.1067
 59\C,0,-2.531726,-0.267314,0.040621\C,0,-0.452973,-1.452868,0.080538\C
 ,0,-1.850063,0.934346,-0.048731\C,0,0.235671,-0.246214,0.013147\C,0,-0
 .453434,0.97331,-0.060215\N,0,1.703827,-0.30608,0.022093\O,0,2.221476,
 -1.316606,-0.438893\O,0,2.315378,0.632295,0.50457\O,0,0.220545,2.13808
 3,-0.177817\H,0,-2.364482,-2.410267,0.175643\H,0,-3.612989,-0.262929,0

 Normal termination of Gaussian 16 at Sat Apr  5 22:32:21 2025.
