 Gaussian 16, Revision C.01,

 ----------------------------------------------------------------------
 #t hf aug-cc-pvdz symm=none int=(grid=ultrafine) guess=(read,tcheck) s
 table=(opt,rrhf)
 ----------------------------------------------------------------------
 -----
 title
 -----
 Symbolic Z-matrix:
 Charge =  0 Multiplicity = 1

 SCF Done:  E(RHF) =  -321.789414442     A.U. after   15 cycles
 Normal termination of Gaussian 16 at Sat Apr  5 22:30:52 2025.
 Gaussian 16:  ES64L-G16RevC.01  3-Jul-2019

 ----------------------------------------------------------------------
 #t hf aug-cc-pvdz iop(5/13=1,5/36=2,99/5=2) pseudo=read geom=check gue
 ss=(read,tcheck) scf=(maxcycle=1)
 ----------------------------------------------------------------------
 -----
 title
 -----
 Structure from the checkpoint file:  "2-nitropropane.chk"
 Charge =  0 Multiplicity = 1

                         Standard orientation:
 ---------------------------------------------------------------------
 Center     Atomic      Atomic             Coordinates (Angstroms)
 Number     Number       Type             X           Y           Z
 ---------------------------------------------------------------------
      1          6           0       -0.019580    1.273801    1.273937
      2          6           0       -0.019580    1.273801   -1.273937
      3          6           0        0.466570    0.597774   -0.000000
      4          7           0       -0.019580   -0.850943    0.000000
      5          8           0        0.828786   -1.727382   -0.000000
      6          8           0       -1.224451   -1.038289    0.000000
      7          1           0        0.370883    2.290811    1.305811
      8          1           0       -1.106994    1.317390    1.296364
      9          1           0        0.330843    0.747565    2.161338
     10          1           0        0.330843    0.747565   -2.161338
     11          1           0        0.370883    2.290811   -1.305811
     12          1           0       -1.106994    1.317390   -1.296364
     13          1           0        1.548465    0.498180   -0.000000
 ---------------------------------------------------------------------

 SCF Done:  E(RHF) =  -321.890275120     A.U. after    2 cycles

 The electronic state is 1-A'.
 Alpha  occ. eigenvalues --  -20.61699 -20.61433 -15.90508 -11.32277 -11.25885
 Alpha  occ. eigenvalues --  -11.25879  -1.54650  -1.36357  -1.13013  -0.97031
 Alpha  occ. eigenvalues --   -0.94900  -0.82049  -0.75233  -0.73090  -0.72242
 Alpha  occ. eigenvalues --   -0.65506  -0.59947  -0.59195  -0.57242  -0.53421
 Alpha  occ. eigenvalues --   -0.52855  -0.50790  -0.48721  -0.47098
 Alpha virt. eigenvalues --    0.02789   0.04156   0.04421   0.05380   0.06788
 Alpha virt. eigenvalues --    0.07179   0.07555   0.09149   0.11440   0.11939
 Alpha virt. eigenvalues --    0.13719   0.14536   0.14857   0.15670   0.16173

 Mulliken charges:
               1
     1  C    0.635380
     2  C    0.635380
     3  C   -0.250111
     4  N    0.353763
     5  O   -0.570730
     6  O   -0.571992
     7  H   -0.002922
     8  H    0.042656
     9  H   -0.055521
    10  H   -0.055521
    11  H   -0.002922
    12  H    0.042656
    13  H   -0.200116
 Sum of Mulliken charges =  -0.00000

 Dipole moment (field-independent basis, Debye):
    X=              1.1566    Y=              4.4928    Z=             -0.0000  Tot=              4.6393

 Test job not archived.
 1\1\GINC-SE187\SP\RHF\Aug-CC-pVDZ\C3H7N1O2\OHZDE\05-Apr-2025\0\\#t hf
 aug-cc-pvdz iop(5/13=1,5/36=2,99/5=2) pseudo=read geom=check guess=(re
 ad,tcheck) scf=(maxcycle=1)\\title\\0,1\C,0,-0.01958,1.273801,1.273937
 \C,0,-0.01958,1.273801,-1.273937\C,0,0.46657,0.597774,0.\N,0,-0.01958,
 -0.850943,0.\O,0,0.828786,-1.727382,0.\O,0,-1.224451,-1.038289,0.\H,0,
 0.370883,2.290811,1.305811\H,0,-1.106994,1.31739,1.296364\H,0,0.330843
 ,0.747565,2.161338\H,0,0.330843,0.747565,-2.161338\H,0,0.370883,2.2908
 11,-1.305811\H,0,-1.106994,1.31739,-1.296364\H,0,1.548465,0.49818,0.\\

 Normal termination of Gaussian 16 at Sat Apr  5 22:32:16 2025.
