 Gaussian 16, Revision C.01,

 ----------------------------------------------------------------------
 #t hf aug-cc-pvdz symm=none int=(grid=ultrafine) guess=(read,tcheck) s
 table=(opt,rrhf)
 ----------------------------------------------------------------------
 -----
 title
 -----
 Symbolic Z-matrix:
 Charge =  0 Multiplicity = 1

 SCF Done:  E(RHF) =  -489.276558262     A.U. after   16 cycles
 Normal termination of Gaussian 16 at Sat Apr  5 22:31:39 2025.
 Gaussian 16:  ES64L-G16RevC.01  3-Jul-2019

 ----------------------------------------------------------------------
 #t hf aug-cc-pvdz iop(5/13=1,5/36=2,99/5=2) pseudo=read geom=check gue
 ss=(read,tcheck) scf=(maxcycle=1)
 ----------------------------------------------------------------------
 -----
 title
 -----
 Structure from the checkpoint file:  "2-nitroaniline.chk"
 Charge =  0 Multiplicity = 1

                         Standard orientation:
 ---------------------------------------------------------------------
 Center     Atomic      Atomic             Coordinates (Angstroms)
 Number     Number       Type             X           Y           Z
 ---------------------------------------------------------------------
      1          6           0        2.063464   -1.503763    0.000000
      2          6           0        2.365819   -0.135580    0.000000
      3          6           0        0.760060   -1.938693    0.000000
      4          6           0        1.333452    0.772214    0.000000
      5          6           0       -0.327896   -1.035393   -0.000000
      6          6           0       -0.000000    0.344759    0.000000
      7          7           0       -1.591077   -1.520223   -0.000000
      8          7           0       -1.021402    1.372732   -0.000000
      9          8           0       -0.674531    2.546284   -0.000000
     10          8           0       -2.211698    1.027891   -0.000000
     11          1           0        2.862699   -2.232880    0.000000
     12          1           0        3.391203    0.202815    0.000000
     13          1           0        0.541477   -2.998734   -0.000000
     14          1           0        1.518872    1.834417    0.000000
     15          1           0       -1.742811   -2.511061   -0.000000
     16          1           0       -2.363649   -0.876785   -0.000000
 ---------------------------------------------------------------------

 SCF Done:  E(RHF) =  -489.422158552     A.U. after    2 cycles

 The electronic state is 1-A'.
 Alpha  occ. eigenvalues --  -20.61217 -20.60986 -15.91781 -15.65344 -11.34261
 Alpha  occ. eigenvalues --  -11.30487 -11.28089 -11.27877 -11.25962 -11.25128
 Alpha  occ. eigenvalues --   -1.54286  -1.35565  -1.23758  -1.15526  -1.08500
 Alpha  occ. eigenvalues --   -1.01939  -0.94635  -0.86158  -0.84356  -0.77706
 Alpha  occ. eigenvalues --   -0.73543  -0.73097  -0.72510  -0.72328  -0.66530
 Alpha  occ. eigenvalues --   -0.63011  -0.62851  -0.56777  -0.56515  -0.53404
 Alpha  occ. eigenvalues --   -0.51097  -0.50441  -0.48223  -0.46496  -0.38114
 Alpha  occ. eigenvalues --   -0.31751
 Alpha virt. eigenvalues --    0.02485   0.03305   0.03720   0.04360   0.05671
 Alpha virt. eigenvalues --    0.06261   0.08303   0.09910   0.10862   0.11379
 Alpha virt. eigenvalues --    0.12585   0.12820   0.13160   0.13706   0.13859

 Mulliken charges:
               1
     1  C    0.329389
     2  C    0.388044
     3  C    1.057368
     4  C    0.324941
     5  C   -0.114387
     6  C    1.352032
     7  N   -0.160729
     8  N    0.054726
     9  O   -0.564880
    10  O   -0.648932
    11  H   -0.436776
    12  H   -0.445336
    13  H   -0.596779
    14  H   -0.497315
    15  H   -0.079390
    16  H    0.038025
 Sum of Mulliken charges =  -0.00000

 Dipole moment (field-independent basis, Debye):
    X=              2.2918    Y=             -4.8624    Z=              0.0000  Tot=              5.3754

 Test job not archived.
 1\1\GINC-SE085\SP\RHF\Aug-CC-pVDZ\C6H6N2O2\OHZDE\05-Apr-2025\0\\#t hf
 aug-cc-pvdz iop(5/13=1,5/36=2,99/5=2) pseudo=read geom=check guess=(re
 ad,tcheck) scf=(maxcycle=1)\\title\\0,1\C,0,2.063464,-1.503763,0.\C,0,
 2.365819,-0.13558,0.\C,0,0.76006,-1.938693,0.\C,0,1.333452,0.772214,0.
 \C,0,-0.327896,-1.035393,0.\C,0,0.,0.344759,0.\N,0,-1.591077,-1.520223
 ,0.\N,0,-1.021402,1.372732,0.\O,0,-0.674531,2.546284,0.\O,0,-2.211698,
 1.027891,0.\H,0,2.862699,-2.23288,0.\H,0,3.391203,0.202815,0.\H,0,0.54
 1477,-2.998734,0.\H,0,1.518872,1.834417,0.\H,0,-1.742811,-2.511061,0.\

 Normal termination of Gaussian 16 at Sat Apr  5 22:32:22 2025.
