 Gaussian 16, Revision C.01,

 ----------------------------------------------------------------------
 #t hf aug-cc-pvdz symm=none int=(grid=ultrafine) guess=(read,tcheck) s
 table=(opt,rrhf)
 ----------------------------------------------------------------------
 -----
 title
 -----
 Symbolic Z-matrix:
 Charge =  0 Multiplicity = 1

 SCF Done:  E(RHF) =  -360.828300887     A.U. after   15 cycles
 Normal termination of Gaussian 16 at Sat Apr  5 22:31:11 2025.
 Gaussian 16:  ES64L-G16RevC.01  3-Jul-2019

 ----------------------------------------------------------------------
 #t hf aug-cc-pvdz iop(5/13=1,5/36=2,99/5=2) pseudo=read geom=check gue
 ss=(read,tcheck) scf=(maxcycle=1)
 ----------------------------------------------------------------------
 -----
 title
 -----
 Structure from the checkpoint file:  "2-nitrobutane.chk"
 Charge =  0 Multiplicity = 1

                         Standard orientation:
 ---------------------------------------------------------------------
 Center     Atomic      Atomic             Coordinates (Angstroms)
 Number     Number       Type             X           Y           Z
 ---------------------------------------------------------------------
      1          6           0        0.729471    1.904216   -0.107889
      2          6           0       -0.016491    0.615252   -0.425867
      3          7           0        0.850921   -0.558678    0.026714
      4          8           0        1.306585   -1.287691   -0.838614
      5          8           0        1.039827   -0.688006    1.224692
      6          6           0       -1.386010    0.520666    0.241641
      7          6           0       -2.166261   -0.746449   -0.100809
      8          1           0        0.857898    2.020360    0.966917
      9          1           0        1.709251    1.922511   -0.584185
     10          1           0        0.153750    2.749659   -0.483645
     11          1           0       -0.096788    0.467156   -1.500194
     12          1           0       -1.947266    1.400933   -0.080637
     13          1           0       -1.253956    0.607897    1.320918
     14          1           0       -2.318382   -0.842024   -1.177079
     15          1           0       -1.649746   -1.642316    0.245321
     16          1           0       -3.146754   -0.729961    0.374509
 ---------------------------------------------------------------------

 SCF Done:  E(RHF) =  -360.940919274     A.U. after    2 cycles

 The electronic state is 1-A.
 Alpha  occ. eigenvalues --  -20.61606 -20.61318 -15.90378 -11.31831 -11.26014
 Alpha  occ. eigenvalues --  -11.25777 -11.24081  -1.54534  -1.36225  -1.13413
 Alpha  occ. eigenvalues --   -1.02190  -0.95196  -0.88051  -0.81507  -0.75210
 Alpha  occ. eigenvalues --   -0.72873  -0.72370  -0.64287  -0.61686  -0.60747
 Alpha  occ. eigenvalues --   -0.58591  -0.55178  -0.52926  -0.51092  -0.50824
 Alpha  occ. eigenvalues --   -0.50277  -0.48213  -0.47007
 Alpha virt. eigenvalues --    0.02867   0.03836   0.04307   0.05210   0.06390
 Alpha virt. eigenvalues --    0.06697   0.06828   0.08181   0.09145   0.09346
 Alpha virt. eigenvalues --    0.11314   0.12283   0.13864   0.14238   0.14933

 Mulliken charges:
               1
     1  C    0.656457
     2  C    0.046375
     3  N    0.257192
     4  O   -0.580881
     5  O   -0.587075
     6  C    0.281401
     7  C    0.483019
     8  H    0.033674
     9  H   -0.048665
    10  H   -0.013195
    11  H   -0.258103
    12  H   -0.077101
    13  H   -0.028945
    14  H   -0.063264
    15  H   -0.044237
    16  H   -0.056653
 Sum of Mulliken charges =  -0.00000

 Dipole moment (field-independent basis, Debye):
    X=             -2.7854    Y=              3.5140    Z=             -1.0183  Tot=              4.5982

 Test job not archived.
 1\1\GINC-SE179\SP\RHF\Aug-CC-pVDZ\C4H9N1O2\OHZDE\05-Apr-2025\0\\#t hf
 aug-cc-pvdz iop(5/13=1,5/36=2,99/5=2) pseudo=read geom=check guess=(re
 ad,tcheck) scf=(maxcycle=1)\\title\\0,1\C,0,0.729471,1.904216,-0.10788
 9\C,0,-0.016491,0.615252,-0.425867\N,0,0.850921,-0.558678,0.026714\O,0
 ,1.306585,-1.287691,-0.838614\O,0,1.039827,-0.688006,1.224692\C,0,-1.3
 8601,0.520666,0.241641\C,0,-2.166261,-0.746449,-0.100809\H,0,0.857898,
 2.02036,0.966917\H,0,1.709251,1.922511,-0.584185\H,0,0.15375,2.749659,
 -0.483645\H,0,-0.096788,0.467156,-1.500194\H,0,-1.947266,1.400933,-0.0

 Normal termination of Gaussian 16 at Sat Apr  5 22:32:21 2025.
