 Gaussian 16, Revision C.01,

 ----------------------------------------------------------------------
 #t hf aug-cc-pvdz symm=none int=(grid=ultrafine) guess=(read,tcheck) s
 table=(opt,rrhf)
 ----------------------------------------------------------------------
 -----
 title
 -----
 Symbolic Z-matrix:
 Charge =  0 Multiplicity = 1

 SCF Done:  E(RHF) =  -436.712667451     A.U. after   14 cycles
 Normal termination of Gaussian 16 at Sat Apr  5 22:31:18 2025.
 Gaussian 16:  ES64L-G16RevC.01  3-Jul-2019

 ----------------------------------------------------------------------
 #t hf aug-cc-pvdz iop(5/13=1,5/36=2,99/5=2) pseudo=read geom=check gue
 ss=(read,tcheck) scf=(maxcycle=1)
 ----------------------------------------------------------------------
 -----
 title
 -----
 Structure from the checkpoint file:  "2-oxo-1-piperidinecarbaldehyde.chk"
 Charge =  0 Multiplicity = 1

                         Standard orientation:
 ---------------------------------------------------------------------
 Center     Atomic      Atomic             Coordinates (Angstroms)
 Number     Number       Type             X           Y           Z
 ---------------------------------------------------------------------
      1          6           0       -0.186018    1.136555   -0.016276
      2          6           0        2.009439    0.143910   -0.020263
      3          6           0       -1.688458    0.930915   -0.085110
      4          6           0       -2.193334   -0.451194    0.319463
      5          6           0       -1.329801   -1.518012   -0.342061
      6          6           0        0.110985   -1.389348    0.120028
      7          7           0        0.625043   -0.010474   -0.004995
      8          8           0        0.292401    2.250735   -0.012180
      9          8           0        2.774688   -0.789444    0.046595
     10          1           0        2.318270    1.188945   -0.103512
     11          1           0       -2.134838    1.730283    0.504410
     12          1           0       -1.958505    1.134988   -1.126204
     13          1           0       -2.147779   -0.565223    1.406075
     14          1           0       -3.240882   -0.559386    0.036482
     15          1           0       -1.680512   -2.521239   -0.096983
     16          1           0       -1.383960   -1.417352   -1.429648
     17          1           0        0.200795   -1.695360    1.165693
     18          1           0        0.778519   -2.029625   -0.451356
 ---------------------------------------------------------------------

 SCF Done:  E(RHF) =  -436.847504691     A.U. after    2 cycles

 The electronic state is 1-A.
 Alpha  occ. eigenvalues --  -20.56518 -20.56093 -15.68203 -11.39027 -11.37345
 Alpha  occ. eigenvalues --  -11.29198 -11.26558 -11.25981 -11.25831  -1.38341
 Alpha  occ. eigenvalues --   -1.36292  -1.23141  -1.10298  -1.02773  -0.93679
 Alpha  occ. eigenvalues --   -0.87889  -0.83638  -0.75687  -0.71416  -0.69616
 Alpha  occ. eigenvalues --   -0.67367  -0.64172  -0.63378  -0.62771  -0.62040
 Alpha  occ. eigenvalues --   -0.60164  -0.55336  -0.52873  -0.52447  -0.50717
 Alpha  occ. eigenvalues --   -0.50113  -0.47891  -0.43701  -0.41324
 Alpha virt. eigenvalues --    0.02524   0.03703   0.03925   0.04666   0.06242
 Alpha virt. eigenvalues --    0.06424   0.06616   0.07146   0.07834   0.10039
 Alpha virt. eigenvalues --    0.10823   0.10841   0.11862   0.13129   0.13334

 Mulliken charges:
               1
     1  C    0.238639
     2  C    0.532708
     3  C    0.116686
     4  C    0.439475
     5  C    0.343435
     6  C    0.685218
     7  N   -0.517017
     8  O   -0.533252
     9  O   -0.453649
    10  H   -0.194196
    11  H   -0.009257
    12  H    0.078198
    13  H   -0.109252
    14  H   -0.064406
    15  H   -0.058234
    16  H   -0.120490
    17  H   -0.186637
    18  H   -0.187967
 Sum of Mulliken charges =  -0.00000

 Dipole moment (field-independent basis, Debye):
    X=             -4.7650    Y=             -1.8237    Z=             -0.1574  Tot=              5.1045

 Test job not archived.
 1\1\GINC-SE145\SP\RHF\Aug-CC-pVDZ\C6H9N1O2\OHZDE\05-Apr-2025\0\\#t hf
 aug-cc-pvdz iop(5/13=1,5/36=2,99/5=2) pseudo=read geom=check guess=(re
 ad,tcheck) scf=(maxcycle=1)\\title\\0,1\C,0,-0.186018,1.136555,-0.0162
 76\C,0,2.009439,0.14391,-0.020263\C,0,-1.688458,0.930915,-0.08511\C,0,
 -2.193334,-0.451194,0.319463\C,0,-1.329801,-1.518012,-0.342061\C,0,0.1
 10985,-1.389348,0.120028\N,0,0.625043,-0.010474,-0.004995\O,0,0.292401
 ,2.250735,-0.01218\O,0,2.774688,-0.789444,0.046595\H,0,2.31827,1.18894
 5,-0.103512\H,0,-2.134838,1.730283,0.50441\H,0,-1.958505,1.134988,-1.1

 Normal termination of Gaussian 16 at Sat Apr  5 22:32:22 2025.
