 Gaussian 16, Revision C.01,

 ----------------------------------------------------------------------
 #t hf aug-cc-pvdz symm=none int=(grid=ultrafine) guess=(read,tcheck) s
 table=(opt,rrhf)
 ----------------------------------------------------------------------
 -----
 title
 -----
 Symbolic Z-matrix:
 Charge =  0 Multiplicity = 1

 SCF Done:  E(RHF) =  -271.226322582     A.U. after   12 cycles

 1\1\GINC-SE187\Stability\RHF\Aug-CC-pVDZ\C5H12O1\OHZDE\05-Apr-2025\0\\
 #t hf aug-cc-pvdz symm=none int=(grid=ultrafine) guess=(read,tcheck) s
 table=(opt,rrhf)\\title\\0,1\C,0,-2.811044,-0.221945,-0.162139\C,0,2.2
 21288,-0.900163,-0.048109\C,0,-1.473342,0.339233,0.316846\C,0,-0.28085
 8,-0.504253,-0.134238\C,0,1.07141,0.02896,0.322589\O,0,1.239016,1.3197
 77,-0.283419\H,0,-3.644676,0.394864,0.176352\H,0,-2.975117,-1.234898,0
 .212481\H,0,-2.852626,-0.264029,-1.252522\H,0,2.257486,-1.050421,-1.12
 8043\H,0,3.179284,-0.482509,0.27\H,0,2.107939,-1.872159,0.434921\H,0,-

 Normal termination of Gaussian 16 at Sat Apr  5 22:31:04 2025.
 Gaussian 16:  ES64L-G16RevC.01  3-Jul-2019

 ----------------------------------------------------------------------
 #t hf aug-cc-pvdz iop(5/13=1,5/36=2,99/5=2) pseudo=read geom=check gue
 ss=(read,tcheck) scf=(maxcycle=1)
 ----------------------------------------------------------------------
 -----
 title
 -----
 Structure from the checkpoint file:  "2-pentanol.chk"
 Charge =  0 Multiplicity = 1

                         Standard orientation:
 ---------------------------------------------------------------------
 Center     Atomic      Atomic             Coordinates (Angstroms)
 Number     Number       Type             X           Y           Z
 ---------------------------------------------------------------------
      1          6           0       -2.811044   -0.221945   -0.162139
      2          6           0        2.221288   -0.900163   -0.048109
      3          6           0       -1.473342    0.339233    0.316846
      4          6           0       -0.280858   -0.504253   -0.134238
      5          6           0        1.071410    0.028960    0.322589
      6          8           0        1.239016    1.319777   -0.283419
      7          1           0       -3.644676    0.394864    0.176352
      8          1           0       -2.975117   -1.234898    0.212481
      9          1           0       -2.852626   -0.264029   -1.252522
     10          1           0        2.257486   -1.050421   -1.128043
     11          1           0        3.179284   -0.482509    0.270000
     12          1           0        2.107939   -1.872159    0.434921
     13          1           0       -1.347052    1.358855   -0.049391
     14          1           0       -1.474885    0.402013    1.409571
     15          1           0       -0.391242   -1.525089    0.243683
     16          1           0       -0.268458   -0.572453   -1.226633
     17          1           0        1.048581    0.150408    1.414128
     18          1           0        2.083920    1.686207   -0.006882
 ---------------------------------------------------------------------

 SCF Done:  E(RHF) =  -271.313837880     A.U. after    2 cycles

 The electronic state is 1-A.
 Alpha  occ. eigenvalues --  -20.56540 -11.28715 -11.22678 -11.22233 -11.21915
 Alpha  occ. eigenvalues --  -11.21670  -1.31491  -1.06301  -1.00579  -0.92468
 Alpha  occ. eigenvalues --   -0.82338  -0.78571  -0.70813  -0.62808  -0.61634
 Alpha  occ. eigenvalues --   -0.61199  -0.55705  -0.55119  -0.53902  -0.52717
 Alpha  occ. eigenvalues --   -0.50980  -0.47880  -0.46553  -0.45479  -0.44204
 Alpha virt. eigenvalues --    0.03395   0.04212   0.04629   0.04899   0.06195
 Alpha virt. eigenvalues --    0.06404   0.06695   0.07015   0.08873   0.09451
 Alpha virt. eigenvalues --    0.09647   0.10069   0.11590   0.13630   0.13973

 Mulliken charges:
               1
     1  C    0.487461
     2  C    0.541628
     3  C    0.262447
     4  C    0.033612
     5  C    0.229599
     6  O   -0.628661
     7  H   -0.065682
     8  H   -0.089117
     9  H   -0.075088
    10  H    0.011253
    11  H   -0.081355
    12  H   -0.034038
    13  H   -0.106154
    14  H   -0.168386
    15  H   -0.131432
    16  H   -0.140051
    17  H   -0.177961
    18  H    0.131925
 Sum of Mulliken charges =  -0.00000

 Dipole moment (field-independent basis, Debye):
    X=              1.1400    Y=             -0.8212    Z=              1.0570  Tot=              1.7582

 Test job not archived.
 1\1\GINC-SE187\SP\RHF\Aug-CC-pVDZ\C5H12O1\OHZDE\05-Apr-2025\0\\#t hf a
 ug-cc-pvdz iop(5/13=1,5/36=2,99/5=2) pseudo=read geom=check guess=(rea
 d,tcheck) scf=(maxcycle=1)\\title\\0,1\C,0,-2.811044,-0.221945,-0.1621
 39\C,0,2.221288,-0.900163,-0.048109\C,0,-1.473342,0.339233,0.316846\C,
 0,-0.280858,-0.504253,-0.134238\C,0,1.07141,0.02896,0.322589\O,0,1.239
 016,1.319777,-0.283419\H,0,-3.644676,0.394864,0.176352\H,0,-2.975117,-
 1.234898,0.212481\H,0,-2.852626,-0.264029,-1.252522\H,0,2.257486,-1.05
 0421,-1.128043\H,0,3.179284,-0.482509,0.27\H,0,2.107939,-1.872159,0.43

 Normal termination of Gaussian 16 at Sat Apr  5 22:32:19 2025.
