 Gaussian 16, Revision C.01,

 ----------------------------------------------------------------------
 #t hf aug-cc-pvdz symm=none int=(grid=ultrafine) guess=(read,tcheck) s
 table=(opt,rrhf)
 ----------------------------------------------------------------------
 -----
 title
 -----
 Symbolic Z-matrix:
 Charge =  0 Multiplicity = 1

 SCF Done:  E(RHF) =  -270.066693974     A.U. after   13 cycles

 1\1\GINC-SE194\Stability\RHF\Aug-CC-pVDZ\C5H10O1\OHZDE\05-Apr-2025\0\\
 #t hf aug-cc-pvdz symm=none int=(grid=ultrafine) guess=(read,tcheck) s
 table=(opt,rrhf)\\title\\0,1\C,0,1.137455,0.146005,-0.002101\C,0,2.339
 985,-0.775148,0.003438\C,0,-2.754057,-0.294448,-0.000481\C,0,-0.22544,
 -0.525525,-0.005704\C,0,-1.410723,0.432588,0.006368\O,0,1.262714,1.350
 118,-0.002835\H,0,2.311679,-1.443961,-0.859263\H,0,2.326989,-1.406936,
 0.894211\H,0,3.256222,-0.191143,-0.01554\H,0,-2.862511,-0.940914,0.873
 136\H,0,-2.864356,-0.920583,-0.888559\H,0,-3.583566,0.413374,0.008555\

 Normal termination of Gaussian 16 at Sat Apr  5 22:32:41 2025.
 Gaussian 16:  ES64L-G16RevC.01  3-Jul-2019

 ----------------------------------------------------------------------
 #t hf aug-cc-pvdz iop(5/13=1,5/36=2,99/5=2) pseudo=read geom=check gue
 ss=(read,tcheck) scf=(maxcycle=1)
 ----------------------------------------------------------------------
 -----
 title
 -----
 Structure from the checkpoint file:  "2-pentanone.chk"
 Charge =  0 Multiplicity = 1

                         Standard orientation:
 ---------------------------------------------------------------------
 Center     Atomic      Atomic             Coordinates (Angstroms)
 Number     Number       Type             X           Y           Z
 ---------------------------------------------------------------------
      1          6           0        1.137455    0.146005   -0.002101
      2          6           0        2.339985   -0.775148    0.003438
      3          6           0       -2.754057   -0.294448   -0.000481
      4          6           0       -0.225440   -0.525525   -0.005704
      5          6           0       -1.410723    0.432588    0.006368
      6          8           0        1.262714    1.350118   -0.002835
      7          1           0        2.311679   -1.443961   -0.859263
      8          1           0        2.326989   -1.406936    0.894211
      9          1           0        3.256222   -0.191143   -0.015540
     10          1           0       -2.862511   -0.940914    0.873136
     11          1           0       -2.864356   -0.920583   -0.888559
     12          1           0       -3.583566    0.413374    0.008555
     13          1           0       -0.263760   -1.203516    0.854803
     14          1           0       -0.266645   -1.183799   -0.881400
     15          1           0       -1.338759    1.077971    0.883375
     16          1           0       -1.340329    1.097732   -0.855756
 ---------------------------------------------------------------------

 SCF Done:  E(RHF) =  -270.153427124     A.U. after    2 cycles

 The electronic state is 1-A.
 Alpha  occ. eigenvalues --  -20.55873 -11.34029 -11.24562 -11.24360 -11.23099
 Alpha  occ. eigenvalues --  -11.22652  -1.35103  -1.06993  -1.01171  -0.94399
 Alpha  occ. eigenvalues --   -0.82417  -0.73959  -0.66276  -0.65315  -0.63494
 Alpha  occ. eigenvalues --   -0.60110  -0.56984  -0.56450  -0.54754  -0.50788
 Alpha  occ. eigenvalues --   -0.50186  -0.48800  -0.47793  -0.42039
 Alpha virt. eigenvalues --    0.03113   0.04063   0.04539   0.05061   0.06277
 Alpha virt. eigenvalues --    0.06514   0.06890   0.07961   0.09072   0.09624
 Alpha virt. eigenvalues --    0.10687   0.11733   0.13497   0.13782   0.14745

 Mulliken charges:
               1
     1  C   -0.158728
     2  C    0.475881
     3  C    0.546542
     4  C   -0.043737
     5  C    0.263551
     6  O   -0.527017
     7  H    0.031901
     8  H    0.036709
     9  H   -0.082984
    10  H   -0.086625
    11  H   -0.086036
    12  H   -0.049342
    13  H   -0.037122
    14  H   -0.033694
    15  H   -0.125623
    16  H   -0.123676
 Sum of Mulliken charges =   0.00000

 Dipole moment (field-independent basis, Debye):
    X=             -0.4789    Y=             -3.3118    Z=              0.0045  Tot=              3.3462

 Test job not archived.
 1\1\GINC-SE194\SP\RHF\Aug-CC-pVDZ\C5H10O1\OHZDE\05-Apr-2025\0\\#t hf a
 ug-cc-pvdz iop(5/13=1,5/36=2,99/5=2) pseudo=read geom=check guess=(rea
 d,tcheck) scf=(maxcycle=1)\\title\\0,1\C,0,1.137455,0.146005,-0.002101
 \C,0,2.339985,-0.775148,0.003438\C,0,-2.754057,-0.294448,-0.000481\C,0
 ,-0.22544,-0.525525,-0.005704\C,0,-1.410723,0.432588,0.006368\O,0,1.26
 2714,1.350118,-0.002835\H,0,2.311679,-1.443961,-0.859263\H,0,2.326989,
 -1.406936,0.894211\H,0,3.256222,-0.191143,-0.01554\H,0,-2.862511,-0.94
 0914,0.873136\H,0,-2.864356,-0.920583,-0.888559\H,0,-3.583566,0.413374

 Normal termination of Gaussian 16 at Sat Apr  5 22:33:23 2025.
