 Gaussian 16, Revision C.01,

 ----------------------------------------------------------------------
 #t hf aug-cc-pvdz symm=none int=(grid=ultrafine) guess=(read,tcheck) s
 table=(opt,rrhf)
 ----------------------------------------------------------------------
 -----
 title
 -----
 Symbolic Z-matrix:
 Charge =  0 Multiplicity = 1

 SCF Done:  E(RHF) =  -383.675617445     A.U. after   15 cycles

 1\1\GINC-SE196\Stability\RHF\Aug-CC-pVDZ\C8H10O1\OHZDE\05-Apr-2025\0\\
 #t hf aug-cc-pvdz symm=none int=(grid=ultrafine) guess=(read,tcheck) s
 table=(opt,rrhf)\\title\\0,1\C,0,2.814804,-0.001719,-0.301389\C,0,2.13
 4649,-1.200607,-0.119441\C,0,2.136199,1.201043,-0.142617\C,0,0.785938,
 -1.194095,0.216238\C,0,0.787279,1.201961,0.193344\C,0,0.091182,0.00611
 3,0.377674\C,0,-1.382308,0.00657,0.699381\C,0,-2.252301,-0.022112,-0.5
 63342\O,0,-3.645434,-0.085015,-0.273276\H,0,3.864982,-0.004812,-0.5601
 08\H,0,2.655224,-2.142017,-0.234918\H,0,2.657691,2.139541,-0.276374\H,

 Normal termination of Gaussian 16 at Sat Apr  5 22:33:38 2025.
 Gaussian 16:  ES64L-G16RevC.01  3-Jul-2019

 ----------------------------------------------------------------------
 #t hf aug-cc-pvdz iop(5/13=1,5/36=2,99/5=2) pseudo=read geom=check gue
 ss=(read,tcheck) scf=(maxcycle=1)
 ----------------------------------------------------------------------
 -----
 title
 -----
 Structure from the checkpoint file:  "2-phenylethanol.chk"
 Charge =  0 Multiplicity = 1

                         Standard orientation:
 ---------------------------------------------------------------------
 Center     Atomic      Atomic             Coordinates (Angstroms)
 Number     Number       Type             X           Y           Z
 ---------------------------------------------------------------------
      1          6           0        2.814804   -0.001719   -0.301389
      2          6           0        2.134649   -1.200607   -0.119441
      3          6           0        2.136199    1.201043   -0.142617
      4          6           0        0.785938   -1.194095    0.216238
      5          6           0        0.787279    1.201961    0.193344
      6          6           0        0.091182    0.006113    0.377674
      7          6           0       -1.382308    0.006570    0.699381
      8          6           0       -2.252301   -0.022112   -0.563342
      9          8           0       -3.645434   -0.085015   -0.273276
     10          1           0        3.864982   -0.004812   -0.560108
     11          1           0        2.655224   -2.142017   -0.234918
     12          1           0        2.657691    2.139541   -0.276374
     13          1           0        0.266470   -2.133322    0.361844
     14          1           0        0.269747    2.144962    0.321584
     15          1           0       -1.634273    0.897699    1.281212
     16          1           0       -1.639570   -0.859511    1.311331
     17          1           0       -2.033440   -0.917594   -1.144566
     18          1           0       -2.023001    0.842586   -1.195287
     19          1           0       -3.913002    0.729665    0.162405
 ---------------------------------------------------------------------

 SCF Done:  E(RHF) =  -383.791902817     A.U. after    2 cycles

 The electronic state is 1-A.
 Alpha  occ. eigenvalues --  -20.57279 -11.28852 -11.25285 -11.24657 -11.24623
 Alpha  occ. eigenvalues --  -11.24352 -11.24316 -11.24282 -11.24093  -1.32060
 Alpha  occ. eigenvalues --   -1.15076  -1.05767  -1.01249  -0.97378  -0.86785
 Alpha  occ. eigenvalues --   -0.83314  -0.80116  -0.70552  -0.70409  -0.65210
 Alpha  occ. eigenvalues --   -0.64400  -0.61767  -0.60764  -0.59311  -0.56286
 Alpha  occ. eigenvalues --   -0.55201  -0.51498  -0.49916  -0.49402  -0.48322
 Alpha  occ. eigenvalues --   -0.45821  -0.34305  -0.33415
 Alpha virt. eigenvalues --    0.03186   0.03666   0.04101   0.05212   0.05286
 Alpha virt. eigenvalues --    0.05838   0.06980   0.07192   0.07848   0.08871
 Alpha virt. eigenvalues --    0.10595   0.10663   0.10966   0.11469   0.13628

 Mulliken charges:
               1
     1  C    0.598298
     2  C    0.246203
     3  C    0.237918
     4  C    0.361885
     5  C    0.483718
     6  C    0.850994
     7  C    0.001325
     8  C    0.834468
     9  O   -0.554847
    10  H   -0.442805
    11  H   -0.445754
    12  H   -0.445877
    13  H   -0.612476
    14  H   -0.613076
    15  H   -0.170407
    16  H   -0.104443
    17  H   -0.211799
    18  H   -0.157389
    19  H    0.144064
 Sum of Mulliken charges =  -0.00000

 Dipole moment (field-independent basis, Debye):
    X=              1.0692    Y=              1.2966    Z=              0.4552  Tot=              1.7411

 Test job not archived.
 1\1\GINC-SE196\SP\RHF\Aug-CC-pVDZ\C8H10O1\OHZDE\05-Apr-2025\0\\#t hf a
 ug-cc-pvdz iop(5/13=1,5/36=2,99/5=2) pseudo=read geom=check guess=(rea
 d,tcheck) scf=(maxcycle=1)\\title\\0,1\C,0,2.814804,-0.001719,-0.30138
 9\C,0,2.134649,-1.200607,-0.119441\C,0,2.136199,1.201043,-0.142617\C,0
 ,0.785938,-1.194095,0.216238\C,0,0.787279,1.201961,0.193344\C,0,0.0911
 82,0.006113,0.377674\C,0,-1.382308,0.00657,0.699381\C,0,-2.252301,-0.0
 22112,-0.563342\O,0,-3.645434,-0.085015,-0.273276\H,0,3.864982,-0.0048
 12,-0.560108\H,0,2.655224,-2.142017,-0.234918\H,0,2.657691,2.139541,-0

 Normal termination of Gaussian 16 at Sat Apr  5 22:33:47 2025.
