 Gaussian 16, Revision C.01,

 ----------------------------------------------------------------------
 #t hf aug-cc-pvdz symm=none int=(grid=ultrafine) guess=(read,tcheck) s
 table=(opt,rrhf)
 ----------------------------------------------------------------------
 -----
 title
 -----
 Symbolic Z-matrix:
 Charge =  0 Multiplicity = 1

 SCF Done:  E(RHF) =  -515.810358987     A.U. after   12 cycles
 Normal termination of Gaussian 16 at Sat Apr  5 22:32:25 2025.
 Gaussian 16:  ES64L-G16RevC.01  3-Jul-2019

 ----------------------------------------------------------------------
 #t hf aug-cc-pvdz iop(5/13=1,5/36=2,99/5=2) pseudo=read geom=check gue
 ss=(read,tcheck) scf=(maxcycle=1)
 ----------------------------------------------------------------------
 -----
 title
 -----
 Structure from the checkpoint file:  "2-propanethiol.chk"
 Charge =  0 Multiplicity = 1

                         Standard orientation:
 ---------------------------------------------------------------------
 Center     Atomic      Atomic             Coordinates (Angstroms)
 Number     Number       Type             X           Y           Z
 ---------------------------------------------------------------------
      1          6           0        0.054241    1.100477    1.268813
      2          6           0        0.054241    1.100477   -1.268813
      3          6           0       -0.409424    0.392082   -0.000000
      4         16           0        0.054241   -1.399668    0.000000
      5          1           0       -0.309019    2.131146    1.280502
      6          1           0       -0.310858    0.595967    2.161592
      7          1           0        1.144294    1.131346    1.319556
      8          1           0       -0.309019    2.131146   -1.280502
      9          1           0       -0.310858    0.595967   -2.161592
     10          1           0        1.144294    1.131346   -1.319556
     11          1           0       -1.500071    0.339611   -0.000000
     12          1           0        1.389046   -1.220063    0.000000
 ---------------------------------------------------------------------

 SCF Done:  E(RHF) =  -515.869039589     A.U. after    2 cycles

 The electronic state is 1-A'.
 Alpha  occ. eigenvalues --  -93.52717 -11.27958 -11.23439 -11.23431  -8.82463
 Alpha  occ. eigenvalues --   -6.16625  -6.16413  -6.16092  -1.08470  -0.94054
 Alpha  occ. eigenvalues --   -0.93034  -0.78735  -0.63566  -0.60670  -0.57923
 Alpha  occ. eigenvalues --   -0.54974  -0.53132  -0.50183  -0.48456  -0.43309
 Alpha  occ. eigenvalues --   -0.35193
 Alpha virt. eigenvalues --    0.03475   0.04683   0.04948   0.05357   0.07276
 Alpha virt. eigenvalues --    0.07308   0.07525   0.07678   0.10241   0.12649
 Alpha virt. eigenvalues --    0.14423   0.14705   0.15368   0.15689   0.16821

 Mulliken charges:
               1
     1  C    0.604100
     2  C    0.604100
     3  C   -1.056121
     4  S    0.254697
     5  H   -0.054214
     6  H   -0.075503
     7  H   -0.070932
     8  H   -0.054214
     9  H   -0.075503
    10  H   -0.070932
    11  H   -0.082435
    12  H    0.076957
 Sum of Mulliken charges =  -0.00000

 Dipole moment (field-independent basis, Debye):
    X=              0.2403    Y=              1.8425    Z=              0.0000  Tot=              1.8581

 Test job not archived.
 1\1\GINC-SE177\SP\RHF\Aug-CC-pVDZ\C3H8S1\OHZDE\05-Apr-2025\0\\#t hf au
 g-cc-pvdz iop(5/13=1,5/36=2,99/5=2) pseudo=read geom=check guess=(read
 ,tcheck) scf=(maxcycle=1)\\title\\0,1\C,0,0.054241,1.100477,1.268813\C
 ,0,0.054241,1.100477,-1.268813\C,0,-0.409424,0.392082,0.\S,0,0.054241,
 -1.399668,0.\H,0,-0.309019,2.131146,1.280502\H,0,-0.310858,0.595967,2.
 161592\H,0,1.144294,1.131346,1.319556\H,0,-0.309019,2.131146,-1.280502
 \H,0,-0.310858,0.595967,-2.161592\H,0,1.144294,1.131346,-1.319556\H,0,
 -1.500071,0.339611,0.\H,0,1.389046,-1.220063,0.\\Version=ES64L-G16RevC

 Normal termination of Gaussian 16 at Sat Apr  5 22:32:30 2025.
