 Gaussian 16, Revision C.01,

 ----------------------------------------------------------------------
 #t hf aug-cc-pvdz symm=none int=(grid=ultrafine) guess=(read,tcheck) s
 table=(opt,rrhf)
 ----------------------------------------------------------------------
 -----
 title
 -----
 Symbolic Z-matrix:
 Charge =  0 Multiplicity = 1

 SCF Done:  E(RHF) =  -450.211048269     A.U. after   16 cycles
 Normal termination of Gaussian 16 at Sat Apr  5 22:32:53 2025.
 Gaussian 16:  ES64L-G16RevC.01  3-Jul-2019

 ----------------------------------------------------------------------
 #t hf aug-cc-pvdz iop(5/13=1,5/36=2,99/5=2) pseudo=read geom=check gue
 ss=(read,tcheck) scf=(maxcycle=1)
 ----------------------------------------------------------------------
 -----
 title
 -----
 Structure from the checkpoint file:  "2-propyn-1-yl_diazoacetate.chk"
 Charge =  0 Multiplicity = 1

                         Standard orientation:
 ---------------------------------------------------------------------
 Center     Atomic      Atomic             Coordinates (Angstroms)
 Number     Number       Type             X           Y           Z
 ---------------------------------------------------------------------
      1          8           0       -0.777836    0.622205   -0.000066
      2          8           0        1.157333    1.699452   -0.000071
      3          7           0        2.577306   -0.606933    0.000088
      4          7           0        3.695819   -0.545596    0.000118
      5          6           0       -1.504219   -0.618985   -0.000007
      6          6           0        0.582712    0.639548   -0.000031
      7          6           0        1.267948   -0.648464    0.000052
      8          6           0       -2.928155   -0.331723   -0.000031
      9          6           0       -4.108010   -0.128816   -0.000050
     10          1           0       -1.247335   -1.201991   -0.888800
     11          1           0       -1.247348   -1.201899    0.888849
     12          1           0        0.837583   -1.633315    0.000081
     13          1           0       -5.152401    0.062286   -0.000066
 ---------------------------------------------------------------------

 SCF Done:  E(RHF) =  -450.353398611     A.U. after    2 cycles

 The electronic state is 1-A.
 Alpha  occ. eigenvalues --  -20.62966 -20.55423 -15.84989 -15.78469 -11.41438
 Alpha  occ. eigenvalues --  -11.35294 -11.30960 -11.26553 -11.25937  -1.46888
 Alpha  occ. eigenvalues --   -1.42343  -1.33475  -1.15724  -1.07744  -0.98777
 Alpha  occ. eigenvalues --   -0.89415  -0.77958  -0.76885  -0.74184  -0.71753
 Alpha  occ. eigenvalues --   -0.70016  -0.69524  -0.68411  -0.65512  -0.61914
 Alpha  occ. eigenvalues --   -0.59762  -0.56072  -0.49373  -0.47994  -0.42193
 Alpha  occ. eigenvalues --   -0.41271  -0.36741
 Alpha virt. eigenvalues --    0.02405   0.03508   0.04574   0.05428   0.07147
 Alpha virt. eigenvalues --    0.08065   0.08870   0.09359   0.10132   0.10265
 Alpha virt. eigenvalues --    0.11150   0.11252   0.12224   0.12649   0.13484

 Mulliken charges:
               1
     1  O   -0.590045
     2  O   -0.546710
     3  N    0.112638
     4  N   -0.364869
     5  C    0.228304
     6  C    0.456670
     7  C    1.081666
     8  C   -0.356647
     9  C    1.027251
    10  H   -0.029101
    11  H   -0.029100
    12  H   -0.447264
    13  H   -0.542792
 Sum of Mulliken charges =  -0.00000

 Dipole moment (field-independent basis, Debye):
    X=             -0.9318    Y=             -5.3924    Z=              0.0003  Tot=              5.4723

 Test job not archived.
 1\1\GINC-SE047\SP\RHF\Aug-CC-pVDZ\C5H4N2O2\OHZDE\05-Apr-2025\0\\#t hf
 aug-cc-pvdz iop(5/13=1,5/36=2,99/5=2) pseudo=read geom=check guess=(re
 ad,tcheck) scf=(maxcycle=1)\\title\\0,1\O,0,-0.777836,0.622205,-0.0000
 66\O,0,1.157333,1.699452,-0.000071\N,0,2.577306,-0.606933,0.000088\N,0
 ,3.695819,-0.545596,0.000118\C,0,-1.504219,-0.618985,-0.000007\C,0,0.5
 82712,0.639548,-0.000031\C,0,1.267948,-0.648464,0.000052\C,0,-2.928155
 ,-0.331723,-0.000031\C,0,-4.10801,-0.128816,-0.00005\H,0,-1.247335,-1.
 201991,-0.8888\H,0,-1.247348,-1.201899,0.888849\H,0,0.837583,-1.633315

 Normal termination of Gaussian 16 at Sat Apr  5 22:33:24 2025.
