 Gaussian 16, Revision C.01,

 ----------------------------------------------------------------------
 #t hf aug-cc-pvdz symm=none int=(grid=ultrafine) guess=(read,tcheck) s
 table=(opt,rrhf)
 ----------------------------------------------------------------------
 -----
 title
 -----
 Symbolic Z-matrix:
 Charge =  0 Multiplicity = 1

 SCF Done:  E(RHF) =  -173.314632827     A.U. after   12 cycles
 Normal termination of Gaussian 16 at Sat Apr  5 22:32:27 2025.
 Gaussian 16:  ES64L-G16RevC.01  3-Jul-2019

 ----------------------------------------------------------------------
 #t hf aug-cc-pvdz iop(5/13=1,5/36=2,99/5=2) pseudo=read geom=check gue
 ss=(read,tcheck) scf=(maxcycle=1)
 ----------------------------------------------------------------------
 -----
 title
 -----
 Structure from the checkpoint file:  "2-propanamine.chk"
 Charge =  0 Multiplicity = 1

                         Standard orientation:
 ---------------------------------------------------------------------
 Center     Atomic      Atomic             Coordinates (Angstroms)
 Number     Number       Type             X           Y           Z
 ---------------------------------------------------------------------
      1          6           0        0.291567    0.213459   -0.000000
      2          7           0       -0.907457    1.063947   -0.000000
      3          1           0        1.214879    0.812042   -0.000000
      4          6           0        0.291567   -0.643023    1.262440
      5          6           0        0.291567   -0.643023   -1.262440
      6          1           0       -0.926663    1.665263   -0.815022
      7          1           0       -0.926663    1.665263    0.815022
      8          1           0       -0.596181   -1.276761    1.290536
      9          1           0       -0.596181   -1.276761   -1.290536
     10          1           0        1.176573   -1.279494    1.299902
     11          1           0        1.176573   -1.279494   -1.299902
     12          1           0        0.290826   -0.021081    2.160146
     13          1           0        0.290826   -0.021081   -2.160146
 ---------------------------------------------------------------------

 SCF Done:  E(RHF) =  -173.371066653     A.U. after    2 cycles

 The electronic state is 1-A'.
 Alpha  occ. eigenvalues --  -15.60014 -11.26160 -11.21890 -11.21883  -1.15211
 Alpha  occ. eigenvalues --   -1.00141  -0.92835  -0.77972  -0.65186  -0.64999
 Alpha  occ. eigenvalues --   -0.59961  -0.54032  -0.52948  -0.50620  -0.49082
 Alpha  occ. eigenvalues --   -0.47654  -0.38083
 Alpha virt. eigenvalues --    0.03497   0.04553   0.04643   0.05014   0.07119
 Alpha virt. eigenvalues --    0.07297   0.07838   0.08182   0.09757   0.12654
 Alpha virt. eigenvalues --    0.13360   0.15034   0.15912   0.15969   0.17012

 Mulliken charges:
               1
     1  C   -0.432937
     2  N   -0.289436
     3  H   -0.113422
     4  C    0.588047
     5  C    0.588047
     6  H   -0.023020
     7  H   -0.023020
     8  H    0.007922
     9  H    0.007922
    10  H   -0.046489
    11  H   -0.046489
    12  H   -0.108562
    13  H   -0.108562
 Sum of Mulliken charges =   0.00000

 Dipole moment (field-independent basis, Debye):
    X=              1.0528    Y=              0.7947    Z=              0.0000  Tot=              1.3191

 Test job not archived.
 1\1\GINC-SE175\SP\RHF\Aug-CC-pVDZ\C3H9N1\OHZDE\05-Apr-2025\0\\#t hf au
 g-cc-pvdz iop(5/13=1,5/36=2,99/5=2) pseudo=read geom=check guess=(read
 ,tcheck) scf=(maxcycle=1)\\title\\0,1\C,0,0.291567,0.213459,0.\N,0,-0.
 907457,1.063947,0.\H,0,1.214879,0.812042,0.\C,0,0.291567,-0.643023,1.2
 6244\C,0,0.291567,-0.643023,-1.26244\H,0,-0.926663,1.665263,-0.815022\
 H,0,-0.926663,1.665263,0.815022\H,0,-0.596181,-1.276761,1.290536\H,0,-
 0.596181,-1.276761,-1.290536\H,0,1.176573,-1.279494,1.299902\H,0,1.176
 573,-1.279494,-1.299902\H,0,0.290826,-0.021081,2.160146\H,0,0.290826,-

 Normal termination of Gaussian 16 at Sat Apr  5 22:32:30 2025.
