 Gaussian 16, Revision C.01,

 ----------------------------------------------------------------------
 #t hf aug-cc-pvdz symm=none int=(grid=ultrafine) guess=(read,tcheck) s
 table=(opt,rrhf)
 ----------------------------------------------------------------------
 -----
 title
 -----
 Symbolic Z-matrix:
 Charge =  0 Multiplicity = 1

 SCF Done:  E(RHF) =  -346.079118723     A.U. after   12 cycles

 1\1\GINC-SE226\Stability\RHF\Aug-CC-pVDZ\C5H12O2\OHZDE\05-Apr-2025\0\\
 #t hf aug-cc-pvdz symm=none int=(grid=ultrafine) guess=(read,tcheck) s
 table=(opt,rrhf)\\title\\0,1\C,0,-3.551731,-0.145916,0.178332\C,0,-2.1
 60631,-0.497409,-0.345698\C,0,-1.084795,0.418115,0.210133\C,0,2.554528
 ,0.252331,-0.341891\C,0,1.246011,0.820604,0.153652\O,0,2.871763,-0.915
 524,0.411744\O,0,0.173609,0.025383,-0.308235\H,0,-3.834247,0.874037,-0
 .090442\H,0,-4.305646,-0.815827,-0.235313\H,0,-3.600044,-0.226907,1.26
 6045\H,0,-2.141876,-0.436709,-1.436016\H,0,-1.907786,-1.527183,-0.0849

 Normal termination of Gaussian 16 at Sat Apr  5 22:33:34 2025.
 Gaussian 16:  ES64L-G16RevC.01  3-Jul-2019

 ----------------------------------------------------------------------
 #t hf aug-cc-pvdz iop(5/13=1,5/36=2,99/5=2) pseudo=read geom=check gue
 ss=(read,tcheck) scf=(maxcycle=1)
 ----------------------------------------------------------------------
 -----
 title
 -----
 Structure from the checkpoint file:  "2-propoxyethanol.chk"
 Charge =  0 Multiplicity = 1

                         Standard orientation:
 ---------------------------------------------------------------------
 Center     Atomic      Atomic             Coordinates (Angstroms)
 Number     Number       Type             X           Y           Z
 ---------------------------------------------------------------------
      1          6           0       -3.551731   -0.145916    0.178332
      2          6           0       -2.160631   -0.497409   -0.345698
      3          6           0       -1.084795    0.418115    0.210133
      4          6           0        2.554528    0.252331   -0.341891
      5          6           0        1.246011    0.820604    0.153652
      6          8           0        2.871763   -0.915524    0.411744
      7          8           0        0.173609    0.025383   -0.308235
      8          1           0       -3.834247    0.874037   -0.090442
      9          1           0       -4.305646   -0.815827   -0.235313
     10          1           0       -3.600044   -0.226907    1.266045
     11          1           0       -2.141876   -0.436709   -1.436016
     12          1           0       -1.907786   -1.527183   -0.084984
     13          1           0       -1.294438    1.463084   -0.062635
     14          1           0       -1.068300    0.365578    1.307923
     15          1           0        3.334739    1.012724   -0.218945
     16          1           0        2.461235    0.020138   -1.407091
     17          1           0        1.140374    1.851849   -0.212086
     18          1           0        1.258753    0.851169    1.250942
     19          1           0        3.573974   -1.397171   -0.032650
 ---------------------------------------------------------------------

 SCF Done:  E(RHF) =  -346.191773239     A.U. after    2 cycles

 The electronic state is 1-A.
 Alpha  occ. eigenvalues --  -20.56824 -20.56320 -11.28602 -11.28263 -11.27871
 Alpha  occ. eigenvalues --  -11.22451 -11.22360  -1.33379  -1.31210  -1.05367
 Alpha  occ. eigenvalues --   -0.99840  -0.90658  -0.82805  -0.80635  -0.72133
 Alpha  occ. eigenvalues --   -0.68178  -0.66900  -0.62606  -0.60824  -0.60440
 Alpha  occ. eigenvalues --   -0.57296  -0.54184  -0.53120  -0.50690  -0.48196
 Alpha  occ. eigenvalues --   -0.47717  -0.47221  -0.45888  -0.43051
 Alpha virt. eigenvalues --    0.03502   0.04043   0.04588   0.04929   0.05714
 Alpha virt. eigenvalues --    0.06133   0.06463   0.07296   0.08154   0.08730
 Alpha virt. eigenvalues --    0.09589   0.10193   0.11774   0.13156   0.14106

 Mulliken charges:
               1
     1  C    0.433568
     2  C    0.244274
     3  C    0.406067
     4  C    0.907974
     5  C    0.391977
     6  O   -0.575722
     7  O   -0.606087
     8  H   -0.072531
     9  H   -0.076254
    10  H   -0.072368
    11  H   -0.132439
    12  H   -0.124985
    13  H   -0.169904
    14  H   -0.175746
    15  H   -0.109179
    16  H   -0.162280
    17  H   -0.141998
    18  H   -0.111658
    19  H    0.147291
 Sum of Mulliken charges =  -0.00000

 Dipole moment (field-independent basis, Debye):
    X=              0.4667    Y=              1.4348    Z=             -0.6957  Tot=              1.6614

 Test job not archived.
 1\1\GINC-SE226\SP\RHF\Aug-CC-pVDZ\C5H12O2\OHZDE\05-Apr-2025\0\\#t hf a
 ug-cc-pvdz iop(5/13=1,5/36=2,99/5=2) pseudo=read geom=check guess=(rea
 d,tcheck) scf=(maxcycle=1)\\title\\0,1\C,0,-3.551731,-0.145916,0.17833
 2\C,0,-2.160631,-0.497409,-0.345698\C,0,-1.084795,0.418115,0.210133\C,
 0,2.554528,0.252331,-0.341891\C,0,1.246011,0.820604,0.153652\O,0,2.871
 763,-0.915524,0.411744\O,0,0.173609,0.025383,-0.308235\H,0,-3.834247,0
 .874037,-0.090442\H,0,-4.305646,-0.815827,-0.235313\H,0,-3.600044,-0.2
 26907,1.266045\H,0,-2.141876,-0.436709,-1.436016\H,0,-1.907786,-1.5271

 Normal termination of Gaussian 16 at Sat Apr  5 22:33:44 2025.
