 Gaussian 16, Revision C.01,

 ----------------------------------------------------------------------
 #t hf aug-cc-pvdz symm=none int=(grid=ultrafine) guess=(read,tcheck) s
 table=(opt,rrhf)
 ----------------------------------------------------------------------
 -----
 title
 -----
 Symbolic Z-matrix:
 Charge =  0 Multiplicity = 1

 SCF Done:  E(RHF) =  -353.519750187     A.U. after   16 cycles
 Normal termination of Gaussian 16 at Sat Apr  5 22:32:26 2025.
 Gaussian 16:  ES64L-G16RevC.01  3-Jul-2019

 ----------------------------------------------------------------------
 #t hf aug-cc-pvdz iop(5/13=1,5/36=2,99/5=2) pseudo=read geom=check gue
 ss=(read,tcheck) scf=(maxcycle=1)
 ----------------------------------------------------------------------
 -----
 title
 -----
 Structure from the checkpoint file:  "2-propenoylazide.chk"
 Charge =  0 Multiplicity = 1

                         Standard orientation:
 ---------------------------------------------------------------------
 Center     Atomic      Atomic             Coordinates (Angstroms)
 Number     Number       Type             X           Y           Z
 ---------------------------------------------------------------------
      1          8           0        0.112000    1.645041    0.000178
      2          7           0        0.429060   -0.659026   -0.000089
      3          7           0        1.652969   -0.464671   -0.000125
      4          7           0        2.770025   -0.386800   -0.000154
      5          6           0       -1.813590    0.267150    0.000107
      6          6           0       -0.363056    0.533548    0.000075
      7          6           0       -2.364559   -0.942577   -0.000011
      8          1           0       -2.413662    1.167111    0.000239
      9          1           0       -1.760433   -1.838905   -0.000143
     10          1           0       -3.439057   -1.063786    0.000022
 ---------------------------------------------------------------------

 SCF Done:  E(RHF) =  -353.628070782     A.U. after    2 cycles

 The electronic state is 1-A.
 Alpha  occ. eigenvalues --  -20.57614 -15.87976 -15.77640 -15.69327 -11.39840
 Alpha  occ. eigenvalues --  -11.27971 -11.27031  -1.48978  -1.38504  -1.28000
 Alpha  occ. eigenvalues --   -1.09023  -0.93799  -0.84482  -0.73471  -0.72675
 Alpha  occ. eigenvalues --   -0.71177  -0.69312  -0.66101  -0.63942  -0.58787
 Alpha  occ. eigenvalues --   -0.56211  -0.52154  -0.44811  -0.42247  -0.40271
 Alpha virt. eigenvalues --    0.03091   0.04487   0.05543   0.05639   0.08076
 Alpha virt. eigenvalues --    0.08685   0.09057   0.10955   0.11768   0.11991
 Alpha virt. eigenvalues --    0.13423   0.14445   0.15259   0.15369   0.16157

 Mulliken charges:
               1
     1  O   -0.426223
     2  N   -0.598518
     3  N    0.506394
     4  N   -0.156186
     5  C    0.907943
     6  C    0.304276
     7  C    0.413473
     8  H   -0.411930
     9  H   -0.285161
    10  H   -0.254068
 Sum of Mulliken charges =  -0.00000

 Dipole moment (field-independent basis, Debye):
    X=             -1.7673    Y=             -2.5947    Z=             -0.0002  Tot=              3.1395

 Test job not archived.
 1\1\GINC-SE226\SP\RHF\Aug-CC-pVDZ\C3H3N3O1\OHZDE\05-Apr-2025\0\\#t hf
 aug-cc-pvdz iop(5/13=1,5/36=2,99/5=2) pseudo=read geom=check guess=(re
 ad,tcheck) scf=(maxcycle=1)\\title\\0,1\O,0,0.112,1.645041,0.000178\N,
 0,0.42906,-0.659026,-0.000089\N,0,1.652969,-0.464671,-0.000125\N,0,2.7
 70025,-0.3868,-0.000154\C,0,-1.81359,0.26715,0.000107\C,0,-0.363056,0.
 533548,0.000075\C,0,-2.364559,-0.942577,-0.000011\H,0,-2.413662,1.1671
 11,0.000239\H,0,-1.760433,-1.838905,-0.000143\H,0,-3.439057,-1.063786,
 0.000022\\Version=ES64L-G16RevC.01\State=1-A\HF=-353.6280708\RMSD=6.36

 Normal termination of Gaussian 16 at Sat Apr  5 22:32:30 2025.
