 Gaussian 16, Revision C.01,

 ----------------------------------------------------------------------
 #t hf aug-cc-pvdz symm=none int=(grid=ultrafine) guess=(read,tcheck) s
 table=(opt,rrhf)
 ----------------------------------------------------------------------
 -----
 title
 -----
 Symbolic Z-matrix:
 Charge =  0 Multiplicity = 1

 SCF Done:  E(RHF) =  -172.142343761     A.U. after   13 cycles
 Normal termination of Gaussian 16 at Sat Apr  5 22:32:20 2025.
 Gaussian 16:  ES64L-G16RevC.01  3-Jul-2019

 ----------------------------------------------------------------------
 #t hf aug-cc-pvdz iop(5/13=1,5/36=2,99/5=2) pseudo=read geom=check gue
 ss=(read,tcheck) scf=(maxcycle=1)
 ----------------------------------------------------------------------
 -----
 title
 -----
 Structure from the checkpoint file:  "2-propanimine.chk"
 Charge =  0 Multiplicity = 1

                         Standard orientation:
 ---------------------------------------------------------------------
 Center     Atomic      Atomic             Coordinates (Angstroms)
 Number     Number       Type             X           Y           Z
 ---------------------------------------------------------------------
      1          6           0        0.000000    0.160391    0.000000
      2          6           0        1.341166   -0.522197    0.000000
      3          6           0       -1.204165   -0.750105    0.000000
      4          7           0       -0.046207    1.430440    0.000000
      5          1           0        2.139324    0.215075    0.000000
      6          1           0        1.444083   -1.166052    0.876901
      7          1           0        1.444083   -1.166052   -0.876901
      8          1           0       -2.134256   -0.183538    0.000000
      9          1           0       -1.190635   -1.402345    0.876352
     10          1           0       -1.190635   -1.402345   -0.876352
     11          1           0       -1.010521    1.763644    0.000000
 ---------------------------------------------------------------------

 SCF Done:  E(RHF) =  -172.196784509     A.U. after    2 cycles

 The electronic state is 1-A'.
 Alpha  occ. eigenvalues --  -15.60446 -11.29600 -11.24506 -11.23308  -1.18321
 Alpha  occ. eigenvalues --   -1.00173  -0.95456  -0.74298  -0.65233  -0.60996
 Alpha  occ. eigenvalues --   -0.60540  -0.55255  -0.54581  -0.52203  -0.41282
 Alpha  occ. eigenvalues --   -0.40575
 Alpha virt. eigenvalues --    0.03159   0.04384   0.05131   0.05456   0.07442
 Alpha virt. eigenvalues --    0.07493   0.07882   0.11260   0.14266   0.14440
 Alpha virt. eigenvalues --    0.14865   0.15004   0.15140   0.15960   0.17298

 Mulliken charges:
               1
     1  C   -0.254292
     2  C    0.364587
     3  C    0.486947
     4  N   -0.412498
     5  H   -0.111554
     6  H    0.031664
     7  H    0.031664
     8  H   -0.179507
     9  H    0.025953
    10  H    0.025953
    11  H   -0.008916
 Sum of Mulliken charges =  -0.00000

 Dipole moment (field-independent basis, Debye):
    X=             -1.2562    Y=             -2.3167    Z=             -0.0000  Tot=              2.6354

 Test job not archived.
 1\1\GINC-SE198\SP\RHF\Aug-CC-pVDZ\C3H7N1\OHZDE\05-Apr-2025\0\\#t hf au
 g-cc-pvdz iop(5/13=1,5/36=2,99/5=2) pseudo=read geom=check guess=(read
 ,tcheck) scf=(maxcycle=1)\\title\\0,1\C,0,0.,0.160391,0.\C,0,1.341166,
 -0.522197,0.\C,0,-1.204165,-0.750105,0.\N,0,-0.046207,1.43044,0.\H,0,2
 .139324,0.215075,0.\H,0,1.444083,-1.166052,0.876901\H,0,1.444083,-1.16
 6052,-0.876901\H,0,-2.134256,-0.183538,0.\H,0,-1.190635,-1.402345,0.87
 6352\H,0,-1.190635,-1.402345,-0.876352\H,0,-1.010521,1.763644,0.\\Vers
 ion=ES64L-G16RevC.01\State=1-A'\HF=-172.1967845\RMSD=3.502e-03\Dipole=

 Normal termination of Gaussian 16 at Sat Apr  5 22:32:23 2025.
