 Gaussian 16, Revision C.01,

 ----------------------------------------------------------------------
 #t hf aug-cc-pvdz symm=none int=(grid=ultrafine) guess=(read,tcheck) s
 table=(opt,rrhf)
 ----------------------------------------------------------------------
 -----
 title
 -----
 Symbolic Z-matrix:
 Charge =  0 Multiplicity = 1

 SCF Done:  E(RHF) =  -193.148797193     A.U. after   12 cycles
 Normal termination of Gaussian 16 at Sat Apr  5 22:32:22 2025.
 Gaussian 16:  ES64L-G16RevC.01  3-Jul-2019

 ----------------------------------------------------------------------
 #t hf aug-cc-pvdz iop(5/13=1,5/36=2,99/5=2) pseudo=read geom=check gue
 ss=(read,tcheck) scf=(maxcycle=1)
 ----------------------------------------------------------------------
 -----
 title
 -----
 Structure from the checkpoint file:  "2-propanol.chk"
 Charge =  0 Multiplicity = 1

                         Standard orientation:
 ---------------------------------------------------------------------
 Center     Atomic      Atomic             Coordinates (Angstroms)
 Number     Number       Type             X           Y           Z
 ---------------------------------------------------------------------
      1          6           0        0.287231   -0.610477    1.268740
      2          6           0        0.287231   -0.610477   -1.268740
      3          6           0        0.287231    0.234800   -0.000000
      4          8           0       -0.802494    1.166277    0.000000
      5          1           0        1.168231   -1.253175    1.311423
      6          1           0        0.281273    0.027361    2.152009
      7          1           0       -0.596203   -1.253979    1.303814
      8          1           0        1.168231   -1.253175   -1.311423
      9          1           0        0.281273    0.027361   -2.152009
     10          1           0       -0.596203   -1.253979   -1.303814
     11          1           0        1.172769    0.873582   -0.000000
     12          1           0       -1.629582    0.672719    0.000000
 ---------------------------------------------------------------------

 SCF Done:  E(RHF) =  -193.212354937     A.U. after    2 cycles

 The electronic state is 1-A'.
 Alpha  occ. eigenvalues --  -20.56557 -11.28950 -11.22669 -11.22661  -1.31501
 Alpha  occ. eigenvalues --   -1.03627  -0.93785  -0.82047  -0.66953  -0.64746
 Alpha  occ. eigenvalues --   -0.60829  -0.58309  -0.54716  -0.52313  -0.51585
 Alpha  occ. eigenvalues --   -0.47482  -0.44987
 Alpha virt. eigenvalues --    0.03488   0.04622   0.04868   0.05285   0.07143
 Alpha virt. eigenvalues --    0.07437   0.07484   0.07716   0.11909   0.13844
 Alpha virt. eigenvalues --    0.15069   0.15784   0.15998   0.16885   0.17498

 Mulliken charges:
               1
     1  C    0.528257
     2  C    0.528257
     3  C   -0.167630
     4  O   -0.551914
     5  H   -0.022289
     6  H   -0.036730
     7  H   -0.078920
     8  H   -0.022289
     9  H   -0.036730
    10  H   -0.078920
    11  H   -0.209055
    12  H    0.147966
 Sum of Mulliken charges =  -0.00000

 Dipole moment (field-independent basis, Debye):
    X=              0.1040    Y=             -1.8887    Z=             -0.0000  Tot=              1.8915

 Test job not archived.
 1\1\GINC-SE199\SP\RHF\Aug-CC-pVDZ\C3H8O1\OHZDE\05-Apr-2025\0\\#t hf au
 g-cc-pvdz iop(5/13=1,5/36=2,99/5=2) pseudo=read geom=check guess=(read
 ,tcheck) scf=(maxcycle=1)\\title\\0,1\C,0,0.287231,-0.610477,1.26874\C
 ,0,0.287231,-0.610477,-1.26874\C,0,0.287231,0.2348,0.\O,0,-0.802494,1.
 166277,0.\H,0,1.168231,-1.253175,1.311423\H,0,0.281273,0.027361,2.1520
 09\H,0,-0.596203,-1.253979,1.303814\H,0,1.168231,-1.253175,-1.311423\H
 ,0,0.281273,0.027361,-2.152009\H,0,-0.596203,-1.253979,-1.303814\H,0,1
 .172769,0.873582,0.\H,0,-1.629582,0.672719,0.\\Version=ES64L-G16RevC.0

 Normal termination of Gaussian 16 at Sat Apr  5 22:32:25 2025.
