 Gaussian 16, Revision C.01,

 ----------------------------------------------------------------------
 #t hf aug-cc-pvdz symm=none int=(grid=ultrafine) guess=(read,tcheck) s
 table=(opt,rrhf)
 ----------------------------------------------------------------------
 -----
 title
 -----
 Symbolic Z-matrix:
 Charge =  0 Multiplicity = 1

 SCF Done:  E(RHF) =  -191.953660150     A.U. after   13 cycles
 Normal termination of Gaussian 16 at Sat Apr  5 22:32:21 2025.
 Gaussian 16:  ES64L-G16RevC.01  3-Jul-2019

 ----------------------------------------------------------------------
 #t hf aug-cc-pvdz iop(5/13=1,5/36=2,99/5=2) pseudo=read geom=check gue
 ss=(read,tcheck) scf=(maxcycle=1)
 ----------------------------------------------------------------------
 -----
 title
 -----
 Structure from the checkpoint file:  "2-propene-1-ol.chk"
 Charge =  0 Multiplicity = 1

                         Standard orientation:
 ---------------------------------------------------------------------
 Center     Atomic      Atomic             Coordinates (Angstroms)
 Number     Number       Type             X           Y           Z
 ---------------------------------------------------------------------
      1          6           0        1.798671    0.026140   -0.256881
      2          6           0        0.665074   -0.290241    0.357148
      3          6           0       -0.599255    0.505881    0.255208
      4          8           0       -1.694874   -0.274273   -0.232077
      5          1           0        2.690246   -0.577940   -0.155580
      6          1           0        1.876485    0.910633   -0.878456
      7          1           0        0.608435   -1.184136    0.970445
      8          1           0       -0.440048    1.391472   -0.369265
      9          1           0       -0.916428    0.847380    1.242042
     10          1           0       -1.446641   -0.643903   -1.085425
 ---------------------------------------------------------------------

 SCF Done:  E(RHF) =  -192.016030028     A.U. after    2 cycles

 The electronic state is 1-A.
 Alpha  occ. eigenvalues --  -20.57392 -11.29342 -11.24946 -11.24508  -1.32083
 Alpha  occ. eigenvalues --   -1.06188  -0.92431  -0.78130  -0.71158  -0.63261
 Alpha  occ. eigenvalues --   -0.62358  -0.61531  -0.54025  -0.50501  -0.46585
 Alpha  occ. eigenvalues --   -0.38262
 Alpha virt. eigenvalues --    0.03492   0.04713   0.04955   0.05429   0.06964
 Alpha virt. eigenvalues --    0.07338   0.10008   0.11558   0.12775   0.14678
 Alpha virt. eigenvalues --    0.15256   0.15799   0.16788   0.17298   0.18334

 Mulliken charges:
               1
     1  C    0.536905
     2  C    0.316674
     3  C    0.726175
     4  O   -0.550758
     5  H   -0.281664
     6  H   -0.276664
     7  H   -0.338236
     8  H   -0.174082
     9  H   -0.108243
    10  H    0.149893
 Sum of Mulliken charges =  -0.00000

 Dipole moment (field-independent basis, Debye):
    X=              1.6576    Y=              0.2689    Z=             -0.7205  Tot=              1.8273

 Test job not archived.
 1\1\GINC-SE225\SP\RHF\Aug-CC-pVDZ\C3H6O1\OHZDE\05-Apr-2025\0\\#t hf au
 g-cc-pvdz iop(5/13=1,5/36=2,99/5=2) pseudo=read geom=check guess=(read
 ,tcheck) scf=(maxcycle=1)\\title\\0,1\C,0,1.798671,0.02614,-0.256881\C
 ,0,0.665074,-0.290241,0.357148\C,0,-0.599255,0.505881,0.255208\O,0,-1.
 694874,-0.274273,-0.232077\H,0,2.690246,-0.577939,-0.15558\H,0,1.87648
 5,0.910633,-0.878456\H,0,0.608435,-1.184136,0.970445\H,0,-0.440048,1.3
 91472,-0.369265\H,0,-0.916428,0.84738,1.242042\H,0,-1.446641,-0.643903
 ,-1.085425\\Version=ES64L-G16RevC.01\State=1-A\HF=-192.01603\RMSD=4.71

 Normal termination of Gaussian 16 at Sat Apr  5 22:32:24 2025.
