 Gaussian 16, Revision C.01,

 ----------------------------------------------------------------------
 #t hf aug-cc-pvdz symm=none int=(grid=ultrafine) guess=(read,tcheck) s
 table=(opt,rrhf)
 ----------------------------------------------------------------------
 -----
 title
 -----
 Symbolic Z-matrix:
 Charge =  0 Multiplicity = 1

 SCF Done:  E(RHF) =  -892.632235530     A.U. after   16 cycles
 Normal termination of Gaussian 16 at Sat Apr  5 22:35:08 2025.
 Gaussian 16:  ES64L-G16RevC.01  3-Jul-2019

 ----------------------------------------------------------------------
 #t hf aug-cc-pvdz iop(5/13=1,5/36=2,99/5=2) pseudo=read geom=check gue
 ss=(read,tcheck) scf=(maxcycle=1)
 ----------------------------------------------------------------------
 -----
 title
 -----
 Structure from the checkpoint file:  "2-propyn-1-ylsulfonylbenzene.chk"
 Charge =  0 Multiplicity = 1

                         Standard orientation:
 ---------------------------------------------------------------------
 Center     Atomic      Atomic             Coordinates (Angstroms)
 Number     Number       Type             X           Y           Z
 ---------------------------------------------------------------------
      1          8           0        1.156985    1.267774    1.230191
      2         16           0        0.843996    0.000062    0.585576
      3          6           0        1.650805   -0.000061   -1.080985
      4          6           0        3.089778   -0.000082   -0.968083
      5          6           0        4.283059   -0.000104   -0.864662
      6          8           0        1.157003   -1.267545    1.230387
      7          6           0       -0.900255    0.000015    0.152344
      8          6           0       -1.559782   -1.213746   -0.004980
      9          6           0       -2.908652   -1.207188   -0.338370
     10          6           0       -3.579238   -0.000063   -0.507878
     11          6           0       -2.908689    1.207101   -0.338507
     12          6           0       -1.559819    1.213738   -0.005118
     13          1           0        1.278876    0.889853   -1.588820
     14          1           0        1.278846   -0.890027   -1.588706
     15          1           0        5.340191   -0.000125   -0.768376
     16          1           0       -1.026919   -2.140103    0.154686
     17          1           0       -3.436604   -2.143231   -0.457340
     18          1           0       -4.629833   -0.000093   -0.764710
     19          1           0       -3.436669    2.143114   -0.457585
     20          1           0       -1.026981    2.140129    0.154442
 ---------------------------------------------------------------------

 SCF Done:  E(RHF) =  -892.853465521     A.U. after    2 cycles

 The electronic state is 1-A.
 Alpha  occ. eigenvalues --  -93.78759 -20.55980 -20.55978 -11.31757 -11.29454
 Alpha  occ. eigenvalues --  -11.28142 -11.28133 -11.27814 -11.27216 -11.27206
 Alpha  occ. eigenvalues --  -11.26484 -11.25625  -9.05395  -6.40025  -6.39829
 Alpha  occ. eigenvalues --   -6.39754  -1.41546  -1.30287  -1.18111  -1.09558
 Alpha  occ. eigenvalues --   -1.05745  -1.04503  -0.99925  -0.90227  -0.86413
 Alpha  occ. eigenvalues --   -0.81814  -0.74789  -0.74419  -0.69571  -0.68768
 Alpha  occ. eigenvalues --   -0.68157  -0.65843  -0.65814  -0.64558  -0.62722
 Alpha  occ. eigenvalues --   -0.62588  -0.55848  -0.54187  -0.53211  -0.52002
 Alpha  occ. eigenvalues --   -0.51515  -0.49442  -0.46782  -0.41084  -0.40412
 Alpha  occ. eigenvalues --   -0.37932  -0.37068
 Alpha virt. eigenvalues --    0.02556   0.03596   0.03747   0.04204   0.05191
 Alpha virt. eigenvalues --    0.05779   0.06485   0.06977   0.07439   0.08454
 Alpha virt. eigenvalues --    0.08989   0.10309   0.10510   0.11134   0.11842

 Mulliken charges:
               1
     1  O   -1.156959
     2  S    2.725940
     3  C   -0.427182
     4  C   -0.384047
     5  C    1.058047
     6  O   -1.156959
     7  C    0.635738
     8  C    0.030938
     9  C    0.498385
    10  C    0.500413
    11  C    0.498406
    12  C    0.030937
    13  H    0.053412
    14  H    0.053415
    15  H   -0.527270
    16  H   -0.565337
    17  H   -0.432722
    18  H   -0.437107
    19  H   -0.432722
    20  H   -0.565326
 Sum of Mulliken charges =  -0.00000

 Dipole moment (field-independent basis, Debye):
    X=             -3.5358    Y=             -0.0004    Z=             -4.6152  Tot=              5.8140

 Test job not archived.
 1\1\GINC-SE047\SP\RHF\Aug-CC-pVDZ\C9H8O2S1\OHZDE\05-Apr-2025\0\\#t hf
 aug-cc-pvdz iop(5/13=1,5/36=2,99/5=2) pseudo=read geom=check guess=(re
 ad,tcheck) scf=(maxcycle=1)\\title\\0,1\O,0,1.156985,1.267774,1.230191
 \S,0,0.843996,0.000062,0.585576\C,0,1.650805,-0.000061,-1.080985\C,0,3
 .089778,-0.000082,-0.968083\C,0,4.283059,-0.000104,-0.864662\O,0,1.157
 003,-1.267545,1.230387\C,0,-0.900255,0.000015,0.152344\C,0,-1.559782,-
 1.213746,-0.00498\C,0,-2.908652,-1.207188,-0.33837\C,0,-3.579238,-0.00
 0063,-0.507878\C,0,-2.908689,1.207101,-0.338507\C,0,-1.559819,1.213738

 Normal termination of Gaussian 16 at Sat Apr  5 22:36:04 2025.
