 Gaussian 16, Revision C.01,

 ----------------------------------------------------------------------
 #t hf aug-cc-pvdz symm=none int=(grid=ultrafine) guess=(read,tcheck) s
 table=(opt,rrhf)
 ----------------------------------------------------------------------
 -----
 title
 -----
 Symbolic Z-matrix:
 Charge =  0 Multiplicity = 1

 SCF Done:  E(RHF) =  -190.738051554     A.U. after   14 cycles
 Normal termination of Gaussian 16 at Sat Apr  5 22:32:18 2025.
 Gaussian 16:  ES64L-G16RevC.01  3-Jul-2019

 ----------------------------------------------------------------------
 #t hf aug-cc-pvdz iop(5/13=1,5/36=2,99/5=2) pseudo=read geom=check gue
 ss=(read,tcheck) scf=(maxcycle=1)
 ----------------------------------------------------------------------
 -----
 title
 -----
 Structure from the checkpoint file:  "2-propyn-1-ol.chk"
 Charge =  0 Multiplicity = 1

                         Standard orientation:
 ---------------------------------------------------------------------
 Center     Atomic      Atomic             Coordinates (Angstroms)
 Number     Number       Type             X           Y           Z
 ---------------------------------------------------------------------
      1          6           0       -0.657272   -0.503422    0.000000
      2          6           0        0.000000    0.795889    0.000000
      3          6           0        0.514208    1.878089    0.000000
      4          8           0        0.326252   -1.539360    0.000000
      5          1           0       -1.299934   -0.577228    0.884602
      6          1           0       -1.299934   -0.577228   -0.884602
      7          1           0        0.977878    2.832712    0.000000
      8          1           0       -0.129644   -2.386711    0.000000
 ---------------------------------------------------------------------

 SCF Done:  E(RHF) =  -190.800713291     A.U. after    2 cycles

 The electronic state is 1-A'.
 Alpha  occ. eigenvalues --  -20.58752 -11.32470 -11.24929 -11.24183  -1.33563
 Alpha  occ. eigenvalues --   -1.04930  -0.95018  -0.73576  -0.72175  -0.66149
 Alpha  occ. eigenvalues --   -0.65248  -0.55284  -0.49352  -0.40575  -0.39414
 Alpha virt. eigenvalues --    0.03064   0.04053   0.05470   0.05596   0.09172
 Alpha virt. eigenvalues --    0.11208   0.11966   0.12293   0.13960   0.14808
 Alpha virt. eigenvalues --    0.16016   0.16868   0.17403   0.17993   0.21496

 Mulliken charges:
               1
     1  C    0.595326
     2  C   -0.900230
     3  C    1.241004
     4  O   -0.532027
     5  H   -0.021146
     6  H   -0.021146
     7  H   -0.508838
     8  H    0.147058
 Sum of Mulliken charges =   0.00000

 Dipole moment (field-independent basis, Debye):
    X=             -2.0117    Y=             -0.5904    Z=              0.0000  Tot=              2.0966

 Test job not archived.
 1\1\GINC-SE046\SP\RHF\Aug-CC-pVDZ\C3H4O1\OHZDE\05-Apr-2025\0\\#t hf au
 g-cc-pvdz iop(5/13=1,5/36=2,99/5=2) pseudo=read geom=check guess=(read
 ,tcheck) scf=(maxcycle=1)\\title\\0,1\C,0,-0.657272,-0.503422,0.\C,0,0
 .,0.795889,0.\C,0,0.514208,1.878089,0.\O,0,0.326252,-1.53936,0.\H,0,-1
 .299934,-0.577228,0.884602\H,0,-1.299934,-0.577228,-0.884602\H,0,0.977
 878,2.832712,0.\H,0,-0.129644,-2.386711,0.\\Version=ES64L-G16RevC.01\S
 tate=1-A'\HF=-190.8007133\RMSD=8.569e-03\Dipole=-0.7914786,-0.2322985,
 0.\Quadrupole=-1.4807371,3.9065204,-2.4257833,4.0450572,0.,0.\PG=CS [S

 Normal termination of Gaussian 16 at Sat Apr  5 22:32:20 2025.
