 Gaussian 16, Revision C.01,

 ----------------------------------------------------------------------
 #t hf aug-cc-pvdz symm=none int=(grid=ultrafine) guess=(read,tcheck) s
 table=(opt,rrhf)
 ----------------------------------------------------------------------
 -----
 title
 -----
 Symbolic Z-matrix:
 Charge =  0 Multiplicity = 1

 SCF Done:  E(RHF) =  -321.613743573     A.U. after   15 cycles
 Normal termination of Gaussian 16 at Sat Apr  5 22:32:31 2025.
 Gaussian 16:  ES64L-G16RevC.01  3-Jul-2019

 ----------------------------------------------------------------------
 #t hf aug-cc-pvdz iop(5/13=1,5/36=2,99/5=2) pseudo=read geom=check gue
 ss=(read,tcheck) scf=(maxcycle=1)
 ----------------------------------------------------------------------
 -----
 title
 -----
 Structure from the checkpoint file:  "2-pyridinol.chk"
 Charge =  0 Multiplicity = 1

                         Standard orientation:
 ---------------------------------------------------------------------
 Center     Atomic      Atomic             Coordinates (Angstroms)
 Number     Number       Type             X           Y           Z
 ---------------------------------------------------------------------
      1          7           0       -1.176140    0.295001   -0.000000
      2          6           0       -0.000000    0.900809   -0.000000
      3          6           0        1.223975    0.226351    0.000000
      4          6           0        1.190077   -1.154667    0.000000
      5          6           0       -0.039417   -1.813282    0.000000
      6          6           0       -1.189267   -1.042689    0.000000
      7          8           0        0.005822    2.254025   -0.000000
      8          1           0        2.149101    0.783058   -0.000000
      9          1           0        2.113772   -1.717700    0.000000
     10          1           0       -0.101258   -2.891524    0.000000
     11          1           0       -2.168354   -1.506394    0.000000
     12          1           0       -0.919060    2.536214   -0.000000
 ---------------------------------------------------------------------

 SCF Done:  E(RHF) =  -321.710600171     A.U. after    2 cycles

 The electronic state is 1-A'.
 Alpha  occ. eigenvalues --  -20.60956 -15.63000 -11.35447 -11.29371 -11.27425
 Alpha  occ. eigenvalues --  -11.24845 -11.24436  -1.38648  -1.23022  -1.08396
 Alpha  occ. eigenvalues --   -1.02433  -0.88104  -0.85854  -0.75923  -0.71520
 Alpha  occ. eigenvalues --   -0.67259  -0.62794  -0.62512  -0.60701  -0.57773
 Alpha  occ. eigenvalues --   -0.53984  -0.51911  -0.42990  -0.39204  -0.33628
 Alpha virt. eigenvalues --    0.03211   0.04044   0.04202   0.05979   0.06349
 Alpha virt. eigenvalues --    0.08701   0.10162   0.11731   0.11825   0.12008
 Alpha virt. eigenvalues --    0.12907   0.13384   0.14050   0.14601   0.14670

 Mulliken charges:
               1
     1  N   -0.375650
     2  C    0.327961
     3  C    1.056724
     4  C   -0.423648
     5  C    0.974018
     6  C    0.409479
     7  O   -0.534624
     8  H   -0.425261
     9  H   -0.399409
    10  H   -0.417323
    11  H   -0.350508
    12  H    0.158241
 Sum of Mulliken charges =  -0.00000

 Dipole moment (field-independent basis, Debye):
    X=              0.4038    Y=             -1.5257    Z=             -0.0000  Tot=              1.5782

 Test job not archived.
 1\1\GINC-SE107\SP\RHF\Aug-CC-pVDZ\C5H5N1O1\OHZDE\05-Apr-2025\0\\#t hf
 aug-cc-pvdz iop(5/13=1,5/36=2,99/5=2) pseudo=read geom=check guess=(re
 ad,tcheck) scf=(maxcycle=1)\\title\\0,1\N,0,-1.17614,0.295001,0.\C,0,0
 .,0.900809,0.\C,0,1.223975,0.226351,0.\C,0,1.190077,-1.154667,0.\C,0,-
 0.039417,-1.813282,0.\C,0,-1.189267,-1.042689,0.\O,0,0.005822,2.254025
 ,0.\H,0,2.149101,0.783058,0.\H,0,2.113772,-1.7177,0.\H,0,-0.101257,-2.
 891524,0.\H,0,-2.168354,-1.506394,0.\H,0,-0.91906,2.536214,0.\\Version
 =ES64L-G16RevC.01\State=1-A'\HF=-321.7106002\RMSD=9.278e-03\Dipole=0.1

 Normal termination of Gaussian 16 at Sat Apr  5 22:32:37 2025.
