 Gaussian 16, Revision C.01,

 ----------------------------------------------------------------------
 #t hf aug-cc-pvdz symm=none int=(grid=ultrafine) guess=(read,tcheck) s
 table=(opt,rrhf)
 ----------------------------------------------------------------------
 -----
 title
 -----
 Symbolic Z-matrix:
 Charge =  0 Multiplicity = 1

 SCF Done:  E(RHF) =  -473.404318649     A.U. after   16 cycles
 Normal termination of Gaussian 16 at Sat Apr  5 22:34:00 2025.
 Gaussian 16:  ES64L-G16RevC.01  3-Jul-2019

 ----------------------------------------------------------------------
 #t hf aug-cc-pvdz iop(5/13=1,5/36=2,99/5=2) pseudo=read geom=check gue
 ss=(read,tcheck) scf=(maxcycle=1)
 ----------------------------------------------------------------------
 -----
 title
 -----
 Structure from the checkpoint file:  "2-pyridinyl_acetate.chk"
 Charge =  0 Multiplicity = 1

                         Standard orientation:
 ---------------------------------------------------------------------
 Center     Atomic      Atomic             Coordinates (Angstroms)
 Number     Number       Type             X           Y           Z
 ---------------------------------------------------------------------
      1          6           0       -2.338453    1.106760    0.151750
      2          6           0       -2.887654   -0.169877    0.191707
      3          6           0       -0.990243    1.249733   -0.135297
      4          6           0       -2.057419   -1.252130   -0.061697
      5          6           0       -0.261460    0.091175   -0.369070
      6          6           0        2.022769   -0.010003    0.246139
      7          6           0        3.397877   -0.012120   -0.356274
      8          7           0       -0.757678   -1.126595   -0.342613
      9          8           0        1.751515   -0.164505    1.402471
     10          8           0        1.078492    0.204899   -0.727454
     11          1           0       -2.950154    1.977738    0.343578
     12          1           0       -3.933897   -0.324461    0.412893
     13          1           0       -0.509700    2.215713   -0.177084
     14          1           0       -2.444289   -2.263759   -0.042752
     15          1           0        3.510688   -0.894802   -0.986722
     16          1           0        4.140400   -0.030768    0.435030
     17          1           0        3.538129    0.862122   -0.990340
 ---------------------------------------------------------------------

 SCF Done:  E(RHF) =  -473.549518946     A.U. after    2 cycles

 The electronic state is 1-A.
 Alpha  occ. eigenvalues --  -20.62751 -20.56824 -15.63743 -11.40486 -11.35546
 Alpha  occ. eigenvalues --  -11.29502 -11.27710 -11.25842 -11.25565 -11.25462
 Alpha  occ. eigenvalues --   -1.43403  -1.34409  -1.24228  -1.09026  -1.05338
 Alpha  occ. eigenvalues --   -1.00893  -0.88807  -0.87980  -0.80456  -0.72806
 Alpha  occ. eigenvalues --   -0.70961  -0.70383  -0.69013  -0.64314  -0.63941
 Alpha  occ. eigenvalues --   -0.60417  -0.59214  -0.57896  -0.55820  -0.54887
 Alpha  occ. eigenvalues --   -0.54153  -0.50157  -0.47587  -0.43080  -0.39381
 Alpha  occ. eigenvalues --   -0.35438
 Alpha virt. eigenvalues --    0.03070   0.03574   0.04144   0.05386   0.05696
 Alpha virt. eigenvalues --    0.06301   0.07302   0.08676   0.09474   0.09763
 Alpha virt. eigenvalues --    0.10759   0.11254   0.12459   0.12723   0.13498

 Mulliken charges:
               1
     1  C   -0.354486
     2  C    0.960374
     3  C    0.897733
     4  C    0.418440
     5  C    0.573254
     6  C    0.307361
     7  C    0.267902
     8  N   -0.332782
     9  O   -0.430093
    10  O   -0.661432
    11  H   -0.403514
    12  H   -0.414955
    13  H   -0.507117
    14  H   -0.386198
    15  H    0.051055
    16  H   -0.003108
    17  H    0.017564
 Sum of Mulliken charges =  -0.00000

 Dipole moment (field-independent basis, Debye):
    X=             -0.8584    Y=              1.7438    Z=             -1.4876  Tot=              2.4476

 Test job not archived.
 1\1\GINC-SE220\SP\RHF\Aug-CC-pVDZ\C7H7N1O2\OHZDE\05-Apr-2025\0\\#t hf
 aug-cc-pvdz iop(5/13=1,5/36=2,99/5=2) pseudo=read geom=check guess=(re
 ad,tcheck) scf=(maxcycle=1)\\title\\0,1\C,0,-2.338453,1.10676,0.15175\
 C,0,-2.887654,-0.169877,0.191707\C,0,-0.990243,1.249733,-0.135297\C,0,
 -2.057419,-1.25213,-0.061697\C,0,-0.26146,0.091175,-0.36907\C,0,2.0227
 69,-0.010003,0.246139\C,0,3.397877,-0.01212,-0.356274\N,0,-0.757678,-1
 .126595,-0.342613\O,0,1.751515,-0.164505,1.402471\O,0,1.078492,0.20489
 9,-0.727454\H,0,-2.950154,1.977738,0.343578\H,0,-3.933897,-0.324461,0.

 Normal termination of Gaussian 16 at Sat Apr  5 22:34:44 2025.
