 Gaussian 16, Revision C.01,

 ----------------------------------------------------------------------
 #t hf aug-cc-pvdz symm=none int=(grid=ultrafine) guess=(read,tcheck) s
 table=(opt,rrhf)
 ----------------------------------------------------------------------
 -----
 title
 -----
 Symbolic Z-matrix:
 Charge =  0 Multiplicity = 1

 SCF Done:  E(RHF) =  -981.934095641     A.U. after   16 cycles
 Normal termination of Gaussian 16 at Sat Apr  5 22:32:28 2025.
 Gaussian 16:  ES64L-G16RevC.01  3-Jul-2019

 ----------------------------------------------------------------------
 #t hf aug-cc-pvdz iop(5/13=1,5/36=2,99/5=2) pseudo=read geom=check gue
 ss=(read,tcheck) scf=(maxcycle=1)
 ----------------------------------------------------------------------
 -----
 title
 -----
 Structure from the checkpoint file:  "2-sulfanyl-2-3-dihydro-1-2-3-thiadiazole.chk"
 Charge =  0 Multiplicity = 1

                         Standard orientation:
 ---------------------------------------------------------------------
 Center     Atomic      Atomic             Coordinates (Angstroms)
 Number     Number       Type             X           Y           Z
 ---------------------------------------------------------------------
      1         16           0       -0.810277   -1.201087   -0.200139
      2         16           0        1.913381   -0.044710    0.323269
      3          7           0        0.443660   -0.088164   -0.739013
      4          7           0       -0.252291    1.168391   -0.769326
      5          6           0       -1.623704    0.083578    0.709655
      6          6           0       -1.186766    1.266178    0.270196
      7          1           0        1.326453    0.217777    1.515056
      8          1           0        0.406206    1.926467   -0.878431
      9          1           0       -2.353808   -0.114528    1.473493
     10          1           0       -1.505287    2.242921    0.599065
 ---------------------------------------------------------------------

 SCF Done:  E(RHF) =  -982.033599216     A.U. after    2 cycles

 The electronic state is 1-A.
 Alpha  occ. eigenvalues --  -93.57812 -93.56974 -15.72588 -15.68464 -11.30212
 Alpha  occ. eigenvalues --  -11.27308  -8.87269  -8.86398  -6.21409  -6.21203
 Alpha  occ. eigenvalues --   -6.20766  -6.20543  -6.20282  -6.19937  -1.30486
 Alpha  occ. eigenvalues --   -1.09376  -1.06159  -0.94720  -0.82855  -0.80009
 Alpha  occ. eigenvalues --   -0.73560  -0.62633  -0.62176  -0.59884  -0.57175
 Alpha  occ. eigenvalues --   -0.49075  -0.47110  -0.43098  -0.42529  -0.37046
 Alpha  occ. eigenvalues --   -0.29955
 Alpha virt. eigenvalues --    0.02870   0.04094   0.05017   0.06048   0.08194
 Alpha virt. eigenvalues --    0.08443   0.09581   0.10675   0.12059   0.12530
 Alpha virt. eigenvalues --    0.12927   0.14367   0.14746   0.15092   0.15757

 Mulliken charges:
               1
     1  S    0.631511
     2  S    0.320618
     3  N   -1.039345
     4  N   -0.219766
     5  C   -0.093154
     6  C    0.914771
     7  H    0.081002
     8  H    0.032058
     9  H   -0.356553
    10  H   -0.271141
 Sum of Mulliken charges =  -0.00000

 Dipole moment (field-independent basis, Debye):
    X=             -0.9391    Y=              2.4063    Z=              2.0678  Tot=              3.3088

 Test job not archived.
 1\1\GINC-SE223\SP\RHF\Aug-CC-pVDZ\C2H4N2S2\OHZDE\05-Apr-2025\0\\#t hf
 aug-cc-pvdz iop(5/13=1,5/36=2,99/5=2) pseudo=read geom=check guess=(re
 ad,tcheck) scf=(maxcycle=1)\\title\\0,1\S,0,-0.810277,-1.201087,-0.200
 139\S,0,1.913381,-0.04471,0.323269\N,0,0.44366,-0.088164,-0.739013\N,0
 ,-0.252291,1.168391,-0.769326\C,0,-1.623704,0.083578,0.709655\C,0,-1.1
 86766,1.266178,0.270196\H,0,1.326453,0.217777,1.515056\H,0,0.406206,1.
 926467,-0.878431\H,0,-2.353808,-0.114528,1.473493\H,0,-1.505287,2.2429
 21,0.599065\\Version=ES64L-G16RevC.01\State=1-A\HF=-982.0335992\RMSD=7

 Normal termination of Gaussian 16 at Sat Apr  5 22:32:33 2025.
