 Gaussian 16, Revision C.01,

 ----------------------------------------------------------------------
 #t hf aug-cc-pvdz symm=none int=(grid=ultrafine) guess=(read,tcheck) s
 table=(opt,rrhf)
 ----------------------------------------------------------------------
 -----
 title
 -----
 Symbolic Z-matrix:
 Charge =  0 Multiplicity = 1

 SCF Done:  E(RHF) =  -659.223851965     A.U. after   15 cycles
 Normal termination of Gaussian 16 at Sat Apr  5 22:32:26 2025.
 Gaussian 16:  ES64L-G16RevC.01  3-Jul-2019

 ----------------------------------------------------------------------
 #t hf aug-cc-pvdz iop(5/13=1,5/36=2,99/5=2) pseudo=read geom=check gue
 ss=(read,tcheck) scf=(maxcycle=1)
 ----------------------------------------------------------------------
 -----
 title
 -----
 Structure from the checkpoint file:  "2-sulfanyl-2-3-dihydro-1-2-3-oxadiazole.chk"
 Charge =  0 Multiplicity = 1

                         Standard orientation:
 ---------------------------------------------------------------------
 Center     Atomic      Atomic             Coordinates (Angstroms)
 Number     Number       Type             X           Y           Z
 ---------------------------------------------------------------------
      1         16           0       -1.764262   -0.028731    0.281446
      2          8           0        0.586821   -1.114709   -0.509303
      3          7           0       -0.251683    0.006912   -0.828675
      4          7           0        0.614061    1.105043   -0.503142
      5          6           0        1.485936   -0.681423    0.451316
      6          6           0        1.501411    0.645466    0.492509
      7          1           0       -1.126094    0.003515    1.472452
      8          1           0        0.064649    1.928199   -0.298450
      9          1           0        2.039233   -1.439683    0.972831
     10          1           0        2.095103    1.317395    1.084212
 ---------------------------------------------------------------------

 SCF Done:  E(RHF) =  -659.322992260     A.U. after    2 cycles

 The electronic state is 1-A.
 Alpha  occ. eigenvalues --  -93.56716 -20.64379 -15.77149 -15.68571 -11.31096
 Alpha  occ. eigenvalues --  -11.29341  -8.86156  -6.20270  -6.20052  -6.19689
 Alpha  occ. eigenvalues --   -1.43729  -1.23244  -1.09888  -0.97014  -0.89138
 Alpha  occ. eigenvalues --   -0.83436  -0.75980  -0.67977  -0.64047  -0.63145
 Alpha  occ. eigenvalues --   -0.60619  -0.57561  -0.53257  -0.48545  -0.43443
 Alpha  occ. eigenvalues --   -0.38196  -0.31680
 Alpha virt. eigenvalues --    0.02788   0.04020   0.04795   0.05965   0.08933
 Alpha virt. eigenvalues --    0.09744   0.10415   0.10893   0.11975   0.13060
 Alpha virt. eigenvalues --    0.14449   0.15100   0.15373   0.15948   0.17222

 Mulliken charges:
               1
     1  S    0.321169
     2  O   -0.632397
     3  N   -0.361106
     4  N   -0.258770
     5  C    0.670735
     6  C    0.614725
     7  H    0.080002
     8  H    0.054070
     9  H   -0.254956
    10  H   -0.233472
 Sum of Mulliken charges =  -0.00000

 Dipole moment (field-independent basis, Debye):
    X=              1.4812    Y=              1.8684    Z=              3.0251  Tot=              3.8518

 Test job not archived.
 1\1\GINC-SE221\SP\RHF\Aug-CC-pVDZ\C2H4N2O1S1\OHZDE\05-Apr-2025\0\\#t h
 f aug-cc-pvdz iop(5/13=1,5/36=2,99/5=2) pseudo=read geom=check guess=(
 read,tcheck) scf=(maxcycle=1)\\title\\0,1\S,0,-1.764262,-0.028731,0.28
 1446\O,0,0.586821,-1.114709,-0.509303\N,0,-0.251683,0.006912,-0.828675
 \N,0,0.614061,1.105043,-0.503142\C,0,1.485936,-0.681423,0.451316\C,0,1
 .501411,0.645466,0.492509\H,0,-1.126094,0.003515,1.472452\H,0,0.064649
 ,1.928199,-0.29845\H,0,2.039233,-1.439683,0.972831\H,0,2.095103,1.3173
 95,1.084212\\Version=ES64L-G16RevC.01\State=1-A\HF=-659.3229923\RMSD=5

 Normal termination of Gaussian 16 at Sat Apr  5 22:32:31 2025.
