 Gaussian 16, Revision C.01,

 ----------------------------------------------------------------------
 #t hf aug-cc-pvdz symm=none int=(grid=ultrafine) guess=(read,tcheck) s
 table=(opt,rrhf)
 ----------------------------------------------------------------------
 -----
 title
 -----
 Symbolic Z-matrix:
 Charge =  0 Multiplicity = 1

 SCF Done:  E(RHF) =  -1074.83446191     A.U. after   16 cycles
 Normal termination of Gaussian 16 at Sat Apr  5 22:33:34 2025.
 Gaussian 16:  ES64L-G16RevC.01  3-Jul-2019

 ----------------------------------------------------------------------
 #t hf aug-cc-pvdz iop(5/13=1,5/36=2,99/5=2) pseudo=read geom=check gue
 ss=(read,tcheck) scf=(maxcycle=1)
 ----------------------------------------------------------------------
 -----
 title
 -----
 Structure from the checkpoint file:  "2-sulfanyl-2-3-dihydro-1-2-3-triazine-41H-thione.chk"
 Charge =  0 Multiplicity = 1

                         Standard orientation:
 ---------------------------------------------------------------------
 Center     Atomic      Atomic             Coordinates (Angstroms)
 Number     Number       Type             X           Y           Z
 ---------------------------------------------------------------------
      1         16           0        2.547758   -0.919099   -0.053026
      2         16           0       -2.705184   -0.795536    0.103404
      3          7           0        1.128924   -0.011693   -0.377571
      4          7           0       -0.064029   -0.748349   -0.053981
      5          7           0        1.139175    1.250598    0.371535
      6          6           0       -1.124329   -0.028818   -0.115379
      7          6           0       -1.120311    1.420199   -0.258114
      8          6           0        0.038662    2.018372    0.067171
      9          1           0        2.381553   -1.155465    1.277531
     10          1           0       -2.221852   -2.049836    0.167875
     11          1           0        2.042552    1.684451    0.251989
     12          1           0       -2.024383    1.975775   -0.440590
     13          1           0        0.148326    3.086836    0.195205
 ---------------------------------------------------------------------

 SCF Done:  E(RHF) =  -1074.95714705     A.U. after    2 cycles

 The electronic state is 1-A.
 Alpha  occ. eigenvalues --  -93.57312 -93.55844 -15.72364 -15.68938 -15.65801
 Alpha  occ. eigenvalues --  -11.33830 -11.32464 -11.25141  -8.86737  -8.85688
 Alpha  occ. eigenvalues --   -6.20993  -6.20646  -6.20309  -6.19878  -6.19664
 Alpha  occ. eigenvalues --   -6.19273  -1.33151  -1.19535  -1.13673  -1.00461
 Alpha  occ. eigenvalues --   -0.99638  -0.88599  -0.85818  -0.75261  -0.70775
 Alpha  occ. eigenvalues --   -0.69173  -0.63957  -0.61273  -0.60669  -0.56355
 Alpha  occ. eigenvalues --   -0.51692  -0.49721  -0.48179  -0.45823  -0.41767
 Alpha  occ. eigenvalues --   -0.38135  -0.36747  -0.30763
 Alpha virt. eigenvalues --    0.02680   0.04071   0.04405   0.06274   0.06514
 Alpha virt. eigenvalues --    0.07617   0.08688   0.08989   0.10664   0.11291
 Alpha virt. eigenvalues --    0.12137   0.12594   0.12902   0.13541   0.14595

 Mulliken charges:
               1
     1  S    0.418331
     2  S    0.298735
     3  N   -0.690288
     4  N   -0.532823
     5  N   -0.222326
     6  C   -0.018531
     7  C    0.553365
     8  C    0.678784
     9  H    0.087370
    10  H    0.098319
    11  H    0.038005
    12  H   -0.389503
    13  H   -0.319437
 Sum of Mulliken charges =  -0.00000

 Dipole moment (field-independent basis, Debye):
    X=              0.5185    Y=              2.6570    Z=              0.9150  Tot=              2.8576

 Test job not archived.
 1\1\GINC-SE155\SP\RHF\Aug-CC-pVDZ\C3H5N3S2\OHZDE\05-Apr-2025\0\\#t hf
 aug-cc-pvdz iop(5/13=1,5/36=2,99/5=2) pseudo=read geom=check guess=(re
 ad,tcheck) scf=(maxcycle=1)\\title\\0,1\S,0,2.547758,-0.919099,-0.0530
 26\S,0,-2.705184,-0.795536,0.103404\N,0,1.128924,-0.011693,-0.377571\N
 ,0,-0.064029,-0.748349,-0.053981\N,0,1.139175,1.250598,0.371535\C,0,-1
 .124329,-0.028818,-0.115379\C,0,-1.120311,1.420199,-0.258114\C,0,0.038
 662,2.018372,0.067171\H,0,2.381553,-1.155465,1.277531\H,0,-2.221852,-2
 .049836,0.167875\H,0,2.042552,1.684451,0.251989\H,0,-2.024383,1.975775

 Normal termination of Gaussian 16 at Sat Apr  5 22:33:44 2025.
