 Gaussian 16, Revision C.01,

 ----------------------------------------------------------------------
 #t hf aug-cc-pvdz symm=none int=(grid=ultrafine) guess=(read,tcheck) s
 table=(opt,rrhf)
 ----------------------------------------------------------------------
 -----
 title
 -----
 Symbolic Z-matrix:
 Charge =  0 Multiplicity = 1

 SCF Done:  E(RHF) =  -705.436354722     A.U. after   15 cycles
 Normal termination of Gaussian 16 at Sat Apr  5 22:33:35 2025.
 Gaussian 16:  ES64L-G16RevC.01  3-Jul-2019

 ----------------------------------------------------------------------
 #t hf aug-cc-pvdz iop(5/13=1,5/36=2,99/5=2) pseudo=read geom=check gue
 ss=(read,tcheck) scf=(maxcycle=1)
 ----------------------------------------------------------------------
 -----
 title
 -----
 Structure from the checkpoint file:  "2-sulfylformaldehyde-3-methylbutene.chk"
 Charge =  0 Multiplicity = 1

                         Standard orientation:
 ---------------------------------------------------------------------
 Center     Atomic      Atomic             Coordinates (Angstroms)
 Number     Number       Type             X           Y           Z
 ---------------------------------------------------------------------
      1          6           0       -1.966141   -0.243997    0.652074
      2          6           0        1.427449   -0.406198   -0.004522
      3          6           0        0.548506    0.597372   -0.160463
      4          6           0        1.159927   -1.840030   -0.373853
      5          6           0        2.811134   -0.200827    0.559532
      6          6           0        0.786607    2.053943    0.137899
      7          8           0       -3.126754   -0.539822    0.672071
      8         16           0       -1.103623    0.293545   -0.820783
      9          1           0       -1.304658   -0.279475    1.536228
     10          1           0        1.992891   -2.231161   -0.963195
     11          1           0        1.099429   -2.460899    0.524518
     12          1           0        0.242889   -1.970157   -0.939207
     13          1           0        2.984133    0.790914    0.963815
     14          1           0        3.562165   -0.391258   -0.212287
     15          1           0        2.996780   -0.925244    1.356070
     16          1           0        0.160197    2.390423    0.967818
     17          1           0        1.822753    2.273115    0.382174
     18          1           0        0.510533    2.664030   -0.723971
 ---------------------------------------------------------------------

 SCF Done:  E(RHF) =  -705.553971885     A.U. after    2 cycles

 The electronic state is 1-A.
 Alpha  occ. eigenvalues --  -93.55184 -20.58189 -11.37557 -11.28054 -11.27670
 Alpha  occ. eigenvalues --  -11.24889 -11.24654 -11.24267  -8.85021  -6.19177
 Alpha  occ. eigenvalues --   -6.18958  -6.18712  -1.37483  -1.12847  -1.03654
 Alpha  occ. eigenvalues --   -0.98398  -0.94905  -0.89190  -0.80668  -0.71223
 Alpha  occ. eigenvalues --   -0.67785  -0.65908  -0.63142  -0.61748  -0.59367
 Alpha  occ. eigenvalues --   -0.57712  -0.56978  -0.55553  -0.55477  -0.53694
 Alpha  occ. eigenvalues --   -0.52674  -0.46401  -0.43068  -0.37594  -0.35888
 Alpha virt. eigenvalues --    0.02801   0.03879   0.04217   0.04559   0.06049
 Alpha virt. eigenvalues --    0.06403   0.06674   0.07199   0.08199   0.09084
 Alpha virt. eigenvalues --    0.09719   0.10574   0.10690   0.12113   0.12748

 Mulliken charges:
               1
     1  C    0.405861
     2  C   -0.925092
     3  C   -0.371452
     4  C    0.441513
     5  C    0.467930
     6  C    0.270849
     7  O   -0.475920
     8  S    0.178975
     9  H   -0.124862
    10  H    0.039450
    11  H    0.067339
    12  H   -0.061765
    13  H   -0.192932
    14  H    0.115575
    15  H    0.111277
    16  H    0.074790
    17  H   -0.110662
    18  H    0.089125
 Sum of Mulliken charges =  -0.00000

 Dipole moment (field-independent basis, Debye):
    X=              5.1583    Y=              0.4180    Z=              0.8025  Tot=              5.2370

 Test job not archived.
 1\1\GINC-SE151\SP\RHF\Aug-CC-pVDZ\C6H10O1S1\OHZDE\05-Apr-2025\0\\#t hf
  aug-cc-pvdz iop(5/13=1,5/36=2,99/5=2) pseudo=read geom=check guess=(r
 ead,tcheck) scf=(maxcycle=1)\\title\\0,1\C,0,-1.966141,-0.243997,0.652
 074\C,0,1.427449,-0.406198,-0.004522\C,0,0.548506,0.597372,-0.160463\C
 ,0,1.159927,-1.84003,-0.373853\C,0,2.811134,-0.200827,0.559532\C,0,0.7
 86607,2.053943,0.137899\O,0,-3.126754,-0.539822,0.672071\S,0,-1.103623
 ,0.293545,-0.820783\H,0,-1.304658,-0.279475,1.536228\H,0,1.992891,-2.2
 31161,-0.963195\H,0,1.099429,-2.460899,0.524518\H,0,0.242889,-1.970157

 Normal termination of Gaussian 16 at Sat Apr  5 22:33:46 2025.
