 Gaussian 16, Revision C.01,

 ----------------------------------------------------------------------
 #t hf aug-cc-pvdz symm=none int=(grid=ultrafine) guess=(read,tcheck) s
 table=(opt,rrhf)
 ----------------------------------------------------------------------
 -----
 title
 -----
 Symbolic Z-matrix:
 Charge =  0 Multiplicity = 1

 SCF Done:  E(RHF) =  -1056.60166442     A.U. after   16 cycles
 Normal termination of Gaussian 16 at Sat Apr  5 22:32:40 2025.
 Gaussian 16:  ES64L-G16RevC.01  3-Jul-2019

 ----------------------------------------------------------------------
 #t hf aug-cc-pvdz iop(5/13=1,5/36=2,99/5=2) pseudo=read geom=check gue
 ss=(read,tcheck) scf=(maxcycle=1)
 ----------------------------------------------------------------------
 -----
 title
 -----
 Structure from the checkpoint file:  "2-thioxo-2-3-dihydro-1-3-thiazole-5-carbonitrile.chk"
 Charge =  0 Multiplicity = 1

                         Standard orientation:
 ---------------------------------------------------------------------
 Center     Atomic      Atomic             Coordinates (Angstroms)
 Number     Number       Type             X           Y           Z
 ---------------------------------------------------------------------
      1         16           0       -0.132326   -1.067056   -0.000002
      2         16           0        2.794229   -0.264794   -0.000005
      3          7           0        0.642381    1.397235    0.000001
      4          7           0       -3.851613   -0.306271    0.000006
      5          6           0       -1.339600    0.198368    0.000002
      6          6           0        1.094765    0.176601   -0.000002
      7          6           0       -0.717729    1.417421    0.000003
      8          6           0       -2.720759   -0.076305    0.000004
      9          1           0        3.213634    1.014221   -0.000004
     10          1           0       -1.239521    2.362120    0.000006
 ---------------------------------------------------------------------

 SCF Done:  E(RHF) =  -1056.71764118     A.U. after    2 cycles

 The electronic state is 1-A.
 Alpha  occ. eigenvalues --  -93.61565 -93.59499 -15.66997 -15.65672 -11.39347
 Alpha  occ. eigenvalues --  -11.33291 -11.32852 -11.30874  -8.91357  -8.89310
 Alpha  occ. eigenvalues --   -6.25447  -6.25331  -6.24940  -6.23504  -6.23275
 Alpha  occ. eigenvalues --   -6.22873  -1.30300  -1.21037  -1.10546  -1.08226
 Alpha  occ. eigenvalues --   -0.98703  -0.88721  -0.78576  -0.75415  -0.66545
 Alpha  occ. eigenvalues --   -0.61821  -0.60753  -0.56138  -0.55747  -0.53481
 Alpha  occ. eigenvalues --   -0.52523  -0.48119  -0.45563  -0.44272  -0.42261
 Alpha  occ. eigenvalues --   -0.34691
 Alpha virt. eigenvalues --    0.03216   0.04104   0.04136   0.06200   0.07183
 Alpha virt. eigenvalues --    0.07649   0.08690   0.09317   0.09664   0.11090
 Alpha virt. eigenvalues --    0.11768   0.12010   0.13240   0.13691   0.14116

 Mulliken charges:
               1
     1  S    0.437348
     2  S    0.359684
     3  N   -0.629085
     4  N   -0.084931
     5  C    0.729991
     6  C   -0.329942
     7  C    0.676246
     8  C   -1.023494
     9  H    0.125925
    10  H   -0.261741
 Sum of Mulliken charges =  -0.00000

 Dipole moment (field-independent basis, Debye):
    X=              3.9377    Y=              0.8094    Z=             -0.0000  Tot=              4.0200

 Test job not archived.
 1\1\GINC-SE040\SP\RHF\Aug-CC-pVDZ\C4H2N2S2\OHZDE\05-Apr-2025\0\\#t hf
 aug-cc-pvdz iop(5/13=1,5/36=2,99/5=2) pseudo=read geom=check guess=(re
 ad,tcheck) scf=(maxcycle=1)\\title\\0,1\S,0,-0.132326,-1.067056,-0.000
 002\S,0,2.794229,-0.264794,-0.000005\N,0,0.642381,1.397235,0.000001\N,
 0,-3.851613,-0.306271,0.000006\C,0,-1.3396,0.198368,0.000002\C,0,1.094
 765,0.176601,-0.000002\C,0,-0.717729,1.417421,0.000003\C,0,-2.720759,-
 0.076305,0.000004\H,0,3.213634,1.014221,-0.000004\H,0,-1.239521,2.3621
 2,0.000006\\Version=ES64L-G16RevC.01\State=1-A\HF=-1056.7176412\RMSD=9

 Normal termination of Gaussian 16 at Sat Apr  5 22:32:46 2025.
