 Gaussian 16, Revision C.01,

 ----------------------------------------------------------------------
 #t hf aug-cc-pvdz symm=none int=(grid=ultrafine) guess=(read,tcheck) s
 table=(opt,rrhf)
 ----------------------------------------------------------------------
 -----
 title
 -----
 Symbolic Z-matrix:
 Charge =  0 Multiplicity = 1

 SCF Done:  E(RHF) =  -1039.78143683     A.U. after   15 cycles
 Normal termination of Gaussian 16 at Sat Apr  5 22:32:32 2025.
 Gaussian 16:  ES64L-G16RevC.01  3-Jul-2019

 ----------------------------------------------------------------------
 #t hf aug-cc-pvdz iop(5/13=1,5/36=2,99/5=2) pseudo=read geom=check gue
 ss=(read,tcheck) scf=(maxcycle=1)
 ----------------------------------------------------------------------
 -----
 title
 -----
 Structure from the checkpoint file:  "2-thioxo-1-3-thiazolidin-4-one.chk"
 Charge =  0 Multiplicity = 1

                         Standard orientation:
 ---------------------------------------------------------------------
 Center     Atomic      Atomic             Coordinates (Angstroms)
 Number     Number       Type             X           Y           Z
 ---------------------------------------------------------------------
      1          8           0        1.710628   -2.268770    0.000000
      2          6           0        0.839149   -1.437452    0.000000
      3          7           0        1.061346   -0.070202    0.000000
      4          6           0        0.000000    0.800619    0.000000
      5         16           0        0.108303    2.432861    0.000000
      6          6           0       -0.653682   -1.727173    0.000000
      7         16           0       -1.508948   -0.111223    0.000000
      8          1           0        2.004537    0.291896    0.000000
      9          1           0       -0.910735   -2.306252    0.884785
     10          1           0       -0.910735   -2.306252   -0.884785
 ---------------------------------------------------------------------

 SCF Done:  E(RHF) =  -1039.89399202     A.U. after    2 cycles

 The electronic state is 1-A'.
 Alpha  occ. eigenvalues --  -93.59455 -93.51969 -20.59325 -15.72037 -11.42230
 Alpha  occ. eigenvalues --  -11.41592 -11.32345  -8.89273  -8.81907  -6.23377
 Alpha  occ. eigenvalues --   -6.23211  -6.22816  -6.16142  -6.15617  -6.15473
 Alpha  occ. eigenvalues --   -1.40784  -1.29659  -1.10147  -1.06311  -0.93187
 Alpha  occ. eigenvalues --   -0.86049  -0.83428  -0.71511  -0.69337  -0.66020
 Alpha  occ. eigenvalues --   -0.63561  -0.60121  -0.54904  -0.54553  -0.52996
 Alpha  occ. eigenvalues --   -0.47782  -0.41908  -0.35844  -0.35613
 Alpha virt. eigenvalues --    0.02856   0.04494   0.04691   0.04935   0.06779
 Alpha virt. eigenvalues --    0.07970   0.08836   0.10184   0.10233   0.10970
 Alpha virt. eigenvalues --    0.13002   0.13395   0.13721   0.14368   0.15269

 Mulliken charges:
               1
     1  O   -0.471019
     2  C    0.510846
     3  N   -0.383316
     4  C   -0.196032
     5  S    0.093210
     6  C   -0.326770
     7  S    0.689478
     8  H   -0.051428
     9  H    0.067516
    10  H    0.067516
 Sum of Mulliken charges =  -0.00000

 Dipole moment (field-independent basis, Debye):
    X=             -1.3950    Y=             -1.8713    Z=              0.0000  Tot=              2.3340

 Test job not archived.
 1\1\GINC-SE165\SP\RHF\Aug-CC-pVDZ\C3H3N1O1S2\OHZDE\05-Apr-2025\0\\#t h
 f aug-cc-pvdz iop(5/13=1,5/36=2,99/5=2) pseudo=read geom=check guess=(
 read,tcheck) scf=(maxcycle=1)\\title\\0,1\O,0,1.710629,-2.26877,0.\C,0
 ,0.839149,-1.437452,0.\N,0,1.061346,-0.070202,0.\C,0,0.,0.800619,0.\S,
 0,0.108303,2.432861,0.\C,0,-0.653681,-1.727173,0.\S,0,-1.508948,-0.111
 223,0.\H,0,2.004537,0.291896,0.\H,0,-0.910734,-2.306252,0.884785\H,0,-
 0.910734,-2.306252,-0.884785\\Version=ES64L-G16RevC.01\State=1-A'\HF=-
 1039.893992\RMSD=6.246e-03\Dipole=-0.548817,-0.7362396,0.\Quadrupole=1

 Normal termination of Gaussian 16 at Sat Apr  5 22:32:39 2025.
