 Gaussian 16, Revision C.01,

 ----------------------------------------------------------------------
 #t hf aug-cc-pvdz symm=none int=(grid=ultrafine) guess=(read,tcheck) s
 table=(opt,rrhf)
 ----------------------------------------------------------------------
 -----
 title
 -----
 Symbolic Z-matrix:
 Charge =  0 Multiplicity = 1

 SCF Done:  E(RHF) =  -1039.76360050     A.U. after   15 cycles
 Normal termination of Gaussian 16 at Sat Apr  5 22:32:31 2025.
 Gaussian 16:  ES64L-G16RevC.01  3-Jul-2019

 ----------------------------------------------------------------------
 #t hf aug-cc-pvdz iop(5/13=1,5/36=2,99/5=2) pseudo=read geom=check gue
 ss=(read,tcheck) scf=(maxcycle=1)
 ----------------------------------------------------------------------
 -----
 title
 -----
 Structure from the checkpoint file:  "2-thioxo-1-3-thiazolidin-5-one.chk"
 Charge =  0 Multiplicity = 1

                         Standard orientation:
 ---------------------------------------------------------------------
 Center     Atomic      Atomic             Coordinates (Angstroms)
 Number     Number       Type             X           Y           Z
 ---------------------------------------------------------------------
      1         16           0        0.301124   -1.194128   -0.000003
      2         16           0       -2.516695   -0.103145   -0.000004
      3          8           0        2.855536   -0.380914    0.000003
      4          7           0       -0.251435    1.319996    0.000004
      5          6           0       -0.891421    0.133788   -0.000001
      6          6           0        1.703099   -0.063528    0.000002
      7          6           0        1.190060    1.371895    0.000006
      8          1           0       -0.815242    2.155712    0.000006
      9          1           0        1.584859    1.877534   -0.885017
     10          1           0        1.584856    1.877528    0.885033
 ---------------------------------------------------------------------

 SCF Done:  E(RHF) =  -1039.87568552     A.U. after    2 cycles

 The electronic state is 1-A.
 Alpha  occ. eigenvalues --  -93.59852 -93.50744 -20.61253 -15.70886 -11.41666
 Alpha  occ. eigenvalues --  -11.40990 -11.34030  -8.89746  -8.80694  -6.23803
 Alpha  occ. eigenvalues --   -6.23657  -6.23283  -6.14942  -6.14388  -6.14274
 Alpha  occ. eigenvalues --   -1.41267  -1.30075  -1.08263  -1.06387  -0.95295
 Alpha  occ. eigenvalues --   -0.82817  -0.80032  -0.72411  -0.70322  -0.68088
 Alpha  occ. eigenvalues --   -0.66438  -0.59004  -0.57795  -0.54599  -0.52001
 Alpha  occ. eigenvalues --   -0.45610  -0.41711  -0.35121  -0.34723
 Alpha virt. eigenvalues --    0.02194   0.04181   0.04864   0.06526   0.06728
 Alpha virt. eigenvalues --    0.08335   0.08964   0.09223   0.09507   0.11405
 Alpha virt. eigenvalues --    0.12623   0.12660   0.13666   0.13917   0.14953

 Mulliken charges:
               1
     1  S    0.521575
     2  S    0.027742
     3  O   -0.461721
     4  N   -0.303470
     5  C   -0.206741
     6  C   -0.203932
     7  C    0.751223
     8  H   -0.077422
     9  H   -0.023626
    10  H   -0.023628
 Sum of Mulliken charges =  -0.00000

 Dipole moment (field-independent basis, Debye):
    X=              1.2909    Y=              3.7853    Z=              0.0000  Tot=              3.9994

 Test job not archived.
 1\1\GINC-SE232\SP\RHF\Aug-CC-pVDZ\C3H3N1O1S2\OHZDE\05-Apr-2025\0\\#t h
 f aug-cc-pvdz iop(5/13=1,5/36=2,99/5=2) pseudo=read geom=check guess=(
 read,tcheck) scf=(maxcycle=1)\\title\\0,1\S,0,0.301124,-1.194128,-0.00
 0003\S,0,-2.516695,-0.103145,-0.000004\O,0,2.855536,-0.380914,0.000003
 \N,0,-0.251435,1.319996,0.000004\C,0,-0.891421,0.133788,-0.000001\C,0,
 1.703099,-0.063528,0.000002\C,0,1.19006,1.371895,0.000006\H,0,-0.81524
 2,2.155712,0.000006\H,0,1.584859,1.877534,-0.885017\H,0,1.584856,1.877
 528,0.885033\\Version=ES64L-G16RevC.01\State=1-A\HF=-1039.8756855\RMSD

 Normal termination of Gaussian 16 at Sat Apr  5 22:32:37 2025.
