 Gaussian 16, Revision C.01,

 ----------------------------------------------------------------------
 #t hf aug-cc-pvdz symm=none int=(grid=ultrafine) guess=(read,tcheck) s
 table=(opt,rrhf)
 ----------------------------------------------------------------------
 -----
 title
 -----
 Symbolic Z-matrix:
 Charge =  0 Multiplicity = 1

 SCF Done:  E(RHF) =  -926.980678031     A.U. after   15 cycles
 Normal termination of Gaussian 16 at Sat Apr  5 22:32:26 2025.
 Gaussian 16:  ES64L-G16RevC.01  3-Jul-2019

 ----------------------------------------------------------------------
 #t hf aug-cc-pvdz iop(5/13=1,5/36=2,99/5=2) pseudo=read geom=check gue
 ss=(read,tcheck) scf=(maxcycle=1)
 ----------------------------------------------------------------------
 -----
 title
 -----
 Structure from the checkpoint file:  "2-thioxothioacetamide.chk"
 Charge =  0 Multiplicity = 1

                         Standard orientation:
 ---------------------------------------------------------------------
 Center     Atomic      Atomic             Coordinates (Angstroms)
 Number     Number       Type             X           Y           Z
 ---------------------------------------------------------------------
      1         16           0       -1.212773   -1.207584    0.003315
      2         16           0        2.042508   -0.178536   -0.008928
      3          7           0       -1.534033    1.415066   -0.011441
      4          6           0       -0.689942    0.359550    0.002786
      5          6           0        0.740967    0.774182    0.022682
      6          1           0       -1.200704    2.364588   -0.016085
      7          1           0       -2.525891    1.249315   -0.027968
      8          1           0        0.882911    1.856177    0.061139
 ---------------------------------------------------------------------

 SCF Done:  E(RHF) =  -927.056605341     A.U. after    2 cycles

 The electronic state is 1-A.
 Alpha  occ. eigenvalues --  -93.55581 -93.50010 -15.69343 -11.38169 -11.34825
 Alpha  occ. eigenvalues --   -8.85378  -8.79918  -6.19498  -6.19210  -6.18852
 Alpha  occ. eigenvalues --   -6.14138  -6.13650  -6.13488  -1.25794  -1.09207
 Alpha  occ. eigenvalues --   -0.99127  -0.88636  -0.77456  -0.72856  -0.68720
 Alpha  occ. eigenvalues --   -0.56379  -0.55248  -0.52452  -0.43136  -0.36789
 Alpha  occ. eigenvalues --   -0.34284  -0.33765
 Alpha virt. eigenvalues --   -0.01025   0.02064   0.04088   0.06119   0.08170
 Alpha virt. eigenvalues --    0.09209   0.09991   0.11949   0.12594   0.13673
 Alpha virt. eigenvalues --    0.14651   0.15234   0.15506   0.15550   0.16694

 Mulliken charges:
               1
     1  S    0.027894
     2  S    0.303579
     3  N   -0.190120
     4  C    0.307053
     5  C   -0.021069
     6  H   -0.029731
     7  H    0.016783
     8  H   -0.414389
 Sum of Mulliken charges =  -0.00000

 Dipole moment (field-independent basis, Debye):
    X=             -0.9786    Y=              4.8929    Z=             -0.0064  Tot=              4.9898

 Test job not archived.
 1\1\GINC-SE164\SP\RHF\Aug-CC-pVDZ\C2H3N1S2\OHZDE\05-Apr-2025\0\\#t hf
 aug-cc-pvdz iop(5/13=1,5/36=2,99/5=2) pseudo=read geom=check guess=(re
 ad,tcheck) scf=(maxcycle=1)\\title\\0,1\S,0,-1.212773,-1.207584,0.0033
 15\S,0,2.042508,-0.178536,-0.008928\N,0,-1.534033,1.415066,-0.011441\C
 ,0,-0.689942,0.35955,0.002786\C,0,0.740967,0.774182,0.022682\H,0,-1.20
 0704,2.364588,-0.016085\H,0,-2.525891,1.249315,-0.027968\H,0,0.882911,
 1.856177,0.061139\\Version=ES64L-G16RevC.01\State=1-A\HF=-927.0566053\
 RMSD=1.112e-02\Dipole=-0.3849971,1.9250124,-0.0025367\Quadrupole=-0.83

 Normal termination of Gaussian 16 at Sat Apr  5 22:32:29 2025.
