 Gaussian 16, Revision C.01,

 ----------------------------------------------------------------------
 #t hf aug-cc-pvdz symm=none int=(grid=ultrafine) guess=(read,tcheck) s
 table=(opt,rrhf)
 ----------------------------------------------------------------------
 -----
 title
 -----
 Symbolic Z-matrix:
 Charge =  0 Multiplicity = 1

 SCF Done:  E(RHF) =  -1098.60070251     A.U. after   17 cycles
 Normal termination of Gaussian 16 at Sat Apr  5 22:32:37 2025.
 Gaussian 16:  ES64L-G16RevC.01  3-Jul-2019

 ----------------------------------------------------------------------
 #t hf aug-cc-pvdz iop(5/13=1,5/36=2,99/5=2) pseudo=read geom=check gue
 ss=(read,tcheck) scf=(maxcycle=1)
 ----------------------------------------------------------------------
 -----
 title
 -----
 Structure from the checkpoint file:  "2-thioformyl-3-thioxopropanoic_acid.chk"
 Charge =  0 Multiplicity = 1

                         Standard orientation:
 ---------------------------------------------------------------------
 Center     Atomic      Atomic             Coordinates (Angstroms)
 Number     Number       Type             X           Y           Z
 ---------------------------------------------------------------------
      1         16           0        2.376125   -1.341872   -0.155715
      2         16           0       -2.376123   -1.341874   -0.155714
      3          8           0       -0.000001    2.271956   -1.220927
      4          8           0       -0.000001    2.134769    1.026292
      5          6           0       -0.000000    0.080610   -0.199333
      6          6           0        0.000000    1.613145   -0.221280
      7          6           0        1.234770   -0.423018    0.519041
      8          6           0       -1.234769   -0.423020    0.519042
      9          1           0       -0.000001    3.100348    0.941425
     10          1           0       -0.000000   -0.255540   -1.230687
     11          1           0        1.305553   -0.122488    1.562193
     12          1           0       -1.305552   -0.122490    1.562194
 ---------------------------------------------------------------------

 SCF Done:  E(RHF) =  -1098.73037581     A.U. after    2 cycles

 The electronic state is 1-A.
 Alpha  occ. eigenvalues --  -93.55132 -93.55132 -20.66113 -20.60048 -11.43854
 Alpha  occ. eigenvalues --  -11.35651 -11.35647 -11.31180  -8.84976  -8.84975
 Alpha  occ. eigenvalues --   -6.19120  -6.19118  -6.18801  -6.18796  -6.18490
 Alpha  occ. eigenvalues --   -6.18476  -1.46199  -1.36583  -1.16055  -1.07092
 Alpha  occ. eigenvalues --   -1.00228  -0.87962  -0.82093  -0.80926  -0.75016
 Alpha  occ. eigenvalues --   -0.73022  -0.68751  -0.64821  -0.63996  -0.60234
 Alpha  occ. eigenvalues --   -0.55349  -0.54390  -0.53517  -0.51738  -0.43261
 Alpha  occ. eigenvalues --   -0.42270  -0.37063  -0.35900
 Alpha virt. eigenvalues --    0.00712   0.02573   0.04057   0.04405   0.05044
 Alpha virt. eigenvalues --    0.05523   0.08074   0.08637   0.09940   0.10049
 Alpha virt. eigenvalues --    0.11443   0.12530   0.13061   0.13458   0.14532

 Mulliken charges:
               1
     1  S    0.166226
     2  S    0.166227
     3  O   -0.438824
     4  O   -0.540875
     5  C    0.551996
     6  C    0.395434
     7  C    0.116684
     8  C    0.116685
     9  H    0.206367
    10  H   -0.166631
    11  H   -0.286644
    12  H   -0.286645
 Sum of Mulliken charges =  -0.00000

 Dipole moment (field-independent basis, Debye):
    X=              0.0000    Y=              1.5021    Z=              2.9620  Tot=              3.3211

 Test job not archived.
 1\1\GINC-SE151\SP\RHF\Aug-CC-pVDZ\C4H4O2S2\OHZDE\05-Apr-2025\0\\#t hf
 aug-cc-pvdz iop(5/13=1,5/36=2,99/5=2) pseudo=read geom=check guess=(re
 ad,tcheck) scf=(maxcycle=1)\\title\\0,1\S,0,2.376125,-1.341871,-0.1557
 15\S,0,-2.376123,-1.341874,-0.155714\O,0,-0.000002,2.271956,-1.220927\
 O,0,-0.000002,2.134769,1.026292\C,0,0.,0.08061,-0.199333\C,0,0.,1.6131
 45,-0.22128\C,0,1.23477,-0.423018,0.519041\C,0,-1.234769,-0.42302,0.51
 9042\H,0,-0.000002,3.100348,0.941425\H,0,0.,-0.25554,-1.230687\H,0,1.3
 05553,-0.122487,1.562193\H,0,-1.305552,-0.12249,1.562194\\Version=ES64

 Normal termination of Gaussian 16 at Sat Apr  5 22:32:44 2025.
