 Gaussian 16, Revision C.01,

 ----------------------------------------------------------------------
 #t hf aug-cc-pvdz symm=none int=(grid=ultrafine) guess=(read,tcheck) s
 table=(opt,rrhf)
 ----------------------------------------------------------------------
 -----
 title
 -----
 Symbolic Z-matrix:
 Charge =  0 Multiplicity = 1

 SCF Done:  E(RHF) =  -224.826397606     A.U. after   12 cycles
 Normal termination of Gaussian 16 at Sat Apr  5 22:33:44 2025.
 Gaussian 16:  ES64L-G16RevC.01  3-Jul-2019

 ----------------------------------------------------------------------
 #t hf aug-cc-pvdz iop(5/13=1,5/36=2,99/5=2) pseudo=read geom=check gue
 ss=(read,tcheck) scf=(maxcycle=1)
 ----------------------------------------------------------------------
 -----
 title
 -----
 Structure from the checkpoint file:  "2H-imidazole.chk"
 Charge =  0 Multiplicity = 1

                         Standard orientation:
 ---------------------------------------------------------------------
 Center     Atomic      Atomic             Coordinates (Angstroms)
 Number     Number       Type             X           Y           Z
 ---------------------------------------------------------------------
      1          6           0        0.000000    0.000000    1.130632
      2          7           0        0.000000    1.186666    0.292106
      3          7           0       -0.000000   -1.186666    0.292106
      4          6           0        0.000000    0.737561   -0.907000
      5          6           0       -0.000000   -0.737561   -0.907000
      6          1           0       -0.879628    0.000000    1.780422
      7          1           0        0.879628   -0.000000    1.780422
      8          1           0        0.000000    1.384794   -1.775054
      9          1           0       -0.000000   -1.384794   -1.775054
 ---------------------------------------------------------------------

 SCF Done:  E(RHF) =  -224.890803401     A.U. after    2 cycles

 The electronic state is 1-A1.
 Alpha  occ. eigenvalues --  -15.64654 -15.64650 -11.30144 -11.30073 -11.29892
 Alpha  occ. eigenvalues --   -1.29689  -1.14252  -0.99517  -0.81565  -0.78565
 Alpha  occ. eigenvalues --   -0.71150  -0.64923  -0.60965  -0.56225  -0.46417
 Alpha  occ. eigenvalues --   -0.46341  -0.43774  -0.40735
 Alpha virt. eigenvalues --    0.03072   0.04386   0.04762   0.04900   0.07718
 Alpha virt. eigenvalues --    0.10029   0.10432   0.11672   0.12611   0.13285
 Alpha virt. eigenvalues --    0.13364   0.15228   0.16156   0.16821   0.17850

 Mulliken charges:
               1
     1  C    0.952333
     2  N   -0.568879
     3  N   -0.568879
     4  C    0.427537
     5  C    0.427537
     6  H   -0.138902
     7  H   -0.138902
     8  H   -0.195923
     9  H   -0.195923
 Sum of Mulliken charges =  -0.00000

 Dipole moment (field-independent basis, Debye):
    X=              0.0000    Y=             -0.0000    Z=             -1.5569  Tot=              1.5569

 Test job not archived.
 1\1\GINC-SE010\SP\RHF\Aug-CC-pVDZ\C3H4N2\OHZDE\05-Apr-2025\0\\#t hf au
 g-cc-pvdz iop(5/13=1,5/36=2,99/5=2) pseudo=read geom=check guess=(read
 ,tcheck) scf=(maxcycle=1)\\title\\0,1\C,0,0.,0.,1.130632\N,0,0.,1.1866
 66,0.292106\N,0,0.,-1.186666,0.292106\C,0,0.,0.737561,-0.907\C,0,0.,-0
 .737561,-0.907\H,0,-0.879628,0.,1.780422\H,0,0.879628,0.,1.780422\H,0,
 0.,1.384794,-1.775054\H,0,0.,-1.384794,-1.775054\\Version=ES64L-G16Rev
 C.01\State=1-A1\HF=-224.8908034\RMSD=3.679e-03\Dipole=0.,0.,-0.6125125
 \Quadrupole=0.0982766,-5.0151453,4.9168688,0.,0.,0.\PG=C02V [C2(C1),SG

 Normal termination of Gaussian 16 at Sat Apr  5 22:34:37 2025.
