 Gaussian 16, Revision C.01,

 ----------------------------------------------------------------------
 #t hf aug-cc-pvdz symm=none int=(grid=ultrafine) guess=(read,tcheck) s
 table=(opt,rrhf)
 ----------------------------------------------------------------------
 -----
 title
 -----
 Symbolic Z-matrix:
 Charge =  0 Multiplicity = 1

 SCF Done:  E(RHF) =  -337.578613971     A.U. after   16 cycles
 Normal termination of Gaussian 16 at Sat Apr  5 22:33:54 2025.
 Gaussian 16:  ES64L-G16RevC.01  3-Jul-2019

 ----------------------------------------------------------------------
 #t hf aug-cc-pvdz iop(5/13=1,5/36=2,99/5=2) pseudo=read geom=check gue
 ss=(read,tcheck) scf=(maxcycle=1)
 ----------------------------------------------------------------------
 -----
 title
 -----
 Structure from the checkpoint file:  "2H-pyridazin-3-one.chk"
 Charge =  0 Multiplicity = 1

                         Standard orientation:
 ---------------------------------------------------------------------
 Center     Atomic      Atomic             Coordinates (Angstroms)
 Number     Number       Type             X           Y           Z
 ---------------------------------------------------------------------
      1          6           0        1.231266   -1.050200   -0.000000
      2          6           0        1.247252    0.302719   -0.000000
      3          6           0       -0.014010   -1.744866    0.000000
      4          6           0       -0.000000    1.044703   -0.000000
      5          7           0       -1.158816   -1.129309    0.000000
      6          7           0       -1.120005    0.204852    0.000000
      7          8           0       -0.133213    2.257718   -0.000000
      8          1           0        2.151945   -1.618873   -0.000000
      9          1           0        2.161023    0.878599   -0.000000
     10          1           0       -0.060616   -2.824365    0.000000
     11          1           0       -2.021955    0.659959    0.000000
 ---------------------------------------------------------------------

 SCF Done:  E(RHF) =  -337.678521733     A.U. after    2 cycles

 The electronic state is 1-A'.
 Alpha  occ. eigenvalues --  -20.54106 -15.71542 -15.71275 -11.38079 -11.30466
 Alpha  occ. eigenvalues --  -11.29711 -11.28169  -1.37106  -1.31794  -1.13023
 Alpha  occ. eigenvalues --   -1.09678  -0.92119  -0.89209  -0.77667  -0.73526
 Alpha  occ. eigenvalues --   -0.68594  -0.65275  -0.63853  -0.61137  -0.59352
 Alpha  occ. eigenvalues --   -0.53128  -0.50417  -0.44323  -0.43725  -0.35220
 Alpha virt. eigenvalues --    0.02525   0.03922   0.04478   0.05236   0.06053
 Alpha virt. eigenvalues --    0.09262   0.09292   0.11672   0.11688   0.12693
 Alpha virt. eigenvalues --    0.12963   0.13441   0.14353   0.14983   0.15272

 Mulliken charges:
               1
     1  C    0.536742
     2  C    0.584936
     3  C    0.494418
     4  C    0.481842
     5  N   -0.260757
     6  N   -0.261494
     7  O   -0.514165
     8  H   -0.379650
     9  H   -0.408104
    10  H   -0.302399
    11  H    0.028631
 Sum of Mulliken charges =  -0.00000

 Dipole moment (field-independent basis, Debye):
    X=              1.4356    Y=             -3.9952    Z=              0.0000  Tot=              4.2452

 Test job not archived.
 1\1\GINC-SE040\SP\RHF\Aug-CC-pVDZ\C4H4N2O1\OHZDE\05-Apr-2025\0\\#t hf
 aug-cc-pvdz iop(5/13=1,5/36=2,99/5=2) pseudo=read geom=check guess=(re
 ad,tcheck) scf=(maxcycle=1)\\title\\0,1\C,0,1.231266,-1.0502,0.\C,0,1.
 247252,0.302719,0.\C,0,-0.01401,-1.744866,0.\C,0,0.,1.044703,0.\N,0,-1
 .158816,-1.129309,0.\N,0,-1.120005,0.204852,0.\O,0,-0.133213,2.257718,
 0.\H,0,2.151945,-1.618873,0.\H,0,2.161023,0.878599,0.\H,0,-0.060616,-2
 .824365,0.\H,0,-2.021955,0.659959,0.\\Version=ES64L-G16RevC.01\State=1
 -A'\HF=-337.6785217\RMSD=7.833e-03\Dipole=0.5647987,-1.5718142,0.\Quad

 Normal termination of Gaussian 16 at Sat Apr  5 22:34:40 2025.
