 Gaussian 16, Revision C.01,

 ----------------------------------------------------------------------
 #t hf aug-cc-pvdz symm=none int=(grid=ultrafine) guess=(read,tcheck) s
 table=(opt,rrhf)
 ----------------------------------------------------------------------
 -----
 title
 -----
 Symbolic Z-matrix:
 Charge =  0 Multiplicity = 1

 SCF Done:  E(RHF) =  -663.081177978     A.U. after   13 cycles
 Normal termination of Gaussian 16 at Sat Apr  5 22:33:34 2025.
 Gaussian 16:  ES64L-G16RevC.01  3-Jul-2019

 ----------------------------------------------------------------------
 #t hf aug-cc-pvdz iop(5/13=1,5/36=2,99/5=2) pseudo=read geom=check gue
 ss=(read,tcheck) scf=(maxcycle=1)
 ----------------------------------------------------------------------
 -----
 title
 -----
 Structure from the checkpoint file:  "2H-thiete-1-1-dioxide.chk"
 Charge =  0 Multiplicity = 1

                         Standard orientation:
 ---------------------------------------------------------------------
 Center     Atomic      Atomic             Coordinates (Angstroms)
 Number     Number       Type             X           Y           Z
 ---------------------------------------------------------------------
      1          8           0        1.238707   -1.255661    0.004628
      2         16           0        0.503569   -0.000001    0.014979
      3          8           0        1.238698    1.255665    0.004692
      4          6           0       -0.961544    0.000030   -1.129930
      5          6           0       -1.794509   -0.000009    0.132105
      6          6           0       -0.911283   -0.000031    1.127195
      7          1           0       -1.013806   -0.899488   -1.740062
      8          1           0       -1.013804    0.899596   -1.739990
      9          1           0       -2.873692   -0.000011    0.186098
     10          1           0       -0.971028   -0.000045    2.203515
 ---------------------------------------------------------------------

 SCF Done:  E(RHF) =  -663.236056175     A.U. after    2 cycles

 The electronic state is 1-A.
 Alpha  occ. eigenvalues --  -93.78849 -20.56499 -20.56498 -11.31454 -11.30899
 Alpha  occ. eigenvalues --  -11.30528  -9.05471  -6.40068  -6.39935  -6.39724
 Alpha  occ. eigenvalues --   -1.41847  -1.30367  -1.17975  -0.97298  -0.89613
 Alpha  occ. eigenvalues --   -0.77104  -0.73083  -0.68565  -0.67795  -0.63847
 Alpha  occ. eigenvalues --   -0.62690  -0.59058  -0.52649  -0.50079  -0.49863
 Alpha  occ. eigenvalues --   -0.45281  -0.42857
 Alpha virt. eigenvalues --    0.02317   0.03893   0.04628   0.04985   0.07781
 Alpha virt. eigenvalues --    0.09353   0.10219   0.10842   0.11712   0.12775
 Alpha virt. eigenvalues --    0.13720   0.13852   0.14834   0.15193   0.16639

 Mulliken charges:
               1
     1  O   -1.098057
     2  S    2.620476
     3  O   -1.098057
     4  C   -0.060535
     5  C    0.395297
     6  C   -0.198676
     7  H   -0.068931
     8  H   -0.068917
     9  H   -0.202105
    10  H   -0.220494
 Sum of Mulliken charges =  -0.00000

 Dipole moment (field-independent basis, Debye):
    X=             -6.1420    Y=              0.0000    Z=             -0.2338  Tot=              6.1465

 Test job not archived.
 1\1\GINC-SE055\SP\RHF\Aug-CC-pVDZ\C3H4O2S1\OHZDE\05-Apr-2025\0\\#t hf
 aug-cc-pvdz iop(5/13=1,5/36=2,99/5=2) pseudo=read geom=check guess=(re
 ad,tcheck) scf=(maxcycle=1)\\title\\0,1\O,0,1.238707,-1.255661,0.00462
 8\S,0,0.503569,-0.000001,0.014979\O,0,1.238698,1.255665,0.004692\C,0,-
 0.961544,0.00003,-1.12993\C,0,-1.794509,-0.000009,0.132105\C,0,-0.9112
 83,-0.000031,1.127195\H,0,-1.013806,-0.899488,-1.740062\H,0,-1.013804,
 0.899596,-1.73999\H,0,-2.873692,-0.000011,0.186098\H,0,-0.971028,-0.00
 0045,2.203515\\Version=ES64L-G16RevC.01\State=1-A\HF=-663.2360562\RMSD

 Normal termination of Gaussian 16 at Sat Apr  5 22:33:42 2025.
