 Gaussian 16, Revision C.01,

 ----------------------------------------------------------------------
 #t hf aug-cc-pvdz symm=none int=(grid=ultrafine) guess=(read,tcheck) s
 table=(opt,rrhf)
 ----------------------------------------------------------------------
 -----
 title
 -----
 Symbolic Z-matrix:
 Charge =  0 Multiplicity = 1

 SCF Done:  E(RHF) =  -310.260212151     A.U. after   12 cycles

 1\1\GINC-SE129\Stability\RHF\Aug-CC-pVDZ\C6H14O1\OHZDE\05-Apr-2025\0\\
 #t hf aug-cc-pvdz symm=none int=(grid=ultrafine) guess=(read,tcheck) s
 table=(opt,rrhf)\\title\\0,1\C,0,1.757085,-1.091084,-0.81716\C,0,1.865
 711,1.150795,0.344263\C,0,-2.561944,-0.479494,0.222334\C,0,-0.108652,-
 0.438664,0.811498\C,0,1.383699,-0.300756,0.441026\C,0,-1.155311,-0.134
 494,-0.257223\O,0,-1.063482,1.259171,-0.592699\H,0,1.319591,-0.646459,
 -1.712763\H,0,1.420349,-2.128425,-0.757181\H,0,2.839293,-1.101666,-0.9
 56361\H,0,1.631351,1.705127,1.254703\H,0,2.948329,1.182645,0.204223\H,

 Normal termination of Gaussian 16 at Sat Apr  5 22:34:44 2025.
 Gaussian 16:  ES64L-G16RevC.01  3-Jul-2019

 ----------------------------------------------------------------------
 #t hf aug-cc-pvdz iop(5/13=1,5/36=2,99/5=2) pseudo=read geom=check gue
 ss=(read,tcheck) scf=(maxcycle=1)
 ----------------------------------------------------------------------
 -----
 title
 -----
 Structure from the checkpoint file:  "2R-4-methylpentan-2-ol.chk"
 Charge =  0 Multiplicity = 1

                         Standard orientation:
 ---------------------------------------------------------------------
 Center     Atomic      Atomic             Coordinates (Angstroms)
 Number     Number       Type             X           Y           Z
 ---------------------------------------------------------------------
      1          6           0        1.757085   -1.091084   -0.817160
      2          6           0        1.865711    1.150795    0.344263
      3          6           0       -2.561944   -0.479494    0.222334
      4          6           0       -0.108652   -0.438664    0.811498
      5          6           0        1.383699   -0.300756    0.441026
      6          6           0       -1.155311   -0.134494   -0.257223
      7          8           0       -1.063482    1.259171   -0.592699
      8          1           0        1.319591   -0.646459   -1.712763
      9          1           0        1.420349   -2.128425   -0.757181
     10          1           0        2.839293   -1.101666   -0.956361
     11          1           0        1.631351    1.705127    1.254703
     12          1           0        2.948329    1.182645    0.204223
     13          1           0        1.395373    1.671994   -0.487552
     14          1           0       -2.805836    0.079162    1.127243
     15          1           0       -3.304011   -0.233062   -0.540810
     16          1           0       -2.651586   -1.545510    0.436884
     17          1           0       -0.321008    0.193554    1.678818
     18          1           0       -0.280510   -1.470795    1.130737
     19          1           0        1.924875   -0.758063    1.276660
     20          1           0       -0.937758   -0.728497   -1.152861
     21          1           0       -1.754119    1.468806   -1.228574
 ---------------------------------------------------------------------

 SCF Done:  E(RHF) =  -310.359315490     A.U. after    2 cycles

 The electronic state is 1-A.
 Alpha  occ. eigenvalues --  -20.56558 -11.28698 -11.22841 -11.22724 -11.22254
 Alpha  occ. eigenvalues --  -11.21529 -11.20421  -1.31516  -1.07545  -1.01645
 Alpha  occ. eigenvalues --   -0.92473  -0.91605  -0.82440  -0.74866  -0.70400
 Alpha  occ. eigenvalues --   -0.64502  -0.61015  -0.60411  -0.57749  -0.56556
 Alpha  occ. eigenvalues --   -0.54842  -0.52798  -0.52440  -0.51143  -0.49979
 Alpha  occ. eigenvalues --   -0.46509  -0.45768  -0.44044  -0.43545
 Alpha virt. eigenvalues --    0.03321   0.04102   0.04572   0.04762   0.06056
 Alpha virt. eigenvalues --    0.06279   0.06374   0.06846   0.07355   0.08723
 Alpha virt. eigenvalues --    0.09076   0.09235   0.09853   0.10861   0.12961

 Mulliken charges:
               1
     1  C    0.838635
     2  C    0.752660
     3  C    0.574895
     4  C    0.247317
     5  C   -1.083313
     6  C    0.138397
     7  O   -0.639656
     8  H   -0.051221
     9  H   -0.070671
    10  H   -0.126942
    11  H   -0.071265
    12  H   -0.064986
    13  H    0.004672
    14  H    0.009115
    15  H   -0.081558
    16  H   -0.034927
    17  H   -0.111387
    18  H   -0.123203
    19  H   -0.058326
    20  H   -0.193398
    21  H    0.145166
 Sum of Mulliken charges =   0.00000

 Dipole moment (field-independent basis, Debye):
    X=             -1.2404    Y=             -1.2029    Z=             -0.5078  Tot=              1.8009

 Test job not archived.
 1\1\GINC-SE129\SP\RHF\Aug-CC-pVDZ\C6H14O1\OHZDE\05-Apr-2025\0\\#t hf a
 ug-cc-pvdz iop(5/13=1,5/36=2,99/5=2) pseudo=read geom=check guess=(rea
 d,tcheck) scf=(maxcycle=1)\\title\\0,1\C,0,1.757085,-1.091084,-0.81716
 \C,0,1.865711,1.150795,0.344263\C,0,-2.561944,-0.479494,0.222334\C,0,-
 0.108652,-0.438664,0.811498\C,0,1.383699,-0.300756,0.441026\C,0,-1.155
 311,-0.134494,-0.257223\O,0,-1.063482,1.259171,-0.592699\H,0,1.319591,
 -0.646459,-1.712763\H,0,1.420349,-2.128425,-0.757181\H,0,2.839293,-1.1
 01666,-0.956361\H,0,1.631351,1.705127,1.254703\H,0,2.948329,1.182645,0

 Normal termination of Gaussian 16 at Sat Apr  5 22:34:54 2025.
