 Gaussian 16, Revision C.01,

 ----------------------------------------------------------------------
 #t hf aug-cc-pvdz symm=none int=(grid=ultrafine) guess=(read,tcheck) s
 table=(opt,rrhf)
 ----------------------------------------------------------------------
 -----
 title
 -----
 Symbolic Z-matrix:
 Charge =  0 Multiplicity = 1

 SCF Done:  E(RHF) =  -489.773927759     A.U. after   12 cycles
 Normal termination of Gaussian 16 at Sat Apr  5 22:33:52 2025.
 Gaussian 16:  ES64L-G16RevC.01  3-Jul-2019

 ----------------------------------------------------------------------
 #t hf aug-cc-pvdz iop(5/13=1,5/36=2,99/5=2) pseudo=read geom=check gue
 ss=(read,tcheck) scf=(maxcycle=1)
 ----------------------------------------------------------------------
 -----
 title
 -----
 Structure from the checkpoint file:  "2S-1-1-1-trifluoro-2-propanol.chk"
 Charge =  0 Multiplicity = 1

                         Standard orientation:
 ---------------------------------------------------------------------
 Center     Atomic      Atomic             Coordinates (Angstroms)
 Number     Number       Type             X           Y           Z
 ---------------------------------------------------------------------
      1          6           0        1.691694   -1.059638    0.022200
      2          6           0        0.834706    0.103985   -0.438962
      3          6           0       -0.626301   -0.051282   -0.007120
      4          8           0        1.377143    1.294553    0.099907
      5          9           0       -1.202071   -1.107944   -0.616961
      6          9           0       -0.772758   -0.215589    1.316667
      7          9           0       -1.341353    1.047142   -0.354298
      8          1           0        1.723765   -1.097280    1.109737
      9          1           0        2.704918   -0.923401   -0.350521
     10          1           0        1.303296   -2.003475   -0.356524
     11          1           0        0.809896    0.144005   -1.533728
     12          1           0        0.886013    2.052862   -0.233600
 ---------------------------------------------------------------------

 SCF Done:  E(RHF) =  -489.944181235     A.U. after    2 cycles

 The electronic state is 1-A.
 Alpha  occ. eigenvalues --  -26.16854 -26.16785 -26.16573 -20.60172 -11.52285
 Alpha  occ. eigenvalues --  -11.33469 -11.24770  -1.76193  -1.69219  -1.69091
 Alpha  occ. eigenvalues --   -1.35738  -1.08724  -1.00643  -0.90959  -0.88070
 Alpha  occ. eigenvalues --   -0.87756  -0.81597  -0.77928  -0.77494  -0.73837
 Alpha  occ. eigenvalues --   -0.73102  -0.72300  -0.71853  -0.66223  -0.61496
 Alpha  occ. eigenvalues --   -0.56576  -0.56092  -0.53324  -0.49736
 Alpha virt. eigenvalues --    0.03348   0.04616   0.05146   0.06004   0.07255
 Alpha virt. eigenvalues --    0.08919   0.10745   0.11493   0.12345   0.13843
 Alpha virt. eigenvalues --    0.14688   0.15946   0.16090   0.17494   0.17692

 Mulliken charges:
               1
     1  C    0.377838
     2  C    0.202066
     3  C    0.937214
     4  O   -0.572114
     5  F   -0.337537
     6  F   -0.320144
     7  F   -0.337160
     8  H    0.019614
     9  H   -0.021808
    10  H    0.001064
    11  H   -0.091096
    12  H    0.142063
 Sum of Mulliken charges =  -0.00000

 Dipole moment (field-independent basis, Debye):
    X=              1.4102    Y=             -0.0317    Z=             -1.6547  Tot=              2.1743

 Test job not archived.
 1\1\GINC-SE196\SP\RHF\Aug-CC-pVDZ\C3H5F3O1\OHZDE\05-Apr-2025\0\\#t hf
 aug-cc-pvdz iop(5/13=1,5/36=2,99/5=2) pseudo=read geom=check guess=(re
 ad,tcheck) scf=(maxcycle=1)\\title\\0,1\C,0,1.691694,-1.059638,0.0222\
 C,0,0.834706,0.103985,-0.438962\C,0,-0.626301,-0.051282,-0.00712\O,0,1
 .377143,1.294553,0.099907\F,0,-1.202071,-1.107944,-0.616961\F,0,-0.772
 758,-0.215589,1.316667\F,0,-1.341353,1.047142,-0.354298\H,0,1.723765,-
 1.09728,1.109737\H,0,2.704918,-0.9234,-0.350521\H,0,1.303296,-2.003475
 ,-0.356524\H,0,0.809896,0.144005,-1.533728\H,0,0.886012,2.052862,-0.23

 Normal termination of Gaussian 16 at Sat Apr  5 22:34:39 2025.
