 Gaussian 16, Revision C.01,

 ----------------------------------------------------------------------
 #t hf aug-cc-pvdz symm=none int=(grid=ultrafine) guess=(read,tcheck) s
 table=(opt,rrhf)
 ----------------------------------------------------------------------
 -----
 title
 -----
 Symbolic Z-matrix:
 Charge =  0 Multiplicity = 1

 SCF Done:  E(RHF) =  -233.022806427     A.U. after   13 cycles
 Normal termination of Gaussian 16 at Sat Apr  5 22:34:04 2025.
 Gaussian 16:  ES64L-G16RevC.01  3-Jul-2019

 ----------------------------------------------------------------------
 #t hf aug-cc-pvdz iop(5/13=1,5/36=2,99/5=2) pseudo=read geom=check gue
 ss=(read,tcheck) scf=(maxcycle=1)
 ----------------------------------------------------------------------
 -----
 title
 -----
 Structure from the checkpoint file:  "2Z-4E-hexa-2-4-diene.chk"
 Charge =  0 Multiplicity = 1

                         Standard orientation:
 ---------------------------------------------------------------------
 Center     Atomic      Atomic             Coordinates (Angstroms)
 Number     Number       Type             X           Y           Z
 ---------------------------------------------------------------------
      1          6           0        0.295502    2.961166    0.000000
      2          1           0        1.366295    2.756811    0.000000
      3          1           0        0.066568    3.574997    0.875789
      4          1           0        0.066568    3.574997   -0.875789
      5          6           0        1.035454   -2.497577    0.000000
      6          1           0        1.764853   -1.690390    0.000000
      7          1           0        1.228827   -3.123576   -0.875540
      8          1           0        1.228827   -3.123576    0.875540
      9          6           0       -0.380018   -2.011080    0.000000
     10          1           0       -1.135032   -2.790309    0.000000
     11          6           0       -0.810657   -0.742182    0.000000
     12          1           0       -1.883957   -0.578533    0.000000
     13          6           0       -0.000000    0.461923    0.000000
     14          1           0        1.078980    0.347754    0.000000
     15          6           0       -0.506126    1.700221    0.000000
     16          1           0       -1.586860    1.816991    0.000000
 ---------------------------------------------------------------------

 SCF Done:  E(RHF) =  -233.097590254     A.U. after    2 cycles

 The electronic state is 1-A'.
 Alpha  occ. eigenvalues --  -11.24068 -11.23794 -11.23377 -11.23300 -11.23196
 Alpha  occ. eigenvalues --  -11.23056  -1.09081  -1.04051  -0.96185  -0.90255
 Alpha  occ. eigenvalues --   -0.78021  -0.73226  -0.65153  -0.62129  -0.57334
 Alpha  occ. eigenvalues --   -0.57079  -0.56691  -0.54270  -0.52126  -0.51137
 Alpha  occ. eigenvalues --   -0.47473  -0.42643  -0.30384
 Alpha virt. eigenvalues --    0.03472   0.03983   0.04335   0.05698   0.06087
 Alpha virt. eigenvalues --    0.06173   0.06587   0.08142   0.08548   0.08878
 Alpha virt. eigenvalues --    0.10400   0.13093   0.13329   0.13600   0.14051

 Mulliken charges:
               1
     1  C    0.245974
     2  H   -0.140116
     3  H    0.088842
     4  H    0.088842
     5  C    0.419601
     6  H   -0.157599
     7  H    0.092933
     8  H    0.092933
     9  C   -0.138160
    10  H   -0.426287
    11  C    0.377376
    12  H   -0.534004
    13  C    0.967650
    14  H   -0.515571
    15  C   -0.030221
    16  H   -0.432193
 Sum of Mulliken charges =  -0.00000

 Dipole moment (field-independent basis, Debye):
    X=              0.2667    Y=              0.1887    Z=              0.0000  Tot=              0.3267

 Test job not archived.
 1\1\GINC-SE046\SP\RHF\Aug-CC-pVDZ\C6H10\OHZDE\05-Apr-2025\0\\#t hf aug
 -cc-pvdz iop(5/13=1,5/36=2,99/5=2) pseudo=read geom=check guess=(read,
 tcheck) scf=(maxcycle=1)\\title\\0,1\C,0,0.295502,2.961166,0.\H,0,1.36
 6295,2.756811,0.\H,0,0.066568,3.574997,0.875789\H,0,0.066568,3.574997,
 -0.875789\C,0,1.035454,-2.497577,0.\H,0,1.764853,-1.69039,0.\H,0,1.228
 827,-3.123576,-0.87554\H,0,1.228827,-3.123576,0.87554\C,0,-0.380018,-2
 .01108,0.\H,0,-1.135032,-2.790309,0.\C,0,-0.810657,-0.742182,0.\H,0,-1
 .883957,-0.578533,0.\C,0,0.,0.461923,0.\H,0,1.07898,0.347754,0.\C,0,-0

 Normal termination of Gaussian 16 at Sat Apr  5 22:34:39 2025.
