 Gaussian 16, Revision C.01,

 ----------------------------------------------------------------------
 #t hf aug-cc-pvdz symm=none int=(grid=ultrafine) guess=(read,tcheck) s
 table=(opt,rrhf)
 ----------------------------------------------------------------------
 -----
 title
 -----
 Symbolic Z-matrix:
 Charge =  0 Multiplicity = 1

 SCF Done:  E(RHF) =  -233.019921754     A.U. after   12 cycles
 Normal termination of Gaussian 16 at Sat Apr  5 22:34:06 2025.
 Gaussian 16:  ES64L-G16RevC.01  3-Jul-2019

 ----------------------------------------------------------------------
 #t hf aug-cc-pvdz iop(5/13=1,5/36=2,99/5=2) pseudo=read geom=check gue
 ss=(read,tcheck) scf=(maxcycle=1)
 ----------------------------------------------------------------------
 -----
 title
 -----
 Structure from the checkpoint file:  "2Z-4Z-2-4-hexadiene.chk"
 Charge =  0 Multiplicity = 1

                         Standard orientation:
 ---------------------------------------------------------------------
 Center     Atomic      Atomic             Coordinates (Angstroms)
 Number     Number       Type             X           Y           Z
 ---------------------------------------------------------------------
      1          1           0        0.310543    2.728828    0.000000
      2          6           0       -0.313196    1.840812    0.000000
      3          1           0        1.396218    0.676680    0.000000
      4          6           0        0.313196    0.654900    0.000000
      5          1           0       -1.396218   -0.676680    0.000000
      6          6           0       -0.313196   -0.654900    0.000000
      7          1           0       -0.310543   -2.728828    0.000000
      8          6           0        0.313196   -1.840812    0.000000
      9          1           0        2.383856   -1.194467    0.000000
     10          1           0        2.072264   -2.692860    0.875470
     11          1           0        2.072264   -2.692860   -0.875470
     12          6           0        1.786306   -2.103254    0.000000
     13          1           0       -2.383856    1.194467    0.000000
     14          1           0       -2.072264    2.692860    0.875470
     15          1           0       -2.072264    2.692860   -0.875470
     16          6           0       -1.786306    2.103254    0.000000
 ---------------------------------------------------------------------

 SCF Done:  E(RHF) =  -233.094630939     A.U. after    2 cycles

 The electronic state is 1-AG.
 Alpha  occ. eigenvalues --  -11.24063 -11.24062 -11.23359 -11.23282 -11.23126
 Alpha  occ. eigenvalues --  -11.23125  -1.09059  -1.03902  -0.95800  -0.91041
 Alpha  occ. eigenvalues --   -0.79021  -0.70707  -0.67003  -0.60988  -0.58995
 Alpha  occ. eigenvalues --   -0.57130  -0.56706  -0.52742  -0.52426  -0.52381
 Alpha  occ. eigenvalues --   -0.46668  -0.42506  -0.30446
 Alpha virt. eigenvalues --    0.03537   0.04063   0.04420   0.05695   0.05925
 Alpha virt. eigenvalues --    0.06401   0.06558   0.08096   0.08859   0.08948
 Alpha virt. eigenvalues --    0.10565   0.13074   0.13488   0.13844   0.14486

 Mulliken charges:
               1
     1  H   -0.439411
     2  C   -0.111212
     3  H   -0.568243
     4  C    0.723415
     5  H   -0.568243
     6  C    0.723415
     7  H   -0.439411
     8  C   -0.111212
     9  H   -0.153198
    10  H    0.089770
    11  H    0.089770
    12  C    0.369109
    13  H   -0.153198
    14  H    0.089770
    15  H    0.089770
    16  C    0.369109
 Sum of Mulliken charges =   0.00000

 Dipole moment (field-independent basis, Debye):
    X=             -0.0000    Y=              0.0000    Z=             -0.0000  Tot=              0.0000

 Test job not archived.
 1\1\GINC-SE053\SP\RHF\Aug-CC-pVDZ\C6H10\OHZDE\05-Apr-2025\0\\#t hf aug
 -cc-pvdz iop(5/13=1,5/36=2,99/5=2) pseudo=read geom=check guess=(read,
 tcheck) scf=(maxcycle=1)\\title\\0,1\H,0,0.310543,2.728828,0.\C,0,-0.3
 13196,1.840812,0.\H,0,1.396218,0.67668,0.\C,0,0.313196,0.6549,0.\H,0,-
 1.396218,-0.67668,0.\C,0,-0.313196,-0.6549,0.\H,0,-0.310543,-2.728828,
 0.\C,0,0.313196,-1.840812,0.\H,0,2.383856,-1.194467,0.\H,0,2.072264,-2
 .69286,0.87547\H,0,2.072264,-2.69286,-0.87547\C,0,1.786306,-2.103254,0
 .\H,0,-2.383856,1.194467,0.\H,0,-2.072264,2.69286,0.87547\H,0,-2.07226

 Normal termination of Gaussian 16 at Sat Apr  5 22:34:40 2025.
