 Gaussian 16, Revision C.01,

 ----------------------------------------------------------------------
 #t hf aug-cc-pvdz symm=none int=(grid=ultrafine) guess=(read,tcheck) s
 table=(opt,rrhf)
 ----------------------------------------------------------------------
 -----
 title
 -----
 Symbolic Z-matrix:
 Charge =  0 Multiplicity = 1

 SCF Done:  E(RHF) =  -599.979840689     A.U. after   16 cycles
 Normal termination of Gaussian 16 at Sat Apr  5 22:35:00 2025.
 Gaussian 16:  ES64L-G16RevC.01  3-Jul-2019

 ----------------------------------------------------------------------
 #t hf aug-cc-pvdz iop(5/13=1,5/36=2,99/5=2) pseudo=read geom=check gue
 ss=(read,tcheck) scf=(maxcycle=1)
 ----------------------------------------------------------------------
 -----
 title
 -----
 Structure from the checkpoint file:  "2Z-hydroxyimino-1-2-oxazol-5-yl-acetic_acid.chk"
 Charge =  0 Multiplicity = 1

                         Standard orientation:
 ---------------------------------------------------------------------
 Center     Atomic      Atomic             Coordinates (Angstroms)
 Number     Number       Type             X           Y           Z
 ---------------------------------------------------------------------
      1          8           0       -1.386694   -0.955842   -0.030927
      2          8           0        1.673838   -1.363612    1.177598
      3          8           0        1.760784   -1.318632   -1.074923
      4          8           0        2.466034    1.540093   -0.013587
      5          7           0        1.079600    1.577817   -0.028311
      6          7           0       -2.776900   -0.886607   -0.040218
      7          6           0       -0.883578    0.294634    0.005329
      8          6           0        0.564807    0.409695    0.011606
      9          6           0        1.394065   -0.855428    0.129539
     10          6           0       -1.901139    1.199961    0.020623
     11          6           0       -3.059097    0.390299   -0.009356
     12          1           0        2.283422   -2.124288   -0.935669
     13          1           0        2.715908    2.470145   -0.038919
     14          1           0       -1.826555    2.270621    0.050855
     15          1           0       -4.093711    0.694019   -0.008296
 ---------------------------------------------------------------------

 SCF Done:  E(RHF) =  -600.159652557     A.U. after    2 cycles

 The electronic state is 1-A.
 Alpha  occ. eigenvalues --  -20.67898 -20.65152 -20.64831 -20.59158 -15.74034
 Alpha  occ. eigenvalues --  -15.70638 -11.43372 -11.35468 -11.34334 -11.30610
 Alpha  occ. eigenvalues --  -11.26811  -1.47155  -1.45314  -1.42394  -1.35591
 Alpha  occ. eigenvalues --   -1.20260  -1.16324  -1.08057  -0.96261  -0.88371
 Alpha  occ. eigenvalues --   -0.84783  -0.80533  -0.77985  -0.74031  -0.72975
 Alpha  occ. eigenvalues --   -0.72122  -0.69078  -0.66301  -0.64580  -0.64416
 Alpha  occ. eigenvalues --   -0.63948  -0.60665  -0.59941  -0.53155  -0.52292
 Alpha  occ. eigenvalues --   -0.49225  -0.47835  -0.46763  -0.44967  -0.36038
 Alpha virt. eigenvalues --    0.02708   0.03419   0.04035   0.05155   0.05304
 Alpha virt. eigenvalues --    0.08868   0.09127   0.10546   0.11106   0.11414
 Alpha virt. eigenvalues --    0.11727   0.12455   0.13219   0.13977   0.14200

 Mulliken charges:
               1
     1  O   -0.730452
     2  O   -0.455711
     3  O   -0.491467
     4  O   -0.459191
     5  N   -0.271847
     6  N   -0.170763
     7  C   -0.065091
     8  C    0.537822
     9  C    0.680485
    10  C    1.028430
    11  C    0.601219
    12  H    0.197269
    13  H    0.194189
    14  H   -0.371786
    15  H   -0.223106
 Sum of Mulliken charges =  -0.00000

 Dipole moment (field-independent basis, Debye):
    X=              0.2334    Y=              3.7230    Z=             -1.5711  Tot=              4.0477

 Test job not archived.
 1\1\GINC-SE084\SP\RHF\Aug-CC-pVDZ\C5H4N2O4\OHZDE\05-Apr-2025\0\\#t hf
 aug-cc-pvdz iop(5/13=1,5/36=2,99/5=2) pseudo=read geom=check guess=(re
 ad,tcheck) scf=(maxcycle=1)\\title\\0,1\O,0,-1.386694,-0.955842,-0.030
 927\O,0,1.673838,-1.363612,1.177598\O,0,1.760784,-1.318632,-1.074923\O
 ,0,2.466034,1.540093,-0.013587\N,0,1.0796,1.577817,-0.028311\N,0,-2.77
 69,-0.886607,-0.040218\C,0,-0.883578,0.294634,0.005329\C,0,0.564807,0.
 409695,0.011606\C,0,1.394065,-0.855428,0.129539\C,0,-1.901139,1.199961
 ,0.020623\C,0,-3.059097,0.390299,-0.009356\H,0,2.283422,-2.124288,-0.9

 Normal termination of Gaussian 16 at Sat Apr  5 22:35:08 2025.
