 Gaussian 16, Revision C.01,

 ----------------------------------------------------------------------
 #t hf aug-cc-pvdz symm=none int=(grid=ultrafine) guess=(read,tcheck) s
 table=(opt,rrhf)
 ----------------------------------------------------------------------
 -----
 title
 -----
 Symbolic Z-matrix:
 Charge =  0 Multiplicity = 1

 SCF Done:  E(RHF) =  -413.707110001     A.U. after   13 cycles
 Normal termination of Gaussian 16 at Sat Apr  5 22:33:46 2025.
 Gaussian 16:  ES64L-G16RevC.01  3-Jul-2019

 ----------------------------------------------------------------------
 #t hf aug-cc-pvdz iop(5/13=1,5/36=2,99/5=2) pseudo=read geom=check gue
 ss=(read,tcheck) scf=(maxcycle=1)
 ----------------------------------------------------------------------
 -----
 title
 -----
 Structure from the checkpoint file:  "3-3-3-trifluoropropene.chk"
 Charge =  0 Multiplicity = 1

                         Standard orientation:
 ---------------------------------------------------------------------
 Center     Atomic      Atomic             Coordinates (Angstroms)
 Number     Number       Type             X           Y           Z
 ---------------------------------------------------------------------
      1          6           0        0.296563   -2.092194    0.000000
      2          1           0        1.369761   -1.964827    0.000000
      3          1           0       -0.086440   -3.102651    0.000000
      4          6           0       -0.524953   -1.056203    0.000000
      5          1           0       -1.601322   -1.166159    0.000000
      6          6           0       -0.061543    0.365426    0.000000
      7          9           0        1.278529    0.488309    0.000000
      8          9           0       -0.524953    1.029816    1.084366
      9          9           0       -0.524953    1.029816   -1.084366
 ---------------------------------------------------------------------

 SCF Done:  E(RHF) =  -413.854135293     A.U. after    2 cycles

 The electronic state is 1-A'.
 Alpha  occ. eigenvalues --  -26.16534 -26.16001 -26.15991 -11.52768 -11.28188
 Alpha  occ. eigenvalues --  -11.27930  -1.75657  -1.68817  -1.68297  -1.11387
 Alpha  occ. eigenvalues --   -1.01012  -0.89640  -0.87365  -0.87320  -0.78821
 Alpha  occ. eigenvalues --   -0.76788  -0.76403  -0.72561  -0.72263  -0.71240
 Alpha  occ. eigenvalues --   -0.66658  -0.62761  -0.55426  -0.42516
 Alpha virt. eigenvalues --    0.03183   0.04612   0.05482   0.08309   0.09116
 Alpha virt. eigenvalues --    0.10464   0.10937   0.13051   0.13402   0.14906
 Alpha virt. eigenvalues --    0.15534   0.15958   0.16962   0.18254   0.21259

 Mulliken charges:
               1
     1  C    0.484256
     2  H   -0.245790
     3  H   -0.245091
     4  C    0.302750
     5  H   -0.323770
     6  C    1.001913
     7  F   -0.315276
     8  F   -0.329496
     9  F   -0.329496
 Sum of Mulliken charges =   0.00000

 Dipole moment (field-independent basis, Debye):
    X=             -0.4127    Y=             -3.0608    Z=              0.0000  Tot=              3.0885

 Test job not archived.
 1\1\GINC-SE115\SP\RHF\Aug-CC-pVDZ\C3H3F3\OHZDE\05-Apr-2025\0\\#t hf au
 g-cc-pvdz iop(5/13=1,5/36=2,99/5=2) pseudo=read geom=check guess=(read
 ,tcheck) scf=(maxcycle=1)\\title\\0,1\C,0,0.296563,-2.092194,0.\H,0,1.
 369761,-1.964827,0.\H,0,-0.08644,-3.102651,0.\C,0,-0.524953,-1.056203,
 0.\H,0,-1.601322,-1.166159,0.\C,0,-0.061543,0.365426,0.\F,0,1.278529,0
 .488309,0.\F,0,-0.524953,1.029816,1.084366\F,0,-0.524953,1.029816,-1.0
 84366\\Version=ES64L-G16RevC.01\State=1-A'\HF=-413.8541353\RMSD=7.806e
 -03\Dipole=-0.1623642,-1.2042215,0.\Quadrupole=0.5273659,2.1662126,-2.

 Normal termination of Gaussian 16 at Sat Apr  5 22:34:38 2025.
