 Gaussian 16, Revision C.01,

 ----------------------------------------------------------------------
 #t hf aug-cc-pvdz symm=none int=(grid=ultrafine) guess=(read,tcheck) s
 table=(opt,rrhf)
 ----------------------------------------------------------------------
 -----
 title
 -----
 Symbolic Z-matrix:
 Charge =  0 Multiplicity = 1

 SCF Done:  E(RHF) =  -274.423899655     A.U. after   12 cycles
 Normal termination of Gaussian 16 at Sat Apr  5 22:35:15 2025.
 Gaussian 16:  ES64L-G16RevC.01  3-Jul-2019

 ----------------------------------------------------------------------
 #t hf aug-cc-pvdz iop(5/13=1,5/36=2,99/5=2) pseudo=read geom=check gue
 ss=(read,tcheck) scf=(maxcycle=1)
 ----------------------------------------------------------------------
 -----
 title
 -----
 Structure from the checkpoint file:  "3-3-dimethylpentane.chk"
 Charge =  0 Multiplicity = 1

                         Standard orientation:
 ---------------------------------------------------------------------
 Center     Atomic      Atomic             Coordinates (Angstroms)
 Number     Number       Type             X           Y           Z
 ---------------------------------------------------------------------
      1          6           0        0.000000   -0.000000    0.065284
      2          6           0       -0.000119    1.241984   -0.861684
      3          6           0        0.000119   -1.241984   -0.861684
      4          6           0       -0.000000    2.618031   -0.193199
      5          6           0       -0.000000   -2.618031   -0.193199
      6          6           0        1.255287    0.000120    0.952178
      7          6           0       -1.255287   -0.000120    0.952178
      8          1           0        0.872906    1.172573   -1.518050
      9          1           0       -0.873342    1.172588   -1.517788
     10          1           0       -0.872906   -1.172573   -1.518050
     11          1           0        0.873342   -1.172588   -1.517788
     12          1           0       -0.000193    3.402590   -0.951355
     13          1           0        0.000193   -3.402590   -0.951355
     14          1           0       -0.880980    2.772125    0.430603
     15          1           0        0.881256    2.772164    0.430201
     16          1           0        0.880980   -2.772125    0.430603
     17          1           0       -0.881256   -2.772164    0.430201
     18          1           0       -1.284762   -0.876517    1.599898
     19          1           0       -2.165042   -0.000409    0.347245
     20          1           0       -1.285140    0.876465    1.599626
     21          1           0        1.284762    0.876517    1.599898
     22          1           0        2.165042    0.000409    0.347245
     23          1           0        1.285140   -0.876465    1.599626
 ---------------------------------------------------------------------

 SCF Done:  E(RHF) =  -274.512423384     A.U. after    2 cycles

 The electronic state is 1-A.
 Alpha  occ. eigenvalues --  -11.23616 -11.22151 -11.22142 -11.21770 -11.21770
 Alpha  occ. eigenvalues --  -11.21452 -11.21444  -1.10009  -1.00628  -0.96876
 Alpha  occ. eigenvalues --   -0.92434  -0.88184  -0.81646  -0.72065  -0.63551
 Alpha  occ. eigenvalues --   -0.63067  -0.60435  -0.59166  -0.55234  -0.55043
 Alpha  occ. eigenvalues --   -0.53640  -0.52536  -0.51978  -0.49392  -0.49049
 Alpha  occ. eigenvalues --   -0.47576  -0.44800  -0.43750  -0.43422
 Alpha virt. eigenvalues --    0.03522   0.04212   0.04534   0.04748   0.06103
 Alpha virt. eigenvalues --    0.06189   0.06543   0.06593   0.06747   0.08807
 Alpha virt. eigenvalues --    0.08924   0.08969   0.09072   0.09472   0.10656

 Mulliken charges:
               1
     1  C   -4.628186
     2  C    1.110007
     3  C    1.110007
     4  C    0.568693
     5  C    0.568693
     6  C    1.314730
     7  C    1.314730
     8  H   -0.162553
     9  H   -0.162683
    10  H   -0.162553
    11  H   -0.162683
    12  H   -0.049643
    13  H   -0.049643
    14  H   -0.074864
    15  H   -0.074857
    16  H   -0.074864
    17  H   -0.074857
    18  H   -0.082940
    19  H    0.011309
    20  H   -0.083106
    21  H   -0.082940
    22  H    0.011309
    23  H   -0.083106
 Sum of Mulliken charges =  -0.00000

 Dipole moment (field-independent basis, Debye):
    X=              0.0000    Y=             -0.0000    Z=             -0.0764  Tot=              0.0764

 Test job not archived.
 1\1\GINC-SE146\SP\RHF\Aug-CC-pVDZ\C7H16\OHZDE\05-Apr-2025\0\\#t hf aug
 -cc-pvdz iop(5/13=1,5/36=2,99/5=2) pseudo=read geom=check guess=(read,
 tcheck) scf=(maxcycle=1)\\title\\0,1\C,0,0.,0.,0.065284\C,0,-0.000119,
 1.241984,-0.861684\C,0,0.000119,-1.241984,-0.861684\C,0,0.,2.618031,-0
 .193199\C,0,0.,-2.618031,-0.193199\C,0,1.255287,0.00012,0.952178\C,0,-
 1.255287,-0.00012,0.952178\H,0,0.872906,1.172573,-1.51805\H,0,-0.87334
 2,1.172588,-1.517788\H,0,-0.872906,-1.172573,-1.51805\H,0,0.873342,-1.
 172588,-1.517788\H,0,-0.000193,3.40259,-0.951355\H,0,0.000193,-3.40259

 Normal termination of Gaussian 16 at Sat Apr  5 22:35:54 2025.
