 Gaussian 16, Revision C.01,

 ----------------------------------------------------------------------
 #t hf aug-cc-pvdz symm=none int=(grid=ultrafine) guess=(read,tcheck) s
 table=(opt,rrhf)
 ----------------------------------------------------------------------
 -----
 title
 -----
 Symbolic Z-matrix:
 Charge =  0 Multiplicity = 1

 SCF Done:  E(RHF) =  -309.101409897     A.U. after   14 cycles

 1\1\GINC-SE190\Stability\RHF\Aug-CC-pVDZ\C6H12O1\OHZDE\05-Apr-2025\0\\
 #t hf aug-cc-pvdz symm=none int=(grid=ultrafine) guess=(read,tcheck) s
 table=(opt,rrhf)\\title\\0,1\C,0,0.906853,0.321148,-0.017128\C,0,1.943
 934,-0.786999,-0.005884\C,0,-0.933612,-0.544883,1.418768\C,0,-0.861053
 ,-1.193432,-1.015538\C,0,-1.437212,1.161991,-0.352359\C,0,-0.585568,-0
 .063766,-0.006852\O,0,1.259489,1.479477,-0.029986\H,0,2.897115,-0.3776
 09,0.318312\H,0,1.660429,-1.625395,0.628697\H,0,2.062196,-1.175511,-1.
 020006\H,0,-0.366445,-1.430877,1.70481\H,0,-0.740904,0.236991,2.154158

 Normal termination of Gaussian 16 at Sat Apr  5 22:34:43 2025.
 Gaussian 16:  ES64L-G16RevC.01  3-Jul-2019

 ----------------------------------------------------------------------
 #t hf aug-cc-pvdz iop(5/13=1,5/36=2,99/5=2) pseudo=read geom=check gue
 ss=(read,tcheck) scf=(maxcycle=1)
 ----------------------------------------------------------------------
 -----
 title
 -----
 Structure from the checkpoint file:  "3-3-dimethyl-2-butanone.chk"
 Charge =  0 Multiplicity = 1

                         Standard orientation:
 ---------------------------------------------------------------------
 Center     Atomic      Atomic             Coordinates (Angstroms)
 Number     Number       Type             X           Y           Z
 ---------------------------------------------------------------------
      1          6           0        0.906853    0.321148   -0.017128
      2          6           0        1.943934   -0.786999   -0.005884
      3          6           0       -0.933612   -0.544883    1.418768
      4          6           0       -0.861053   -1.193432   -1.015538
      5          6           0       -1.437212    1.161991   -0.352359
      6          6           0       -0.585568   -0.063766   -0.006852
      7          8           0        1.259489    1.479477   -0.029986
      8          1           0        2.897115   -0.377609    0.318312
      9          1           0        1.660428   -1.625395    0.628697
     10          1           0        2.062196   -1.175511   -1.020006
     11          1           0       -0.366445   -1.430877    1.704810
     12          1           0       -0.740904    0.236991    2.154158
     13          1           0       -1.993325   -0.800365    1.469308
     14          1           0       -0.315822   -2.105697   -0.774352
     15          1           0       -0.592539   -0.894537   -2.030268
     16          1           0       -1.924863   -1.435702   -1.013178
     17          1           0       -1.207435    1.532654   -1.351356
     18          1           0       -1.258629    1.976552    0.346678
     19          1           0       -2.495732    0.899321   -0.318958
 ---------------------------------------------------------------------

 SCF Done:  E(RHF) =  -309.199600983     A.U. after    2 cycles

 The electronic state is 1-A.
 Alpha  occ. eigenvalues --  -20.55666 -11.33626 -11.25778 -11.24131 -11.23671
 Alpha  occ. eigenvalues --  -11.23648 -11.22030  -1.34986  -1.10100  -0.99857
 Alpha  occ. eigenvalues --   -0.94319  -0.93134  -0.83601  -0.71151  -0.67067
 Alpha  occ. eigenvalues --   -0.64005  -0.62390  -0.60341  -0.59516  -0.56747
 Alpha  occ. eigenvalues --   -0.54914  -0.54728  -0.52616  -0.51951  -0.50713
 Alpha  occ. eigenvalues --   -0.47717  -0.47303  -0.41012
 Alpha virt. eigenvalues --    0.03222   0.04117   0.04525   0.04897   0.06324
 Alpha virt. eigenvalues --    0.06482   0.06635   0.07085   0.07611   0.09234
 Alpha virt. eigenvalues --    0.09265   0.09424   0.11265   0.12855   0.13591

 Mulliken charges:
               1
     1  C    0.211531
     2  C    0.407582
     3  C    1.159385
     4  C    1.187587
     5  C    1.247534
     6  C   -3.276115
     7  O   -0.518874
     8  H   -0.119681
     9  H   -0.074268
    10  H    0.115811
    11  H   -0.097305
    12  H   -0.050882
    13  H   -0.016863
    14  H   -0.083094
    15  H   -0.020823
    16  H   -0.012386
    17  H   -0.036379
    18  H   -0.002512
    19  H   -0.020248
 Sum of Mulliken charges =  -0.00000

 Dipole moment (field-independent basis, Debye):
    X=             -1.1274    Y=             -3.2316    Z=              0.0610  Tot=              3.4232

 Test job not archived.
 1\1\GINC-SE190\SP\RHF\Aug-CC-pVDZ\C6H12O1\OHZDE\05-Apr-2025\0\\#t hf a
 ug-cc-pvdz iop(5/13=1,5/36=2,99/5=2) pseudo=read geom=check guess=(rea
 d,tcheck) scf=(maxcycle=1)\\title\\0,1\C,0,0.906853,0.321148,-0.017128
 \C,0,1.943934,-0.786999,-0.005884\C,0,-0.933612,-0.544883,1.418768\C,0
 ,-0.861053,-1.193432,-1.015538\C,0,-1.437212,1.161991,-0.352359\C,0,-0
 .585568,-0.063766,-0.006852\O,0,1.259489,1.479477,-0.029986\H,0,2.8971
 15,-0.377609,0.318312\H,0,1.660429,-1.625395,0.628697\H,0,2.062196,-1.
 175511,-1.020006\H,0,-0.366445,-1.430877,1.70481\H,0,-0.740904,0.23699

 Normal termination of Gaussian 16 at Sat Apr  5 22:34:51 2025.
