 Gaussian 16, Revision C.01,

 ----------------------------------------------------------------------
 #t hf aug-cc-pvdz symm=none int=(grid=ultrafine) guess=(read,tcheck) s
 table=(opt,rrhf)
 ----------------------------------------------------------------------
 -----
 title
 -----
 Symbolic Z-matrix:
 Charge =  0 Multiplicity = 1

 SCF Done:  E(RHF) =  -964.849635478     A.U. after   15 cycles
 Normal termination of Gaussian 16 at Sat Apr  5 22:33:50 2025.
 Gaussian 16:  ES64L-G16RevC.01  3-Jul-2019

 ----------------------------------------------------------------------
 #t hf aug-cc-pvdz iop(5/13=1,5/36=2,99/5=2) pseudo=read geom=check gue
 ss=(read,tcheck) scf=(maxcycle=1)
 ----------------------------------------------------------------------
 -----
 title
 -----
 Structure from the checkpoint file:  "3-3-disulfanylacrylonitrile.chk"
 Charge =  0 Multiplicity = 1

                         Standard orientation:
 ---------------------------------------------------------------------
 Center     Atomic      Atomic             Coordinates (Angstroms)
 Number     Number       Type             X           Y           Z
 ---------------------------------------------------------------------
      1         16           0       -2.060348   -0.589692   -0.009626
      2         16           0       -0.161916    1.601569    0.011242
      3          7           0        3.126547   -0.356597    0.009543
      4          6           0       -0.350403   -0.148815   -0.003521
      5          6           0        0.655072   -1.051986   -0.012853
      6          6           0        2.016548   -0.678636    0.001914
      7          1           0        0.437308   -2.110497   -0.041709
      8          1           0       -1.873141   -1.910659    0.164177
      9          1           0        1.178921    1.603923   -0.128368
 ---------------------------------------------------------------------

 SCF Done:  E(RHF) =  -964.940061145     A.U. after    2 cycles

 The electronic state is 1-A.
 Alpha  occ. eigenvalues --  -93.59222 -93.58651 -15.64899 -11.37111 -11.30082
 Alpha  occ. eigenvalues --  -11.29683  -8.89020  -8.88473  -6.23193  -6.22977
 Alpha  occ. eigenvalues --   -6.22647  -6.22577  -6.22435  -6.22039  -1.20759
 Alpha  occ. eigenvalues --   -1.15290  -1.01604  -0.99821  -0.82201  -0.72129
 Alpha  occ. eigenvalues --   -0.69061  -0.57436  -0.56086  -0.55479  -0.52176
 Alpha  occ. eigenvalues --   -0.51534  -0.48593  -0.47420  -0.40343  -0.34963
 Alpha virt. eigenvalues --    0.02671   0.04831   0.05201   0.05611   0.08090
 Alpha virt. eigenvalues --    0.08698   0.08915   0.10336   0.11130   0.12281
 Alpha virt. eigenvalues --    0.12395   0.13241   0.14430   0.15085   0.15660

 Mulliken charges:
               1
     1  S    0.234859
     2  S    0.221348
     3  N   -0.106178
     4  C   -0.516909
     5  C    1.506394
     6  C   -1.062746
     7  H   -0.465066
     8  H    0.082304
     9  H    0.105996
 Sum of Mulliken charges =  -0.00000

 Dipole moment (field-independent basis, Debye):
    X=             -3.2548    Y=             -1.3616    Z=             -0.0109  Tot=              3.5281

 Test job not archived.
 1\1\GINC-SE176\SP\RHF\Aug-CC-pVDZ\C3H3N1S2\OHZDE\05-Apr-2025\0\\#t hf
 aug-cc-pvdz iop(5/13=1,5/36=2,99/5=2) pseudo=read geom=check guess=(re
 ad,tcheck) scf=(maxcycle=1)\\title\\0,1\S,0,-2.060348,-0.589692,-0.009
 626\S,0,-0.161916,1.601569,0.011242\N,0,3.126547,-0.356597,0.009543\C,
 0,-0.350403,-0.148815,-0.003521\C,0,0.655072,-1.051986,-0.012853\C,0,2
 .016548,-0.678636,0.001914\H,0,0.437308,-2.110497,-0.041709\H,0,-1.873
 141,-1.910659,0.164177\H,0,1.178921,1.603923,-0.128368\\Version=ES64L-
 G16RevC.01\State=1-A\HF=-964.9400611\RMSD=1.285e-02\Dipole=-1.2805304,

 Normal termination of Gaussian 16 at Sat Apr  5 22:34:39 2025.
