 Gaussian 16, Revision C.01,

 ----------------------------------------------------------------------
 #t hf aug-cc-pvdz symm=none int=(grid=ultrafine) guess=(read,tcheck) s
 table=(opt,rrhf)
 ----------------------------------------------------------------------
 -----
 title
 -----
 Symbolic Z-matrix:
 Charge =  0 Multiplicity = 1

 SCF Done:  E(RHF) =  -582.807136513     A.U. after   15 cycles
 Normal termination of Gaussian 16 at Sat Apr  5 22:34:52 2025.
 Gaussian 16:  ES64L-G16RevC.01  3-Jul-2019

 ----------------------------------------------------------------------
 #t hf aug-cc-pvdz iop(5/13=1,5/36=2,99/5=2) pseudo=read geom=check gue
 ss=(read,tcheck) scf=(maxcycle=1)
 ----------------------------------------------------------------------
 -----
 title
 -----
 Structure from the checkpoint file:  "3-3--iminobis2-propynoic_acid.chk"
 Charge =  0 Multiplicity = 1

                         Standard orientation:
 ---------------------------------------------------------------------
 Center     Atomic      Atomic             Coordinates (Angstroms)
 Number     Number       Type             X           Y           Z
 ---------------------------------------------------------------------
      1          8           0       -3.552425    1.677314   -0.000076
      2          8           0        3.552425    1.677314   -0.000133
      3          8           0       -4.601741   -0.288643    0.000051
      4          8           0        4.601741   -0.288643   -0.000016
      5          7           0        0.000000   -1.455001    0.000098
      6          6           0       -3.482204    0.481149   -0.000003
      7          6           0        3.482204    0.481149   -0.000058
      8          6           0       -2.240625   -0.251308    0.000033
      9          6           0        2.240624   -0.251308   -0.000006
     10          6           0       -1.181312   -0.822939    0.000062
     11          6           0        1.181312   -0.822939    0.000041
     12          1           0       -4.369566   -1.225617    0.000108
     13          1           0        4.369566   -1.225617    0.000046
     14          1           0        0.000000   -2.465308    0.000146
 ---------------------------------------------------------------------

 SCF Done:  E(RHF) =  -582.992544230     A.U. after    2 cycles

 The electronic state is 1-A.
 Alpha  occ. eigenvalues --  -20.64649 -20.64649 -20.58154 -20.58154 -15.76356
 Alpha  occ. eigenvalues --  -11.44035 -11.44034 -11.35469 -11.35457 -11.29545
 Alpha  occ. eigenvalues --  -11.29542  -1.44152  -1.44122  -1.35295  -1.35286
 Alpha  occ. eigenvalues --   -1.31962  -1.10477  -1.07142  -0.94193  -0.91523
 Alpha  occ. eigenvalues --   -0.86452  -0.84226  -0.82399  -0.82116  -0.69672
 Alpha  occ. eigenvalues --   -0.69648  -0.67341  -0.66876  -0.63819  -0.63780
 Alpha  occ. eigenvalues --   -0.63686  -0.52799  -0.52336  -0.51147  -0.51029
 Alpha  occ. eigenvalues --   -0.46855  -0.46624  -0.45617  -0.38719
 Alpha virt. eigenvalues --    0.00367   0.02478   0.04283   0.06844   0.06992
 Alpha virt. eigenvalues --    0.07810   0.08395   0.09007   0.09558   0.10187
 Alpha virt. eigenvalues --    0.10977   0.11399   0.11725   0.12227   0.12874

 Mulliken charges:
               1
     1  O   -0.434423
     2  O   -0.434423
     3  O   -0.490236
     4  O   -0.490235
     5  N   -0.312859
     6  C    0.709420
     7  C    0.709420
     8  C    0.531827
     9  C    0.531825
    10  C   -0.386553
    11  C   -0.386552
    12  H    0.197074
    13  H    0.197074
    14  H    0.058639
 Sum of Mulliken charges =  -0.00000

 Dipole moment (field-independent basis, Debye):
    X=              0.0000    Y=            -10.2897    Z=              0.0006  Tot=             10.2897

 Test job not archived.
 1\1\GINC-SE085\SP\RHF\Aug-CC-pVDZ\C6H3N1O4\OHZDE\05-Apr-2025\0\\#t hf
 aug-cc-pvdz iop(5/13=1,5/36=2,99/5=2) pseudo=read geom=check guess=(re
 ad,tcheck) scf=(maxcycle=1)\\title\\0,1\O,0,3.552425,-1.677314,-0.0000
 76\O,0,-3.552425,-1.677314,-0.000133\O,0,4.601741,0.288643,0.000051\O,
 0,-4.601741,0.288643,-0.000016\N,0,0.,1.455001,0.000098\C,0,3.482204,-
 0.481149,-0.000003\C,0,-3.482204,-0.481149,-0.000058\C,0,2.240625,0.25
 1308,0.000033\C,0,-2.240624,0.251308,-0.000006\C,0,1.181312,0.822939,0
 .000062\C,0,-1.181312,0.822939,0.000041\H,0,4.369566,1.225617,0.000108

 Normal termination of Gaussian 16 at Sat Apr  5 22:34:59 2025.
