 Gaussian 16, Revision C.01,

 ----------------------------------------------------------------------
 #t hf aug-cc-pvdz symm=none int=(grid=ultrafine) guess=(read,tcheck) s
 table=(opt,rrhf)
 ----------------------------------------------------------------------
 -----
 title
 -----
 Symbolic Z-matrix:
 Charge =  0 Multiplicity = 1

 SCF Done:  E(RHF) =  -1033.70680617     A.U. after   14 cycles

 1\1\GINC-SE179\Stability\RHF\Aug-CC-pVDZ\C3H2Cl2\OHZDE\05-Apr-2025\0\\
 #t hf aug-cc-pvdz symm=none int=(grid=ultrafine) guess=(read,tcheck) s
 table=(opt,rrhf)\\title\\0,1\Cl,0,0.811282,1.486375,-0.113059\Cl,0,0.8
 11397,-1.486324,-0.112983\C,0,-0.023639,0.000009,0.490782\C,0,-1.41426
 6,-0.000051,0.121661\C,0,-2.577535,-0.000087,-0.162983\H,0,0.115063,0.
 00004,1.565162\H,0,-3.607963,-0.000119,-0.419211\\Version=ES64L-G16Rev
 C.01\HF=-1033.7068062\RMSD=4.713e-09\Dipole=-0.7037267,-0.0000089,0.37
 88441\Quadrupole=3.5291438,-3.0698692,-0.4592747,0.0002063,1.1157627,0

 Normal termination of Gaussian 16 at Sat Apr  5 22:33:45 2025.
 Gaussian 16:  ES64L-G16RevC.01  3-Jul-2019

 ----------------------------------------------------------------------
 #t hf aug-cc-pvdz iop(5/13=1,5/36=2,99/5=2) pseudo=read geom=check gue
 ss=(read,tcheck) scf=(maxcycle=1)
 ----------------------------------------------------------------------
 -----
 title
 -----
 Structure from the checkpoint file:  "3-3-dichloropropyne.chk"
 Charge =  0 Multiplicity = 1

                         Standard orientation:
 ---------------------------------------------------------------------
 Center     Atomic      Atomic             Coordinates (Angstroms)
 Number     Number       Type             X           Y           Z
 ---------------------------------------------------------------------
      1         17           0        0.811283    1.486374   -0.113059
      2         17           0        0.811396   -1.486325   -0.112983
      3          6           0       -0.023639    0.000009    0.490782
      4          6           0       -1.414266   -0.000050    0.121661
      5          6           0       -2.577535   -0.000085   -0.162983
      6          1           0        0.115063    0.000040    1.565162
      7          1           0       -3.607963   -0.000117   -0.419211
 ---------------------------------------------------------------------

 SCF Done:  E(RHF) =  -1033.78071952     A.U. after    2 cycles

 The electronic state is 1-A.
 Alpha  occ. eigenvalues -- -103.68160-103.68160 -11.41191 -11.28028 -11.27575
 Alpha  occ. eigenvalues --  -10.71413 -10.71407  -8.37131  -8.37125  -8.36805
 Alpha  occ. eigenvalues --   -8.36803  -8.36797  -8.36795  -1.23007  -1.14584
 Alpha  occ. eigenvalues --   -1.06526  -0.94700  -0.76343  -0.71065  -0.64608
 Alpha  occ. eigenvalues --   -0.61616  -0.50073  -0.49560  -0.47324  -0.46589
 Alpha  occ. eigenvalues --   -0.42724  -0.42488
 Alpha virt. eigenvalues --    0.03336   0.04117   0.07246   0.07953   0.08822
 Alpha virt. eigenvalues --    0.08937   0.10036   0.12340   0.14300   0.14452
 Alpha virt. eigenvalues --    0.14467   0.15506   0.15862   0.16364   0.17675

 Mulliken charges:
               1
     1  Cl   0.003546
     2  Cl   0.003546
     3  C   -0.726349
     4  C    0.198259
     5  C    0.734747
     6  H    0.177549
     7  H   -0.391298
 Sum of Mulliken charges =  -0.00000

 Dipole moment (field-independent basis, Debye):
    X=             -1.8671    Y=             -0.0000    Z=              0.9882  Tot=              2.1125

 Test job not archived.
 1\1\GINC-SE179\SP\RHF\Aug-CC-pVDZ\C3H2Cl2\OHZDE\05-Apr-2025\0\\#t hf a
 ug-cc-pvdz iop(5/13=1,5/36=2,99/5=2) pseudo=read geom=check guess=(rea
 d,tcheck) scf=(maxcycle=1)\\title\\0,1\Cl,0,0.811282,1.486375,-0.11305
 9\Cl,0,0.811397,-1.486324,-0.112983\C,0,-0.023639,0.000009,0.490782\C,
 0,-1.414266,-0.000051,0.121661\C,0,-2.577535,-0.000087,-0.162983\H,0,0
 .115063,0.00004,1.565162\H,0,-3.607963,-0.000119,-0.419211\\Version=ES
 64L-G16RevC.01\State=1-A\HF=-1033.7807195\RMSD=8.212e-03\Dipole=-0.734
 5759,-0.0000097,0.3887805\Quadrupole=3.5690469,-3.1031482,-0.4658987,0

 Normal termination of Gaussian 16 at Sat Apr  5 22:34:38 2025.
