 Gaussian 16, Revision C.01,

 ----------------------------------------------------------------------
 #t hf aug-cc-pvdz symm=none int=(grid=ultrafine) guess=(read,tcheck) s
 table=(opt,rrhf)
 ----------------------------------------------------------------------
 -----
 title
 -----
 Symbolic Z-matrix:
 Charge =  0 Multiplicity = 1

 SCF Done:  E(RHF) =  -512.681056028     A.U. after   14 cycles
 Normal termination of Gaussian 16 at Sat Apr  5 22:36:19 2025.
 Gaussian 16:  ES64L-G16RevC.01  3-Jul-2019

 ----------------------------------------------------------------------
 #t hf aug-cc-pvdz iop(5/13=1,5/36=2,99/5=2) pseudo=read geom=check gue
 ss=(read,tcheck) scf=(maxcycle=1)
 ----------------------------------------------------------------------
 -----
 title
 -----
 Structure from the checkpoint file:  "3-3-3-trimethoxypropanenitrile.chk"
 Charge =  0 Multiplicity = 1

                         Standard orientation:
 ---------------------------------------------------------------------
 Center     Atomic      Atomic             Coordinates (Angstroms)
 Number     Number       Type             X           Y           Z
 ---------------------------------------------------------------------
      1          6           0        2.151772   -0.572496   -0.560545
      2          6           0       -2.062713   -0.100817   -1.587752
      3          6           0        0.451205    2.241234    0.698532
      4          6           0       -1.313679   -1.261876    1.680440
      5          6           0        0.859422   -0.182791   -1.105501
      6          6           0       -0.223077    0.034236   -0.014933
      7          7           0        3.188160   -0.864297   -0.158479
      8          8           0       -1.377593    0.628217   -0.574436
      9          8           0        0.199911    0.871969    1.008392
     10          8           0       -0.475157   -1.218770    0.519329
     11          1           0       -2.222341   -1.139012   -1.294351
     12          1           0       -1.527238   -0.071217   -2.540553
     13          1           0       -3.024533    0.389798   -1.715392
     14          1           0        1.291753    2.348187    0.008318
     15          1           0        0.717315    2.710667    1.641691
     16          1           0       -0.432534    2.723319    0.283632
     17          1           0       -2.243086   -0.715593    1.516465
     18          1           0       -0.797455   -0.851306    2.545921
     19          1           0       -1.529699   -2.314243    1.843635
     20          1           0        0.519543   -0.961831   -1.786348
     21          1           0        0.976294    0.735039   -1.681386
 ---------------------------------------------------------------------

 SCF Done:  E(RHF) =  -512.844888979     A.U. after    2 cycles

 The electronic state is 1-A.
 Alpha  occ. eigenvalues --  -20.59756 -20.59354 -20.59349 -15.63244 -11.43126
 Alpha  occ. eigenvalues --  -11.30264 -11.29509 -11.29423 -11.28824 -11.28373
 Alpha  occ. eigenvalues --   -1.43250  -1.32953  -1.32928  -1.19043  -1.06880
 Alpha  occ. eigenvalues --   -0.98908  -0.95242  -0.94300  -0.81786  -0.75019
 Alpha  occ. eigenvalues --   -0.74235  -0.73098  -0.68207  -0.66325  -0.64729
 Alpha  occ. eigenvalues --   -0.62760  -0.61782  -0.60632  -0.60155  -0.58316
 Alpha  occ. eigenvalues --   -0.54926  -0.54043  -0.52320  -0.51270  -0.48853
 Alpha  occ. eigenvalues --   -0.48002  -0.47439  -0.45506  -0.44309
 Alpha virt. eigenvalues --    0.02729   0.03979   0.04096   0.04655   0.05650
 Alpha virt. eigenvalues --    0.05927   0.06341   0.06578   0.07526   0.08692
 Alpha virt. eigenvalues --    0.08915   0.10595   0.11119   0.12895   0.13063

 Mulliken charges:
               1
     1  C   -0.324709
     2  C    0.985496
     3  C    0.817644
     4  C    0.778647
     5  C    0.830015
     6  C    0.603499
     7  N   -0.187877
     8  O   -0.735338
     9  O   -0.743844
    10  O   -0.709999
    11  H   -0.063020
    12  H   -0.144614
    13  H   -0.254347
    14  H   -0.151684
    15  H   -0.247406
    16  H   -0.080845
    17  H   -0.073228
    18  H   -0.074411
    19  H   -0.236700
    20  H   -0.041999
    21  H    0.054719
 Sum of Mulliken charges =  -0.00000

 Dipole moment (field-independent basis, Debye):
    X=             -4.4775    Y=              1.6600    Z=             -2.0543  Tot=              5.1984

 Test job not archived.
 1\1\GINC-SE165\SP\RHF\Aug-CC-pVDZ\C6H11N1O3\OHZDE\05-Apr-2025\0\\#t hf
  aug-cc-pvdz iop(5/13=1,5/36=2,99/5=2) pseudo=read geom=check guess=(r
 ead,tcheck) scf=(maxcycle=1)\\title\\0,1\C,0,2.151772,-0.572496,-0.560
 545\C,0,-2.062713,-0.100817,-1.587752\C,0,0.451205,2.241234,0.698532\C
 ,0,-1.313679,-1.261876,1.68044\C,0,0.859422,-0.182791,-1.105501\C,0,-0
 .223077,0.034236,-0.014933\N,0,3.18816,-0.864297,-0.158479\O,0,-1.3775
 93,0.628217,-0.574436\O,0,0.199911,0.871969,1.008392\O,0,-0.475157,-1.
 21877,0.519329\H,0,-2.222341,-1.139012,-1.294351\H,0,-1.527238,-0.0712

 Normal termination of Gaussian 16 at Sat Apr  5 22:37:44 2025.
