 Gaussian 16, Revision C.01,

 ----------------------------------------------------------------------
 #t hf aug-cc-pvdz symm=none int=(grid=ultrafine) guess=(read,tcheck) s
 table=(opt,rrhf)
 ----------------------------------------------------------------------
 -----
 title
 -----
 Symbolic Z-matrix:
 Charge =  0 Multiplicity = 1

 SCF Done:  E(RHF) =  -270.016802251     A.U. after   12 cycles

 1\1\GINC-SE013\Stability\RHF\Aug-CC-pVDZ\C5H10O1\OHZDE\05-Apr-2025\0\\
 #t hf aug-cc-pvdz symm=none int=(grid=ultrafine) guess=(read,tcheck) s
 table=(opt,rrhf)\\title\\0,1\C,0,-1.264788,1.284808,0.\H,0,-1.28355,1.
 930106,0.88113\H,0,-1.28355,1.930106,-0.88113\H,0,-2.179327,0.690156,0
 .\C,0,1.255285,1.225783,0.\H,0,2.138334,0.585269,0.\H,0,1.305127,1.868
 005,-0.8821\H,0,1.305127,1.868005,0.8821\C,0,-0.026045,0.399811,0.\C,0
 ,-0.026045,-0.75163,1.036255\C,0,-0.026045,-0.75163,-1.036255\H,0,0.81
 7961,-0.777877,1.729654\H,0,0.817961,-0.777877,-1.729654\H,0,-0.958286

 Normal termination of Gaussian 16 at Sat Apr  5 22:34:07 2025.
 Gaussian 16:  ES64L-G16RevC.01  3-Jul-2019

 ----------------------------------------------------------------------
 #t hf aug-cc-pvdz iop(5/13=1,5/36=2,99/5=2) pseudo=read geom=check gue
 ss=(read,tcheck) scf=(maxcycle=1)
 ----------------------------------------------------------------------
 -----
 title
 -----
 Structure from the checkpoint file:  "3-3-dimethyloxetane.chk"
 Charge =  0 Multiplicity = 1

                         Standard orientation:
 ---------------------------------------------------------------------
 Center     Atomic      Atomic             Coordinates (Angstroms)
 Number     Number       Type             X           Y           Z
 ---------------------------------------------------------------------
      1          6           0       -1.264788    1.284808    0.000000
      2          1           0       -1.283550    1.930106    0.881130
      3          1           0       -1.283550    1.930106   -0.881130
      4          1           0       -2.179327    0.690156    0.000000
      5          6           0        1.255285    1.225783    0.000000
      6          1           0        2.138334    0.585269    0.000000
      7          1           0        1.305127    1.868005   -0.882100
      8          1           0        1.305127    1.868005    0.882100
      9          6           0       -0.026045    0.399811    0.000000
     10          6           0       -0.026045   -0.751630    1.036255
     11          6           0       -0.026045   -0.751630   -1.036255
     12          1           0        0.817961   -0.777877    1.729654
     13          1           0        0.817961   -0.777877   -1.729654
     14          1           0       -0.958286   -0.870369    1.595908
     15          1           0       -0.958286   -0.870369   -1.595908
     16          8           0        0.100540   -1.752252    0.000000
 ---------------------------------------------------------------------

 SCF Done:  E(RHF) =  -270.102344780     A.U. after    2 cycles

 The electronic state is 1-A'.
 Alpha  occ. eigenvalues --  -20.55860 -11.28205 -11.28201 -11.24925 -11.23116
 Alpha  occ. eigenvalues --  -11.23045  -1.33336  -1.07333  -0.94015  -0.93281
 Alpha  occ. eigenvalues --   -0.89585  -0.73584  -0.67794  -0.65161  -0.63465
 Alpha  occ. eigenvalues --   -0.57979  -0.57778  -0.56211  -0.55257  -0.53252
 Alpha  occ. eigenvalues --   -0.49236  -0.44870  -0.44279  -0.42265
 Alpha virt. eigenvalues --    0.03312   0.04528   0.04629   0.04940   0.06527
 Alpha virt. eigenvalues --    0.06527   0.06893   0.06925   0.09367   0.09408
 Alpha virt. eigenvalues --    0.10124   0.13099   0.13381   0.13773   0.14999

 Mulliken charges:
               1
     1  C    0.698304
     2  H   -0.004383
     3  H   -0.004383
     4  H   -0.113639
     5  C    0.696086
     6  H   -0.108123
     7  H   -0.013435
     8  H   -0.013435
     9  C   -1.838276
    10  C    1.161403
    11  C    1.161403
    12  H   -0.187282
    13  H   -0.187282
    14  H   -0.225796
    15  H   -0.225796
    16  O   -0.795365
 Sum of Mulliken charges =  -0.00000

 Dipole moment (field-independent basis, Debye):
    X=             -0.2554    Y=              2.3952    Z=              0.0000  Tot=              2.4087

 Test job not archived.
 1\1\GINC-SE013\SP\RHF\Aug-CC-pVDZ\C5H10O1\OHZDE\05-Apr-2025\0\\#t hf a
 ug-cc-pvdz iop(5/13=1,5/36=2,99/5=2) pseudo=read geom=check guess=(rea
 d,tcheck) scf=(maxcycle=1)\\title\\0,1\C,0,-1.264788,1.284808,0.\H,0,-
 1.28355,1.930106,0.88113\H,0,-1.28355,1.930106,-0.88113\H,0,-2.179327,
 0.690156,0.\C,0,1.255285,1.225783,0.\H,0,2.138334,0.585269,0.\H,0,1.30
 5127,1.868005,-0.8821\H,0,1.305127,1.868005,0.8821\C,0,-0.026045,0.399
 811,0.\C,0,-0.026045,-0.75163,1.036255\C,0,-0.026045,-0.75163,-1.03625
 5\H,0,0.817961,-0.777877,1.729654\H,0,0.817961,-0.777877,-1.729654\H,0

 Normal termination of Gaussian 16 at Sat Apr  5 22:34:39 2025.
