 Gaussian 16, Revision C.01,

 ----------------------------------------------------------------------
 #t hf aug-cc-pvdz symm=none int=(grid=ultrafine) guess=(read,tcheck) s
 table=(opt,rrhf)
 ----------------------------------------------------------------------
 -----
 title
 -----
 Symbolic Z-matrix:
 Charge =  0 Multiplicity = 1

 SCF Done:  E(RHF) =  -232.995180097     A.U. after   12 cycles
 Normal termination of Gaussian 16 at Sat Apr  5 22:34:12 2025.
 Gaussian 16:  ES64L-G16RevC.01  3-Jul-2019

 ----------------------------------------------------------------------
 #t hf aug-cc-pvdz iop(5/13=1,5/36=2,99/5=2) pseudo=read geom=check gue
 ss=(read,tcheck) scf=(maxcycle=1)
 ----------------------------------------------------------------------
 -----
 title
 -----
 Structure from the checkpoint file:  "3-3-dimethylbutyne.chk"
 Charge =  0 Multiplicity = 1

                         Standard orientation:
 ---------------------------------------------------------------------
 Center     Atomic      Atomic             Coordinates (Angstroms)
 Number     Number       Type             X           Y           Z
 ---------------------------------------------------------------------
      1          6           0       -0.000000    1.171492    0.000000
      2          6           0       -0.000000   -0.297053   -0.000000
      3          6           0        1.456381   -0.805220   -0.000000
      4          6           0       -0.728190   -0.805220    1.261263
      5          6           0       -0.728190   -0.805220   -1.261263
      6          6           0       -0.000000    2.371824    0.000000
      7          1           0       -0.000000    3.433077    0.000000
      8          1           0        1.469839   -1.896499   -0.000000
      9          1           0       -0.734919   -1.896499    1.272918
     10          1           0       -0.734919   -1.896499   -1.272918
     11          1           0        1.990948   -0.454532   -0.882465
     12          1           0        1.990948   -0.454532    0.882465
     13          1           0       -0.231237   -0.454532    2.165444
     14          1           0       -1.759711   -0.454532    1.282979
     15          1           0       -1.759711   -0.454532   -1.282979
     16          1           0       -0.231237   -0.454532   -2.165444
 ---------------------------------------------------------------------

 SCF Done:  E(RHF) =  -233.070852931     A.U. after    2 cycles

 The electronic state is 1-A'.
 Alpha  occ. eigenvalues --  -11.27127 -11.23867 -11.22978 -11.22978 -11.22968
 Alpha  occ. eigenvalues --  -11.22808  -1.11092  -1.00099  -0.93598  -0.93598
 Alpha  occ. eigenvalues --   -0.81896  -0.70696  -0.65166  -0.60982  -0.60982
 Alpha  occ. eigenvalues --   -0.55285  -0.55285  -0.52284  -0.51408  -0.48597
 Alpha  occ. eigenvalues --   -0.48597  -0.38464  -0.38464
 Alpha virt. eigenvalues --    0.03453   0.04043   0.04970   0.04970   0.06077
 Alpha virt. eigenvalues --    0.07080   0.07080   0.07620   0.07620   0.09560
 Alpha virt. eigenvalues --    0.11083   0.11998   0.11998   0.13174   0.14800

 Mulliken charges:
               1
     1  C   -0.107774
     2  C   -3.358390
     3  C    1.094852
     4  C    1.094853
     5  C    1.094853
     6  C    0.977152
     7  H   -0.543644
     8  H   -0.028463
     9  H   -0.028463
    10  H   -0.028463
    11  H   -0.027752
    12  H   -0.027752
    13  H   -0.027753
    14  H   -0.027751
    15  H   -0.027751
    16  H   -0.027753
 Sum of Mulliken charges =  -0.00000

 Dipole moment (field-independent basis, Debye):
    X=              0.0000    Y=             -0.7458    Z=              0.0000  Tot=              0.7458

 Test job not archived.
 1\1\GINC-SE225\SP\RHF\Aug-CC-pVDZ\C6H10\OHZDE\05-Apr-2025\0\\#t hf aug
 -cc-pvdz iop(5/13=1,5/36=2,99/5=2) pseudo=read geom=check guess=(read,
 tcheck) scf=(maxcycle=1)\\title\\0,1\C,0,0.,0.,1.171492\C,0,0.,0.,-0.2
 97053\C,0,0.,1.456381,-0.80522\C,0,1.261263,-0.72819,-0.80522\C,0,-1.2
 61263,-0.72819,-0.80522\C,0,0.,0.,2.371824\H,0,0.,0.,3.433077\H,0,0.,1
 .469839,-1.896499\H,0,1.272918,-0.734919,-1.896499\H,0,-1.272918,-0.73
 4919,-1.896499\H,0,-0.882465,1.990948,-0.454532\H,0,0.882465,1.990948,
 -0.454532\H,0,2.165444,-0.231237,-0.454532\H,0,1.282979,-1.759711,-0.4

 Normal termination of Gaussian 16 at Sat Apr  5 22:34:47 2025.
