 Gaussian 16, Revision C.01,

 ----------------------------------------------------------------------
 #t hf aug-cc-pvdz symm=none int=(grid=ultrafine) guess=(read,tcheck) s
 table=(opt,rrhf)
 ----------------------------------------------------------------------
 -----
 title
 -----
 Symbolic Z-matrix:
 Charge =  0 Multiplicity = 1

 SCF Done:  E(RHF) =  -268.867099192     A.U. after   13 cycles
 Normal termination of Gaussian 16 at Sat Apr  5 22:34:02 2025.
 Gaussian 16:  ES64L-G16RevC.01  3-Jul-2019

 ----------------------------------------------------------------------
 #t hf aug-cc-pvdz iop(5/13=1,5/36=2,99/5=2) pseudo=read geom=check gue
 ss=(read,tcheck) scf=(maxcycle=1)
 ----------------------------------------------------------------------
 -----
 title
 -----
 Structure from the checkpoint file:  "3-4-dihydro-2H-pyran.chk"
 Charge =  0 Multiplicity = 1

                         Standard orientation:
 ---------------------------------------------------------------------
 Center     Atomic      Atomic             Coordinates (Angstroms)
 Number     Number       Type             X           Y           Z
 ---------------------------------------------------------------------
      1          1           0        1.698238    1.800485   -0.192826
      2          6           0        0.918237    1.060294   -0.079962
      3          1           0       -0.642305    2.415460    0.088334
      4          6           0       -0.370105    1.369715    0.059818
      5          1           0       -2.282342    0.596748   -0.513812
      6          1           0       -1.850400    0.242473    1.140159
      7          6           0       -1.442186    0.317252    0.126593
      8          1           0       -0.784776   -1.061303   -1.405706
      9          1           0       -1.516006   -1.859353   -0.019166
     10          6           0       -0.868229   -1.033211   -0.317152
     11          1           0        0.970892   -2.166720   -0.038422
     12          1           0        0.456412   -1.234431    1.379263
     13          6           0        0.514350   -1.233647    0.285501
     14          8           0        1.429736   -0.201972   -0.110826
 ---------------------------------------------------------------------

 SCF Done:  E(RHF) =  -268.951699561     A.U. after    2 cycles

 The electronic state is 1-A.
 Alpha  occ. eigenvalues --  -20.58774 -11.29226 -11.29067 -11.23808 -11.23626
 Alpha  occ. eigenvalues --  -11.22313  -1.35786  -1.07520  -1.03000  -0.89554
 Alpha  occ. eigenvalues --   -0.86203  -0.73340  -0.70719  -0.64320  -0.63698
 Alpha  occ. eigenvalues --   -0.60204  -0.57554  -0.56773  -0.54210  -0.48401
 Alpha  occ. eigenvalues --   -0.47106  -0.46433  -0.33458
 Alpha virt. eigenvalues --    0.03468   0.04368   0.04722   0.04907   0.06175
 Alpha virt. eigenvalues --    0.06774   0.07250   0.07432   0.11745   0.12420
 Alpha virt. eigenvalues --    0.13658   0.13780   0.14285   0.14782   0.15407

 Mulliken charges:
               1
     1  H   -0.363565
     2  C    0.526641
     3  H   -0.395084
     4  C    0.463195
     5  H   -0.029928
     6  H   -0.035746
     7  C    0.051292
     8  H   -0.144558
     9  H   -0.008395
    10  C    0.124717
    11  H   -0.209922
    12  H   -0.166368
    13  C    0.831129
    14  O   -0.643408
 Sum of Mulliken charges =  -0.00000

 Dipole moment (field-independent basis, Debye):
    X=             -1.4715    Y=             -0.4785    Z=              0.3252  Tot=              1.5812

 Test job not archived.
 1\1\GINC-SE009\SP\RHF\Aug-CC-pVDZ\C5H8O1\OHZDE\05-Apr-2025\0\\#t hf au
 g-cc-pvdz iop(5/13=1,5/36=2,99/5=2) pseudo=read geom=check guess=(read
 ,tcheck) scf=(maxcycle=1)\\title\\0,1\H,0,1.698238,1.800485,-0.192826\
 C,0,0.918237,1.060294,-0.079962\H,0,-0.642305,2.41546,0.088334\C,0,-0.
 370105,1.369715,0.059818\H,0,-2.282342,0.596748,-0.513812\H,0,-1.8504,
 0.242473,1.140159\C,0,-1.442186,0.317252,0.126593\H,0,-0.784776,-1.061
 303,-1.405706\H,0,-1.516006,-1.859353,-0.019166\C,0,-0.868229,-1.03321
 1,-0.317152\H,0,0.970892,-2.16672,-0.038422\H,0,0.456412,-1.234431,1.3

 Normal termination of Gaussian 16 at Sat Apr  5 22:34:39 2025.
