 Gaussian 16, Revision C.01,

 ----------------------------------------------------------------------
 #t hf aug-cc-pvdz symm=none int=(grid=ultrafine) guess=(read,tcheck) s
 table=(opt,rrhf)
 ----------------------------------------------------------------------
 -----
 title
 -----
 Symbolic Z-matrix:
 Charge =  0 Multiplicity = 1

 SCF Done:  E(RHF) =  -766.125419804     A.U. after   15 cycles
 Normal termination of Gaussian 16 at Sat Apr  5 22:33:50 2025.
 Gaussian 16:  ES64L-G16RevC.01  3-Jul-2019

 ----------------------------------------------------------------------
 #t hf aug-cc-pvdz iop(5/13=1,5/36=2,99/5=2) pseudo=read geom=check gue
 ss=(read,tcheck) scf=(maxcycle=1)
 ----------------------------------------------------------------------
 -----
 title
 -----
 Structure from the checkpoint file:  "3-4-difluoro-2-3-dihydro-1-3-thiazole.chk"
 Charge =  0 Multiplicity = 1

                         Standard orientation:
 ---------------------------------------------------------------------
 Center     Atomic      Atomic             Coordinates (Angstroms)
 Number     Number       Type             X           Y           Z
 ---------------------------------------------------------------------
      1         16           0       -1.754466   -0.335189   -0.197249
      2          9           0        1.013789    1.522561   -0.771068
      3          9           0        2.045030   -1.036519    0.178958
      4          7           0        0.632941    0.772412    0.482854
      5          6           0        0.799133   -0.571033    0.149039
      6          6           0       -0.780143    1.004087    0.668274
      7          6           0       -0.280485   -1.267924   -0.221740
      8          1           0       -0.988442    0.907291    1.731910
      9          1           0       -1.050908    1.989954    0.309837
     10          1           0       -0.280179   -2.306271   -0.510189
 ---------------------------------------------------------------------

 SCF Done:  E(RHF) =  -766.266617072     A.U. after    2 cycles

 The electronic state is 1-A.
 Alpha  occ. eigenvalues --  -93.57231 -26.16223 -26.12485 -15.76577 -11.38937
 Alpha  occ. eigenvalues --  -11.34180 -11.31374  -8.87027  -6.21137  -6.21002
 Alpha  occ. eigenvalues --   -6.20583  -1.70574  -1.62512  -1.26906  -1.08031
 Alpha  occ. eigenvalues --   -1.03422  -0.88642  -0.86422  -0.78904  -0.78170
 Alpha  occ. eigenvalues --   -0.76036  -0.73181  -0.71420  -0.69532  -0.62880
 Alpha  occ. eigenvalues --   -0.62259  -0.55849  -0.54236  -0.48465  -0.44772
 Alpha  occ. eigenvalues --   -0.34491
 Alpha virt. eigenvalues --    0.03342   0.03735   0.05153   0.06901   0.07606
 Alpha virt. eigenvalues --    0.08732   0.09371   0.11237   0.12094   0.12535
 Alpha virt. eigenvalues --    0.13488   0.13760   0.15537   0.15826   0.16027

 Mulliken charges:
               1
     1  S    0.443204
     2  F   -0.519821
     3  F   -0.269478
     4  N   -0.315290
     5  C    0.869117
     6  C    0.390810
     7  C   -0.031419
     8  H   -0.102883
     9  H   -0.143641
    10  H   -0.320598
 Sum of Mulliken charges =  -0.00000

 Dipole moment (field-independent basis, Debye):
    X=             -2.9504    Y=             -1.1423    Z=              1.5362  Tot=              3.5171

 Test job not archived.
 1\1\GINC-SE198\SP\RHF\Aug-CC-pVDZ\C3H3F2N1S1\OHZDE\05-Apr-2025\0\\#t h
 f aug-cc-pvdz iop(5/13=1,5/36=2,99/5=2) pseudo=read geom=check guess=(
 read,tcheck) scf=(maxcycle=1)\\title\\0,1\S,0,-1.754466,-0.335189,-0.1
 97249\F,0,1.013789,1.522561,-0.771068\F,0,2.04503,-1.036519,0.178958\N
 ,0,0.632941,0.772412,0.482854\C,0,0.799133,-0.571033,0.149039\C,0,-0.7
 80143,1.004087,0.668274\C,0,-0.280485,-1.267924,-0.22174\H,0,-0.988442
 ,0.907291,1.73191\H,0,-1.050908,1.989954,0.309837\H,0,-0.280179,-2.306
 271,-0.510189\\Version=ES64L-G16RevC.01\State=1-A\HF=-766.2666171\RMSD

 Normal termination of Gaussian 16 at Sat Apr  5 22:34:39 2025.
