 Gaussian 16, Revision C.01,

 ----------------------------------------------------------------------
 #t hf aug-cc-pvdz symm=none int=(grid=ultrafine) guess=(read,tcheck) s
 table=(opt,rrhf)
 ----------------------------------------------------------------------
 -----
 title
 -----
 Symbolic Z-matrix:
 Charge =  0 Multiplicity = 1

 SCF Done:  E(RHF) =  -383.681563978     A.U. after   15 cycles

 1\1\GINC-SE052\Stability\RHF\Aug-CC-pVDZ\C8H10O1\OHZDE\05-Apr-2025\0\\
 #t hf aug-cc-pvdz symm=none int=(grid=ultrafine) guess=(read,tcheck) s
 table=(opt,rrhf)\\title\\0,1\C,0,1.129792,-1.107674,0.\C,0,-0.086067,-
 1.782624,0.\C,0,-1.216225,0.338498,0.\C,0,1.202373,0.281815,0.\C,0,0.,
 1.01365,0.\C,0,-1.265989,-1.051728,0.\C,0,2.538691,0.976753,0.\C,0,0.0
 14913,2.519608,0.\O,0,-2.504718,-1.638916,0.\H,0,2.046577,-1.683971,0.
 \H,0,-0.110692,-2.865937,0.\H,0,-2.147731,0.888906,0.\H,0,2.663768,1.6
 16923,0.876838\H,0,3.353135,0.253692,0.\H,0,2.663768,1.616923,-0.87683

 Normal termination of Gaussian 16 at Sat Apr  5 22:36:10 2025.
 Gaussian 16:  ES64L-G16RevC.01  3-Jul-2019

 ----------------------------------------------------------------------
 #t hf aug-cc-pvdz iop(5/13=1,5/36=2,99/5=2) pseudo=read geom=check gue
 ss=(read,tcheck) scf=(maxcycle=1)
 ----------------------------------------------------------------------
 -----
 title
 -----
 Structure from the checkpoint file:  "3-4-dimethylphenol.chk"
 Charge =  0 Multiplicity = 1

                         Standard orientation:
 ---------------------------------------------------------------------
 Center     Atomic      Atomic             Coordinates (Angstroms)
 Number     Number       Type             X           Y           Z
 ---------------------------------------------------------------------
      1          6           0        1.129792   -1.107674    0.000000
      2          6           0       -0.086067   -1.782624    0.000000
      3          6           0       -1.216225    0.338498    0.000000
      4          6           0        1.202373    0.281815    0.000000
      5          6           0        0.000000    1.013650    0.000000
      6          6           0       -1.265989   -1.051728    0.000000
      7          6           0        2.538691    0.976753    0.000000
      8          6           0        0.014913    2.519608    0.000000
      9          8           0       -2.504718   -1.638916    0.000000
     10          1           0        2.046577   -1.683971    0.000000
     11          1           0       -0.110692   -2.865937    0.000000
     12          1           0       -2.147731    0.888906    0.000000
     13          1           0        2.663768    1.616923    0.876838
     14          1           0        3.353135    0.253692    0.000000
     15          1           0        2.663768    1.616923   -0.876838
     16          1           0       -0.996299    2.922450    0.000000
     17          1           0        0.534083    2.914310    0.876468
     18          1           0        0.534083    2.914310   -0.876468
     19          1           0       -2.407882   -2.596061    0.000000
 ---------------------------------------------------------------------

 SCF Done:  E(RHF) =  -383.798826741     A.U. after    2 cycles

 The electronic state is 1-A'.
 Alpha  occ. eigenvalues --  -20.59989 -11.30600 -11.25035 -11.24268 -11.23642
 Alpha  occ. eigenvalues --  -11.23508 -11.23305 -11.23086 -11.22942  -1.36100
 Alpha  occ. eigenvalues --   -1.14493  -1.04127  -1.02741  -0.94983  -0.91324
 Alpha  occ. eigenvalues --   -0.82859  -0.80771  -0.72115  -0.68241  -0.64605
 Alpha  occ. eigenvalues --   -0.61443  -0.60549  -0.58807  -0.58569  -0.57241
 Alpha  occ. eigenvalues --   -0.55335  -0.54308  -0.53456  -0.49912  -0.48435
 Alpha  occ. eigenvalues --   -0.46884  -0.33506  -0.30696
 Alpha virt. eigenvalues --    0.03261   0.03762   0.04118   0.05402   0.05837
 Alpha virt. eigenvalues --    0.05872   0.07499   0.07807   0.08020   0.10011
 Alpha virt. eigenvalues --    0.10302   0.10907   0.11841   0.12832   0.13454

 Mulliken charges:
               1
     1  C    0.438767
     2  C    0.569453
     3  C    0.643608
     4  C   -0.373733
     5  C   -0.430962
     6  C    0.160023
     7  C    0.556437
     8  C    0.543614
     9  O   -0.592262
    10  H   -0.596246
    11  H   -0.579942
    12  H   -0.580392
    13  H    0.155102
    14  H   -0.271495
    15  H    0.155102
    16  H   -0.255100
    17  H    0.165482
    18  H    0.165482
    19  H    0.127062
 Sum of Mulliken charges =  -0.00000

 Dipole moment (field-independent basis, Debye):
    X=              1.2757    Y=             -0.4844    Z=              0.0000  Tot=              1.3646

 Test job not archived.
 1\1\GINC-SE052\SP\RHF\Aug-CC-pVDZ\C8H10O1\OHZDE\05-Apr-2025\0\\#t hf a
 ug-cc-pvdz iop(5/13=1,5/36=2,99/5=2) pseudo=read geom=check guess=(rea
 d,tcheck) scf=(maxcycle=1)\\title\\0,1\C,0,1.129792,-1.107674,0.\C,0,-
 0.086067,-1.782624,0.\C,0,-1.216225,0.338498,0.\C,0,1.202373,0.281815,
 0.\C,0,0.,1.01365,0.\C,0,-1.265989,-1.051728,0.\C,0,2.538691,0.976753,
 0.\C,0,0.014913,2.519608,0.\O,0,-2.504718,-1.638916,0.\H,0,2.046577,-1
 .683971,0.\H,0,-0.110692,-2.865937,0.\H,0,-2.147731,0.888906,0.\H,0,2.
 663768,1.616923,0.876838\H,0,3.353135,0.253692,0.\H,0,2.663768,1.61692

 Normal termination of Gaussian 16 at Sat Apr  5 22:37:39 2025.
