 Gaussian 16, Revision C.01,

 ----------------------------------------------------------------------
 #t hf aug-cc-pvdz symm=none int=(grid=ultrafine) guess=(read,tcheck) s
 table=(opt,rrhf)
 ----------------------------------------------------------------------
 -----
 title
 -----
 Symbolic Z-matrix:
 Charge =  0 Multiplicity = 1

 SCF Done:  E(RHF) =  -324.807151375     A.U. after   15 cycles
 Normal termination of Gaussian 16 at Sat Apr  5 22:35:48 2025.
 Gaussian 16:  ES64L-G16RevC.01  3-Jul-2019

 ----------------------------------------------------------------------
 #t hf aug-cc-pvdz iop(5/13=1,5/36=2,99/5=2) pseudo=read geom=check gue
 ss=(read,tcheck) scf=(maxcycle=1)
 ----------------------------------------------------------------------
 -----
 title
 -----
 Structure from the checkpoint file:  "3-4-dimethylpyridine.chk"
 Charge =  0 Multiplicity = 1

                         Standard orientation:
 ---------------------------------------------------------------------
 Center     Atomic      Atomic             Coordinates (Angstroms)
 Number     Number       Type             X           Y           Z
 ---------------------------------------------------------------------
      1          6           0        0.121338   -1.552985    0.000000
      2          6           0       -1.266480   -1.587989    0.000000
      3          6           0       -1.384777    0.677563    0.000000
      4          6           0        0.784658   -0.329802    0.000000
      5          6           0        0.000000    0.833406    0.000000
      6          6           0        2.286145   -0.262994    0.000000
      7          6           0        0.610891    2.207110    0.000000
      8          7           0       -2.022279   -0.492366    0.000000
      9          1           0        0.683596   -2.478145    0.000000
     10          1           0       -1.790838   -2.537250    0.000000
     11          1           0       -2.015999    1.561189    0.000000
     12          1           0        2.660028    0.271394    0.876276
     13          1           0        2.724758   -1.259274    0.000000
     14          1           0        2.660028    0.271394   -0.876276
     15          1           0        1.242218    2.367833   -0.877127
     16          1           0       -0.160709    2.975727    0.000000
     17          1           0        1.242218    2.367833    0.877127
 ---------------------------------------------------------------------

 SCF Done:  E(RHF) =  -324.903770924     A.U. after    2 cycles

 The electronic state is 1-A'.
 Alpha  occ. eigenvalues --  -15.62103 -11.27567 -11.27418 -11.26722 -11.24909
 Alpha  occ. eigenvalues --  -11.24520 -11.24123 -11.24077  -1.22640  -1.10291
 Alpha  occ. eigenvalues --   -1.04322  -0.97191  -0.93852  -0.83875  -0.81088
 Alpha  occ. eigenvalues --   -0.68806  -0.68406  -0.63114  -0.60730  -0.58140
 Alpha  occ. eigenvalues --   -0.56536  -0.56276  -0.55687  -0.54207  -0.52196
 Alpha  occ. eigenvalues --   -0.50145  -0.40500  -0.36403  -0.33623
 Alpha virt. eigenvalues --    0.03082   0.03680   0.04374   0.05360   0.05611
 Alpha virt. eigenvalues --    0.06006   0.07436   0.07797   0.08976   0.09408
 Alpha virt. eigenvalues --    0.09958   0.11261   0.11912   0.12410   0.13791

 Mulliken charges:
               1
     1  C    0.883491
     2  C    0.446235
     3  C    0.753460
     4  C   -1.312913
     5  C   -0.144200
     6  C    0.582256
     7  C    0.463679
     8  N   -0.557471
     9  H   -0.508945
    10  H   -0.348163
    11  H   -0.413389
    12  H    0.160159
    13  H   -0.252692
    14  H    0.160159
    15  H    0.155309
    16  H   -0.222282
    17  H    0.155309
 Sum of Mulliken charges =  -0.00000

 Dipole moment (field-independent basis, Debye):
    X=              2.8999    Y=              0.5238    Z=             -0.0000  Tot=              2.9468

 Test job not archived.
 1\1\GINC-SE194\SP\RHF\Aug-CC-pVDZ\C7H9N1\OHZDE\05-Apr-2025\0\\#t hf au
 g-cc-pvdz iop(5/13=1,5/36=2,99/5=2) pseudo=read geom=check guess=(read
 ,tcheck) scf=(maxcycle=1)\\title\\0,1\C,0,0.121338,-1.552985,0.\C,0,-1
 .26648,-1.587989,0.\C,0,-1.384777,0.677563,0.\C,0,0.784658,-0.329802,0
 .\C,0,0.,0.833406,0.\C,0,2.286145,-0.262994,0.\C,0,0.610891,2.20711,0.
 \N,0,-2.022279,-0.492366,0.\H,0,0.683596,-2.478145,0.\H,0,-1.790838,-2
 .53725,0.\H,0,-2.015999,1.561189,0.\H,0,2.660028,0.271394,0.876276\H,0
 ,2.724758,-1.259274,0.\H,0,2.660028,0.271394,-0.876276\H,0,1.242218,2.

 Normal termination of Gaussian 16 at Sat Apr  5 22:36:09 2025.
