 Gaussian 16, Revision C.01,

 ----------------------------------------------------------------------
 #t hf aug-cc-pvdz symm=none int=(grid=ultrafine) guess=(read,tcheck) s
 table=(opt,rrhf)
 ----------------------------------------------------------------------
 -----
 title
 -----
 Symbolic Z-matrix:
 Charge =  0 Multiplicity = 1

 SCF Done:  E(RHF) =  -1221.39537034     A.U. after   15 cycles
 Normal termination of Gaussian 16 at Sat Apr  5 22:34:06 2025.
 Gaussian 16:  ES64L-G16RevC.01  3-Jul-2019

 ----------------------------------------------------------------------
 #t hf aug-cc-pvdz iop(5/13=1,5/36=2,99/5=2) pseudo=read geom=check gue
 ss=(read,tcheck) scf=(maxcycle=1)
 ----------------------------------------------------------------------
 -----
 title
 -----
 Structure from the checkpoint file:  "3-4-dichloro-25H-furanone.chk"
 Charge =  0 Multiplicity = 1

                         Standard orientation:
 ---------------------------------------------------------------------
 Center     Atomic      Atomic             Coordinates (Angstroms)
 Number     Number       Type             X           Y           Z
 ---------------------------------------------------------------------
      1         17           0        2.402272   -0.042851    0.000005
      2         17           0       -0.367558    2.071610   -0.000009
      3          8           0       -1.150297   -1.778025    0.000004
      4          8           0       -2.691642   -0.125826   -0.000006
      5          6           0        0.277440   -1.865987    0.000008
      6          6           0        0.741846   -0.443902    0.000003
      7          6           0       -0.314842    0.367425   -0.000002
      8          6           0       -1.548384   -0.464124   -0.000002
      9          1           0        0.604507   -2.409284   -0.888461
     10          1           0        0.604503   -2.409277    0.888482
 ---------------------------------------------------------------------

 SCF Done:  E(RHF) =  -1221.52746622     A.U. after    2 cycles

 The electronic state is 1-A.
 Alpha  occ. eigenvalues -- -103.71998-103.70131 -20.64603 -20.58289 -11.42535
 Alpha  occ. eigenvalues --  -11.36944 -11.35467 -11.34890 -10.75263 -10.73396
 Alpha  occ. eigenvalues --   -8.41013  -8.40665  -8.40663  -8.39153  -8.38796
 Alpha  occ. eigenvalues --   -8.38795  -1.44859  -1.36440  -1.25549  -1.21178
 Alpha  occ. eigenvalues --   -1.09204  -1.01360  -0.84705  -0.81419  -0.73281
 Alpha  occ. eigenvalues --   -0.73068  -0.68326  -0.66711  -0.61195  -0.60967
 Alpha  occ. eigenvalues --   -0.60462  -0.58333  -0.52837  -0.51611  -0.50904
 Alpha  occ. eigenvalues --   -0.50077  -0.47919  -0.40166
 Alpha virt. eigenvalues --    0.02968   0.04434   0.06040   0.06327   0.07064
 Alpha virt. eigenvalues --    0.08775   0.09297   0.11116   0.11545   0.12734
 Alpha virt. eigenvalues --    0.13311   0.13569   0.14455   0.15591   0.15769

 Mulliken charges:
               1
     1  Cl  -0.162135
     2  Cl  -0.179759
     3  O   -0.584134
     4  O   -0.423779
     5  C    0.847291
     6  C   -0.186701
     7  C    0.302362
     8  C    0.392260
     9  H   -0.002702
    10  H   -0.002703
 Sum of Mulliken charges =  -0.00000

 Dipole moment (field-independent basis, Debye):
    X=              4.4399    Y=             -1.6212    Z=              0.0000  Tot=              4.7266

 Test job not archived.
 1\1\GINC-SE188\SP\RHF\Aug-CC-pVDZ\C4H2Cl2O2\OHZDE\05-Apr-2025\0\\#t hf
  aug-cc-pvdz iop(5/13=1,5/36=2,99/5=2) pseudo=read geom=check guess=(r
 ead,tcheck) scf=(maxcycle=1)\\title\\0,1\Cl,0,2.402272,-0.042853,0.000
 005\Cl,0,-0.367556,2.07161,-0.000009\O,0,-1.150299,-1.778024,0.000004\
 O,0,-2.691642,-0.125824,-0.000006\C,0,0.277438,-1.865987,0.000008\C,0,
 0.741846,-0.443903,0.000003\C,0,-0.314842,0.367425,-0.000002\C,0,-1.54
 8384,-0.464123,-0.000002\H,0,0.604505,-2.409285,-0.888461\H,0,0.604501
 ,-2.409278,0.888482\\Version=ES64L-G16RevC.01\State=1-A\HF=-1221.52746

 Normal termination of Gaussian 16 at Sat Apr  5 22:34:40 2025.
