 Gaussian 16, Revision C.01,

 ----------------------------------------------------------------------
 #t hf aug-cc-pvdz symm=none int=(grid=ultrafine) guess=(read,tcheck) s
 table=(opt,rrhf)
 ----------------------------------------------------------------------
 -----
 title
 -----
 Symbolic Z-matrix:
 Charge =  0 Multiplicity = 1

 SCF Done:  E(RHF) =  -1180.51759384     A.U. after   16 cycles
 Normal termination of Gaussian 16 at Sat Apr  5 22:33:56 2025.
 Gaussian 16:  ES64L-G16RevC.01  3-Jul-2019

 ----------------------------------------------------------------------
 #t hf aug-cc-pvdz iop(5/13=1,5/36=2,99/5=2) pseudo=read geom=check gue
 ss=(read,tcheck) scf=(maxcycle=1)
 ----------------------------------------------------------------------
 -----
 title
 -----
 Structure from the checkpoint file:  "3-4-dichloropyridazine.chk"
 Charge =  0 Multiplicity = 1

                         Standard orientation:
 ---------------------------------------------------------------------
 Center     Atomic      Atomic             Coordinates (Angstroms)
 Number     Number       Type             X           Y           Z
 ---------------------------------------------------------------------
      1         17           0       -1.455409   -1.648364    0.000000
      2         17           0       -1.486903    1.583880    0.000000
      3          7           0        1.107307    1.406825   -0.000000
      4          7           0        2.295689    0.818349   -0.000000
      5          6           0       -0.000224   -0.713003    0.000000
      6          6           0        1.231764   -1.327063   -0.000000
      7          6           0       -0.000000    0.689684   -0.000000
      8          6           0        2.356394   -0.507545   -0.000000
      9          1           0        1.317692   -2.403602   -0.000000
     10          1           0        3.353030   -0.928841   -0.000000
 ---------------------------------------------------------------------

 SCF Done:  E(RHF) =  -1180.62928626     A.U. after    2 cycles

 The electronic state is 1-A'.
 Alpha  occ. eigenvalues -- -103.70373-103.68865 -15.70484 -15.70299 -11.37869
 Alpha  occ. eigenvalues --  -11.36517 -11.31939 -11.30802 -10.73663 -10.72167
 Alpha  occ. eigenvalues --   -8.39405  -8.39067  -8.39060  -8.37908  -8.37569
 Alpha  occ. eigenvalues --   -8.37565  -1.34796  -1.23804  -1.20381  -1.11566
 Alpha  occ. eigenvalues --   -1.08775  -0.92028  -0.89805  -0.75401  -0.73404
 Alpha  occ. eigenvalues --   -0.67258  -0.63383  -0.62638  -0.61739  -0.54097
 Alpha  occ. eigenvalues --   -0.52667  -0.51883  -0.50902  -0.47773  -0.42563
 Alpha  occ. eigenvalues --   -0.41824  -0.39150
 Alpha virt. eigenvalues --    0.02611   0.04518   0.04942   0.06695   0.07365
 Alpha virt. eigenvalues --    0.08634   0.09537   0.10049   0.10781   0.11618
 Alpha virt. eigenvalues --    0.13149   0.13248   0.13647   0.13966   0.15653

 Mulliken charges:
               1
     1  Cl  -0.261152
     2  Cl  -0.198487
     3  N   -0.599154
     4  N   -0.275432
     5  C    0.499739
     6  C    0.862042
     7  C    0.153418
     8  C    0.437223
     9  H   -0.360630
    10  H   -0.257567
 Sum of Mulliken charges =  -0.00000

 Dipole moment (field-independent basis, Debye):
    X=              0.7379    Y=             -3.7381    Z=             -0.0000  Tot=              3.8102

 Test job not archived.
 1\1\GINC-SE187\SP\RHF\Aug-CC-pVDZ\C4H2Cl2N2\OHZDE\05-Apr-2025\0\\#t hf
  aug-cc-pvdz iop(5/13=1,5/36=2,99/5=2) pseudo=read geom=check guess=(r
 ead,tcheck) scf=(maxcycle=1)\\title\\0,1\Cl,0,-1.455409,-1.648364,0.\C
 l,0,-1.486903,1.58388,0.\N,0,1.107307,1.406825,0.\N,0,2.295689,0.81834
 9,0.\C,0,-0.000224,-0.713003,0.\C,0,1.231764,-1.327063,0.\C,0,0.,0.689
 684,0.\C,0,2.356394,-0.507545,0.\H,0,1.317692,-2.403602,0.\H,0,3.35303
 ,-0.928842,0.\\Version=ES64L-G16RevC.01\State=1-A'\HF=-1180.6292863\RM
 SD=1.047e-02\Dipole=0.2903077,-1.4706853,0.\Quadrupole=1.0481956,-0.70

 Normal termination of Gaussian 16 at Sat Apr  5 22:34:41 2025.
