 Gaussian 16, Revision C.01,

 ----------------------------------------------------------------------
 #t hf aug-cc-pvdz symm=none int=(grid=ultrafine) guess=(read,tcheck) s
 table=(opt,rrhf)
 ----------------------------------------------------------------------
 -----
 title
 -----
 Symbolic Z-matrix:
 Charge =  0 Multiplicity = 1

 SCF Done:  E(RHF) =  -426.358450734     A.U. after   13 cycles
 Normal termination of Gaussian 16 at Sat Apr  5 22:33:48 2025.
 Gaussian 16:  ES64L-G16RevC.01  3-Jul-2019

 ----------------------------------------------------------------------
 #t hf aug-cc-pvdz iop(5/13=1,5/36=2,99/5=2) pseudo=read geom=check gue
 ss=(read,tcheck) scf=(maxcycle=1)
 ----------------------------------------------------------------------
 -----
 title
 -----
 Structure from the checkpoint file:  "3-4-difluorofuran.chk"
 Charge =  0 Multiplicity = 1

                         Standard orientation:
 ---------------------------------------------------------------------
 Center     Atomic      Atomic             Coordinates (Angstroms)
 Number     Number       Type             X           Y           Z
 ---------------------------------------------------------------------
      1          9           0        1.398463    1.484940   -0.000003
      2          9           0        1.398463   -1.484940   -0.000003
      3          8           0       -1.779157    0.000000    0.000004
      4          6           0        0.314030    0.712057   -0.000000
      5          6           0        0.314030   -0.712057   -0.000000
      6          6           0       -0.981873    1.104503    0.000002
      7          6           0       -0.981873   -1.104503    0.000002
      8          1           0       -1.462488    2.064029    0.000004
      9          1           0       -1.462488   -2.064029    0.000003
 ---------------------------------------------------------------------

 SCF Done:  E(RHF) =  -426.502662985     A.U. after    2 cycles

 The electronic state is 1-A.
 Alpha  occ. eigenvalues --  -26.16149 -26.16143 -20.66419 -11.35575 -11.35487
 Alpha  occ. eigenvalues --  -11.32466 -11.32439  -1.70371  -1.69842  -1.44739
 Alpha  occ. eigenvalues --   -1.12010  -1.04449  -0.89498  -0.88633  -0.83527
 Alpha  occ. eigenvalues --   -0.78534  -0.78170  -0.76843  -0.75710  -0.71518
 Alpha  occ. eigenvalues --   -0.67345  -0.66572  -0.64359  -0.56380  -0.42807
 Alpha  occ. eigenvalues --   -0.35228
 Alpha virt. eigenvalues --    0.03463   0.04063   0.07009   0.08046   0.08797
 Alpha virt. eigenvalues --    0.10266   0.12274   0.12872   0.12990   0.13681
 Alpha virt. eigenvalues --    0.14639   0.14729   0.15467   0.15537   0.16012

 Mulliken charges:
               1
     1  F   -0.255094
     2  F   -0.255094
     3  O   -0.453841
     4  C    0.151051
     5  C    0.151051
     6  C    0.605122
     7  C    0.605122
     8  H   -0.274158
     9  H   -0.274158
 Sum of Mulliken charges =  -0.00000

 Dipole moment (field-independent basis, Debye):
    X=             -2.0920    Y=             -0.0000    Z=              0.0000  Tot=              2.0920

 Test job not archived.
 1\1\GINC-SE231\SP\RHF\Aug-CC-pVDZ\C4H2F2O1\OHZDE\05-Apr-2025\0\\#t hf
 aug-cc-pvdz iop(5/13=1,5/36=2,99/5=2) pseudo=read geom=check guess=(re
 ad,tcheck) scf=(maxcycle=1)\\title\\0,1\F,0,1.398463,1.48494,-0.000003
 \F,0,1.398463,-1.48494,-0.000003\O,0,-1.779157,0.,0.000004\C,0,0.31403
 ,0.712057,0.\C,0,0.31403,-0.712057,0.\C,0,-0.981873,1.104503,0.000002\
 C,0,-0.981873,-1.104503,0.000002\H,0,-1.462488,2.064029,0.000004\H,0,-
 1.462488,-2.064029,0.000003\\Version=ES64L-G16RevC.01\State=1-A\HF=-42
 6.502663\RMSD=1.235e-02\Dipole=-0.823064,0.,0.0000022\Quadrupole=-2.32

 Normal termination of Gaussian 16 at Sat Apr  5 22:34:38 2025.
