 Gaussian 16, Revision C.01,

 ----------------------------------------------------------------------
 #t hf aug-cc-pvdz symm=none int=(grid=ultrafine) guess=(read,tcheck) s
 table=(opt,rrhf)
 ----------------------------------------------------------------------
 -----
 title
 -----
 Symbolic Z-matrix:
 Charge =  0 Multiplicity = 1

 SCF Done:  E(RHF) =  -284.883255128     A.U. after   13 cycles
 Normal termination of Gaussian 16 at Sat Apr  5 22:34:56 2025.
 Gaussian 16:  ES64L-G16RevC.01  3-Jul-2019

 ----------------------------------------------------------------------
 #t hf aug-cc-pvdz iop(5/13=1,5/36=2,99/5=2) pseudo=read geom=check gue
 ss=(read,tcheck) scf=(maxcycle=1)
 ----------------------------------------------------------------------
 -----
 title
 -----
 Structure from the checkpoint file:  "3-4-dihydro-2H-pyrrol-2-ol.chk"
 Charge =  0 Multiplicity = 1

                         Standard orientation:
 ---------------------------------------------------------------------
 Center     Atomic      Atomic             Coordinates (Angstroms)
 Number     Number       Type             X           Y           Z
 ---------------------------------------------------------------------
      1          8           0        1.940466    0.100077   -0.356377
      2          1           0        2.421588   -0.726471   -0.237956
      3          7           0        0.023471   -1.215094    0.138296
      4          6           0       -1.181592   -0.930797   -0.131038
      5          1           0       -1.898279   -1.715924   -0.357940
      6          6           0        0.758775    0.029689    0.415101
      7          1           0        1.011317    0.022646    1.482130
      8          6           0       -1.554766    0.529531   -0.103113
      9          1           0       -2.214713    0.732484    0.745109
     10          1           0       -2.099834    0.828700   -0.999730
     11          6           0       -0.174244    1.197650    0.045596
     12          1           0       -0.160808    1.988315    0.792056
     13          1           0        0.163676    1.618849   -0.900003
 ---------------------------------------------------------------------

 SCF Done:  E(RHF) =  -284.969136759     A.U. after    2 cycles

 The electronic state is 1-A.
 Alpha  occ. eigenvalues --  -20.57160 -15.62266 -11.31833 -11.29187 -11.25049
 Alpha  occ. eigenvalues --  -11.23712  -1.33290  -1.21742  -1.03014  -0.96317
 Alpha  occ. eigenvalues --   -0.81794  -0.77426  -0.70814  -0.67538  -0.64758
 Alpha  occ. eigenvalues --   -0.60460  -0.56942  -0.52526  -0.51611  -0.51150
 Alpha  occ. eigenvalues --   -0.47040  -0.41666  -0.40958
 Alpha virt. eigenvalues --    0.03291   0.04168   0.04773   0.04820   0.06594
 Alpha virt. eigenvalues --    0.06953   0.07689   0.10679   0.11002   0.12814
 Alpha virt. eigenvalues --    0.13198   0.13871   0.14471   0.15136   0.16209

 Mulliken charges:
               1
     1  O   -0.587161
     2  H    0.133091
     3  N   -0.603312
     4  C    0.367607
     5  H   -0.251726
     6  C    1.103651
     7  H   -0.222936
     8  C    0.218048
     9  H   -0.052823
    10  H   -0.069475
    11  C    0.090046
    12  H   -0.037765
    13  H   -0.087247
 Sum of Mulliken charges =  -0.00000

 Dipole moment (field-independent basis, Debye):
    X=             -2.0469    Y=              0.6119    Z=              0.7581  Tot=              2.2669

 Test job not archived.
 1\1\GINC-SE047\SP\RHF\Aug-CC-pVDZ\C4H7N1O1\OHZDE\05-Apr-2025\0\\#t hf
 aug-cc-pvdz iop(5/13=1,5/36=2,99/5=2) pseudo=read geom=check guess=(re
 ad,tcheck) scf=(maxcycle=1)\\title\\0,1\O,0,1.940466,0.100077,-0.35637
 7\H,0,2.421588,-0.726471,-0.237956\N,0,0.023471,-1.215094,0.138296\C,0
 ,-1.181592,-0.930797,-0.131038\H,0,-1.898279,-1.715924,-0.35794\C,0,0.
 758775,0.029689,0.415101\H,0,1.011317,0.022646,1.48213\C,0,-1.554766,0
 .529531,-0.103113\H,0,-2.214713,0.732484,0.745109\H,0,-2.099834,0.8287
 ,-0.99973\C,0,-0.174244,1.19765,0.045596\H,0,-0.160808,1.988315,0.7920

 Normal termination of Gaussian 16 at Sat Apr  5 22:35:00 2025.
