 Gaussian 16, Revision C.01,

 ----------------------------------------------------------------------
 #t hf aug-cc-pvdz symm=none int=(grid=ultrafine) guess=(read,tcheck) s
 table=(opt,rrhf)
 ----------------------------------------------------------------------
 -----
 title
 -----
 Symbolic Z-matrix:
 Charge =  0 Multiplicity = 1

 SCF Done:  E(RHF) =  -324.806105066     A.U. after   14 cycles
 Normal termination of Gaussian 16 at Sat Apr  5 22:35:48 2025.
 Gaussian 16:  ES64L-G16RevC.01  3-Jul-2019

 ----------------------------------------------------------------------
 #t hf aug-cc-pvdz iop(5/13=1,5/36=2,99/5=2) pseudo=read geom=check gue
 ss=(read,tcheck) scf=(maxcycle=1)
 ----------------------------------------------------------------------
 -----
 title
 -----
 Structure from the checkpoint file:  "3-5-dimethylpyridine.chk"
 Charge =  0 Multiplicity = 1

                         Standard orientation:
 ---------------------------------------------------------------------
 Center     Atomic      Atomic             Coordinates (Angstroms)
 Number     Number       Type             X           Y           Z
 ---------------------------------------------------------------------
      1          6           0       -0.000000   -0.000000   -0.952610
      2          6           0        0.000001    1.139799    1.130184
      3          6           0       -0.000001   -1.139799    1.130184
      4          6           0       -0.000000    1.209041   -0.263066
      5          6           0       -0.000000   -1.209041   -0.263066
      6          6           0       -0.000008    2.530903   -0.981213
      7          6           0        0.000008   -2.530903   -0.981213
      8          7           0        0.000000    0.000000    1.817942
      9          1           0       -0.000000   -0.000000   -2.037504
     10          1           0        0.000003    2.053289    1.716116
     11          1           0       -0.000003   -2.053289    1.716116
     12          1           0        0.000077    3.361966   -0.277021
     13          1           0        0.878860    2.634607   -1.620442
     14          1           0       -0.878973    2.634672   -1.620300
     15          1           0        0.878973   -2.634672   -1.620300
     16          1           0       -0.000077   -3.361966   -0.277021
     17          1           0       -0.878860   -2.634607   -1.620442
 ---------------------------------------------------------------------

 SCF Done:  E(RHF) =  -324.902841321     A.U. after    2 cycles

 The electronic state is 1-A.
 Alpha  occ. eigenvalues --  -15.62456 -11.27139 -11.27125 -11.25446 -11.25315
 Alpha  occ. eigenvalues --  -11.25262 -11.24065 -11.24065  -1.22650  -1.09080
 Alpha  occ. eigenvalues --   -1.06182  -0.95075  -0.94312  -0.84513  -0.80712
 Alpha  occ. eigenvalues --   -0.70403  -0.68260  -0.60441  -0.59540  -0.57889
 Alpha  occ. eigenvalues --   -0.57336  -0.57161  -0.55579  -0.54540  -0.51606
 Alpha  occ. eigenvalues --   -0.50426  -0.40384  -0.36861  -0.33033
 Alpha virt. eigenvalues --    0.03112   0.03625   0.04600   0.04913   0.05539
 Alpha virt. eigenvalues --    0.05878   0.06853   0.08144   0.08380   0.08705
 Alpha virt. eigenvalues --    0.09736   0.11508   0.11874   0.12538   0.13808

 Mulliken charges:
               1
     1  C   -0.572018
     2  C    1.001321
     3  C    1.001321
     4  C   -0.155118
     5  C   -0.155118
     6  C    0.473379
     7  C    0.473379
     8  N   -0.645364
     9  H   -0.617485
    10  H   -0.431464
    11  H   -0.431464
    12  H   -0.147266
    13  H    0.088275
    14  H    0.088307
    15  H    0.088307
    16  H   -0.147266
    17  H    0.088275
 Sum of Mulliken charges =   0.00000

 Dipole moment (field-independent basis, Debye):
    X=             -0.0000    Y=              0.0000    Z=             -2.6693  Tot=              2.6693

 Test job not archived.
 1\1\GINC-SE009\SP\RHF\Aug-CC-pVDZ\C7H9N1\OHZDE\05-Apr-2025\0\\#t hf au
 g-cc-pvdz iop(5/13=1,5/36=2,99/5=2) pseudo=read geom=check guess=(read
 ,tcheck) scf=(maxcycle=1)\\title\\0,1\C,0,0.,0.,-0.95261\C,0,0.000001,
 1.139799,1.130184\C,0,-0.000001,-1.139799,1.130184\C,0,0.,1.209041,-0.
 263066\C,0,0.,-1.209041,-0.263066\C,0,-0.000008,2.530903,-0.981213\C,0
 ,0.000008,-2.530903,-0.981213\N,0,0.,0.,1.817942\H,0,0.,0.,-2.037504\H
 ,0,0.000003,2.053289,1.716116\H,0,-0.000003,-2.053289,1.716116\H,0,0.0
 00077,3.361966,-0.277021\H,0,0.87886,2.634607,-1.620442\H,0,-0.878973,

 Normal termination of Gaussian 16 at Sat Apr  5 22:37:36 2025.
