 Gaussian 16, Revision C.01,

 ----------------------------------------------------------------------
 #t hf aug-cc-pvdz symm=none int=(grid=ultrafine) guess=(read,tcheck) s
 table=(opt,rrhf)
 ----------------------------------------------------------------------
 -----
 title
 -----
 Symbolic Z-matrix:
 Charge =  0 Multiplicity = 1

 SCF Done:  E(RHF) =  -1203.61535533     A.U. after   15 cycles
 Normal termination of Gaussian 16 at Sat Apr  5 22:35:49 2025.
 Gaussian 16:  ES64L-G16RevC.01  3-Jul-2019

 ----------------------------------------------------------------------
 #t hf aug-cc-pvdz iop(5/13=1,5/36=2,99/5=2) pseudo=read geom=check gue
 ss=(read,tcheck) scf=(maxcycle=1)
 ----------------------------------------------------------------------
 -----
 title
 -----
 Structure from the checkpoint file:  "3-5-dichloroaniline.chk"
 Charge =  0 Multiplicity = 1

                         Standard orientation:
 ---------------------------------------------------------------------
 Center     Atomic      Atomic             Coordinates (Angstroms)
 Number     Number       Type             X           Y           Z
 ---------------------------------------------------------------------
      1          6           0       -0.002879    1.733711    0.000000
      2          6           0       -0.000835    1.024148    1.207301
      3          6           0        0.003546   -0.359322    1.183235
      4          6           0        0.006022   -1.085093   -0.000000
      5          6           0        0.003546   -0.359322   -1.183235
      6          6           0       -0.000835    1.024148   -1.207301
      7          7           0        0.050317    3.119086    0.000000
      8          1           0        0.002441    1.548698    2.151914
      9         17           0        0.003546   -1.229071    2.704581
     10          1           0        0.008856   -2.162499   -0.000000
     11         17           0        0.003546   -1.229071   -2.704581
     12          1           0        0.002441    1.548698   -2.151914
     13          1           0       -0.268948    3.575143   -0.838380
     14          1           0       -0.268948    3.575143    0.838380
 ---------------------------------------------------------------------

 SCF Done:  E(RHF) =  -1203.73617881     A.U. after    2 cycles

 The electronic state is 1-A'.
 Alpha  occ. eigenvalues -- -103.67283-103.67283 -15.65185 -11.32833 -11.32833
 Alpha  occ. eigenvalues --  -11.31980 -11.25781 -11.25780 -11.25754 -10.70560
 Alpha  occ. eigenvalues --  -10.70559  -8.36297  -8.36296  -8.35988  -8.35987
 Alpha  occ. eigenvalues --   -8.35972  -8.35971  -1.23288  -1.20040  -1.18901
 Alpha  occ. eigenvalues --   -1.10796  -1.01033  -1.00808  -0.84545  -0.83887
 Alpha  occ. eigenvalues --   -0.72572  -0.72012  -0.68098  -0.64059  -0.61744
 Alpha  occ. eigenvalues --   -0.60508  -0.58353  -0.55664  -0.52918  -0.51875
 Alpha  occ. eigenvalues --   -0.51606  -0.48036  -0.47012  -0.44017  -0.35314
 Alpha  occ. eigenvalues --   -0.32048
 Alpha virt. eigenvalues --    0.02628   0.03877   0.04845   0.05870   0.07476
 Alpha virt. eigenvalues --    0.08570   0.09360   0.09924   0.09959   0.10296
 Alpha virt. eigenvalues --    0.10657   0.12571   0.12987   0.14367   0.15131

 Mulliken charges:
               1
     1  C    0.458244
     2  C    0.913375
     3  C   -0.337682
     4  C    0.966973
     5  C   -0.337682
     6  C    0.913375
     7  N   -0.299285
     8  H   -0.514979
     9  Cl  -0.389074
    10  H   -0.405501
    11  Cl  -0.389074
    12  H   -0.514979
    13  H   -0.031855
    14  H   -0.031855
 Sum of Mulliken charges =  -0.00000

 Dipole moment (field-independent basis, Debye):
    X=             -0.9207    Y=              3.3615    Z=             -0.0000  Tot=              3.4853

 Test job not archived.
 1\1\GINC-SE045\SP\RHF\Aug-CC-pVDZ\C6H5Cl2N1\OHZDE\05-Apr-2025\0\\#t hf
  aug-cc-pvdz iop(5/13=1,5/36=2,99/5=2) pseudo=read geom=check guess=(r
 ead,tcheck) scf=(maxcycle=1)\\title\\0,1\C,0,-0.002611,-1.733711,0.\C,
 0,-0.002408,-1.024146,1.207301\C,0,-0.002408,0.359331,1.183235\C,0,-0.
 002586,1.085107,0.\C,0,-0.002408,0.359331,-1.183235\C,0,-0.002408,-1.0
 24146,-1.207301\N,0,-0.060193,-3.118911,0.\H,0,-0.007345,-1.548683,2.1
 51914\Cl,0,0.000346,1.229076,2.704581\H,0,-0.002009,2.162516,0.\Cl,0,0
 .000346,1.229076,-2.704581\H,0,-0.007345,-1.548683,-2.151914\H,0,0.257

 Normal termination of Gaussian 16 at Sat Apr  5 22:37:35 2025.
