 Gaussian 16, Revision C.01,

 ----------------------------------------------------------------------
 #t hf aug-cc-pvdz symm=none int=(grid=ultrafine) guess=(read,tcheck) s
 table=(opt,rrhf)
 ----------------------------------------------------------------------
 -----
 title
 -----
 Symbolic Z-matrix:
 Charge =  0 Multiplicity = 1

 SCF Done:  E(RHF) =  -536.179497216     A.U. after   16 cycles
 Normal termination of Gaussian 16 at Sat Apr  5 22:35:18 2025.
 Gaussian 16:  ES64L-G16RevC.01  3-Jul-2019

 ----------------------------------------------------------------------
 #t hf aug-cc-pvdz iop(5/13=1,5/36=2,99/5=2) pseudo=read geom=check gue
 ss=(read,tcheck) scf=(maxcycle=1)
 ----------------------------------------------------------------------
 -----
 title
 -----
 Structure from the checkpoint file:  "3-5-difluoro-2-pyridinecarbonitrile.chk"
 Charge =  0 Multiplicity = 1

                         Standard orientation:
 ---------------------------------------------------------------------
 Center     Atomic      Atomic             Coordinates (Angstroms)
 Number     Number       Type             X           Y           Z
 ---------------------------------------------------------------------
      1          9           0       -1.107399    1.972598   -0.000008
      2          9           0        3.142849   -0.010796    0.000001
      3          7           0       -0.115794   -1.478474    0.000005
      4          7           0       -3.450688   -0.659364    0.000001
      5          6           0       -0.881069   -0.381590    0.000001
      6          6           0       -0.318666    0.896498   -0.000003
      7          6           0        1.807176   -0.095422    0.000001
      8          6           0        1.053220    1.060726   -0.000003
      9          6           0        1.201271   -1.347746    0.000005
     10          6           0       -2.305482   -0.546687    0.000001
     11          1           0        1.504868    2.041454   -0.000006
     12          1           0        1.802744   -2.247483    0.000009
 ---------------------------------------------------------------------

 SCF Done:  E(RHF) =  -536.348438865     A.U. after    2 cycles

 The electronic state is 1-A.
 Alpha  occ. eigenvalues --  -26.18656 -26.18496 -15.69780 -15.66053 -11.40433
 Alpha  occ. eigenvalues --  -11.39844 -11.35961 -11.33147 -11.31718 -11.30536
 Alpha  occ. eigenvalues --   -1.72917  -1.72621  -1.30240  -1.21031  -1.14714
 Alpha  occ. eigenvalues --   -1.10388  -0.97045  -0.95271  -0.86565  -0.84130
 Alpha  occ. eigenvalues --   -0.82122  -0.80346  -0.79773  -0.77240  -0.76530
 Alpha  occ. eigenvalues --   -0.69174  -0.65790  -0.63468  -0.61050  -0.56456
 Alpha  occ. eigenvalues --   -0.50715  -0.48888  -0.48088  -0.43799  -0.38776
 Alpha virt. eigenvalues --    0.02562   0.03518   0.03980   0.06467   0.06627
 Alpha virt. eigenvalues --    0.07719   0.07809   0.08798   0.09950   0.11560
 Alpha virt. eigenvalues --    0.12231   0.12348   0.13012   0.13237   0.13918

 Mulliken charges:
               1
     1  F   -0.237648
     2  F   -0.281229
     3  N   -0.513784
     4  N    0.009240
     5  C    1.475438
     6  C    0.080911
     7  C    0.241958
     8  C    0.358603
     9  C    0.743671
    10  C   -1.226257
    11  H   -0.342549
    12  H   -0.308354
 Sum of Mulliken charges =  -0.00000

 Dipole moment (field-independent basis, Debye):
    X=              4.5133    Y=              0.9180    Z=              0.0000  Tot=              4.6057

 Test job not archived.
 1\1\GINC-SE053\SP\RHF\Aug-CC-pVDZ\C6H2F2N2\OHZDE\05-Apr-2025\0\\#t hf
 aug-cc-pvdz iop(5/13=1,5/36=2,99/5=2) pseudo=read geom=check guess=(re
 ad,tcheck) scf=(maxcycle=1)\\title\\0,1\F,0,-1.107399,1.972598,-0.0000
 08\F,0,3.142849,-0.010796,0.000001\N,0,-0.115794,-1.478474,0.000005\N,
 0,-3.450688,-0.659364,0.000001\C,0,-0.881069,-0.38159,0.000001\C,0,-0.
 318666,0.896498,-0.000003\C,0,1.807176,-0.095422,0.000001\C,0,1.05322,
 1.060726,-0.000003\C,0,1.201271,-1.347746,0.000005\C,0,-2.305482,-0.54
 6687,0.000001\H,0,1.504868,2.041454,-0.000006\H,0,1.802744,-2.247483,0

 Normal termination of Gaussian 16 at Sat Apr  5 22:35:55 2025.
