 Gaussian 16, Revision C.01,

 ----------------------------------------------------------------------
 #t hf aug-cc-pvdz symm=none int=(grid=ultrafine) guess=(read,tcheck) s
 table=(opt,rrhf)
 ----------------------------------------------------------------------
 -----
 title
 -----
 Symbolic Z-matrix:
 Charge =  0 Multiplicity = 1

 SCF Done:  E(RHF) =  -631.954288072     A.U. after   15 cycles
 Normal termination of Gaussian 16 at Sat Apr  5 22:36:05 2025.
 Gaussian 16:  ES64L-G16RevC.01  3-Jul-2019

 ----------------------------------------------------------------------
 #t hf aug-cc-pvdz iop(5/13=1,5/36=2,99/5=2) pseudo=read geom=check gue
 ss=(read,tcheck) scf=(maxcycle=1)
 ----------------------------------------------------------------------
 -----
 title
 -----
 Structure from the checkpoint file:  "3-5-difluoronitrobenzene.chk"
 Charge =  0 Multiplicity = 1

                         Standard orientation:
 ---------------------------------------------------------------------
 Center     Atomic      Atomic             Coordinates (Angstroms)
 Number     Number       Type             X           Y           Z
 ---------------------------------------------------------------------
      1          9           0        0.000000    2.343179   -1.982060
      2          9           0       -0.000000   -2.343179   -1.982060
      3          8           0        0.000003   -1.083137    2.779892
      4          8           0       -0.000003    1.083137    2.779892
      5          7           0        0.000000   -0.000000    2.217668
      6          6           0        0.000000   -0.000000    0.737023
      7          6           0        0.000000    1.183547   -1.305000
      8          6           0       -0.000000   -1.183547   -1.305000
      9          6           0       -0.000000   -1.219150    0.077114
     10          6           0        0.000000    1.219150    0.077114
     11          6           0       -0.000000    0.000000   -2.024499
     12          1           0       -0.000000   -2.150455    0.619296
     13          1           0        0.000000    2.150455    0.619296
     14          1           0       -0.000000    0.000000   -3.103967
 ---------------------------------------------------------------------

 SCF Done:  E(RHF) =  -632.155094433     A.U. after    2 cycles

 The electronic state is 1-A.
 Alpha  occ. eigenvalues --  -26.17196 -26.17194 -20.63672 -20.63662 -15.93995
 Alpha  occ. eigenvalues --  -11.38895 -11.38894 -11.35306 -11.30237 -11.30088
 Alpha  occ. eigenvalues --  -11.30086  -1.71281  -1.71244  -1.57176  -1.38710
 Alpha  occ. eigenvalues --   -1.22420  -1.11631  -1.08144  -0.99351  -0.92880
 Alpha  occ. eigenvalues --   -0.89982  -0.83887  -0.82021  -0.78959  -0.78718
 Alpha  occ. eigenvalues --   -0.78453  -0.76497  -0.74716  -0.74085  -0.73977
 Alpha  occ. eigenvalues --   -0.72915  -0.65436  -0.60666  -0.60473  -0.56353
 Alpha  occ. eigenvalues --   -0.53421  -0.53372  -0.49201  -0.40832  -0.39124
 Alpha virt. eigenvalues --    0.01176   0.03032   0.04302   0.04379   0.08368
 Alpha virt. eigenvalues --    0.08518   0.09112   0.09440   0.10133   0.12022
 Alpha virt. eigenvalues --    0.12880   0.12918   0.12954   0.12970   0.13354

 Mulliken charges:
               1
     1  F   -0.307466
     2  F   -0.307466
     3  O   -0.555696
     4  O   -0.555696
     5  N    0.116648
     6  C    1.144831
     7  C    0.285463
     8  C    0.285463
     9  C    0.255668
    10  C    0.255668
    11  C    0.562552
    12  H   -0.393198
    13  H   -0.393198
    14  H   -0.393572
 Sum of Mulliken charges =  -0.00000

 Dipole moment (field-independent basis, Debye):
    X=             -0.0000    Y=             -0.0000    Z=             -3.0507  Tot=              3.0507

 Test job not archived.
 1\1\GINC-SE146\SP\RHF\Aug-CC-pVDZ\C6H3F2N1O2\OHZDE\05-Apr-2025\0\\#t h
 f aug-cc-pvdz iop(5/13=1,5/36=2,99/5=2) pseudo=read geom=check guess=(
 read,tcheck) scf=(maxcycle=1)\\title\\0,1\F,0,0.,2.343179,-1.98206\F,0
 ,0.,-2.343179,-1.98206\O,0,0.000003,-1.083137,2.779892\O,0,-0.000003,1
 .083137,2.779892\N,0,0.,0.,2.217668\C,0,0.,0.,0.737023\C,0,0.,1.183547
 ,-1.305\C,0,0.,-1.183547,-1.305\C,0,0.,-1.21915,0.077114\C,0,0.,1.2191
 5,0.077114\C,0,0.,0.,-2.024499\H,0,0.,-2.150455,0.619296\H,0,0.,2.1504
 55,0.619296\H,0,0.,0.,-3.103967\\Version=ES64L-G16RevC.01\State=1-A\HF

 Normal termination of Gaussian 16 at Sat Apr  5 22:37:35 2025.
