 Gaussian 16, Revision C.01,

 ----------------------------------------------------------------------
 #t hf aug-cc-pvdz symm=none int=(grid=ultrafine) guess=(read,tcheck) s
 table=(opt,rrhf)
 ----------------------------------------------------------------------
 -----
 title
 -----
 Symbolic Z-matrix:
 Charge =  0 Multiplicity = 1

 SCF Done:  E(RHF) =  -383.684003248     A.U. after   15 cycles

 1\1\GINC-SE190\Stability\RHF\Aug-CC-pVDZ\C8H10O1\OHZDE\05-Apr-2025\0\\
 #t hf aug-cc-pvdz symm=none int=(grid=ultrafine) guess=(read,tcheck) s
 table=(opt,rrhf)\\title\\0,1\C,0,0.135051,-1.341137,-0.005889\C,0,-1.2
 64169,0.607942,0.005249\C,0,1.13957,0.84094,-0.006939\C,0,-1.138604,-0
 .78321,0.00133\C,0,1.282088,-0.540466,-0.008323\C,0,-0.131706,1.410882
 ,0.000566\C,0,-2.369752,-1.651925,0.000466\C,0,2.650233,-1.171347,0.00
 6646\O,0,-0.202773,2.77877,0.000841\H,0,0.240904,-2.419111,-0.011504\H
 ,0,-2.248573,1.063933,0.008732\H,0,2.003339,1.491882,-0.01272\H,0,-2.9

 Normal termination of Gaussian 16 at Sat Apr  5 22:36:12 2025.
 Gaussian 16:  ES64L-G16RevC.01  3-Jul-2019

 ----------------------------------------------------------------------
 #t hf aug-cc-pvdz iop(5/13=1,5/36=2,99/5=2) pseudo=read geom=check gue
 ss=(read,tcheck) scf=(maxcycle=1)
 ----------------------------------------------------------------------
 -----
 title
 -----
 Structure from the checkpoint file:  "3-5-dimethylphenol.chk"
 Charge =  0 Multiplicity = 1

                         Standard orientation:
 ---------------------------------------------------------------------
 Center     Atomic      Atomic             Coordinates (Angstroms)
 Number     Number       Type             X           Y           Z
 ---------------------------------------------------------------------
      1          6           0        0.135051   -1.341137   -0.005889
      2          6           0       -1.264169    0.607941    0.005249
      3          6           0        1.139570    0.840940   -0.006939
      4          6           0       -1.138604   -0.783210    0.001330
      5          6           0        1.282088   -0.540466   -0.008323
      6          6           0       -0.131706    1.410882    0.000566
      7          6           0       -2.369751   -1.651926    0.000466
      8          6           0        2.650233   -1.171346    0.006646
      9          8           0       -0.202774    2.778770    0.000841
     10          1           0        0.240905   -2.419111   -0.011504
     11          1           0       -2.248573    1.063932    0.008732
     12          1           0        2.003339    1.491882   -0.012720
     13          1           0       -2.995986   -1.450771    0.871977
     14          1           0       -2.981562   -1.469037   -0.885355
     15          1           0       -2.107932   -2.708819    0.013301
     16          1           0        3.426357   -0.446249   -0.234263
     17          1           0        2.878025   -1.585951    0.991583
     18          1           0        2.715993   -1.990402   -0.710787
     19          1           0       -1.124646    3.054300    0.003665
 ---------------------------------------------------------------------

 SCF Done:  E(RHF) =  -383.801416519     A.U. after    2 cycles

 The electronic state is 1-A.
 Alpha  occ. eigenvalues --  -20.60152 -11.30990 -11.25458 -11.25273 -11.23516
 Alpha  occ. eigenvalues --  -11.23245 -11.23017 -11.22533 -11.22313  -1.36303
 Alpha  occ. eigenvalues --   -1.14398  -1.05248  -1.01533  -0.93761  -0.93329
 Alpha  occ. eigenvalues --   -0.83013  -0.79550  -0.72169  -0.68412  -0.66121
 Alpha  occ. eigenvalues --   -0.60545  -0.59895  -0.57959  -0.57838  -0.57204
 Alpha  occ. eigenvalues --   -0.56909  -0.55484  -0.52537  -0.50534  -0.48540
 Alpha  occ. eigenvalues --   -0.46482  -0.32780  -0.31426
 Alpha virt. eigenvalues --    0.03211   0.03853   0.04140   0.05477   0.05541
 Alpha virt. eigenvalues --    0.05865   0.06401   0.07472   0.08103   0.09882
 Alpha virt. eigenvalues --    0.10245   0.11449   0.11873   0.12348   0.13360

 Mulliken charges:
               1
     1  C    0.614097
     2  C    0.741034
     3  C    0.926739
     4  C   -0.547087
     5  C   -0.207800
     6  C   -0.097656
     7  C    0.467466
     8  C    0.408193
     9  O   -0.595576
    10  H   -0.626597
    11  H   -0.657101
    12  H   -0.559673
    13  H    0.101462
    14  H    0.108562
    15  H   -0.192199
    16  H   -0.158863
    17  H    0.115370
    18  H    0.025600
    19  H    0.134029
 Sum of Mulliken charges =   0.00000

 Dipole moment (field-independent basis, Debye):
    X=             -1.3186    Y=             -0.8893    Z=              0.0251  Tot=              1.5906

 Test job not archived.
 1\1\GINC-SE190\SP\RHF\Aug-CC-pVDZ\C8H10O1\OHZDE\05-Apr-2025\0\\#t hf a
 ug-cc-pvdz iop(5/13=1,5/36=2,99/5=2) pseudo=read geom=check guess=(rea
 d,tcheck) scf=(maxcycle=1)\\title\\0,1\C,0,0.135051,-1.341137,-0.00588
 9\C,0,-1.264169,0.607942,0.005249\C,0,1.13957,0.84094,-0.006939\C,0,-1
 .138604,-0.78321,0.00133\C,0,1.282088,-0.540466,-0.008323\C,0,-0.13170
 6,1.410882,0.000566\C,0,-2.369752,-1.651925,0.000466\C,0,2.650233,-1.1
 71347,0.006646\O,0,-0.202773,2.77877,0.000841\H,0,0.240904,-2.419111,-
 0.011504\H,0,-2.248573,1.063933,0.008732\H,0,2.003339,1.491882,-0.0127

 Normal termination of Gaussian 16 at Sat Apr  5 22:37:40 2025.
