 Gaussian 16, Revision C.01,

 ----------------------------------------------------------------------
 #t hf aug-cc-pvdz symm=none int=(grid=ultrafine) guess=(read,tcheck) s
 table=(opt,rrhf)
 ----------------------------------------------------------------------
 -----
 title
 -----
 Symbolic Z-matrix:
 Charge =  0 Multiplicity = 1

 SCF Done:  E(RHF) =  -1056.53129289     A.U. after   15 cycles
 Normal termination of Gaussian 16 at Sat Apr  5 22:36:23 2025.
 Gaussian 16:  ES64L-G16RevC.01  3-Jul-2019

 ----------------------------------------------------------------------
 #t hf aug-cc-pvdz iop(5/13=1,5/36=2,99/5=2) pseudo=read geom=check gue
 ss=(read,tcheck) scf=(maxcycle=1)
 ----------------------------------------------------------------------
 -----
 title
 -----
 Structure from the checkpoint file:  "3-7lambda4-dithia-6-8-diazabicyclo3-3-0octa-1-4-6-7-tetraene.chk"
 Charge =  0 Multiplicity = 1

                         Standard orientation:
 ---------------------------------------------------------------------
 Center     Atomic      Atomic             Coordinates (Angstroms)
 Number     Number       Type             X           Y           Z
 ---------------------------------------------------------------------
      1         16           0        0.000000   -0.000000    2.365328
      2         16           0        0.000000    0.000000   -2.307684
      3          7           0        0.000000    1.264006   -1.291328
      4          7           0       -0.000000   -1.264006   -1.291328
      5          6           0        0.000000    0.729665   -0.053183
      6          6           0       -0.000000   -0.729665   -0.053183
      7          6           0        0.000000    1.267958    1.226307
      8          6           0       -0.000000   -1.267958    1.226307
      9          1           0        0.000000    2.296156    1.539395
     10          1           0       -0.000000   -2.296156    1.539395
 ---------------------------------------------------------------------

 SCF Done:  E(RHF) =  -1056.65937109     A.U. after    2 cycles

 The electronic state is 1-A1.
 Alpha  occ. eigenvalues --  -93.66192 -93.61041 -15.68096 -15.68085 -11.30531
 Alpha  occ. eigenvalues --  -11.30458 -11.28971 -11.28946  -8.95160  -8.90642
 Alpha  occ. eigenvalues --   -6.29295  -6.29046  -6.28773  -6.24719  -6.24606
 Alpha  occ. eigenvalues --   -6.24323  -1.31755  -1.17085  -1.16204  -1.00171
 Alpha  occ. eigenvalues --   -0.98472  -0.84428  -0.79741  -0.77235  -0.67274
 Alpha  occ. eigenvalues --   -0.64403  -0.62131  -0.57754  -0.55723  -0.51103
 Alpha  occ. eigenvalues --   -0.49295  -0.48164  -0.46701  -0.45492  -0.35149
 Alpha  occ. eigenvalues --   -0.30219
 Alpha virt. eigenvalues --   -0.00404   0.03691   0.04000   0.06331   0.07962
 Alpha virt. eigenvalues --    0.08499   0.09789   0.10300   0.10334   0.12045
 Alpha virt. eigenvalues --    0.13015   0.13265   0.13294   0.14003   0.15006

 Mulliken charges:
               1
     1  S    1.097420
     2  S    1.172580
     3  N   -1.183524
     4  N   -1.183524
     5  C    0.299480
     6  C    0.299480
     7  C    0.069006
     8  C    0.069006
     9  H   -0.319962
    10  H   -0.319962
 Sum of Mulliken charges =   0.00000

 Dipole moment (field-independent basis, Debye):
    X=              0.0000    Y=             -0.0000    Z=              1.3994  Tot=              1.3994

 Test job not archived.
 1\1\GINC-SE052\SP\RHF\Aug-CC-pVDZ\C4H2N2S2\OHZDE\05-Apr-2025\0\\#t hf
 aug-cc-pvdz iop(5/13=1,5/36=2,99/5=2) pseudo=read geom=check guess=(re
 ad,tcheck) scf=(maxcycle=1)\\title\\0,1\S,0,0.,0.,2.365328\S,0,0.,0.,-
 2.307684\N,0,0.,1.264006,-1.291328\N,0,0.,-1.264006,-1.291328\C,0,0.,0
 .729665,-0.053183\C,0,0.,-0.729665,-0.053183\C,0,0.,1.267958,1.226307\
 C,0,0.,-1.267958,1.226307\H,0,0.,2.296156,1.539395\H,0,0.,-2.296156,1.
 539395\\Version=ES64L-G16RevC.01\State=1-A1\HF=-1056.6593711\RMSD=1.55
 7e-02\Dipole=0.,0.,0.5505838\Quadrupole=-2.3562879,-0.7427982,3.099086

 Normal termination of Gaussian 16 at Sat Apr  5 22:37:35 2025.
