 Gaussian 16, Revision C.01,

 ----------------------------------------------------------------------
 #t hf aug-cc-pvdz symm=none int=(grid=ultrafine) guess=(read,tcheck) s
 table=(opt,rrhf)
 ----------------------------------------------------------------------
 -----
 title
 -----
 Symbolic Z-matrix:
 Charge =  0 Multiplicity = 1

 SCF Done:  E(RHF) =  -467.513362469     A.U. after   15 cycles
 Normal termination of Gaussian 16 at Sat Apr  5 22:38:20 2025.
 Gaussian 16:  ES64L-G16RevC.01  3-Jul-2019

 ----------------------------------------------------------------------
 #t hf aug-cc-pvdz iop(5/13=1,5/36=2,99/5=2) pseudo=read geom=check gue
 ss=(read,tcheck) scf=(maxcycle=1)
 ----------------------------------------------------------------------
 -----
 title
 -----
 Structure from the checkpoint file:  "3-amino-3-cyano-2-iminopropanoic_acid.chk"
 Charge =  0 Multiplicity = 1

                         Standard orientation:
 ---------------------------------------------------------------------
 Center     Atomic      Atomic             Coordinates (Angstroms)
 Number     Number       Type             X           Y           Z
 ---------------------------------------------------------------------
      1          8           0       -1.415386    1.150290    1.034869
      2          8           0       -2.526884   -0.061738   -0.504591
      3          7           0       -0.329637   -1.734260   -0.686231
      4          7           0        2.142867   -1.152163    0.543205
      5          7           0        1.836613    1.901711   -0.939641
      6          6           0       -0.259663   -0.639128   -0.066281
      7          6           0       -1.442454    0.263798    0.223360
      8          6           0        1.089974   -0.157905    0.501868
      9          6           0        1.523271    1.007131   -0.290019
     10          1           0       -3.243142    0.541726   -0.256306
     11          1           0       -1.276668   -1.925711   -1.010760
     12          1           0        2.219932   -1.620473   -0.352294
     13          1           0        1.916260   -1.862476    1.227909
     14          1           0        0.906095    0.208124    1.514324
 ---------------------------------------------------------------------

 SCF Done:  E(RHF) =  -467.652967794     A.U. after    2 cycles

 The electronic state is 1-A.
 Alpha  occ. eigenvalues --  -20.66552 -20.61097 -15.67597 -15.64674 -15.64155
 Alpha  occ. eigenvalues --  -11.44440 -11.35153 -11.34601 -11.29317  -1.46917
 Alpha  occ. eigenvalues --   -1.37331  -1.25798  -1.20705  -1.17757  -1.01626
 Alpha  occ. eigenvalues --   -0.94465  -0.83650  -0.77820  -0.75526  -0.74361
 Alpha  occ. eigenvalues --   -0.69007  -0.66681  -0.66227  -0.64508  -0.60294
 Alpha  occ. eigenvalues --   -0.55764  -0.55013  -0.54478  -0.49163  -0.48056
 Alpha  occ. eigenvalues --   -0.47231  -0.45923  -0.42870
 Alpha virt. eigenvalues --    0.02281   0.03332   0.04083   0.05096   0.05785
 Alpha virt. eigenvalues --    0.06656   0.08805   0.09497   0.10361   0.11066
 Alpha virt. eigenvalues --    0.12535   0.12961   0.13152   0.14150   0.14655

 Mulliken charges:
               1
     1  O   -0.469803
     2  O   -0.556207
     3  N   -0.450501
     4  N   -0.322827
     5  N   -0.179060
     6  C    0.217946
     7  C    0.754894
     8  C    0.945139
     9  C   -0.330771
    10  H    0.242095
    11  H    0.057385
    12  H    0.067252
    13  H    0.023404
    14  H    0.001055
 Sum of Mulliken charges =  -0.00000

 Dipole moment (field-independent basis, Debye):
    X=             -3.9037    Y=             -3.7272    Z=              1.0208  Tot=              5.4930

 Test job not archived.
 1\1\GINC-SE084\SP\RHF\Aug-CC-pVDZ\C4H5N3O2\OHZDE\05-Apr-2025\0\\#t hf
 aug-cc-pvdz iop(5/13=1,5/36=2,99/5=2) pseudo=read geom=check guess=(re
 ad,tcheck) scf=(maxcycle=1)\\title\\0,1\O,0,-1.415386,1.15029,1.034869
 \O,0,-2.526884,-0.061738,-0.504591\N,0,-0.329637,-1.73426,-0.686231\N,
 0,2.142867,-1.152163,0.543205\N,0,1.836613,1.901711,-0.939641\C,0,-0.2
 59663,-0.639128,-0.066281\C,0,-1.442454,0.263798,0.22336\C,0,1.089974,
 -0.157905,0.501868\C,0,1.523271,1.007131,-0.290019\H,0,-3.243142,0.541
 726,-0.256306\H,0,-1.276668,-1.925711,-1.01076\H,0,2.219932,-1.620473,

 Normal termination of Gaussian 16 at Sat Apr  5 22:38:38 2025.
