 Gaussian 16, Revision C.01,

 ----------------------------------------------------------------------
 #t hf aug-cc-pvdz symm=none int=(grid=ultrafine) guess=(read,tcheck) s
 table=(opt,rrhf)
 ----------------------------------------------------------------------
 -----
 title
 -----
 Symbolic Z-matrix:
 Charge =  0 Multiplicity = 1

 SCF Done:  E(RHF) =  -265.060475679     A.U. after   14 cycles
 Normal termination of Gaussian 16 at Sat Apr  5 22:36:31 2025.
 Gaussian 16:  ES64L-G16RevC.01  3-Jul-2019

 ----------------------------------------------------------------------
 #t hf aug-cc-pvdz iop(5/13=1,5/36=2,99/5=2) pseudo=read geom=check gue
 ss=(read,tcheck) scf=(maxcycle=1)
 ----------------------------------------------------------------------
 -----
 title
 -----
 Structure from the checkpoint file:  "3-aminobutyronitrile.chk"
 Charge =  0 Multiplicity = 1

                         Standard orientation:
 ---------------------------------------------------------------------
 Center     Atomic      Atomic             Coordinates (Angstroms)
 Number     Number       Type             X           Y           Z
 ---------------------------------------------------------------------
      1          7           0        2.719618    0.153377   -0.188334
      2          6           0        1.682004   -0.289004    0.037142
      3          6           0        0.346430   -0.814715    0.299669
      4          6           0       -0.763293    0.051501   -0.329333
      5          6           0       -2.127718   -0.576818   -0.072382
      6          7           0       -0.717065    1.384780    0.269645
      7          1           0        0.293437   -1.831487   -0.093339
      8          1           0        0.196590   -0.861421    1.380188
      9          1           0       -0.587244    0.069181   -1.413475
     10          1           0       -2.916735    0.027258   -0.522652
     11          1           0       -2.188243   -1.576132   -0.504413
     12          1           0       -2.323569   -0.642517    0.998642
     13          1           0        0.153061    1.858327    0.055880
     14          1           0       -1.469698    1.963912   -0.080591
 ---------------------------------------------------------------------

 SCF Done:  E(RHF) =  -265.141369322     A.U. after    2 cycles

 The electronic state is 1-A.
 Alpha  occ. eigenvalues --  -15.63690 -15.62008 -11.29582 -11.28854 -11.28680
 Alpha  occ. eigenvalues --  -11.24411  -1.20101  -1.17560  -1.04883  -0.98260
 Alpha  occ. eigenvalues --   -0.82467  -0.70755  -0.68695  -0.67709  -0.59972
 Alpha  occ. eigenvalues --   -0.58403  -0.55269  -0.54099  -0.53101  -0.52375
 Alpha  occ. eigenvalues --   -0.45898  -0.45743  -0.40292
 Alpha virt. eigenvalues --    0.02806   0.03811   0.04281   0.04993   0.06708
 Alpha virt. eigenvalues --    0.06772   0.07515   0.08393   0.10413   0.11573
 Alpha virt. eigenvalues --    0.12653   0.13773   0.14865   0.14941   0.15332

 Mulliken charges:
               1
     1  N   -0.203427
     2  C   -0.268165
     3  C    0.684772
     4  C   -0.382051
     5  C    0.732001
     6  N   -0.283250
     7  H    0.022093
     8  H   -0.006307
     9  H   -0.169076
    10  H   -0.079640
    11  H   -0.046828
    12  H    0.015815
    13  H   -0.004565
    14  H   -0.011373
 Sum of Mulliken charges =   0.00000

 Dipole moment (field-independent basis, Debye):
    X=             -3.9802    Y=             -1.0883    Z=             -0.5925  Tot=              4.1686

 Test job not archived.
 1\1\GINC-SE115\SP\RHF\Aug-CC-pVDZ\C4H8N2\OHZDE\05-Apr-2025\0\\#t hf au
 g-cc-pvdz iop(5/13=1,5/36=2,99/5=2) pseudo=read geom=check guess=(read
 ,tcheck) scf=(maxcycle=1)\\title\\0,1\N,0,2.719618,0.153377,-0.188334\
 C,0,1.682004,-0.289004,0.037142\C,0,0.34643,-0.814715,0.299669\C,0,-0.
 763293,0.051501,-0.329333\C,0,-2.127718,-0.576818,-0.072382\N,0,-0.717
 065,1.38478,0.269645\H,0,0.293437,-1.831487,-0.093339\H,0,0.19659,-0.8
 61421,1.380188\H,0,-0.587244,0.069181,-1.413475\H,0,-2.916735,0.027258
 ,-0.522652\H,0,-2.188243,-1.576132,-0.504413\H,0,-2.323569,-0.642517,0

 Normal termination of Gaussian 16 at Sat Apr  5 22:37:35 2025.
