 Gaussian 16, Revision C.01,

 ----------------------------------------------------------------------
 #t hf aug-cc-pvdz symm=none int=(grid=ultrafine) guess=(read,tcheck) s
 table=(opt,rrhf)
 ----------------------------------------------------------------------
 -----
 title
 -----
 Symbolic Z-matrix:
 Charge =  0 Multiplicity = 1

 SCF Done:  E(RHF) =  -519.655797858     A.U. after   14 cycles
 Normal termination of Gaussian 16 at Sat Apr  5 22:38:08 2025.
 Gaussian 16:  ES64L-G16RevC.01  3-Jul-2019

 ----------------------------------------------------------------------
 #t hf aug-cc-pvdz iop(5/13=1,5/36=2,99/5=2) pseudo=read geom=check gue
 ss=(read,tcheck) scf=(maxcycle=1)
 ----------------------------------------------------------------------
 -----
 title
 -----
 Structure from the checkpoint file:  "3-amino-2-2-difluoropropanoic_acid.chk"
 Charge =  0 Multiplicity = 1

                         Standard orientation:
 ---------------------------------------------------------------------
 Center     Atomic      Atomic             Coordinates (Angstroms)
 Number     Number       Type             X           Y           Z
 ---------------------------------------------------------------------
      1          9           0        0.465018    1.425630    0.535618
      2          9           0        0.389467   -0.599318    1.371080
      3          8           0       -1.954835    0.979221   -0.552404
      4          8           0       -1.763085   -1.212817   -0.059693
      5          7           0        2.517481   -0.276918   -0.574374
      6          6           0        0.176013    0.131313    0.230920
      7          6           0       -1.311942    0.050048   -0.156467
      8          6           0        1.107414   -0.362137   -0.884322
      9          1           0       -2.687110   -1.216711   -0.352628
     10          1           0        2.799763    0.676454   -0.387399
     11          1           0        2.755145   -0.838551    0.232905
     12          1           0        0.841761   -1.396806   -1.101889
     13          1           0        0.892172    0.230650   -1.774659
 ---------------------------------------------------------------------

 SCF Done:  E(RHF) =  -519.827335743     A.U. after    2 cycles

 The electronic state is 1-A.
 Alpha  occ. eigenvalues --  -26.15429 -26.15215 -20.65626 -20.60002 -15.62995
 Alpha  occ. eigenvalues --  -11.45038 -11.43297 -11.30052  -1.71801  -1.67127
 Alpha  occ. eigenvalues --   -1.45879  -1.36369  -1.18434  -1.06521  -0.93155
 Alpha  occ. eigenvalues --   -0.90138  -0.83801  -0.81299  -0.79635  -0.75506
 Alpha  occ. eigenvalues --   -0.74150  -0.71597  -0.70987  -0.68818  -0.67702
 Alpha  occ. eigenvalues --   -0.64935  -0.60420  -0.59328  -0.55884  -0.53183
 Alpha  occ. eigenvalues --   -0.50761  -0.41431
 Alpha virt. eigenvalues --    0.03013   0.04092   0.04929   0.05254   0.08007
 Alpha virt. eigenvalues --    0.08587   0.10176   0.10848   0.11867   0.12042
 Alpha virt. eigenvalues --    0.13012   0.14292   0.14597   0.15427   0.16790

 Mulliken charges:
               1
     1  F   -0.378092
     2  F   -0.390909
     3  O   -0.453471
     4  O   -0.511571
     5  N   -0.355980
     6  C    0.776757
     7  C    0.529356
     8  C    0.606601
     9  H    0.208642
    10  H    0.031171
    11  H    0.026882
    12  H   -0.037301
    13  H   -0.052084
 Sum of Mulliken charges =  -0.00000

 Dipole moment (field-independent basis, Debye):
    X=             -0.2647    Y=             -2.0946    Z=             -0.8833  Tot=              2.2885

 Test job not archived.
 1\1\GINC-SE104\SP\RHF\Aug-CC-pVDZ\C3H5F2N1O2\OHZDE\05-Apr-2025\0\\#t h
 f aug-cc-pvdz iop(5/13=1,5/36=2,99/5=2) pseudo=read geom=check guess=(
 read,tcheck) scf=(maxcycle=1)\\title\\0,1\F,0,0.465018,1.42563,0.53561
 8\F,0,0.389467,-0.599318,1.37108\O,0,-1.954835,0.979221,-0.552404\O,0,
 -1.763085,-1.212817,-0.059693\N,0,2.517481,-0.276918,-0.574374\C,0,0.1
 76013,0.131313,0.23092\C,0,-1.311942,0.050048,-0.156467\C,0,1.107414,-
 0.362137,-0.884322\H,0,-2.68711,-1.216711,-0.352628\H,0,2.799763,0.676
 454,-0.387399\H,0,2.755145,-0.838551,0.232905\H,0,0.841761,-1.396806,-

 Normal termination of Gaussian 16 at Sat Apr  5 22:38:36 2025.
