 Gaussian 16, Revision C.01,

 ----------------------------------------------------------------------
 #t hf aug-cc-pvdz symm=none int=(grid=ultrafine) guess=(read,tcheck) s
 table=(opt,rrhf)
 ----------------------------------------------------------------------
 -----
 title
 -----
 Symbolic Z-matrix:
 Charge =  0 Multiplicity = 1

 SCF Done:  E(RHF) =  -319.513714952     A.U. after   15 cycles
 Normal termination of Gaussian 16 at Sat Apr  5 22:36:14 2025.
 Gaussian 16:  ES64L-G16RevC.01  3-Jul-2019

 ----------------------------------------------------------------------
 #t hf aug-cc-pvdz iop(5/13=1,5/36=2,99/5=2) pseudo=read geom=check gue
 ss=(read,tcheck) scf=(maxcycle=1)
 ----------------------------------------------------------------------
 -----
 title
 -----
 Structure from the checkpoint file:  "3-amino-2-propynoic_acid.chk"
 Charge =  0 Multiplicity = 1

                         Standard orientation:
 ---------------------------------------------------------------------
 Center     Atomic      Atomic             Coordinates (Angstroms)
 Number     Number       Type             X           Y           Z
 ---------------------------------------------------------------------
      1          8           0        1.772604   -1.164175    0.005094
      2          8           0        1.810770    1.063763    0.003743
      3          7           0       -2.805856    0.007250   -0.044985
      4          6           0        1.155229   -0.132919    0.000440
      5          6           0       -0.273472   -0.038262   -0.008028
      6          6           0       -1.481370   -0.002709   -0.003032
      7          1           0        1.173225    1.788219   -0.008235
      8          1           0       -3.302718   -0.848895    0.140583
      9          1           0       -3.298834    0.856562    0.175579
 ---------------------------------------------------------------------

 SCF Done:  E(RHF) =  -319.616211106     A.U. after    2 cycles

 The electronic state is 1-A.
 Alpha  occ. eigenvalues --  -20.62573 -20.55877 -15.69514 -11.41848 -11.32821
 Alpha  occ. eigenvalues --  -11.25959  -1.41857  -1.32954  -1.23927  -1.05050
 Alpha  occ. eigenvalues --   -0.89739  -0.81925  -0.77630  -0.74929  -0.67490
 Alpha  occ. eigenvalues --   -0.64795  -0.61729  -0.55984  -0.50305  -0.48829
 Alpha  occ. eigenvalues --   -0.42850  -0.37638
 Alpha virt. eigenvalues --    0.01631   0.03341   0.04840   0.08784   0.09163
 Alpha virt. eigenvalues --    0.10676   0.11636   0.12239   0.13002   0.13312
 Alpha virt. eigenvalues --    0.14437   0.14769   0.16405   0.18183   0.18482

 Mulliken charges:
               1
     1  O   -0.435283
     2  O   -0.487311
     3  N   -0.098792
     4  C    0.594083
     5  C    0.658937
     6  C   -0.500151
     7  H    0.187805
     8  H    0.038500
     9  H    0.042210
 Sum of Mulliken charges =  -0.00000

 Dipole moment (field-independent basis, Debye):
    X=             -6.7254    Y=              3.0365    Z=              0.6165  Tot=              7.4048

 Test job not archived.
 1\1\GINC-SE129\SP\RHF\Aug-CC-pVDZ\C3H3N1O2\OHZDE\05-Apr-2025\0\\#t hf
 aug-cc-pvdz iop(5/13=1,5/36=2,99/5=2) pseudo=read geom=check guess=(re
 ad,tcheck) scf=(maxcycle=1)\\title\\0,1\O,0,1.772604,-1.164175,0.00509
 4\O,0,1.81077,1.063763,0.003743\N,0,-2.805856,0.00725,-0.044985\C,0,1.
 155229,-0.132919,0.00044\C,0,-0.273472,-0.038262,-0.008028\C,0,-1.4813
 7,-0.002709,-0.003032\H,0,1.173225,1.788219,-0.008235\H,0,-3.302718,-0
 .848895,0.140583\H,0,-3.298834,0.856562,0.175579\\Version=ES64L-G16Rev
 C.01\State=1-A\HF=-319.6162111\RMSD=7.514e-03\Dipole=-2.6459609,1.1946

 Normal termination of Gaussian 16 at Sat Apr  5 22:37:33 2025.
