 Gaussian 16, Revision C.01,

 ----------------------------------------------------------------------
 #t hf aug-cc-pvdz symm=none int=(grid=ultrafine) guess=(read,tcheck) s
 table=(opt,rrhf)
 ----------------------------------------------------------------------
 -----
 title
 -----
 Symbolic Z-matrix:
 Charge =  0 Multiplicity = 1

 SCF Done:  E(RHF) =  -226.017144338     A.U. after   14 cycles
 Normal termination of Gaussian 16 at Sat Apr  5 22:36:14 2025.
 Gaussian 16:  ES64L-G16RevC.01  3-Jul-2019

 ----------------------------------------------------------------------
 #t hf aug-cc-pvdz iop(5/13=1,5/36=2,99/5=2) pseudo=read geom=check gue
 ss=(read,tcheck) scf=(maxcycle=1)
 ----------------------------------------------------------------------
 -----
 title
 -----
 Structure from the checkpoint file:  "3-aminopropionitrile.chk"
 Charge =  0 Multiplicity = 1

                         Standard orientation:
 ---------------------------------------------------------------------
 Center     Atomic      Atomic             Coordinates (Angstroms)
 Number     Number       Type             X           Y           Z
 ---------------------------------------------------------------------
      1          1           0        2.562959   -0.097562    0.819589
      2          1           0        2.562959   -0.097562   -0.819589
      3          7           0        2.216312   -0.578879    0.000000
      4          1           0        0.469894   -1.278430    0.874317
      5          1           0        0.469894   -1.278430   -0.874317
      6          6           0        0.770226   -0.700586    0.000000
      7          1           0        0.275992    1.231576    0.878759
      8          1           0        0.275992    1.231576   -0.878759
      9          6           0        0.000000    0.644465    0.000000
     10          7           0       -2.581961    0.274773    0.000000
     11          6           0       -1.446584    0.459050    0.000000
 ---------------------------------------------------------------------

 SCF Done:  E(RHF) =  -226.086147758     A.U. after    2 cycles

 The electronic state is 1-A'.
 Alpha  occ. eigenvalues --  -15.63887 -15.62931 -11.29402 -11.29322 -11.28851
 Alpha  occ. eigenvalues --   -1.19916  -1.17555  -1.04628  -0.88452  -0.70959
 Alpha  occ. eigenvalues --   -0.70634  -0.63195  -0.62709  -0.57351  -0.54478
 Alpha  occ. eigenvalues --   -0.53114  -0.47046  -0.46018  -0.40556
 Alpha virt. eigenvalues --    0.02449   0.03776   0.04547   0.04865   0.07052
 Alpha virt. eigenvalues --    0.07832   0.09222   0.11011   0.11965   0.13399
 Alpha virt. eigenvalues --    0.13880   0.14387   0.15457   0.16245   0.16766

 Mulliken charges:
               1
     1  H    0.010060
     2  H    0.010060
     3  N   -0.355586
     4  H   -0.148869
     5  H   -0.148869
     6  C    0.681114
     7  H    0.023487
     8  H    0.023487
     9  C    0.426174
    10  N   -0.169785
    11  C   -0.351272
 Sum of Mulliken charges =  -0.00000

 Dipole moment (field-independent basis, Debye):
    X=              3.8870    Y=              1.4981    Z=              0.0000  Tot=              4.1657

 Test job not archived.
 1\1\GINC-SE115\SP\RHF\Aug-CC-pVDZ\C3H6N2\OHZDE\05-Apr-2025\0\\#t hf au
 g-cc-pvdz iop(5/13=1,5/36=2,99/5=2) pseudo=read geom=check guess=(read
 ,tcheck) scf=(maxcycle=1)\\title\\0,1\H,0,2.562959,-0.097562,0.819589\
 H,0,2.562959,-0.097562,-0.819589\N,0,2.216312,-0.578879,0.\H,0,0.46989
 4,-1.27843,0.874317\H,0,0.469894,-1.27843,-0.874317\C,0,0.770226,-0.70
 0586,0.\H,0,0.275992,1.231576,0.878759\H,0,0.275992,1.231576,-0.878759
 \C,0,0.,0.644465,0.\N,0,-2.581961,0.274773,0.\C,0,-1.446584,0.45905,0.
 \\Version=ES64L-G16RevC.01\State=1-A'\HF=-226.0861478\RMSD=3.647e-03\D

 Normal termination of Gaussian 16 at Sat Apr  5 22:37:33 2025.
