 Gaussian 16, Revision C.01,

 ----------------------------------------------------------------------
 #t hf aug-cc-pvdz symm=none int=(grid=ultrafine) guess=(read,tcheck) s
 table=(opt,rrhf)
 ----------------------------------------------------------------------
 -----
 title
 -----
 Symbolic Z-matrix:
 Charge =  0 Multiplicity = 1

 SCF Done:  E(RHF) =  -278.571326885     A.U. after   16 cycles
 Normal termination of Gaussian 16 at Sat Apr  5 22:37:40 2025.
 Gaussian 16:  ES64L-G16RevC.01  3-Jul-2019

 ----------------------------------------------------------------------
 #t hf aug-cc-pvdz iop(5/13=1,5/36=2,99/5=2) pseudo=read geom=check gue
 ss=(read,tcheck) scf=(maxcycle=1)
 ----------------------------------------------------------------------
 -----
 title
 -----
 Structure from the checkpoint file:  "3-azidoprop-1-yne.chk"
 Charge =  0 Multiplicity = 1

                         Standard orientation:
 ---------------------------------------------------------------------
 Center     Atomic      Atomic             Coordinates (Angstroms)
 Number     Number       Type             X           Y           Z
 ---------------------------------------------------------------------
      1          7           0       -0.530767   -0.509584   -0.000040
      2          7           0       -1.711032   -0.172686    0.000014
      3          7           0       -2.824957    0.016559    0.000057
      4          6           0        0.434644    0.619527    0.000002
      5          6           0        1.797538    0.114494   -0.000012
      6          6           0        2.931476   -0.269581   -0.000026
      7          1           0        0.275495    1.245353    0.883766
      8          1           0        0.275500    1.245412   -0.883722
      9          1           0        3.934346   -0.617438   -0.000035
 ---------------------------------------------------------------------

 SCF Done:  E(RHF) =  -278.656587419     A.U. after    2 cycles

 The electronic state is 1-A.
 Alpha  occ. eigenvalues --  -15.85997 -15.74390 -15.68384 -11.32890 -11.26029
 Alpha  occ. eigenvalues --  -11.25186  -1.46388  -1.27570  -1.07686  -0.98646
 Alpha  occ. eigenvalues --   -0.76156  -0.74093  -0.71766  -0.70778  -0.66665
 Alpha  occ. eigenvalues --   -0.63180  -0.62844  -0.45128  -0.41249  -0.41168
 Alpha  occ. eigenvalues --   -0.37859
 Alpha virt. eigenvalues --    0.03292   0.03823   0.04917   0.07950   0.08041
 Alpha virt. eigenvalues --    0.10670   0.11313   0.11430   0.11649   0.12766
 Alpha virt. eigenvalues --    0.13992   0.14991   0.15766   0.16546   0.17087

 Mulliken charges:
               1
     1  N   -0.665370
     2  N    0.478166
     3  N   -0.291625
     4  C    0.616171
     5  C   -0.644990
     6  C    1.039353
     7  H   -0.012196
     8  H   -0.012195
     9  H   -0.507315
 Sum of Mulliken charges =  -0.00000

 Dipole moment (field-independent basis, Debye):
    X=              0.9572    Y=              1.5241    Z=              0.0001  Tot=              1.7998

 Test job not archived.
 1\1\GINC-SE196\SP\RHF\Aug-CC-pVDZ\C3H3N3\OHZDE\05-Apr-2025\0\\#t hf au
 g-cc-pvdz iop(5/13=1,5/36=2,99/5=2) pseudo=read geom=check guess=(read
 ,tcheck) scf=(maxcycle=1)\\title\\0,1\N,0,-0.530767,-0.509584,-0.00004
 \N,0,-1.711032,-0.172686,0.000014\N,0,-2.824957,0.016559,0.000057\C,0,
 0.434644,0.619527,0.000002\C,0,1.797538,0.114494,-0.000012\C,0,2.93147
 6,-0.269581,-0.000026\H,0,0.275495,1.245353,0.883766\H,0,0.2755,1.2454
 12,-0.883722\H,0,3.934346,-0.617438,-0.000035\\Version=ES64L-G16RevC.0
 1\State=1-A\HF=-278.6565874\RMSD=8.309e-03\Dipole=0.3766005,0.5996436,

 Normal termination of Gaussian 16 at Sat Apr  5 22:37:44 2025.
