 Gaussian 16, Revision C.01,

 ----------------------------------------------------------------------
 #t hf aug-cc-pvdz symm=none int=(grid=ultrafine) guess=(read,tcheck) s
 table=(opt,rrhf)
 ----------------------------------------------------------------------
 -----
 title
 -----
 Symbolic Z-matrix:
 Charge =  0 Multiplicity = 1

 SCF Done:  E(RHF) =  -506.461745590     A.U. after   16 cycles
 Normal termination of Gaussian 16 at Sat Apr  5 22:38:55 2025.
 Gaussian 16:  ES64L-G16RevC.01  3-Jul-2019

 ----------------------------------------------------------------------
 #t hf aug-cc-pvdz iop(5/13=1,5/36=2,99/5=2) pseudo=read geom=check gue
 ss=(read,tcheck) scf=(maxcycle=1)
 ----------------------------------------------------------------------
 -----
 title
 -----
 Structure from the checkpoint file:  "3-azidotetrahydropyran-4-one.chk"
 Charge =  0 Multiplicity = 1

                         Standard orientation:
 ---------------------------------------------------------------------
 Center     Atomic      Atomic             Coordinates (Angstroms)
 Number     Number       Type             X           Y           Z
 ---------------------------------------------------------------------
      1          8           0       -2.132717   -1.095340    0.252518
      2          8           0        0.610471    1.752049   -0.467087
      3          7           0        1.491407   -0.901688   -0.337217
      4          7           0        2.510476   -0.318967    0.031214
      5          7           0        3.520422    0.108687    0.290218
      6          6           0        0.232239   -0.500781    0.281776
      7          6           0       -1.595681    1.278882    0.363472
      8          6           0       -0.861691   -1.447344   -0.252856
      9          6           0       -0.161431    0.954486    0.005105
     10          6           0       -2.543735    0.195754   -0.169896
     11          1           0        0.271704   -0.619788    1.372356
     12          1           0       -1.844528    2.263920   -0.029043
     13          1           0       -1.679931    1.309068    1.453493
     14          1           0       -0.657202   -2.466746    0.065853
     15          1           0       -0.850944   -1.418392   -1.349027
     16          1           0       -3.551721    0.340673    0.213185
     17          1           0       -2.583755    0.235389   -1.265368
 ---------------------------------------------------------------------

 SCF Done:  E(RHF) =  -506.614020929     A.U. after    2 cycles

 The electronic state is 1-A.
 Alpha  occ. eigenvalues --  -20.59794 -20.58374 -15.85478 -15.73859 -15.67534
 Alpha  occ. eigenvalues --  -11.36012 -11.31503 -11.31385 -11.31300 -11.26457
 Alpha  occ. eigenvalues --   -1.45822  -1.37934  -1.36438  -1.26914  -1.07830
 Alpha  occ. eigenvalues --   -1.06313  -0.92076  -0.87752  -0.79720  -0.74688
 Alpha  occ. eigenvalues --   -0.71713  -0.71379  -0.69750  -0.67586  -0.66244
 Alpha  occ. eigenvalues --   -0.65651  -0.64926  -0.62362  -0.59902  -0.57505
 Alpha  occ. eigenvalues --   -0.54248  -0.53226  -0.50347  -0.46517  -0.45715
 Alpha  occ. eigenvalues --   -0.42787  -0.37540
 Alpha virt. eigenvalues --    0.02927   0.03802   0.04247   0.05405   0.05995
 Alpha virt. eigenvalues --    0.06190   0.07894   0.09060   0.09705   0.10308
 Alpha virt. eigenvalues --    0.11051   0.11420   0.12301   0.13041   0.13933

 Mulliken charges:
               1
     1  O   -0.679702
     2  O   -0.503343
     3  N   -0.762718
     4  N    0.593356
     5  N   -0.335425
     6  C    0.411143
     7  C    0.242399
     8  C    0.824529
     9  C    0.003996
    10  C    0.737292
    11  H    0.001447
    12  H   -0.060487
    13  H    0.034545
    14  H   -0.186612
    15  H   -0.018013
    16  H   -0.233552
    17  H   -0.068856
 Sum of Mulliken charges =  -0.00000

 Dipole moment (field-independent basis, Debye):
    X=             -3.0710    Y=             -0.5450    Z=              1.1816  Tot=              3.3353

 Test job not archived.
 1\1\GINC-SE041\SP\RHF\Aug-CC-pVDZ\C5H7N3O2\OHZDE\05-Apr-2025\0\\#t hf
 aug-cc-pvdz iop(5/13=1,5/36=2,99/5=2) pseudo=read geom=check guess=(re
 ad,tcheck) scf=(maxcycle=1)\\title\\0,1\O,0,-2.132717,-1.09534,0.25251
 8\O,0,0.610471,1.752049,-0.467087\N,0,1.491407,-0.901688,-0.337217\N,0
 ,2.510476,-0.318967,0.031214\N,0,3.520422,0.108687,0.290218\C,0,0.2322
 39,-0.500781,0.281776\C,0,-1.595681,1.278882,0.363472\C,0,-0.861691,-1
 .447344,-0.252856\C,0,-0.161431,0.954486,0.005105\C,0,-2.543735,0.1957
 54,-0.169896\H,0,0.271704,-0.619788,1.372356\H,0,-1.844528,2.26392,-0.

 Normal termination of Gaussian 16 at Sat Apr  5 22:39:16 2025.
