 Gaussian 16, Revision C.01,

 ----------------------------------------------------------------------
 #t hf aug-cc-pvdz symm=none int=(grid=ultrafine) guess=(read,tcheck) s
 table=(opt,rrhf)
 ----------------------------------------------------------------------
 -----
 title
 -----
 Symbolic Z-matrix:
 Charge =  0 Multiplicity = 1

 SCF Done:  E(RHF) =  -429.551014518     A.U. after   16 cycles
 Normal termination of Gaussian 16 at Sat Apr  5 22:38:07 2025.
 Gaussian 16:  ES64L-G16RevC.01  3-Jul-2019

 ----------------------------------------------------------------------
 #t hf aug-cc-pvdz iop(5/13=1,5/36=2,99/5=2) pseudo=read geom=check gue
 ss=(read,tcheck) scf=(maxcycle=1)
 ----------------------------------------------------------------------
 -----
 title
 -----
 Structure from the checkpoint file:  "3-azido-2-hydroxypropanal.chk"
 Charge =  0 Multiplicity = 1

                         Standard orientation:
 ---------------------------------------------------------------------
 Center     Atomic      Atomic             Coordinates (Angstroms)
 Number     Number       Type             X           Y           Z
 ---------------------------------------------------------------------
      1          8           0       -0.600225   -0.593424    1.360417
      2          8           0       -2.161412   -0.986180   -0.769034
      3          7           0        1.130210    0.592913   -0.768875
      4          7           0        1.938772   -0.211377   -0.307642
      5          7           0        2.733579   -0.958359   -0.022308
      6          6           0       -0.951945    0.534649    0.607097
      7          6           0        0.297309    1.321982    0.196777
      8          6           0       -1.791724    0.146454   -0.592557
      9          1           0       -1.576131    1.219785    1.205469
     10          1           0        0.000108    2.247521   -0.295100
     11          1           0        0.858777    1.579106    1.096908
     12          1           0       -2.066282    0.961562   -1.285775
     13          1           0       -1.063155   -1.351900    0.971304
 ---------------------------------------------------------------------

 SCF Done:  E(RHF) =  -429.682217863     A.U. after    2 cycles

 The electronic state is 1-A.
 Alpha  occ. eigenvalues --  -20.60223 -20.59214 -15.85666 -15.74022 -15.67830
 Alpha  occ. eigenvalues --  -11.36878 -11.32784 -11.31142  -1.46005  -1.39815
 Alpha  occ. eigenvalues --   -1.34506  -1.27014  -1.06859  -0.94316  -0.83264
 Alpha  occ. eigenvalues --   -0.76143  -0.73958  -0.71497  -0.71263  -0.69164
 Alpha  occ. eigenvalues --   -0.66545  -0.65846  -0.61144  -0.58591  -0.57857
 Alpha  occ. eigenvalues --   -0.55951  -0.49999  -0.46566  -0.43633  -0.37940
 Alpha virt. eigenvalues --    0.02616   0.04058   0.04558   0.05696   0.06842
 Alpha virt. eigenvalues --    0.08651   0.08814   0.09990   0.10814   0.12008
 Alpha virt. eigenvalues --    0.12400   0.13468   0.13974   0.14495   0.14972

 Mulliken charges:
               1
     1  O   -0.579933
     2  O   -0.501629
     3  N   -0.703260
     4  N    0.546973
     5  N   -0.306435
     6  C    0.197250
     7  C    0.743145
     8  C    0.746741
     9  H    0.001072
    10  H   -0.126800
    11  H   -0.054741
    12  H   -0.143405
    13  H    0.181022
 Sum of Mulliken charges =  -0.00000

 Dipole moment (field-independent basis, Debye):
    X=             -0.9258    Y=              3.6486    Z=              0.5563  Tot=              3.8051

 Test job not archived.
 1\1\GINC-SE183\SP\RHF\Aug-CC-pVDZ\C3H5N3O2\OHZDE\05-Apr-2025\0\\#t hf
 aug-cc-pvdz iop(5/13=1,5/36=2,99/5=2) pseudo=read geom=check guess=(re
 ad,tcheck) scf=(maxcycle=1)\\title\\0,1\O,0,-0.600225,-0.593424,1.3604
 17\O,0,-2.161412,-0.98618,-0.769034\N,0,1.13021,0.592913,-0.768875\N,0
 ,1.938772,-0.211377,-0.307642\N,0,2.733579,-0.958359,-0.022308\C,0,-0.
 951945,0.534649,0.607097\C,0,0.297309,1.321982,0.196777\C,0,-1.791724,
 0.146454,-0.592557\H,0,-1.576131,1.219785,1.205469\H,0,0.000108,2.2475
 21,-0.2951\H,0,0.858777,1.579106,1.096908\H,0,-2.066282,0.961562,-1.28

 Normal termination of Gaussian 16 at Sat Apr  5 22:38:12 2025.
