 Gaussian 16, Revision C.01,

 ----------------------------------------------------------------------
 #t hf aug-cc-pvdz symm=none int=(grid=ultrafine) guess=(read,tcheck) s
 table=(opt,rrhf)
 ----------------------------------------------------------------------
 -----
 title
 -----
 Symbolic Z-matrix:
 Charge =  0 Multiplicity = 1

 SCF Done:  E(RHF) =  -378.652866102     A.U. after   15 cycles
 Normal termination of Gaussian 16 at Sat Apr  5 22:36:18 2025.
 Gaussian 16:  ES64L-G16RevC.01  3-Jul-2019

 ----------------------------------------------------------------------
 #t hf aug-cc-pvdz iop(5/13=1,5/36=2,99/5=2) pseudo=read geom=check gue
 ss=(read,tcheck) scf=(maxcycle=1)
 ----------------------------------------------------------------------
 -----
 title
 -----
 Structure from the checkpoint file:  "3-azido-2-fluoro-1-propene.chk"
 Charge =  0 Multiplicity = 1

                         Standard orientation:
 ---------------------------------------------------------------------
 Center     Atomic      Atomic             Coordinates (Angstroms)
 Number     Number       Type             X           Y           Z
 ---------------------------------------------------------------------
      1          9           0       -1.641036   -0.642024   -0.961587
      2          7           0        1.087050   -0.943365    0.151427
      3          7           0        1.749753    0.051367   -0.134059
      4          7           0        2.441943    0.885774   -0.448358
      5          6           0       -0.170884   -0.683104    0.894190
      6          6           0       -1.185976    0.068769    0.096722
      7          6           0       -1.642697    1.288657    0.320483
      8          1           0       -0.554963   -1.669771    1.144246
      9          1           0        0.032320   -0.144959    1.821789
     10          1           0       -2.385849    1.733728   -0.323978
     11          1           0       -1.276059    1.856850    1.160784
 ---------------------------------------------------------------------

 SCF Done:  E(RHF) =  -378.773515089     A.U. after    2 cycles

 The electronic state is 1-A.
 Alpha  occ. eigenvalues --  -26.13948 -15.85803 -15.74256 -15.68062 -11.35435
 Alpha  occ. eigenvalues --  -11.31499 -11.25745  -1.67866  -1.46200  -1.27309
 Alpha  occ. eigenvalues --   -1.09856  -0.99654  -0.86133  -0.77970  -0.76002
 Alpha  occ. eigenvalues --   -0.74670  -0.71077  -0.70733  -0.68297  -0.65541
 Alpha  occ. eigenvalues --   -0.61149  -0.59873  -0.57606  -0.44711  -0.39973
 Alpha  occ. eigenvalues --   -0.38186
 Alpha virt. eigenvalues --    0.03098   0.04080   0.04731   0.06722   0.08261
 Alpha virt. eigenvalues --    0.08772   0.09685   0.11063   0.11507   0.12596
 Alpha virt. eigenvalues --    0.14265   0.14941   0.15252   0.15649   0.16660

 Mulliken charges:
               1
     1  F   -0.380863
     2  N   -0.744720
     3  N    0.568265
     4  N   -0.299452
     5  C    0.625503
     6  C    0.338921
     7  C    0.643333
     8  H   -0.088592
     9  H   -0.101339
    10  H   -0.288814
    11  H   -0.272241
 Sum of Mulliken charges =  -0.00000

 Dipole moment (field-independent basis, Debye):
    X=             -0.8917    Y=              1.2978    Z=              2.4461  Tot=              2.9091

 Test job not archived.
 1\1\GINC-SE183\SP\RHF\Aug-CC-pVDZ\C3H4F1N3\OHZDE\05-Apr-2025\0\\#t hf
 aug-cc-pvdz iop(5/13=1,5/36=2,99/5=2) pseudo=read geom=check guess=(re
 ad,tcheck) scf=(maxcycle=1)\\title\\0,1\F,0,-1.641036,-0.642024,-0.961
 587\N,0,1.08705,-0.943365,0.151427\N,0,1.749753,0.051367,-0.134059\N,0
 ,2.441943,0.885774,-0.448358\C,0,-0.170884,-0.683104,0.89419\C,0,-1.18
 5976,0.068769,0.096722\C,0,-1.642697,1.288657,0.320483\H,0,-0.554963,-
 1.669771,1.144246\H,0,0.03232,-0.144959,1.821789\H,0,-2.385849,1.73372
 8,-0.323978\H,0,-1.276059,1.85685,1.160784\\Version=ES64L-G16RevC.01\S

 Normal termination of Gaussian 16 at Sat Apr  5 22:37:35 2025.
