 Gaussian 16, Revision C.01,

 ----------------------------------------------------------------------
 #t hf aug-cc-pvdz symm=none int=(grid=ultrafine) guess=(read,tcheck) s
 table=(opt,rrhf)
 ----------------------------------------------------------------------
 -----
 title
 -----
 Symbolic Z-matrix:
 Charge =  0 Multiplicity = 1

 SCF Done:  E(RHF) =  -229.825240753     A.U. after   14 cycles
 Normal termination of Gaussian 16 at Sat Apr  5 22:37:40 2025.
 Gaussian 16:  ES64L-G16RevC.01  3-Jul-2019

 ----------------------------------------------------------------------
 #t hf aug-cc-pvdz iop(5/13=1,5/36=2,99/5=2) pseudo=read geom=check gue
 ss=(read,tcheck) scf=(maxcycle=1)
 ----------------------------------------------------------------------
 -----
 title
 -----
 Structure from the checkpoint file:  "3-butenal.chk"
 Charge =  0 Multiplicity = 1

                         Standard orientation:
 ---------------------------------------------------------------------
 Center     Atomic      Atomic             Coordinates (Angstroms)
 Number     Number       Type             X           Y           Z
 ---------------------------------------------------------------------
      1          6           0       -2.171508   -0.232104   -0.260028
      2          1           0       -2.449028    0.531540   -0.977091
      3          1           0       -2.897472   -1.011714   -0.074136
      4          6           0       -0.999134   -0.216949    0.359116
      5          1           0       -0.751263   -1.006444    1.058838
      6          6           0        0.047693    0.833307    0.160729
      7          1           0       -0.219239    1.524237   -0.645289
      8          1           0        0.146644    1.464630    1.055798
      9          6           0        1.439026    0.311691   -0.117058
     10          1           0        2.190418    1.104526   -0.313882
     11          8           0        1.760435   -0.847806   -0.120099
 ---------------------------------------------------------------------

 SCF Done:  E(RHF) =  -229.898518727     A.U. after    2 cycles

 The electronic state is 1-A.
 Alpha  occ. eigenvalues --  -20.57815 -11.35113 -11.26358 -11.25329 -11.24060
 Alpha  occ. eigenvalues --   -1.36698  -1.08521  -0.98523  -0.82548  -0.75989
 Alpha  occ. eigenvalues --   -0.69145  -0.66799  -0.63434  -0.60067  -0.58042
 Alpha  occ. eigenvalues --   -0.52149  -0.50882  -0.44400  -0.37613
 Alpha virt. eigenvalues --    0.03196   0.04165   0.04733   0.05506   0.06410
 Alpha virt. eigenvalues --    0.07286   0.09878   0.10657   0.11423   0.12609
 Alpha virt. eigenvalues --    0.12899   0.14296   0.15043   0.15872   0.16207

 Mulliken charges:
               1
     1  C    0.466419
     2  H   -0.280327
     3  H   -0.276655
     4  C    0.733772
     5  H   -0.380154
     6  C   -0.297413
     7  H   -0.058494
     8  H    0.106542
     9  C    0.575711
    10  H   -0.133528
    11  O   -0.455875
 Sum of Mulliken charges =   0.00000

 Dipole moment (field-independent basis, Debye):
    X=             -1.1554    Y=              3.0335    Z=              0.1818  Tot=              3.2512

 Test job not archived.
 1\1\GINC-SE040\SP\RHF\Aug-CC-pVDZ\C4H6O1\OHZDE\05-Apr-2025\0\\#t hf au
 g-cc-pvdz iop(5/13=1,5/36=2,99/5=2) pseudo=read geom=check guess=(read
 ,tcheck) scf=(maxcycle=1)\\title\\0,1\C,0,-2.171508,-0.232104,-0.26002
 8\H,0,-2.449028,0.53154,-0.977091\H,0,-2.897472,-1.011714,-0.074136\C,
 0,-0.999134,-0.216949,0.359116\H,0,-0.751263,-1.006444,1.058838\C,0,0.
 047693,0.833307,0.160729\H,0,-0.219239,1.524237,-0.645289\H,0,0.146644
 ,1.46463,1.055798\C,0,1.439026,0.311691,-0.117058\H,0,2.190418,1.10452
 6,-0.313882\O,0,1.760435,-0.847806,-0.120099\\Version=ES64L-G16RevC.01

 Normal termination of Gaussian 16 at Sat Apr  5 22:37:45 2025.
