 Gaussian 16, Revision C.01,

 ----------------------------------------------------------------------
 #t hf aug-cc-pvdz symm=none int=(grid=ultrafine) guess=(read,tcheck) s
 table=(opt,rrhf)
 ----------------------------------------------------------------------
 -----
 title
 -----
 Symbolic Z-matrix:
 Charge =  0 Multiplicity = 1

 SCF Done:  E(RHF) =  -744.916160163     A.U. after   14 cycles
 Normal termination of Gaussian 16 at Sat Apr  5 22:36:42 2025.
 Gaussian 16:  ES64L-G16RevC.01  3-Jul-2019

 ----------------------------------------------------------------------
 #t hf aug-cc-pvdz iop(5/13=1,5/36=2,99/5=2) pseudo=read geom=check gue
 ss=(read,tcheck) scf=(maxcycle=1)
 ----------------------------------------------------------------------
 -----
 title
 -----
 Structure from the checkpoint file:  "3-chloro-1-3-oxazinane.chk"
 Charge =  0 Multiplicity = 1

                         Standard orientation:
 ---------------------------------------------------------------------
 Center     Atomic      Atomic             Coordinates (Angstroms)
 Number     Number       Type             X           Y           Z
 ---------------------------------------------------------------------
      1         17           0        2.255385    0.055886   -0.086072
      2          8           0       -1.387172   -1.150321    0.406249
      3          7           0        0.508488    0.064813   -0.326125
      4          6           0       -1.587319    1.218175   -0.062742
      5          6           0       -0.127098    1.153328    0.423310
      6          6           0       -2.077147   -0.196737   -0.403529
      7          6           0       -0.016309   -1.252187    0.102890
      8          1           0       -1.663879    1.854374   -0.945176
      9          1           0       -2.199448    1.662233    0.722962
     10          1           0        0.401358    2.076079    0.198723
     11          1           0       -0.078803    0.986178    1.505841
     12          1           0       -1.918611   -0.422066   -1.462420
     13          1           0       -3.133523   -0.327195   -0.179940
     14          1           0        0.473099   -1.609500    1.013006
     15          1           0        0.163451   -1.956766   -0.716465
 ---------------------------------------------------------------------

 SCF Done:  E(RHF) =  -745.022679274     A.U. after    2 cycles

 The electronic state is 1-A.
 Alpha  occ. eigenvalues -- -103.67816 -20.58562 -15.68785 -11.33047 -11.29677
 Alpha  occ. eigenvalues --  -11.27955 -11.24633 -10.70841  -8.36583  -8.36241
 Alpha  occ. eigenvalues --   -8.36209  -1.36157  -1.24214  -1.09046  -1.04517
 Alpha  occ. eigenvalues --   -0.91864  -0.89682  -0.76625  -0.71352  -0.70130
 Alpha  occ. eigenvalues --   -0.68267  -0.61165  -0.59589  -0.57692  -0.56694
 Alpha  occ. eigenvalues --   -0.55341  -0.52877  -0.48840  -0.47838  -0.46273
 Alpha  occ. eigenvalues --   -0.43886  -0.38270
 Alpha virt. eigenvalues --    0.03453   0.04321   0.04616   0.05050   0.06658
 Alpha virt. eigenvalues --    0.06796   0.07030   0.08645   0.09209   0.10860
 Alpha virt. eigenvalues --    0.11612   0.13366   0.14088   0.14676   0.15172

 Mulliken charges:
               1
     1  Cl   0.070414
     2  O   -0.663505
     3  N   -0.891647
     4  C    0.012950
     5  C    0.810095
     6  C    0.774591
     7  C    1.202315
     8  H   -0.051172
     9  H   -0.045790
    10  H   -0.256409
    11  H   -0.135819
    12  H   -0.078082
    13  H   -0.238009
    14  H   -0.284440
    15  H   -0.225491
 Sum of Mulliken charges =  -0.00000

 Dipole moment (field-independent basis, Debye):
    X=             -1.6105    Y=              1.0637    Z=             -0.1491  Tot=              1.9358

 Test job not archived.
 1\1\GINC-SE187\SP\RHF\Aug-CC-pVDZ\C4H8Cl1N1O1\OHZDE\05-Apr-2025\0\\#t
 hf aug-cc-pvdz iop(5/13=1,5/36=2,99/5=2) pseudo=read geom=check guess=
 (read,tcheck) scf=(maxcycle=1)\\title\\0,1\Cl,0,2.255385,0.055886,-0.0
 86072\O,0,-1.387172,-1.150321,0.406249\N,0,0.508488,0.064813,-0.326125
 \C,0,-1.587319,1.218175,-0.062742\C,0,-0.127098,1.153328,0.42331\C,0,-
 2.077147,-0.196737,-0.403529\C,0,-0.016309,-1.252187,0.10289\H,0,-1.66
 3879,1.854374,-0.945176\H,0,-2.199448,1.662233,0.722962\H,0,0.401358,2
 .076079,0.198723\H,0,-0.078803,0.986178,1.505841\H,0,-1.918611,-0.4220

 Normal termination of Gaussian 16 at Sat Apr  5 22:37:36 2025.
