 Gaussian 16, Revision C.01,

 ----------------------------------------------------------------------
 #t hf aug-cc-pvdz symm=none int=(grid=ultrafine) guess=(read,tcheck) s
 table=(opt,rrhf)
 ----------------------------------------------------------------------
 -----
 title
 -----
 Symbolic Z-matrix:
 Charge =  0 Multiplicity = 1

 SCF Done:  E(RHF) =  -1081.28280474     A.U. after   15 cycles
 Normal termination of Gaussian 16 at Sat Apr  5 22:37:48 2025.
 Gaussian 16:  ES64L-G16RevC.01  3-Jul-2019

 ----------------------------------------------------------------------
 #t hf aug-cc-pvdz iop(5/13=1,5/36=2,99/5=2) pseudo=read geom=check gue
 ss=(read,tcheck) scf=(maxcycle=1)
 ----------------------------------------------------------------------
 -----
 title
 -----
 Structure from the checkpoint file:  "3-chloromethyl-1-2-5-thiadiazole.chk"
 Charge =  0 Multiplicity = 1

                         Standard orientation:
 ---------------------------------------------------------------------
 Center     Atomic      Atomic             Coordinates (Angstroms)
 Number     Number       Type             X           Y           Z
 ---------------------------------------------------------------------
      1         17           0        2.634618    0.089972   -0.472541
      2         16           0       -2.226941   -0.407927   -0.293740
      3          7           0       -0.782002   -1.097257    0.085205
      4          7           0       -1.805293    1.168792   -0.048337
      5          6           0        0.046472   -0.123793    0.406185
      6          6           0       -0.547869    1.172036    0.326492
      7          6           0        1.448200   -0.422078    0.812171
      8          1           0       -0.047158    2.105902    0.539835
      9          1           0        1.735384    0.120694    1.707773
     10          1           0        1.584567   -1.487017    0.958257
 ---------------------------------------------------------------------

 SCF Done:  E(RHF) =  -1081.39376055     A.U. after    2 cycles

 The electronic state is 1-A.
 Alpha  occ. eigenvalues -- -103.66739 -93.63338 -15.69221 -15.69199 -11.33425
 Alpha  occ. eigenvalues --  -11.32599 -11.31604 -10.69983  -8.92617  -8.35700
 Alpha  occ. eigenvalues --   -8.35405  -8.35395  -6.26774  -6.26541  -6.26136
 Alpha  occ. eigenvalues --   -1.32421  -1.18837  -1.16295  -1.04938  -0.94556
 Alpha  occ. eigenvalues --   -0.83769  -0.79367  -0.70698  -0.64722  -0.63433
 Alpha  occ. eigenvalues --   -0.61265  -0.56782  -0.53715  -0.50322  -0.47271
 Alpha  occ. eigenvalues --   -0.46531  -0.46125  -0.43444  -0.37152
 Alpha virt. eigenvalues --    0.03176   0.04298   0.05088   0.05826   0.07107
 Alpha virt. eigenvalues --    0.08205   0.08720   0.10235   0.10463   0.12134
 Alpha virt. eigenvalues --    0.12396   0.13690   0.14391   0.14794   0.15659

 Mulliken charges:
               1
     1  Cl  -0.108846
     2  S    1.049223
     3  N   -1.010823
     4  N   -0.928191
     5  C    0.439608
     6  C    0.758505
     7  C    0.009677
     8  H   -0.225253
     9  H    0.042713
    10  H   -0.026612
 Sum of Mulliken charges =   0.00000

 Dipole moment (field-independent basis, Debye):
    X=              0.3336    Y=              0.1586    Z=              1.9908  Tot=              2.0248

 Test job not archived.
 1\1\GINC-SE175\SP\RHF\Aug-CC-pVDZ\C3H3Cl1N2S1\OHZDE\05-Apr-2025\0\\#t
 hf aug-cc-pvdz iop(5/13=1,5/36=2,99/5=2) pseudo=read geom=check guess=
 (read,tcheck) scf=(maxcycle=1)\\title\\0,1\Cl,0,2.634618,0.089972,-0.4
 72541\S,0,-2.226941,-0.407927,-0.29374\N,0,-0.782002,-1.097257,0.08520
 5\N,0,-1.805293,1.168792,-0.048337\C,0,0.046472,-0.123793,0.406185\C,0
 ,-0.547869,1.172036,0.326492\C,0,1.4482,-0.422078,0.812171\H,0,-0.0471
 58,2.105902,0.539835\H,0,1.735384,0.120694,1.707773\H,0,1.584567,-1.48
 7017,0.958257\\Version=ES64L-G16RevC.01\State=1-A\HF=-1081.3937605\RMS

 Normal termination of Gaussian 16 at Sat Apr  5 22:37:53 2025.
