 Gaussian 16, Revision C.01,

 ----------------------------------------------------------------------
 #t hf aug-cc-pvdz symm=none int=(grid=ultrafine) guess=(read,tcheck) s
 table=(opt,rrhf)
 ----------------------------------------------------------------------
 -----
 title
 -----
 Symbolic Z-matrix:
 Charge =  0 Multiplicity = 1

 SCF Done:  E(RHF) =  -764.524094832     A.U. after   15 cycles
 Normal termination of Gaussian 16 at Sat Apr  5 22:38:20 2025.
 Gaussian 16:  ES64L-G16RevC.01  3-Jul-2019

 ----------------------------------------------------------------------
 #t hf aug-cc-pvdz iop(5/13=1,5/36=2,99/5=2) pseudo=read geom=check gue
 ss=(read,tcheck) scf=(maxcycle=1)
 ----------------------------------------------------------------------
 -----
 title
 -----
 Structure from the checkpoint file:  "3-chlorophenol.chk"
 Charge =  0 Multiplicity = 1

                         Standard orientation:
 ---------------------------------------------------------------------
 Center     Atomic      Atomic             Coordinates (Angstroms)
 Number     Number       Type             X           Y           Z
 ---------------------------------------------------------------------
      1          6           0        1.869828   -0.647799   -0.000000
      2          6           0        1.019117   -1.742447   -0.000000
      3          6           0        1.374486    0.652998    0.000000
      4          6           0       -0.877502   -0.243979    0.000000
      5          6           0       -0.358346   -1.536330   -0.000000
      6          6           0       -0.000000    0.831402    0.000000
      7          8           0       -1.160637   -2.640733   -0.000000
      8         17           0       -0.660272    2.455830    0.000000
      9          1           0        2.939624   -0.806173   -0.000000
     10          1           0        1.400483   -2.753177   -0.000000
     11          1           0        2.036335    1.505248    0.000000
     12          1           0       -1.945745   -0.074236    0.000000
     13          1           0       -2.086473   -2.377981   -0.000000
 ---------------------------------------------------------------------

 SCF Done:  E(RHF) =  -764.634876717     A.U. after    2 cycles

 The electronic state is 1-A'.
 Alpha  occ. eigenvalues -- -103.67027 -20.61777 -11.33119 -11.32240 -11.26586
 Alpha  occ. eigenvalues --  -11.26009 -11.25308 -11.24986 -10.70305  -8.36041
 Alpha  occ. eigenvalues --   -8.35734  -8.35718  -1.38116  -1.20287  -1.13499
 Alpha  occ. eigenvalues --   -1.02697  -1.00980  -0.87016  -0.83235  -0.75881
 Alpha  occ. eigenvalues --   -0.70839  -0.67789  -0.62791  -0.62089  -0.60657
 Alpha  occ. eigenvalues --   -0.59899  -0.54696  -0.54392  -0.51894  -0.47252
 Alpha  occ. eigenvalues --   -0.47204  -0.35628  -0.33454
 Alpha virt. eigenvalues --    0.03167   0.03706   0.04771   0.06139   0.06358
 Alpha virt. eigenvalues --    0.08707   0.09602   0.10680   0.10746   0.11746
 Alpha virt. eigenvalues --    0.12716   0.13185   0.13587   0.13973   0.15275

 Mulliken charges:
               1
     1  C    0.789345
     2  C    0.436649
     3  C    0.501078
     4  C    0.641520
     5  C    0.625987
     6  C   -0.342091
     7  O   -0.581755
     8  Cl  -0.384795
     9  H   -0.426394
    10  H   -0.465236
    11  H   -0.420224
    12  H   -0.516631
    13  H    0.142547
 Sum of Mulliken charges =  -0.00000

 Dipole moment (field-independent basis, Debye):
    X=             -0.1548    Y=             -0.8385    Z=             -0.0000  Tot=              0.8527

 Test job not archived.
 1\1\GINC-SE176\SP\RHF\Aug-CC-pVDZ\C6H5Cl1O1\OHZDE\05-Apr-2025\0\\#t hf
  aug-cc-pvdz iop(5/13=1,5/36=2,99/5=2) pseudo=read geom=check guess=(r
 ead,tcheck) scf=(maxcycle=1)\\title\\0,1\C,0,1.869828,-0.647799,0.\C,0
 ,1.019117,-1.742447,0.\C,0,1.374486,0.652998,0.\C,0,-0.877502,-0.24397
 9,0.\C,0,-0.358346,-1.53633,0.\C,0,0.,0.831402,0.\O,0,-1.160637,-2.640
 733,0.\Cl,0,-0.660272,2.45583,0.\H,0,2.939624,-0.806173,0.\H,0,1.40048
 3,-2.753177,0.\H,0,2.036335,1.505248,0.\H,0,-1.945745,-0.074236,0.\H,0
 ,-2.086473,-2.377981,0.\\Version=ES64L-G16RevC.01\State=1-A'\HF=-764.6

 Normal termination of Gaussian 16 at Sat Apr  5 22:38:36 2025.
