 Gaussian 16, Revision C.01,

 ----------------------------------------------------------------------
 #t hf aug-cc-pvdz symm=none int=(grid=ultrafine) guess=(read,tcheck) s
 table=(opt,rrhf)
 ----------------------------------------------------------------------
 -----
 title
 -----
 Symbolic Z-matrix:
 Charge =  0 Multiplicity = 1

 SCF Done:  E(RHF) =  -1140.16071406     A.U. after   16 cycles
 Normal termination of Gaussian 16 at Sat Apr  5 22:36:28 2025.
 Gaussian 16:  ES64L-G16RevC.01  3-Jul-2019

 ----------------------------------------------------------------------
 #t hf aug-cc-pvdz iop(5/13=1,5/36=2,99/5=2) pseudo=read geom=check gue
 ss=(read,tcheck) scf=(maxcycle=1)
 ----------------------------------------------------------------------
 -----
 title
 -----
 Structure from the checkpoint file:  "3-chloro-2-isothiocyanatopropanal.chk"
 Charge =  0 Multiplicity = 1

                         Standard orientation:
 ---------------------------------------------------------------------
 Center     Atomic      Atomic             Coordinates (Angstroms)
 Number     Number       Type             X           Y           Z
 ---------------------------------------------------------------------
      1         17           0       -3.091891   -0.553378   -0.200574
      2         16           0        3.632310   -0.266570   -0.128147
      3          8           0       -0.699111    2.368642   -0.205516
      4          7           0        0.897212   -0.474689    0.245548
      5          6           0       -0.405066   -0.025285   -0.173044
      6          6           0       -1.436255   -1.039052    0.315660
      7          6           0       -0.633145    1.364267    0.442426
      8          6           0        2.069088   -0.345652    0.048062
      9          1           0       -0.443611    0.071906   -1.258723
     10          1           0       -1.234330   -2.019402   -0.103642
     11          1           0       -1.437139   -1.102639    1.400744
     12          1           0       -0.695064    1.370700    1.548388
 ---------------------------------------------------------------------

 SCF Done:  E(RHF) =  -1140.28478339     A.U. after    2 cycles

 The electronic state is 1-A.
 Alpha  occ. eigenvalues -- -103.67914 -93.55266 -20.60833 -15.69546 -11.41248
 Alpha  occ. eigenvalues --  -11.37741 -11.35411 -11.34230 -10.71181  -8.85191
 Alpha  occ. eigenvalues --   -8.36903  -8.36608  -8.36597  -6.19508  -6.18822
 Alpha  occ. eigenvalues --   -6.18776  -1.39812  -1.28990  -1.19758  -1.09871
 Alpha  occ. eigenvalues --   -1.02806  -0.92688  -0.85577  -0.78113  -0.71242
 Alpha  occ. eigenvalues --   -0.69818  -0.65745  -0.62996  -0.61152  -0.59109
 Alpha  occ. eigenvalues --   -0.56954  -0.56326  -0.54940  -0.48414  -0.47618
 Alpha  occ. eigenvalues --   -0.46496  -0.38509  -0.37358
 Alpha virt. eigenvalues --    0.02969   0.03734   0.04693   0.06020   0.06769
 Alpha virt. eigenvalues --    0.07360   0.07860   0.08984   0.09741   0.10480
 Alpha virt. eigenvalues --    0.11234   0.11466   0.11965   0.13922   0.14082

 Mulliken charges:
               1
     1  Cl  -0.094331
     2  S    0.213533
     3  O   -0.417358
     4  N   -0.148307
     5  C    0.341271
     6  C    0.319012
     7  C    0.683285
     8  C   -0.672953
     9  H   -0.206695
    10  H    0.033789
    11  H    0.039266
    12  H   -0.090513
 Sum of Mulliken charges =   0.00000

 Dipole moment (field-independent basis, Debye):
    X=             -0.5143    Y=             -2.6783    Z=              1.4307  Tot=              3.0797

 Test job not archived.
 1\1\GINC-SE226\SP\RHF\Aug-CC-pVDZ\C4H4Cl1N1O1S1\OHZDE\05-Apr-2025\0\\#
 t hf aug-cc-pvdz iop(5/13=1,5/36=2,99/5=2) pseudo=read geom=check gues
 s=(read,tcheck) scf=(maxcycle=1)\\title\\0,1\Cl,0,-3.091891,-0.553378,
 -0.200574\S,0,3.63231,-0.26657,-0.128147\O,0,-0.699111,2.368642,-0.205
 516\N,0,0.897212,-0.474689,0.245548\C,0,-0.405066,-0.025285,-0.173044\
 C,0,-1.436255,-1.039052,0.31566\C,0,-0.633145,1.364267,0.442426\C,0,2.
 069088,-0.345652,0.048062\H,0,-0.443611,0.071906,-1.258723\H,0,-1.2343
 3,-2.019402,-0.103642\H,0,-1.437139,-1.102639,1.400744\H,0,-0.695064,1

 Normal termination of Gaussian 16 at Sat Apr  5 22:37:37 2025.
