 Gaussian 16, Revision C.01,

 ----------------------------------------------------------------------
 #t hf aug-cc-pvdz symm=none int=(grid=ultrafine) guess=(read,tcheck) s
 table=(opt,rrhf)
 ----------------------------------------------------------------------
 -----
 title
 -----
 Symbolic Z-matrix:
 Charge =  0 Multiplicity = 1

 SCF Done:  E(RHF) =  -705.644976464     A.U. after   15 cycles
 Normal termination of Gaussian 16 at Sat Apr  5 22:36:18 2025.
 Gaussian 16:  ES64L-G16RevC.01  3-Jul-2019

 ----------------------------------------------------------------------
 #t hf aug-cc-pvdz iop(5/13=1,5/36=2,99/5=2) pseudo=read geom=check gue
 ss=(read,tcheck) scf=(maxcycle=1)
 ----------------------------------------------------------------------
 -----
 title
 -----
 Structure from the checkpoint file:  "3-chloropyridine.chk"
 Charge =  0 Multiplicity = 1

                         Standard orientation:
 ---------------------------------------------------------------------
 Center     Atomic      Atomic             Coordinates (Angstroms)
 Number     Number       Type             X           Y           Z
 ---------------------------------------------------------------------
      1          6           0        1.207137   -1.555590    0.000000
      2          6           0        1.220086   -0.167956    0.000000
      3          6           0       -0.016035   -2.214360    0.000000
      4          6           0       -1.179306   -0.248424   -0.000000
      5          6           0        0.000000    0.488855   -0.000000
      6          7           0       -1.187738   -1.578485    0.000000
      7         17           0       -0.068149    2.235327   -0.000000
      8          1           0        2.132085   -2.115420    0.000000
      9          1           0        2.145085    0.390219    0.000000
     10          1           0       -0.058137   -3.297055    0.000000
     11          1           0       -2.137626    0.255941   -0.000000
 ---------------------------------------------------------------------

 SCF Done:  E(RHF) =  -705.735208615     A.U. after    2 cycles

 The electronic state is 1-A'.
 Alpha  occ. eigenvalues -- -103.67716 -15.64720 -11.32110 -11.30259 -11.29781
 Alpha  occ. eigenvalues --  -11.28576 -11.26789 -10.70993  -8.36732  -8.36421
 Alpha  occ. eigenvalues --   -8.36402  -1.25577  -1.19033  -1.08644  -1.02878
 Alpha  occ. eigenvalues --   -0.88245  -0.85867  -0.73578  -0.69592  -0.65710
 Alpha  occ. eigenvalues --   -0.61132  -0.59935  -0.57842  -0.54575  -0.50431
 Alpha  occ. eigenvalues --   -0.48478  -0.42709  -0.39749  -0.35617
 Alpha virt. eigenvalues --    0.03000   0.04276   0.04611   0.06031   0.07620
 Alpha virt. eigenvalues --    0.08543   0.08627   0.09802   0.10466   0.12142
 Alpha virt. eigenvalues --    0.12769   0.13315   0.14075   0.14882   0.14940

 Mulliken charges:
               1
     1  C    0.599795
     2  C    0.503823
     3  C    0.522498
     4  C    0.864760
     5  C   -0.214267
     6  N   -0.494702
     7  Cl  -0.357794
     8  H   -0.375924
     9  H   -0.393668
    10  H   -0.340736
    11  H   -0.313786
 Sum of Mulliken charges =  -0.00000

 Dipole moment (field-independent basis, Debye):
    X=              2.0091    Y=             -0.8625    Z=              0.0000  Tot=              2.1864

 Test job not archived.
 1\1\GINC-SE198\SP\RHF\Aug-CC-pVDZ\C5H4Cl1N1\OHZDE\05-Apr-2025\0\\#t hf
  aug-cc-pvdz iop(5/13=1,5/36=2,99/5=2) pseudo=read geom=check guess=(r
 ead,tcheck) scf=(maxcycle=1)\\title\\0,1\C,0,1.207137,-1.55559,0.\C,0,
 1.220086,-0.167956,0.\C,0,-0.016035,-2.21436,0.\C,0,-1.179306,-0.24842
 4,0.\C,0,0.,0.488855,0.\N,0,-1.187738,-1.578485,0.\Cl,0,-0.068149,2.23
 5327,0.\H,0,2.132085,-2.11542,0.\H,0,2.145085,0.390219,0.\H,0,-0.05813
 7,-3.297055,0.\H,0,-2.137626,0.255941,0.\\Version=ES64L-G16RevC.01\Sta
 te=1-A'\HF=-705.7352086\RMSD=9.534e-03\Dipole=0.7904422,-0.3393479,0.\

 Normal termination of Gaussian 16 at Sat Apr  5 22:37:36 2025.
