 Gaussian 16, Revision C.01,

 ----------------------------------------------------------------------
 #t hf aug-cc-pvdz symm=none int=(grid=ultrafine) guess=(read,tcheck) s
 table=(opt,rrhf)
 ----------------------------------------------------------------------
 -----
 title
 -----
 Symbolic Z-matrix:
 Charge =  0 Multiplicity = 1

 SCF Done:  E(RHF) =  -744.693952068     A.U. after   15 cycles
 Normal termination of Gaussian 16 at Sat Apr  5 22:36:45 2025.
 Gaussian 16:  ES64L-G16RevC.01  3-Jul-2019

 ----------------------------------------------------------------------
 #t hf aug-cc-pvdz iop(5/13=1,5/36=2,99/5=2) pseudo=read geom=check gue
 ss=(read,tcheck) scf=(maxcycle=1)
 ----------------------------------------------------------------------
 -----
 title
 -----
 Structure from the checkpoint file:  "3-chloroaniline.chk"
 Charge =  0 Multiplicity = 1

                         Standard orientation:
 ---------------------------------------------------------------------
 Center     Atomic      Atomic             Coordinates (Angstroms)
 Number     Number       Type             X           Y           Z
 ---------------------------------------------------------------------
      1          6           0       -0.725688    1.839957    0.003904
      2          6           0       -1.772672    0.931790   -0.002269
      3          6           0        0.599144    1.416167    0.004591
      4          6           0       -0.184148   -0.880797   -0.007062
      5          6           0       -1.513782   -0.444159   -0.007235
      6          6           0        0.841141    0.050127   -0.000913
      7          7           0       -2.554624   -1.364322   -0.068662
      8         17           0        2.499376   -0.526961    0.002399
      9          1           0       -0.942366    2.899755    0.008952
     10          1           0       -2.796213    1.283658   -0.007912
     11          1           0        1.416937    2.119885    0.009926
     12          1           0        0.045646   -1.937052   -0.016153
     13          1           0       -3.451270   -1.039482    0.252768
     14          1           0       -2.343722   -2.296693    0.246175
 ---------------------------------------------------------------------

 SCF Done:  E(RHF) =  -744.797238299     A.U. after    2 cycles

 The electronic state is 1-A.
 Alpha  occ. eigenvalues -- -103.66261 -15.64131 -11.31393 -11.30473 -11.25897
 Alpha  occ. eigenvalues --  -11.24756 -11.24326 -11.24283 -10.69540  -8.35276
 Alpha  occ. eigenvalues --   -8.34972  -8.34955  -1.21523  -1.18449  -1.11265
 Alpha  occ. eigenvalues --   -1.01222  -0.99054  -0.84592  -0.82472  -0.71549
 Alpha  occ. eigenvalues --   -0.70502  -0.67028  -0.62226  -0.61373  -0.59355
 Alpha  occ. eigenvalues --   -0.56144  -0.53501  -0.51183  -0.50545  -0.46494
 Alpha  occ. eigenvalues --   -0.44469  -0.34726  -0.30787
 Alpha virt. eigenvalues --    0.02890   0.03639   0.04424   0.05793   0.06312
 Alpha virt. eigenvalues --    0.08655   0.09435   0.10008   0.10621   0.11359
 Alpha virt. eigenvalues --    0.11908   0.13214   0.13530   0.13998   0.14421

 Mulliken charges:
               1
     1  C    0.666565
     2  C    0.581619
     3  C    0.489928
     4  C    0.874481
     5  C    0.449061
     6  C   -0.360193
     7  N   -0.295167
     8  Cl  -0.398282
     9  H   -0.425201
    10  H   -0.559522
    11  H   -0.440350
    12  H   -0.502188
    13  H   -0.040985
    14  H   -0.039764
 Sum of Mulliken charges =   0.00000

 Dipole moment (field-independent basis, Debye):
    X=             -2.9791    Y=             -0.1364    Z=              0.9137  Tot=              3.1191

 Test job not archived.
 1\1\GINC-SE046\SP\RHF\Aug-CC-pVDZ\C6H6Cl1N1\OHZDE\05-Apr-2025\0\\#t hf
  aug-cc-pvdz iop(5/13=1,5/36=2,99/5=2) pseudo=read geom=check guess=(r
 ead,tcheck) scf=(maxcycle=1)\\title\\0,1\C,0,-0.725688,1.839957,0.0039
 04\C,0,-1.772672,0.93179,-0.002269\C,0,0.599144,1.416167,0.004591\C,0,
 -0.184148,-0.880797,-0.007062\C,0,-1.513782,-0.444159,-0.007235\C,0,0.
 841141,0.050127,-0.000913\N,0,-2.554624,-1.364322,-0.068662\Cl,0,2.499
 376,-0.526961,0.002399\H,0,-0.942366,2.899755,0.008952\H,0,-2.796213,1
 .283658,-0.007912\H,0,1.416937,2.119885,0.009926\H,0,0.045646,-1.93705

 Normal termination of Gaussian 16 at Sat Apr  5 22:37:36 2025.
