 Gaussian 16, Revision C.01,

 ----------------------------------------------------------------------
 #t hf aug-cc-pvdz symm=none int=(grid=ultrafine) guess=(read,tcheck) s
 table=(opt,rrhf)
 ----------------------------------------------------------------------
 -----
 title
 -----
 Symbolic Z-matrix:
 Charge =  0 Multiplicity = 1

 SCF Done:  E(RHF) =  -576.011544457     A.U. after   13 cycles

 1\1\GINC-SE226\Stability\RHF\Aug-CC-pVDZ\C3H5Cl1\OHZDE\05-Apr-2025\0\\
 #t hf aug-cc-pvdz symm=none int=(grid=ultrafine) guess=(read,tcheck) s
 table=(opt,rrhf)\\title\\0,1\C,0,2.222154,-0.206522,-0.305896\C,0,1.13
 535,-0.117984,0.450291\C,0,-0.025341,0.749869,0.122211\Cl,0,-1.546037,
 -0.242264,-0.108197\H,0,3.058152,-0.830798,-0.022178\H,0,2.314549,0.34
 4401,-1.233886\H,0,1.060566,-0.687381,1.369728\H,0,-0.264925,1.439219,
 0.927711\H,0,0.121308,1.30088,-0.801666\\Version=ES64L-G16RevC.01\HF=-
 576.0115445\RMSD=4.869e-09\Dipole=0.8165442,0.4387547,0.1082731\Quadru

 Normal termination of Gaussian 16 at Sat Apr  5 22:36:09 2025.
 Gaussian 16:  ES64L-G16RevC.01  3-Jul-2019

 ----------------------------------------------------------------------
 #t hf aug-cc-pvdz iop(5/13=1,5/36=2,99/5=2) pseudo=read geom=check gue
 ss=(read,tcheck) scf=(maxcycle=1)
 ----------------------------------------------------------------------
 -----
 title
 -----
 Structure from the checkpoint file:  "3-chloro-1-propene.chk"
 Charge =  0 Multiplicity = 1

                         Standard orientation:
 ---------------------------------------------------------------------
 Center     Atomic      Atomic             Coordinates (Angstroms)
 Number     Number       Type             X           Y           Z
 ---------------------------------------------------------------------
      1          6           0        2.222154   -0.206522   -0.305896
      2          6           0        1.135350   -0.117984    0.450291
      3          6           0       -0.025341    0.749869    0.122211
      4         17           0       -1.546037   -0.242264   -0.108197
      5          1           0        3.058152   -0.830798   -0.022178
      6          1           0        2.314549    0.344401   -1.233886
      7          1           0        1.060566   -0.687381    1.369728
      8          1           0       -0.264925    1.439219    0.927711
      9          1           0        0.121308    1.300880   -0.801666
 ---------------------------------------------------------------------

 SCF Done:  E(RHF) =  -576.067633551     A.U. after    2 cycles

 The electronic state is 1-A.
 Alpha  occ. eigenvalues -- -103.64762 -11.31337 -11.26289 -11.25386 -10.68025
 Alpha  occ. eigenvalues --   -8.33737  -8.33451  -8.33443  -1.16126  -1.06439
 Alpha  occ. eigenvalues --   -0.92629  -0.78550  -0.67602  -0.63057  -0.59801
 Alpha  occ. eigenvalues --   -0.54984  -0.52953  -0.45084  -0.44596  -0.38694
 Alpha virt. eigenvalues --    0.03470   0.04568   0.04658   0.06458   0.07024
 Alpha virt. eigenvalues --    0.08469   0.09599   0.12404   0.13484   0.14893
 Alpha virt. eigenvalues --    0.15401   0.16058   0.16646   0.16680   0.17073

 Mulliken charges:
               1
     1  C    0.463448
     2  C    0.649974
     3  C   -0.095302
     4  Cl  -0.164138
     5  H   -0.272415
     6  H   -0.263655
     7  H   -0.319109
     8  H    0.049714
     9  H   -0.048517
 Sum of Mulliken charges =  -0.00000

 Dipole moment (field-independent basis, Debye):
    X=              2.1399    Y=              1.1421    Z=              0.2809  Tot=              2.4418

 Test job not archived.
 1\1\GINC-SE226\SP\RHF\Aug-CC-pVDZ\C3H5Cl1\OHZDE\05-Apr-2025\0\\#t hf a
 ug-cc-pvdz iop(5/13=1,5/36=2,99/5=2) pseudo=read geom=check guess=(rea
 d,tcheck) scf=(maxcycle=1)\\title\\0,1\C,0,2.222154,-0.206522,-0.30589
 6\C,0,1.13535,-0.117984,0.450291\C,0,-0.025341,0.749869,0.122211\Cl,0,
 -1.546037,-0.242264,-0.108197\H,0,3.058152,-0.830798,-0.022178\H,0,2.3
 14549,0.344401,-1.233886\H,0,1.060566,-0.687381,1.369728\H,0,-0.264925
 ,1.439219,0.927711\H,0,0.121308,1.30088,-0.801666\\Version=ES64L-G16Re
 vC.01\State=1-A\HF=-576.0676336\RMSD=5.248e-03\Dipole=0.8419049,0.4493

 Normal termination of Gaussian 16 at Sat Apr  5 22:37:33 2025.
