 Gaussian 16, Revision C.01,

 ----------------------------------------------------------------------
 #t hf aug-cc-pvdz symm=none int=(grid=ultrafine) guess=(read,tcheck) s
 table=(opt,rrhf)
 ----------------------------------------------------------------------
 -----
 title
 -----
 Symbolic Z-matrix:
 Charge =  0 Multiplicity = 1

 SCF Done:  E(RHF) =  -336.354921393     A.U. after   16 cycles
 Normal termination of Gaussian 16 at Sat Apr  5 22:36:14 2025.
 Gaussian 16:  ES64L-G16RevC.01  3-Jul-2019

 ----------------------------------------------------------------------
 #t hf aug-cc-pvdz iop(5/13=1,5/36=2,99/5=2) pseudo=read geom=check gue
 ss=(read,tcheck) scf=(maxcycle=1)
 ----------------------------------------------------------------------
 -----
 title
 -----
 Structure from the checkpoint file:  "3-cyanoisoxazole.chk"
 Charge =  0 Multiplicity = 1

                         Standard orientation:
 ---------------------------------------------------------------------
 Center     Atomic      Atomic             Coordinates (Angstroms)
 Number     Number       Type             X           Y           Z
 ---------------------------------------------------------------------
      1          8           0       -1.681498   -0.743311    0.000016
      2          7           0       -0.355469   -1.123275    0.000007
      3          7           0        2.897391    0.029139   -0.000024
      4          6           0        0.323220    0.004011   -0.000002
      5          6           0       -0.528654    1.144183    0.000000
      6          6           0       -1.764853    0.597636    0.000012
      7          6           0        1.747751   -0.010163   -0.000014
      8          1           0       -0.247836    2.180702   -0.000006
      9          1           0       -2.758422    1.010746    0.000018
 ---------------------------------------------------------------------

 SCF Done:  E(RHF) =  -336.454078185     A.U. after    2 cycles

 The electronic state is 1-A.
 Alpha  occ. eigenvalues --  -20.70388 -15.73919 -15.67190 -11.36229 -11.35684
 Alpha  occ. eigenvalues --  -11.31620 -11.29008  -1.49756  -1.23149  -1.18736
 Alpha  occ. eigenvalues --   -1.10884  -0.92937  -0.87758  -0.79644  -0.71107
 Alpha  occ. eigenvalues --   -0.69829  -0.65438  -0.62394  -0.57425  -0.54547
 Alpha  occ. eigenvalues --   -0.52547  -0.49283  -0.44337  -0.40435
 Alpha virt. eigenvalues --    0.02216   0.03921   0.05735   0.07477   0.08671
 Alpha virt. eigenvalues --    0.08745   0.10071   0.10174   0.11302   0.12777
 Alpha virt. eigenvalues --    0.13229   0.13509   0.14025   0.14592   0.15490

 Mulliken charges:
               1
     1  O   -0.556078
     2  N   -0.399227
     3  N   -0.057726
     4  C    1.299313
     5  C    0.296683
     6  C    0.690585
     7  C   -0.725710
     8  H   -0.321404
     9  H   -0.226436
 Sum of Mulliken charges =  -0.00000

 Dipole moment (field-independent basis, Debye):
    X=             -3.6805    Y=              3.2486    Z=              0.0000  Tot=              4.9091

 Test job not archived.
 1\1\GINC-SE198\SP\RHF\Aug-CC-pVDZ\C4H2N2O1\OHZDE\05-Apr-2025\0\\#t hf
 aug-cc-pvdz iop(5/13=1,5/36=2,99/5=2) pseudo=read geom=check guess=(re
 ad,tcheck) scf=(maxcycle=1)\\title\\0,1\O,0,-1.681498,-0.743311,0.0000
 16\N,0,-0.355469,-1.123275,0.000007\N,0,2.897391,0.029139,-0.000024\C,
 0,0.32322,0.004011,-0.000002\C,0,-0.528654,1.144183,0.\C,0,-1.764853,0
 .597636,0.000012\C,0,1.747751,-0.010163,-0.000014\H,0,-0.247836,2.1807
 02,-0.000006\H,0,-2.758422,1.010746,0.000018\\Version=ES64L-G16RevC.01
 \State=1-A\HF=-336.4540782\RMSD=8.146e-03\Dipole=-1.4480239,1.2781094,

 Normal termination of Gaussian 16 at Sat Apr  5 22:37:34 2025.
