 Gaussian 16, Revision C.01,

 ----------------------------------------------------------------------
 #t hf aug-cc-pvdz symm=none int=(grid=ultrafine) guess=(read,tcheck) s
 table=(opt,rrhf)
 ----------------------------------------------------------------------
 -----
 title
 -----
 Symbolic Z-matrix:
 Charge =  0 Multiplicity = 1

 SCF Done:  E(RHF) =  -423.607547054     A.U. after   15 cycles
 Normal termination of Gaussian 16 at Sat Apr  5 22:36:20 2025.
 Gaussian 16:  ES64L-G16RevC.01  3-Jul-2019

 ----------------------------------------------------------------------
 #t hf aug-cc-pvdz iop(5/13=1,5/36=2,99/5=2) pseudo=read geom=check gue
 ss=(read,tcheck) scf=(maxcycle=1)
 ----------------------------------------------------------------------
 -----
 title
 -----
 Structure from the checkpoint file:  "3-difluoroaminopropanenitrile.chk"
 Charge =  0 Multiplicity = 1

                         Standard orientation:
 ---------------------------------------------------------------------
 Center     Atomic      Atomic             Coordinates (Angstroms)
 Number     Number       Type             X           Y           Z
 ---------------------------------------------------------------------
      1          9           0        2.284114   -0.947156   -0.058625
      2          9           0        1.675956    1.135447   -0.349163
      3          7           0        1.368083   -0.002087    0.430483
      4          7           0       -3.383243   -0.343586   -0.277416
      5          6           0        0.067845   -0.461845   -0.080232
      6          6           0       -1.014437    0.516543    0.390152
      7          6           0       -2.342864    0.043335    0.020269
      8          1           0       -0.078651   -1.445718    0.361181
      9          1           0        0.101207   -0.548538   -1.166096
     10          1           0       -0.967408    0.631463    1.474281
     11          1           0       -0.852917    1.499687   -0.051863
 ---------------------------------------------------------------------

 SCF Done:  E(RHF) =  -423.743734439     A.U. after    2 cycles

 The electronic state is 1-A.
 Alpha  occ. eigenvalues --  -26.18192 -26.18006 -15.86097 -15.65876 -11.33508
 Alpha  occ. eigenvalues --  -11.32356 -11.30789  -1.73072  -1.67272  -1.22193
 Alpha  occ. eigenvalues --   -1.20113  -1.07434  -0.93677  -0.83263  -0.82719
 Alpha  occ. eigenvalues --   -0.80428  -0.76231  -0.73364  -0.71812  -0.70067
 Alpha  occ. eigenvalues --   -0.65798  -0.61742  -0.59086  -0.56331  -0.51349
 Alpha  occ. eigenvalues --   -0.48192  -0.47963
 Alpha virt. eigenvalues --    0.03147   0.04051   0.04141   0.06797   0.07849
 Alpha virt. eigenvalues --    0.10368   0.11193   0.11263   0.11694   0.13380
 Alpha virt. eigenvalues --    0.14406   0.15509   0.15796   0.15944   0.16640

 Mulliken charges:
               1
     1  F   -0.345329
     2  F   -0.356146
     3  N   -0.029555
     4  N   -0.158908
     5  C    1.022941
     6  C    0.330589
     7  C   -0.325416
     8  H   -0.157247
     9  H   -0.120462
    10  H    0.074491
    11  H    0.065043
 Sum of Mulliken charges =  -0.00000

 Dipole moment (field-independent basis, Debye):
    X=              0.6446    Y=              0.3985    Z=              1.0856  Tot=              1.3239

 Test job not archived.
 1\1\GINC-SE231\SP\RHF\Aug-CC-pVDZ\C3H4F2N2\OHZDE\05-Apr-2025\0\\#t hf
 aug-cc-pvdz iop(5/13=1,5/36=2,99/5=2) pseudo=read geom=check guess=(re
 ad,tcheck) scf=(maxcycle=1)\\title\\0,1\F,0,2.284114,-0.947156,-0.0586
 25\F,0,1.675956,1.135447,-0.349163\N,0,1.368083,-0.002087,0.430483\N,0
 ,-3.383243,-0.343586,-0.277416\C,0,0.067845,-0.461845,-0.080232\C,0,-1
 .014437,0.516543,0.390152\C,0,-2.342864,0.043335,0.020269\H,0,-0.07865
 1,-1.445718,0.361181\H,0,0.101207,-0.548538,-1.166096\H,0,-0.967408,0.
 631463,1.474281\H,0,-0.852917,1.499687,-0.051863\\Version=ES64L-G16Rev

 Normal termination of Gaussian 16 at Sat Apr  5 22:37:34 2025.
