 Gaussian 16, Revision C.01,

 ----------------------------------------------------------------------
 #t hf aug-cc-pvdz symm=none int=(grid=ultrafine) guess=(read,tcheck) s
 table=(opt,rrhf)
 ----------------------------------------------------------------------
 -----
 title
 -----
 Symbolic Z-matrix:
 Charge =  0 Multiplicity = 1

 SCF Done:  E(RHF) =  -461.607795183     A.U. after   14 cycles
 Normal termination of Gaussian 16 at Sat Apr  5 22:37:52 2025.
 Gaussian 16:  ES64L-G16RevC.01  3-Jul-2019

 ----------------------------------------------------------------------
 #t hf aug-cc-pvdz iop(5/13=1,5/36=2,99/5=2) pseudo=read geom=check gue
 ss=(read,tcheck) scf=(maxcycle=1)
 ----------------------------------------------------------------------
 -----
 title
 -----
 Structure from the checkpoint file:  "3-difluoromethyl-1H-pyrazole.chk"
 Charge =  0 Multiplicity = 1

                         Standard orientation:
 ---------------------------------------------------------------------
 Center     Atomic      Atomic             Coordinates (Angstroms)
 Number     Number       Type             X           Y           Z
 ---------------------------------------------------------------------
      1          9           0        1.978702    0.162047    1.097252
      2          9           0        1.978699    0.162110   -1.097247
      3          7           0       -0.935444   -1.145511   -0.000034
      4          7           0       -2.145699   -0.572385   -0.000016
      5          6           0       -0.086571   -0.124026   -0.000003
      6          6           0        1.374341   -0.401214   -0.000013
      7          6           0       -0.758309    1.116762    0.000036
      8          6           0       -2.090320    0.782498    0.000026
      9          1           0       -2.962960   -1.156749   -0.000033
     10          1           0        1.588333   -1.468840   -0.000044
     11          1           0       -0.328803    2.101756    0.000066
     12          1           0       -2.980019    1.387567    0.000046
 ---------------------------------------------------------------------

 SCF Done:  E(RHF) =  -461.756168256     A.U. after    2 cycles

 The electronic state is 1-A.
 Alpha  occ. eigenvalues --  -26.12968 -26.12960 -15.72427 -15.67929 -11.42515
 Alpha  occ. eigenvalues --  -11.30603 -11.28822 -11.25010  -1.69117  -1.64554
 Alpha  occ. eigenvalues --   -1.36226  -1.11954  -1.06611  -0.99797  -0.85601
 Alpha  occ. eigenvalues --   -0.83944  -0.80361  -0.80244  -0.76170  -0.74629
 Alpha  occ. eigenvalues --   -0.72254  -0.68658  -0.64651  -0.62673  -0.62040
 Alpha  occ. eigenvalues --   -0.61120  -0.55075  -0.48007  -0.38739  -0.36611
 Alpha virt. eigenvalues --    0.02274   0.03811   0.04745   0.06106   0.08896
 Alpha virt. eigenvalues --    0.09583   0.11298   0.11319   0.12044   0.13209
 Alpha virt. eigenvalues --    0.13272   0.14133   0.14396   0.15813   0.16459

 Mulliken charges:
               1
     1  F   -0.369562
     2  F   -0.369562
     3  N   -0.529229
     4  N   -0.191778
     5  C    0.053185
     6  C    1.207211
     7  C    0.419178
     8  C    0.692843
     9  H   -0.024049
    10  H   -0.234140
    11  H   -0.346560
    12  H   -0.307536
 Sum of Mulliken charges =  -0.00000

 Dipole moment (field-independent basis, Debye):
    X=             -4.5211    Y=             -0.1246    Z=              0.0000  Tot=              4.5228

 Test job not archived.
 1\1\GINC-SE232\SP\RHF\Aug-CC-pVDZ\C4H4F2N2\OHZDE\05-Apr-2025\0\\#t hf
 aug-cc-pvdz iop(5/13=1,5/36=2,99/5=2) pseudo=read geom=check guess=(re
 ad,tcheck) scf=(maxcycle=1)\\title\\0,1\F,0,1.978702,0.162047,1.097252
 \F,0,1.978699,0.16211,-1.097247\N,0,-0.935444,-1.145511,-0.000034\N,0,
 -2.145699,-0.572385,-0.000016\C,0,-0.086571,-0.124026,-0.000003\C,0,1.
 374341,-0.401214,-0.000013\C,0,-0.758309,1.116762,0.000036\C,0,-2.0903
 2,0.782498,0.000026\H,0,-2.96296,-1.156749,-0.000033\H,0,1.588333,-1.4
 6884,-0.000044\H,0,-0.328803,2.101756,0.000066\H,0,-2.980019,1.387567,

 Normal termination of Gaussian 16 at Sat Apr  5 22:37:58 2025.
