 Gaussian 16, Revision C.01,

 ----------------------------------------------------------------------
 #t hf aug-cc-pvdz symm=none int=(grid=ultrafine) guess=(read,tcheck) s
 table=(opt,rrhf)
 ----------------------------------------------------------------------
 -----
 title
 -----
 Symbolic Z-matrix:
 Charge =  0 Multiplicity = 1

 SCF Done:  E(RHF) =  -278.645641562     A.U. after   17 cycles
 Normal termination of Gaussian 16 at Sat Apr  5 22:36:13 2025.
 Gaussian 16:  ES64L-G16RevC.01  3-Jul-2019

 ----------------------------------------------------------------------
 #t hf aug-cc-pvdz iop(5/13=1,5/36=2,99/5=2) pseudo=read geom=check gue
 ss=(read,tcheck) scf=(maxcycle=1)
 ----------------------------------------------------------------------
 -----
 title
 -----
 Structure from the checkpoint file:  "3-diazopropanenitrile.chk"
 Charge =  0 Multiplicity = 1

                         Standard orientation:
 ---------------------------------------------------------------------
 Center     Atomic      Atomic             Coordinates (Angstroms)
 Number     Number       Type             X           Y           Z
 ---------------------------------------------------------------------
      1          7           0       -1.616715   -0.101498    0.115335
      2          7           0       -2.512940   -0.696208   -0.240366
      3          7           0        2.592445   -0.787850    0.164792
      4          6           0       -0.601166    0.598614    0.503988
      5          6           0        0.580873    0.787284   -0.409301
      6          6           0        1.711258   -0.097097   -0.096653
      7          1           0       -0.609112    0.927289    1.529719
      8          1           0        0.289318    0.620071   -1.447202
      9          1           0        0.934469    1.818720   -0.349050
 ---------------------------------------------------------------------

 SCF Done:  E(RHF) =  -278.729491927     A.U. after    2 cycles

 The electronic state is 1-A.
 Alpha  occ. eigenvalues --  -15.82179 -15.74473 -15.64535 -11.32242 -11.30852
 Alpha  occ. eigenvalues --  -11.29464  -1.43288  -1.20481  -1.15531  -1.03198
 Alpha  occ. eigenvalues --   -0.77476  -0.73457  -0.69831  -0.66679  -0.66128
 Alpha  occ. eigenvalues --   -0.62799  -0.56538  -0.55188  -0.47119  -0.46856
 Alpha  occ. eigenvalues --   -0.34421
 Alpha virt. eigenvalues --    0.02710   0.03530   0.05183   0.06690   0.08862
 Alpha virt. eigenvalues --    0.09285   0.10235   0.10919   0.11569   0.11768
 Alpha virt. eigenvalues --    0.13330   0.14382   0.14943   0.16019   0.16225

 Mulliken charges:
               1
     1  N    0.082668
     2  N   -0.363090
     3  N   -0.174669
     4  C    0.727000
     5  C    0.215908
     6  C   -0.314626
     7  H   -0.290739
     8  H    0.004783
     9  H    0.112765
 Sum of Mulliken charges =  -0.00000

 Dipole moment (field-independent basis, Debye):
    X=             -2.0575    Y=              2.9632    Z=             -0.4059  Tot=              3.6302

 Test job not archived.
 1\1\GINC-SE199\SP\RHF\Aug-CC-pVDZ\C3H3N3\OHZDE\05-Apr-2025\0\\#t hf au
 g-cc-pvdz iop(5/13=1,5/36=2,99/5=2) pseudo=read geom=check guess=(read
 ,tcheck) scf=(maxcycle=1)\\title\\0,1\N,0,-1.616715,-0.101498,0.115335
 \N,0,-2.51294,-0.696208,-0.240366\N,0,2.592445,-0.78785,0.164792\C,0,-
 0.601166,0.598614,0.503988\C,0,0.580873,0.787284,-0.409301\C,0,1.71125
 8,-0.097097,-0.096653\H,0,-0.609112,0.927289,1.529719\H,0,0.289318,0.6
 20071,-1.447202\H,0,0.934469,1.81872,-0.34905\\Version=ES64L-G16RevC.0
 1\State=1-A\HF=-278.7294919\RMSD=3.834e-03\Dipole=-0.8094997,1.1658028

 Normal termination of Gaussian 16 at Sat Apr  5 22:37:33 2025.
