 Gaussian 16, Revision C.01,

 ----------------------------------------------------------------------
 #t hf aug-cc-pvdz symm=none int=(grid=ultrafine) guess=(read,tcheck) s
 table=(opt,rrhf)
 ----------------------------------------------------------------------
 -----
 title
 -----
 Symbolic Z-matrix:
 Charge =  0 Multiplicity = 1

 SCF Done:  E(RHF) =  -592.689061645     A.U. after   13 cycles

 1\1\GINC-SE014\Stability\RHF\Aug-CC-pVDZ\C5H10S1\OHZDE\05-Apr-2025\0\\
 #t hf aug-cc-pvdz symm=none int=(grid=ultrafine) guess=(read,tcheck) s
 table=(opt,rrhf)\\title\\0,1\H,0,-3.802515,-1.239154,0.\H,0,-2.689478,
 0.229953,0.\C,0,-2.794898,-0.846771,0.\H,0,-1.915495,-2.733395,0.\C,0,
 -1.747715,-1.660126,0.\H,0,0.189038,-1.709801,0.877836\H,0,0.189038,-1
 .709801,-0.877836\C,0,-0.299553,-1.277902,0.\S,0,0.,0.525942,0.\H,0,2.
 174574,-0.032527,0.883368\H,0,2.174574,-0.032527,-0.883368\C,0,1.83148
 5,0.507447,0.\H,0,3.459524,1.92213,0.\H,0,2.036376,2.479514,-0.882479\

 Normal termination of Gaussian 16 at Sat Apr  5 22:36:33 2025.
 Gaussian 16:  ES64L-G16RevC.01  3-Jul-2019

 ----------------------------------------------------------------------
 #t hf aug-cc-pvdz iop(5/13=1,5/36=2,99/5=2) pseudo=read geom=check gue
 ss=(read,tcheck) scf=(maxcycle=1)
 ----------------------------------------------------------------------
 -----
 title
 -----
 Structure from the checkpoint file:  "3-ethylthio-1-propene.chk"
 Charge =  0 Multiplicity = 1

                         Standard orientation:
 ---------------------------------------------------------------------
 Center     Atomic      Atomic             Coordinates (Angstroms)
 Number     Number       Type             X           Y           Z
 ---------------------------------------------------------------------
      1          1           0       -3.802515   -1.239154    0.000000
      2          1           0       -2.689478    0.229953    0.000000
      3          6           0       -2.794898   -0.846771    0.000000
      4          1           0       -1.915495   -2.733395    0.000000
      5          6           0       -1.747715   -1.660126    0.000000
      6          1           0        0.189038   -1.709801    0.877836
      7          1           0        0.189038   -1.709801   -0.877836
      8          6           0       -0.299553   -1.277902    0.000000
      9         16           0        0.000000    0.525942    0.000000
     10          1           0        2.174574   -0.032527    0.883368
     11          1           0        2.174574   -0.032527   -0.883368
     12          6           0        1.831485    0.507447    0.000000
     13          1           0        3.459524    1.922130    0.000000
     14          1           0        2.036376    2.479514   -0.882479
     15          1           0        2.036376    2.479514    0.882479
     16          6           0        2.368679    1.932523    0.000000
 ---------------------------------------------------------------------

 SCF Done:  E(RHF) =  -592.772442190     A.U. after    2 cycles

 The electronic state is 1-A'.
 Alpha  occ. eigenvalues --  -93.52034 -11.27134 -11.26736 -11.25025 -11.23474
 Alpha  occ. eigenvalues --  -11.23255  -8.81797  -6.15953  -6.15745  -6.15386
 Alpha  occ. eigenvalues --   -1.08776  -1.04749  -0.96910  -0.88640  -0.80665
 Alpha  occ. eigenvalues --   -0.74130  -0.65273  -0.63562  -0.60098  -0.59848
 Alpha  occ. eigenvalues --   -0.57928  -0.53570  -0.51780  -0.51132  -0.46515
 Alpha  occ. eigenvalues --   -0.42352  -0.37018  -0.33380
 Alpha virt. eigenvalues --    0.03411   0.03971   0.04530   0.05159   0.05867
 Alpha virt. eigenvalues --    0.06055   0.06989   0.07960   0.08720   0.08925
 Alpha virt. eigenvalues --    0.10708   0.11524   0.13195   0.14064   0.14515

 Mulliken charges:
               1
     1  H   -0.328546
     2  H   -0.242971
     3  C    0.637978
     4  H   -0.388529
     5  C    0.496419
     6  H   -0.002498
     7  H   -0.002498
     8  C   -0.415710
     9  S    0.388927
    10  H   -0.160723
    11  H   -0.160723
    12  C   -0.118438
    13  H   -0.024284
    14  H   -0.070241
    15  H   -0.070241
    16  C    0.462076
 Sum of Mulliken charges =  -0.00000

 Dipole moment (field-independent basis, Debye):
    X=              1.4852    Y=             -1.2377    Z=             -0.0000  Tot=              1.9333

 Test job not archived.
 1\1\GINC-SE014\SP\RHF\Aug-CC-pVDZ\C5H10S1\OHZDE\05-Apr-2025\0\\#t hf a
 ug-cc-pvdz iop(5/13=1,5/36=2,99/5=2) pseudo=read geom=check guess=(rea
 d,tcheck) scf=(maxcycle=1)\\title\\0,1\H,0,-3.802515,-1.239154,0.\H,0,
 -2.689478,0.229953,0.\C,0,-2.794898,-0.846771,0.\H,0,-1.915495,-2.7333
 95,0.\C,0,-1.747715,-1.660126,0.\H,0,0.189038,-1.709801,0.877836\H,0,0
 .189038,-1.709801,-0.877836\C,0,-0.299553,-1.277902,0.\S,0,0.,0.525942
 ,0.\H,0,2.174574,-0.032527,0.883368\H,0,2.174574,-0.032527,-0.883368\C
 ,0,1.831485,0.507447,0.\H,0,3.459524,1.92213,0.\H,0,2.036376,2.479514,

 Normal termination of Gaussian 16 at Sat Apr  5 22:37:35 2025.
