 Gaussian 16, Revision C.01,

 ----------------------------------------------------------------------
 #t hf aug-cc-pvdz symm=none int=(grid=ultrafine) guess=(read,tcheck) s
 table=(opt,rrhf)
 ----------------------------------------------------------------------
 -----
 title
 -----
 Symbolic Z-matrix:
 Charge =  0 Multiplicity = 1

 SCF Done:  E(RHF) =  -742.363128610     A.U. after   14 cycles
 Normal termination of Gaussian 16 at Sat Apr  5 22:38:35 2025.
 Gaussian 16:  ES64L-G16RevC.01  3-Jul-2019

 ----------------------------------------------------------------------
 #t hf aug-cc-pvdz iop(5/13=1,5/36=2,99/5=2) pseudo=read geom=check gue
 ss=(read,tcheck) scf=(maxcycle=1)
 ----------------------------------------------------------------------
 -----
 title
 -----
 Structure from the checkpoint file:  "3-ethylsulphonyl-1-propene.chk"
 Charge =  0 Multiplicity = 1

                         Standard orientation:
 ---------------------------------------------------------------------
 Center     Atomic      Atomic             Coordinates (Angstroms)
 Number     Number       Type             X           Y           Z
 ---------------------------------------------------------------------
      1          6           0       -3.048752   -0.233601    0.036674
      2          6           0       -1.747093   -0.694147   -0.606769
      3         16           0       -0.333206    0.184684    0.124046
      4          8           0       -0.241241   -0.192676    1.531689
      5          8           0       -0.432759    1.596855   -0.241566
      6          6           0        1.104634   -0.526657   -0.766862
      7          6           0        2.358790    0.197724   -0.407998
      8          6           0        3.357139   -0.350923    0.271282
      9          1           0       -3.045989   -0.433495    1.106557
     10          1           0       -3.203625    0.832669   -0.117926
     11          1           0       -3.884192   -0.770832   -0.411908
     12          1           0       -1.719025   -0.479926   -1.674605
     13          1           0       -1.562290   -1.755515   -0.442909
     14          1           0        1.142724   -1.579964   -0.494282
     15          1           0        0.862845   -0.421743   -1.825556
     16          1           0        2.417087    1.230864   -0.727347
     17          1           0        3.318293   -1.376763    0.615663
     18          1           0        4.249152    0.211954    0.508629
 ---------------------------------------------------------------------

 SCF Done:  E(RHF) =  -742.542197337     A.U. after    2 cycles

 The electronic state is 1-A.
 Alpha  occ. eigenvalues --  -93.76993 -20.55031 -20.54951 -11.29496 -11.29164
 Alpha  occ. eigenvalues --  -11.26421 -11.25390 -11.25050  -9.03804  -6.38413
 Alpha  occ. eigenvalues --   -6.38210  -6.38138  -1.40310  -1.28968  -1.10087
 Alpha  occ. eigenvalues --   -1.07296  -0.99136  -0.90638  -0.80994  -0.78053
 Alpha  occ. eigenvalues --   -0.69935  -0.68678  -0.67100  -0.65387  -0.63218
 Alpha  occ. eigenvalues --   -0.61968  -0.58558  -0.56675  -0.55634  -0.53347
 Alpha  occ. eigenvalues --   -0.52360  -0.50872  -0.49950  -0.48069  -0.44636
 Alpha  occ. eigenvalues --   -0.38256
 Alpha virt. eigenvalues --    0.02774   0.03875   0.04397   0.04546   0.05863
 Alpha virt. eigenvalues --    0.05903   0.07095   0.07546   0.07702   0.09152
 Alpha virt. eigenvalues --    0.09996   0.11309   0.12403   0.12934   0.13803

 Mulliken charges:
               1
     1  C    0.381009
     2  C   -0.117678
     3  S    2.347225
     4  O   -1.161412
     5  O   -1.178967
     6  C   -0.216922
     7  C    0.947883
     8  C    0.459459
     9  H   -0.027433
    10  H   -0.028624
    11  H   -0.022443
    12  H   -0.105729
    13  H   -0.116011
    14  H   -0.200123
    15  H   -0.018977
    16  H   -0.403199
    17  H   -0.251863
    18  H   -0.286196
 Sum of Mulliken charges =   0.00000

 Dipole moment (field-independent basis, Debye):
    X=             -0.0964    Y=             -3.6847    Z=             -3.5543  Tot=              5.1205

 Test job not archived.
 1\1\GINC-SE013\SP\RHF\Aug-CC-pVDZ\C5H10O2S1\OHZDE\05-Apr-2025\0\\#t hf
  aug-cc-pvdz iop(5/13=1,5/36=2,99/5=2) pseudo=read geom=check guess=(r
 ead,tcheck) scf=(maxcycle=1)\\title\\0,1\C,0,-3.048752,-0.233601,0.036
 674\C,0,-1.747093,-0.694147,-0.606769\S,0,-0.333206,0.184684,0.124046\
 O,0,-0.241241,-0.192676,1.531689\O,0,-0.432759,1.596855,-0.241566\C,0,
 1.104634,-0.526657,-0.766862\C,0,2.35879,0.197724,-0.407998\C,0,3.3571
 39,-0.350923,0.271282\H,0,-3.045989,-0.433495,1.106557\H,0,-3.203625,0
 .832669,-0.117926\H,0,-3.884192,-0.770832,-0.411908\H,0,-1.719025,-0.4

 Normal termination of Gaussian 16 at Sat Apr  5 22:39:15 2025.
