 Gaussian 16, Revision C.01,

 ----------------------------------------------------------------------
 #t hf aug-cc-pvdz symm=none int=(grid=ultrafine) guess=(read,tcheck) s
 table=(opt,rrhf)
 ----------------------------------------------------------------------
 -----
 title
 -----
 Symbolic Z-matrix:
 Charge =  0 Multiplicity = 1

 SCF Done:  E(RHF) =  -488.305269249     A.U. after   15 cycles
 Normal termination of Gaussian 16 at Sat Apr  5 22:37:00 2025.
 Gaussian 16:  ES64L-G16RevC.01  3-Jul-2019

 ----------------------------------------------------------------------
 #t hf aug-cc-pvdz iop(5/13=1,5/36=2,99/5=2) pseudo=read geom=check gue
 ss=(read,tcheck) scf=(maxcycle=1)
 ----------------------------------------------------------------------
 -----
 title
 -----
 Structure from the checkpoint file:  "3-ethynoxy-1-hydroxy-1-methyl-urea.chk"
 Charge =  0 Multiplicity = 1

                         Standard orientation:
 ---------------------------------------------------------------------
 Center     Atomic      Atomic             Coordinates (Angstroms)
 Number     Number       Type             X           Y           Z
 ---------------------------------------------------------------------
      1          8           0        1.731880    0.108377   -0.831919
      2          8           0       -0.233133   -1.544013   -0.196714
      3          8           0       -2.691735   -0.847458    0.265518
      4          7           0       -1.675720    0.124252    0.257316
      5          7           0        0.522172    0.666970   -0.284536
      6          6           0       -0.460475   -0.351147   -0.115603
      7          6           0       -2.198971    1.462610    0.154511
      8          6           0        2.699348    0.095191    0.044841
      9          6           0        3.640521    0.058237    0.782977
     10          1           0       -2.181394   -1.673843    0.154736
     11          1           0        0.256709    1.383325   -0.950263
     12          1           0       -2.597488    1.677053   -0.841848
     13          1           0       -2.998686    1.573387    0.884085
     14          1           0       -1.411630    2.169530    0.406162
     15          1           0        4.468689    0.007404    1.442234
 ---------------------------------------------------------------------

 SCF Done:  E(RHF) =  -488.461005970     A.U. after    2 cycles

 The electronic state is 1-A.
 Alpha  occ. eigenvalues --  -20.68816 -20.63343 -20.56811 -15.74623 -15.72563
 Alpha  occ. eigenvalues --  -11.42754 -11.31244 -11.30654 -11.24184  -1.46098
 Alpha  occ. eigenvalues --   -1.42600  -1.35605  -1.21203  -1.13660  -1.02018
 Alpha  occ. eigenvalues --   -0.98518  -0.84587  -0.81113  -0.78673  -0.73545
 Alpha  occ. eigenvalues --   -0.71184  -0.70443  -0.69135  -0.65717  -0.62997
 Alpha  occ. eigenvalues --   -0.61389  -0.59555  -0.59014  -0.57350  -0.50655
 Alpha  occ. eigenvalues --   -0.47258  -0.40628  -0.39555  -0.38799
 Alpha virt. eigenvalues --    0.02391   0.03857   0.04048   0.04688   0.06079
 Alpha virt. eigenvalues --    0.07343   0.09702   0.10288   0.10770   0.11576
 Alpha virt. eigenvalues --    0.11821   0.13215   0.13882   0.14222   0.14946

 Mulliken charges:
               1
     1  O   -0.587871
     2  O   -0.467612
     3  O   -0.534526
     4  N   -0.153494
     5  N   -0.061478
     6  C    0.683977
     7  C    0.948425
     8  C   -0.395025
     9  C    1.067982
    10  H    0.174350
    11  H    0.105463
    12  H   -0.078102
    13  H   -0.160703
    14  H   -0.133620
    15  H   -0.407765
 Sum of Mulliken charges =   0.00000

 Dipole moment (field-independent basis, Debye):
    X=             -1.3653    Y=              4.1828    Z=             -0.2328  Tot=              4.4061

 Test job not archived.
 1\1\GINC-SE050\SP\RHF\Aug-CC-pVDZ\C4H6N2O3\OHZDE\05-Apr-2025\0\\#t hf
 aug-cc-pvdz iop(5/13=1,5/36=2,99/5=2) pseudo=read geom=check guess=(re
 ad,tcheck) scf=(maxcycle=1)\\title\\0,1\O,0,1.73188,0.108377,-0.831919
 \O,0,-0.233133,-1.544013,-0.196714\O,0,-2.691735,-0.847458,0.265518\N,
 0,-1.67572,0.124252,0.257316\N,0,0.522172,0.66697,-0.284536\C,0,-0.460
 475,-0.351147,-0.115603\C,0,-2.198971,1.46261,0.154511\C,0,2.699348,0.
 095191,0.044841\C,0,3.640521,0.058237,0.782977\H,0,-2.181394,-1.673843
 ,0.154736\H,0,0.256709,1.383325,-0.950263\H,0,-2.597488,1.677053,-0.84

 Normal termination of Gaussian 16 at Sat Apr  5 22:37:38 2025.
