 Gaussian 16, Revision C.01,

 ----------------------------------------------------------------------
 #t hf aug-cc-pvdz symm=none int=(grid=ultrafine) guess=(read,tcheck) s
 table=(opt,rrhf)
 ----------------------------------------------------------------------
 -----
 title
 -----
 Symbolic Z-matrix:
 Charge =  0 Multiplicity = 1

 SCF Done:  E(RHF) =  -714.034173701     A.U. after   16 cycles
 Normal termination of Gaussian 16 at Sat Apr  5 22:36:24 2025.
 Gaussian 16:  ES64L-G16RevC.01  3-Jul-2019

 ----------------------------------------------------------------------
 #t hf aug-cc-pvdz iop(5/13=1,5/36=2,99/5=2) pseudo=read geom=check gue
 ss=(read,tcheck) scf=(maxcycle=1)
 ----------------------------------------------------------------------
 -----
 title
 -----
 Structure from the checkpoint file:  "3-ethynylsulfanyl-1H-1-2-4-triazole.chk"
 Charge =  0 Multiplicity = 1

                         Standard orientation:
 ---------------------------------------------------------------------
 Center     Atomic      Atomic             Coordinates (Angstroms)
 Number     Number       Type             X           Y           Z
 ---------------------------------------------------------------------
      1         16           0       -1.131399   -1.070775   -0.000017
      2          7           0        1.538046   -1.000510   -0.000058
      3          7           0        0.653008    1.084197    0.000038
      4          7           0        2.510851   -0.057395   -0.000035
      5          6           0        0.445498   -0.256528   -0.000012
      6          6           0        1.967699    1.170963    0.000021
      7          6           0       -2.199076    0.233648    0.000030
      8          6           0       -3.054062    1.079168    0.000059
      9          1           0        3.478056   -0.332882   -0.000061
     10          1           0        2.546140    2.079525    0.000047
     11          1           0       -3.795499    1.838204    0.000079
 ---------------------------------------------------------------------

 SCF Done:  E(RHF) =  -714.149143656     A.U. after    2 cycles

 The electronic state is 1-A.
 Alpha  occ. eigenvalues --  -93.58515 -15.73351 -15.67448 -15.64025 -11.34956
 Alpha  occ. eigenvalues --  -11.34654 -11.26954 -11.25061  -8.88152  -6.22398
 Alpha  occ. eigenvalues --   -6.22120  -6.21717  -1.39610  -1.18568  -1.12944
 Alpha  occ. eigenvalues --   -1.06463  -0.97917  -0.87687  -0.81494  -0.78403
 Alpha  occ. eigenvalues --   -0.72315  -0.65557  -0.65520  -0.62629  -0.53325
 Alpha  occ. eigenvalues --   -0.50715  -0.49566  -0.45968  -0.42840  -0.40416
 Alpha  occ. eigenvalues --   -0.40410  -0.32631
 Alpha virt. eigenvalues --    0.02122   0.03869   0.04455   0.07588   0.07685
 Alpha virt. eigenvalues --    0.09130   0.10333   0.11157   0.11269   0.11432
 Alpha virt. eigenvalues --    0.12853   0.13881   0.14250   0.14702   0.14913

 Mulliken charges:
               1
     1  S    0.624486
     2  N   -0.502042
     3  N   -0.534719
     4  N   -0.154947
     5  C    0.097592
     6  C    0.874322
     7  C   -0.466751
     8  C    0.712299
     9  H    0.001113
    10  H   -0.200890
    11  H   -0.450461
 Sum of Mulliken charges =  -0.00000

 Dipole moment (field-independent basis, Debye):
    X=              3.4877    Y=              1.7885    Z=             -0.0000  Tot=              3.9195

 Test job not archived.
 1\1\GINC-SE107\SP\RHF\Aug-CC-pVDZ\C4H3N3S1\OHZDE\05-Apr-2025\0\\#t hf
 aug-cc-pvdz iop(5/13=1,5/36=2,99/5=2) pseudo=read geom=check guess=(re
 ad,tcheck) scf=(maxcycle=1)\\title\\0,1\S,0,-1.131399,-1.070775,-0.000
 017\N,0,1.538046,-1.00051,-0.000058\N,0,0.653008,1.084197,0.000038\N,0
 ,2.510851,-0.057395,-0.000035\C,0,0.445498,-0.256528,-0.000012\C,0,1.9
 67699,1.170963,0.000021\C,0,-2.199076,0.233648,0.00003\C,0,-3.054062,1
 .079168,0.000059\H,0,3.478056,-0.332882,-0.000061\H,0,2.54614,2.079525
 ,0.000047\H,0,-3.795499,1.838204,0.000079\\Version=ES64L-G16RevC.01\St

 Normal termination of Gaussian 16 at Sat Apr  5 22:37:36 2025.
