 Gaussian 16, Revision C.01,

 ----------------------------------------------------------------------
 #t hf aug-cc-pvdz symm=none int=(grid=ultrafine) guess=(read,tcheck) s
 table=(opt,rrhf)
 ----------------------------------------------------------------------
 -----
 title
 -----
 Symbolic Z-matrix:
 Charge =  0 Multiplicity = 1

 SCF Done:  E(RHF) =  -383.681417361     A.U. after   15 cycles

 1\1\GINC-SE010\Stability\RHF\Aug-CC-pVDZ\C8H10O1\OHZDE\05-Apr-2025\0\\
 #t hf aug-cc-pvdz symm=none int=(grid=ultrafine) guess=(read,tcheck) s
 table=(opt,rrhf)\\title\\0,1\C,0,-0.901148,1.795527,0.122367\C,0,0.418
 569,1.454846,-0.142196\C,0,-1.883647,0.815844,0.20091\C,0,-0.208669,-0
 .860797,-0.25698\C,0,0.778487,0.11851,-0.333408\C,0,-1.530238,-0.51657
 2,0.009051\C,0,2.984093,-0.57757,0.712281\C,0,2.217039,-0.266854,-0.58
 0918\O,0,-2.444462,-1.534667,0.066317\H,0,-1.173015,2.83292,0.265293\H
 ,0,1.172655,2.228454,-0.206139\H,0,-2.913718,1.08375,0.403866\H,0,0.03

 Normal termination of Gaussian 16 at Sat Apr  5 22:37:42 2025.
 Gaussian 16:  ES64L-G16RevC.01  3-Jul-2019

 ----------------------------------------------------------------------
 #t hf aug-cc-pvdz iop(5/13=1,5/36=2,99/5=2) pseudo=read geom=check gue
 ss=(read,tcheck) scf=(maxcycle=1)
 ----------------------------------------------------------------------
 -----
 title
 -----
 Structure from the checkpoint file:  "3-ethylphenol.chk"
 Charge =  0 Multiplicity = 1

                         Standard orientation:
 ---------------------------------------------------------------------
 Center     Atomic      Atomic             Coordinates (Angstroms)
 Number     Number       Type             X           Y           Z
 ---------------------------------------------------------------------
      1          6           0       -0.901148    1.795527    0.122367
      2          6           0        0.418569    1.454846   -0.142196
      3          6           0       -1.883647    0.815844    0.200910
      4          6           0       -0.208669   -0.860797   -0.256980
      5          6           0        0.778487    0.118510   -0.333408
      6          6           0       -1.530238   -0.516572    0.009051
      7          6           0        2.984093   -0.577570    0.712281
      8          6           0        2.217039   -0.266854   -0.580918
      9          8           0       -2.444462   -1.534667    0.066317
     10          1           0       -1.173015    2.832920    0.265293
     11          1           0        1.172655    2.228454   -0.206139
     12          1           0       -2.913718    1.083750    0.403866
     13          1           0        0.034043   -1.904816   -0.407043
     14          1           0        2.994645    0.286561    1.377704
     15          1           0        4.017795   -0.850368    0.494569
     16          1           0        2.521714   -1.405294    1.251253
     17          1           0        2.251433   -1.139150   -1.236927
     18          1           0        2.720909    0.543479   -1.111640
     19          1           0       -3.317676   -1.175798    0.251885
 ---------------------------------------------------------------------

 SCF Done:  E(RHF) =  -383.798698000     A.U. after    2 cycles

 The electronic state is 1-A.
 Alpha  occ. eigenvalues --  -20.60315 -11.31159 -11.25158 -11.24901 -11.23770
 Alpha  occ. eigenvalues --  -11.23724 -11.23059 -11.22974 -11.22623  -1.36485
 Alpha  occ. eigenvalues --   -1.14377  -1.05596  -1.00496  -0.97946  -0.87291
 Alpha  occ. eigenvalues --   -0.82958  -0.81608  -0.72027  -0.68941  -0.66623
 Alpha  occ. eigenvalues --   -0.62467  -0.60653  -0.60013  -0.58981  -0.57191
 Alpha  occ. eigenvalues --   -0.55158  -0.52545  -0.51296  -0.48863  -0.47867
 Alpha  occ. eigenvalues --   -0.47564  -0.33669  -0.31771
 Alpha virt. eigenvalues --    0.03176   0.03785   0.04220   0.05291   0.05560
 Alpha virt. eigenvalues --    0.05711   0.07260   0.07577   0.08537   0.08642
 Alpha virt. eigenvalues --    0.10616   0.10745   0.11571   0.12503   0.13716

 Mulliken charges:
               1
     1  C   -0.026326
     2  C    0.564258
     3  C    0.843734
     4  C    0.607980
     5  C    0.793612
     6  C    0.066131
     7  C    0.311359
     8  C    0.072516
     9  O   -0.588476
    10  H   -0.444655
    11  H   -0.616787
    12  H   -0.574296
    13  H   -0.585480
    14  H   -0.102584
    15  H   -0.077609
    16  H   -0.104930
    17  H   -0.124254
    18  H   -0.145910
    19  H    0.131716
 Sum of Mulliken charges =  -0.00000

 Dipole moment (field-independent basis, Debye):
    X=             -0.3076    Y=              1.0903    Z=              0.2313  Tot=              1.1563

 Test job not archived.
 1\1\GINC-SE010\SP\RHF\Aug-CC-pVDZ\C8H10O1\OHZDE\05-Apr-2025\0\\#t hf a
 ug-cc-pvdz iop(5/13=1,5/36=2,99/5=2) pseudo=read geom=check guess=(rea
 d,tcheck) scf=(maxcycle=1)\\title\\0,1\C,0,-0.901148,1.795527,0.122367
 \C,0,0.418569,1.454846,-0.142196\C,0,-1.883647,0.815844,0.20091\C,0,-0
 .208669,-0.860797,-0.25698\C,0,0.778487,0.11851,-0.333408\C,0,-1.53023
 8,-0.516572,0.009051\C,0,2.984093,-0.57757,0.712281\C,0,2.217039,-0.26
 6854,-0.580918\O,0,-2.444462,-1.534667,0.066317\H,0,-1.173015,2.83292,
 0.265293\H,0,1.172655,2.228454,-0.206139\H,0,-2.913718,1.08375,0.40386

 Normal termination of Gaussian 16 at Sat Apr  5 22:37:52 2025.
