 Gaussian 16, Revision C.01,

 ----------------------------------------------------------------------
 #t hf aug-cc-pvdz symm=none int=(grid=ultrafine) guess=(read,tcheck) s
 table=(opt,rrhf)
 ----------------------------------------------------------------------
 -----
 title
 -----
 Symbolic Z-matrix:
 Charge =  0 Multiplicity = 1

 SCF Done:  E(RHF) =  -324.803893341     A.U. after   14 cycles
 Normal termination of Gaussian 16 at Sat Apr  5 22:38:25 2025.
 Gaussian 16:  ES64L-G16RevC.01  3-Jul-2019

 ----------------------------------------------------------------------
 #t hf aug-cc-pvdz iop(5/13=1,5/36=2,99/5=2) pseudo=read geom=check gue
 ss=(read,tcheck) scf=(maxcycle=1)
 ----------------------------------------------------------------------
 -----
 title
 -----
 Structure from the checkpoint file:  "3-ethylpyridine.chk"
 Charge =  0 Multiplicity = 1

                         Standard orientation:
 ---------------------------------------------------------------------
 Center     Atomic      Atomic             Coordinates (Angstroms)
 Number     Number       Type             X           Y           Z
 ---------------------------------------------------------------------
      1          6           0        1.635229    1.169984    0.080429
      2          6           0        0.276934    1.186693   -0.201516
      3          6           0        2.267258   -0.057658    0.237114
      4          6           0        0.324908   -1.186647   -0.148460
      5          6           0       -0.416052   -0.015986   -0.320449
      6          6           0       -2.745423    0.061771    0.682967
      7          6           0       -1.897892   -0.062347   -0.591011
      8          7           0        1.628799   -1.222087    0.123692
      9          1           0        2.197669    2.088931    0.173539
     10          1           0       -0.242156    2.128401   -0.334054
     11          1           0        3.327219   -0.108700    0.457919
     12          1           0       -0.166546   -2.150313   -0.242291
     13          1           0       -2.523086   -0.747211    1.379701
     14          1           0       -3.809451    0.022818    0.446195
     15          1           0       -2.548064    1.004033    1.195978
     16          1           0       -2.164854    0.740982   -1.281320
     17          1           0       -2.142103   -0.999187   -1.095962
 ---------------------------------------------------------------------

 SCF Done:  E(RHF) =  -324.900545991     A.U. after    2 cycles

 The electronic state is 1-A.
 Alpha  occ. eigenvalues --  -15.62719 -11.27828 -11.27738 -11.26114 -11.25206
 Alpha  occ. eigenvalues --  -11.24816 -11.24569 -11.23274  -1.22924  -1.09516
 Alpha  occ. eigenvalues --   -1.04909  -0.99474  -0.88066  -0.85693  -0.81217
 Alpha  occ. eigenvalues --   -0.71255  -0.67793  -0.64169  -0.60638  -0.59921
 Alpha  occ. eigenvalues --   -0.57301  -0.56135  -0.54010  -0.51714  -0.50462
 Alpha  occ. eigenvalues --   -0.49341  -0.40735  -0.37787  -0.33852
 Alpha virt. eigenvalues --    0.03114   0.03640   0.04526   0.04942   0.05496
 Alpha virt. eigenvalues --    0.06092   0.07176   0.07652   0.08356   0.09352
 Alpha virt. eigenvalues --    0.10413   0.10976   0.11541   0.12537   0.13609

 Mulliken charges:
               1
     1  C    0.485064
     2  C   -0.032235
     3  C    0.530117
     4  C    0.768204
     5  C    0.536571
     6  C    0.331901
     7  C    0.104750
     8  N   -0.544093
     9  H   -0.395380
    10  H   -0.555369
    11  H   -0.345678
    12  H   -0.431670
    13  H   -0.086053
    14  H   -0.079914
    15  H   -0.093589
    16  H   -0.091907
    17  H   -0.100719
 Sum of Mulliken charges =  -0.00000

 Dipole moment (field-independent basis, Debye):
    X=             -1.5779    Y=              1.9085    Z=             -0.2787  Tot=              2.4919

 Test job not archived.
 1\1\GINC-SE012\SP\RHF\Aug-CC-pVDZ\C7H9N1\OHZDE\05-Apr-2025\0\\#t hf au
 g-cc-pvdz iop(5/13=1,5/36=2,99/5=2) pseudo=read geom=check guess=(read
 ,tcheck) scf=(maxcycle=1)\\title\\0,1\C,0,1.635229,1.169984,0.080429\C
 ,0,0.276934,1.186693,-0.201516\C,0,2.267258,-0.057658,0.237114\C,0,0.3
 24908,-1.186647,-0.14846\C,0,-0.416052,-0.015986,-0.320449\C,0,-2.7454
 23,0.061771,0.682967\C,0,-1.897892,-0.062347,-0.591011\N,0,1.628799,-1
 .222087,0.123692\H,0,2.197669,2.088931,0.173539\H,0,-0.242156,2.128401
 ,-0.334054\H,0,3.327219,-0.1087,0.457919\H,0,-0.166546,-2.150313,-0.24

 Normal termination of Gaussian 16 at Sat Apr  5 22:38:38 2025.
