 Gaussian 16, Revision C.01,

 ----------------------------------------------------------------------
 #t hf aug-cc-pvdz symm=none int=(grid=ultrafine) guess=(read,tcheck) s
 table=(opt,rrhf)
 ----------------------------------------------------------------------
 -----
 title
 -----
 Symbolic Z-matrix:
 Charge =  0 Multiplicity = 1

 SCF Done:  E(RHF) =  -549.074313137     A.U. after   17 cycles
 Normal termination of Gaussian 16 at Sat Apr  5 22:38:24 2025.
 Gaussian 16:  ES64L-G16RevC.01  3-Jul-2019

 ----------------------------------------------------------------------
 #t hf aug-cc-pvdz iop(5/13=1,5/36=2,99/5=2) pseudo=read geom=check gue
 ss=(read,tcheck) scf=(maxcycle=1)
 ----------------------------------------------------------------------
 -----
 title
 -----
 Structure from the checkpoint file:  "3-fluoro-2-nitropyridine.chk"
 Charge =  0 Multiplicity = 1

                         Standard orientation:
 ---------------------------------------------------------------------
 Center     Atomic      Atomic             Coordinates (Angstroms)
 Number     Number       Type             X           Y           Z
 ---------------------------------------------------------------------
      1          9           0        0.201937    2.092857   -0.235362
      2          8           0        2.218016   -1.126868   -0.702067
      3          8           0        2.244199    0.459327    0.785864
      4          7           0       -0.418686   -1.425726    0.129866
      5          7           0        1.685363   -0.319981    0.031773
      6          6           0        0.196563   -0.271665    0.023108
      7          6           0       -0.463634    0.946200   -0.091353
      8          6           0       -1.846644    0.947840   -0.089972
      9          6           0       -2.503225   -0.267010    0.041067
     10          6           0       -1.749398   -1.430562    0.150722
     11          1           0       -2.376584    1.884122   -0.192026
     12          1           0       -3.582748   -0.311349    0.052145
     13          1           0       -2.224534   -2.397029    0.254856
 ---------------------------------------------------------------------

 SCF Done:  E(RHF) =  -549.243308497     A.U. after    2 cycles

 The electronic state is 1-A.
 Alpha  occ. eigenvalues --  -26.17713 -20.63100 -20.62865 -15.92959 -15.68820
 Alpha  occ. eigenvalues --  -11.39458 -11.37916 -11.32676 -11.31164 -11.30187
 Alpha  occ. eigenvalues --   -1.71976  -1.56487  -1.38146  -1.30059  -1.13613
 Alpha  occ. eigenvalues --   -1.11163  -0.99417  -0.93406  -0.88715  -0.82810
 Alpha  occ. eigenvalues --   -0.80124  -0.79527  -0.79249  -0.74887  -0.73190
 Alpha  occ. eigenvalues --   -0.71069  -0.68992  -0.63203  -0.61122  -0.59835
 Alpha  occ. eigenvalues --   -0.53097  -0.52553  -0.48260  -0.46851  -0.43343
 Alpha  occ. eigenvalues --   -0.39622
 Alpha virt. eigenvalues --    0.01943   0.03319   0.03724   0.04864   0.06389
 Alpha virt. eigenvalues --    0.07923   0.08409   0.09420   0.10157   0.10850
 Alpha virt. eigenvalues --    0.12394   0.12650   0.13151   0.13260   0.13494

 Mulliken charges:
               1
     1  F   -0.246303
     2  O   -0.519598
     3  O   -0.507384
     4  N   -0.376248
     5  N    0.066363
     6  C    0.966433
     7  C    0.356655
     8  C    0.031516
     9  C    0.801216
    10  C    0.534289
    11  H   -0.381270
    12  H   -0.386679
    13  H   -0.338989
 Sum of Mulliken charges =  -0.00000

 Dipole moment (field-independent basis, Debye):
    X=             -7.0070    Y=              0.3555    Z=             -0.0581  Tot=              7.0162

 Test job not archived.
 1\1\GINC-SE108\SP\RHF\Aug-CC-pVDZ\C5H3F1N2O2\OHZDE\05-Apr-2025\0\\#t h
 f aug-cc-pvdz iop(5/13=1,5/36=2,99/5=2) pseudo=read geom=check guess=(
 read,tcheck) scf=(maxcycle=1)\\title\\0,1\F,0,0.201937,2.092857,-0.235
 362\O,0,2.218016,-1.126868,-0.702067\O,0,2.244199,0.459327,0.785864\N,
 0,-0.418686,-1.425726,0.129866\N,0,1.685363,-0.319981,0.031773\C,0,0.1
 96563,-0.271665,0.023108\C,0,-0.463634,0.9462,-0.091353\C,0,-1.846644,
 0.94784,-0.089972\C,0,-2.503225,-0.26701,0.041067\C,0,-1.749398,-1.430
 562,0.150722\H,0,-2.376584,1.884122,-0.192026\H,0,-3.582748,-0.311349,

 Normal termination of Gaussian 16 at Sat Apr  5 22:38:37 2025.
