 Gaussian 16, Revision C.01,

 ----------------------------------------------------------------------
 #t hf aug-cc-pvdz symm=none int=(grid=ultrafine) guess=(read,tcheck) s
 table=(opt,rrhf)
 ----------------------------------------------------------------------
 -----
 title
 -----
 Symbolic Z-matrix:
 Charge =  0 Multiplicity = 1

 SCF Done:  E(RHF) =  -214.733593976     A.U. after   13 cycles
 Normal termination of Gaussian 16 at Sat Apr  5 22:37:36 2025.
 Gaussian 16:  ES64L-G16RevC.01  3-Jul-2019

 ----------------------------------------------------------------------
 #t hf aug-cc-pvdz iop(5/13=1,5/36=2,99/5=2) pseudo=read geom=check gue
 ss=(read,tcheck) scf=(maxcycle=1)
 ----------------------------------------------------------------------
 -----
 title
 -----
 Structure from the checkpoint file:  "3-fluoro-propyne.chk"
 Charge =  0 Multiplicity = 1

                         Standard orientation:
 ---------------------------------------------------------------------
 Center     Atomic      Atomic             Coordinates (Angstroms)
 Number     Number       Type             X           Y           Z
 ---------------------------------------------------------------------
      1          9           0       -1.495654   -0.534690    0.000025
      2          6           0        0.759246    0.134886   -0.000021
      3          6           0       -0.629994    0.562044    0.000074
      4          6           0        1.910455   -0.197047   -0.000106
      5          1           0        2.928597   -0.497755   -0.000166
      6          1           0       -0.852940    1.155263    0.888657
      7          1           0       -0.853016    1.155403   -0.888397
 ---------------------------------------------------------------------

 SCF Done:  E(RHF) =  -214.807761241     A.U. after    2 cycles

 The electronic state is 1-A.
 Alpha  occ. eigenvalues --  -26.11623 -11.35917 -11.26287 -11.25832  -1.64637
 Alpha  occ. eigenvalues --   -1.07332  -0.98101  -0.78053  -0.75746  -0.74538
 Alpha  occ. eigenvalues --   -0.71874  -0.61030  -0.58935  -0.42354  -0.41101
 Alpha virt. eigenvalues --    0.03380   0.03904   0.05449   0.08756   0.09688
 Alpha virt. eigenvalues --    0.10323   0.11238   0.13467   0.15357   0.16227
 Alpha virt. eigenvalues --    0.16373   0.16535   0.17166   0.19971   0.21937

 Mulliken charges:
               1
     1  F   -0.419878
     2  C   -0.758080
     3  C    0.544299
     4  C    1.166427
     5  H   -0.488661
     6  H   -0.022055
     7  H   -0.022053
 Sum of Mulliken charges =   0.00000

 Dipole moment (field-independent basis, Debye):
    X=              1.3659    Y=              1.8149    Z=              0.0001  Tot=              2.2714

 Test job not archived.
 1\1\GINC-SE220\SP\RHF\Aug-CC-pVDZ\C3H3F1\OHZDE\05-Apr-2025\0\\#t hf au
 g-cc-pvdz iop(5/13=1,5/36=2,99/5=2) pseudo=read geom=check guess=(read
 ,tcheck) scf=(maxcycle=1)\\title\\0,1\F,0,-1.495654,-0.53469,0.000025\
 C,0,0.759246,0.134886,-0.000021\C,0,-0.629994,0.562044,0.000074\C,0,1.
 910455,-0.197047,-0.000106\H,0,2.928597,-0.497755,-0.000166\H,0,-0.852
 94,1.155263,0.888657\H,0,-0.853016,1.155403,-0.888397\\Version=ES64L-G
 16RevC.01\State=1-A\HF=-214.8077612\RMSD=9.929e-03\Dipole=0.5373688,0.
 7140347,0.0000368\Quadrupole=1.272921,-0.5379413,-0.7349796,-3.0913426

 Normal termination of Gaussian 16 at Sat Apr  5 22:37:37 2025.
