 Gaussian 16, Revision C.01,

 ----------------------------------------------------------------------
 #t hf aug-cc-pvdz symm=none int=(grid=ultrafine) guess=(read,tcheck) s
 table=(opt,rrhf)
 ----------------------------------------------------------------------
 -----
 title
 -----
 Symbolic Z-matrix:
 Charge =  0 Multiplicity = 1

 SCF Done:  E(RHF) =  -234.204870229     A.U. after   13 cycles
 Normal termination of Gaussian 16 at Sat Apr  5 22:36:40 2025.
 Gaussian 16:  ES64L-G16RevC.01  3-Jul-2019

 ----------------------------------------------------------------------
 #t hf aug-cc-pvdz iop(5/13=1,5/36=2,99/5=2) pseudo=read geom=check gue
 ss=(read,tcheck) scf=(maxcycle=1)
 ----------------------------------------------------------------------
 -----
 title
 -----
 Structure from the checkpoint file:  "3-hexene.chk"
 Charge =  0 Multiplicity = 1

                         Standard orientation:
 ---------------------------------------------------------------------
 Center     Atomic      Atomic             Coordinates (Angstroms)
 Number     Number       Type             X           Y           Z
 ---------------------------------------------------------------------
      1          6           0        0.392949    0.006753   -0.314271
      2          6           0        1.845922   -0.344618   -0.447971
      3          6           0        2.755670    0.526135    0.427735
      4          6           0       -2.464073    0.895132   -0.087612
      5          6           0       -2.023839   -0.525165    0.253168
      6          6           0       -0.559417   -0.825207    0.095654
      7          1           0        0.134394    1.030172   -0.571721
      8          1           0        2.150834   -0.225520   -1.493272
      9          1           0        1.992029   -1.398584   -0.200685
     10          1           0        2.631761    1.584844    0.191968
     11          1           0        2.523122    0.393155    1.485148
     12          1           0        3.806004    0.272696    0.276534
     13          1           0       -1.961620    1.631077    0.541868
     14          1           0       -2.247135    1.142851   -1.127808
     15          1           0       -3.538045    1.008319    0.062785
     16          1           0       -2.588225   -1.237015   -0.359875
     17          1           0       -2.312564   -0.756467    1.284752
     18          1           0       -0.273824   -1.843703    0.350091
 ---------------------------------------------------------------------

 SCF Done:  E(RHF) =  -234.281034413     A.U. after    2 cycles

 The electronic state is 1-A.
 Alpha  occ. eigenvalues --  -11.23253 -11.23006 -11.22943 -11.22624 -11.22165
 Alpha  occ. eigenvalues --  -11.22140  -1.08253  -1.03080  -0.96056  -0.87547
 Alpha  occ. eigenvalues --   -0.81987  -0.73191  -0.63379  -0.61513  -0.61083
 Alpha  occ. eigenvalues --   -0.58714  -0.55050  -0.52700  -0.50765  -0.49611
 Alpha  occ. eigenvalues --   -0.49321  -0.47798  -0.46384  -0.34449
 Alpha virt. eigenvalues --    0.03587   0.04094   0.04460   0.04870   0.05873
 Alpha virt. eigenvalues --    0.06360   0.06607   0.07359   0.07933   0.08504
 Alpha virt. eigenvalues --    0.08913   0.10425   0.12788   0.12959   0.13644

 Mulliken charges:
               1
     1  C    0.657791
     2  C   -0.002244
     3  C    0.335228
     4  C    0.596101
     5  C   -0.141731
     6  C    0.120705
     7  H   -0.600272
     8  H    0.025876
     9  H   -0.146771
    10  H   -0.074744
    11  H   -0.077946
    12  H   -0.098396
    13  H   -0.030302
    14  H   -0.024239
    15  H   -0.130592
    16  H    0.044514
    17  H    0.044274
    18  H   -0.497251
 Sum of Mulliken charges =  -0.00000

 Dipole moment (field-independent basis, Debye):
    X=             -0.0936    Y=             -0.0563    Z=              0.0166  Tot=              0.1105

 Test job not archived.
 1\1\GINC-SE221\SP\RHF\Aug-CC-pVDZ\C6H12\OHZDE\05-Apr-2025\0\\#t hf aug
 -cc-pvdz iop(5/13=1,5/36=2,99/5=2) pseudo=read geom=check guess=(read,
 tcheck) scf=(maxcycle=1)\\title\\0,1\C,0,0.392949,0.006753,-0.314271\C
 ,0,1.845922,-0.344618,-0.447971\C,0,2.75567,0.526135,0.427735\C,0,-2.4
 64073,0.895132,-0.087612\C,0,-2.023839,-0.525165,0.253168\C,0,-0.55941
 7,-0.825207,0.095654\H,0,0.134394,1.030172,-0.571721\H,0,2.150834,-0.2
 2552,-1.493272\H,0,1.992029,-1.398584,-0.200685\H,0,2.631761,1.584844,
 0.191968\H,0,2.523122,0.393155,1.485148\H,0,3.806004,0.272696,0.276534

 Normal termination of Gaussian 16 at Sat Apr  5 22:37:37 2025.
