 Gaussian 16, Revision C.01,

 ----------------------------------------------------------------------
 #t hf aug-cc-pvdz symm=none int=(grid=ultrafine) guess=(read,tcheck) s
 table=(opt,rrhf)
 ----------------------------------------------------------------------
 -----
 title
 -----
 Symbolic Z-matrix:
 Charge =  0 Multiplicity = 1

 SCF Done:  E(RHF) =  -310.263254276     A.U. after   12 cycles

 1\1\GINC-SE221\Stability\RHF\Aug-CC-pVDZ\C6H14O1\OHZDE\05-Apr-2025\0\\
 #t hf aug-cc-pvdz symm=none int=(grid=ultrafine) guess=(read,tcheck) s
 table=(opt,rrhf)\\title\\0,1\C,0,-3.258638,-0.287523,0.090842\C,0,2.74
 971,-0.958717,-0.125572\C,0,-1.803228,-0.542577,-0.299578\C,0,1.324767
 ,-0.757447,0.38739\C,0,-0.859239,0.560574,0.183682\C,0,0.597669,0.4138
 2,-0.263537\O,0,1.346525,1.592486,0.069305\H,0,-3.369799,-0.222411,1.1
 74974\H,0,-3.623837,0.649674,-0.334114\H,0,-3.910731,-1.087613,-0.2617
 28\H,0,3.360328,-0.076592,0.059161\H,0,3.223088,-1.809507,0.366235\H,0

 Normal termination of Gaussian 16 at Sat Apr  5 22:37:05 2025.
 Gaussian 16:  ES64L-G16RevC.01  3-Jul-2019

 ----------------------------------------------------------------------
 #t hf aug-cc-pvdz iop(5/13=1,5/36=2,99/5=2) pseudo=read geom=check gue
 ss=(read,tcheck) scf=(maxcycle=1)
 ----------------------------------------------------------------------
 -----
 title
 -----
 Structure from the checkpoint file:  "3-hexanol.chk"
 Charge =  0 Multiplicity = 1

                         Standard orientation:
 ---------------------------------------------------------------------
 Center     Atomic      Atomic             Coordinates (Angstroms)
 Number     Number       Type             X           Y           Z
 ---------------------------------------------------------------------
      1          6           0       -3.258638   -0.287524    0.090842
      2          6           0        2.749710   -0.958717   -0.125572
      3          6           0       -1.803228   -0.542577   -0.299578
      4          6           0        1.324767   -0.757447    0.387390
      5          6           0       -0.859239    0.560574    0.183682
      6          6           0        0.597669    0.413820   -0.263537
      7          8           0        1.346525    1.592486    0.069305
      8          1           0       -3.369799   -0.222412    1.174974
      9          1           0       -3.623837    0.649673   -0.334114
     10          1           0       -3.910731   -1.087614   -0.261728
     11          1           0        3.360328   -0.076592    0.059161
     12          1           0        3.223088   -1.809507    0.366235
     13          1           0        2.756534   -1.152346   -1.200530
     14          1           0       -1.487941   -1.506260    0.106282
     15          1           0       -1.729119   -0.630970   -1.387734
     16          1           0        1.337132   -0.587285    1.467729
     17          1           0        0.744175   -1.665979    0.216421
     18          1           0       -1.230746    1.521745   -0.190767
     19          1           0       -0.885745    0.627798    1.275431
     20          1           0        0.618632    0.275514   -1.354253
     21          1           0        0.919582    2.355577   -0.330907
 ---------------------------------------------------------------------

 SCF Done:  E(RHF) =  -310.362746178     A.U. after    2 cycles

 The electronic state is 1-A.
 Alpha  occ. eigenvalues --  -20.56421 -11.28432 -11.23230 -11.22849 -11.22541
 Alpha  occ. eigenvalues --  -11.22349 -11.21381  -1.31395  -1.07278  -1.02882
 Alpha  occ. eigenvalues --   -0.95776  -0.87344  -0.81761  -0.78166  -0.70811
 Alpha  occ. eigenvalues --   -0.63972  -0.62893  -0.59429  -0.58383  -0.56593
 Alpha  occ. eigenvalues --   -0.55431  -0.53693  -0.51337  -0.49959  -0.49018
 Alpha  occ. eigenvalues --   -0.47842  -0.47135  -0.45335  -0.43626
 Alpha virt. eigenvalues --    0.03405   0.04215   0.04245   0.04635   0.05954
 Alpha virt. eigenvalues --    0.06243   0.06408   0.06807   0.07585   0.08458
 Alpha virt. eigenvalues --    0.08743   0.08912   0.10768   0.10987   0.12722

 Mulliken charges:
               1
     1  C    0.477803
     2  C    0.444086
     3  C    0.217784
     4  C    0.200771
     5  C    0.184639
     6  C    0.429368
     7  O   -0.644472
     8  H   -0.067675
     9  H   -0.094139
    10  H   -0.068817
    11  H   -0.043388
    12  H   -0.058426
    13  H   -0.089782
    14  H   -0.178278
    15  H   -0.123205
    16  H   -0.076325
    17  H   -0.151463
    18  H   -0.116597
    19  H   -0.106669
    20  H   -0.268682
    21  H    0.133466
 Sum of Mulliken charges =  -0.00000

 Dipole moment (field-independent basis, Debye):
    X=             -1.6157    Y=             -0.2218    Z=             -0.8870  Tot=              1.8564

 Test job not archived.
 1\1\GINC-SE221\SP\RHF\Aug-CC-pVDZ\C6H14O1\OHZDE\05-Apr-2025\0\\#t hf a
 ug-cc-pvdz iop(5/13=1,5/36=2,99/5=2) pseudo=read geom=check guess=(rea
 d,tcheck) scf=(maxcycle=1)\\title\\0,1\C,0,-3.258638,-0.287523,0.09084
 2\C,0,2.74971,-0.958717,-0.125572\C,0,-1.803228,-0.542577,-0.299578\C,
 0,1.324767,-0.757447,0.38739\C,0,-0.859239,0.560574,0.183682\C,0,0.597
 669,0.41382,-0.263537\O,0,1.346525,1.592486,0.069305\H,0,-3.369799,-0.
 222411,1.174974\H,0,-3.623837,0.649674,-0.334114\H,0,-3.910731,-1.0876
 13,-0.261728\H,0,3.360328,-0.076592,0.059161\H,0,3.223088,-1.809507,0.

 Normal termination of Gaussian 16 at Sat Apr  5 22:37:39 2025.
