 Gaussian 16, Revision C.01,

 ----------------------------------------------------------------------
 #t hf aug-cc-pvdz symm=none int=(grid=ultrafine) guess=(read,tcheck) s
 table=(opt,rrhf)
 ----------------------------------------------------------------------
 -----
 title
 -----
 Symbolic Z-matrix:
 Charge =  0 Multiplicity = 1

 SCF Done:  E(RHF) =  -233.003150096     A.U. after   13 cycles
 Normal termination of Gaussian 16 at Sat Apr  5 22:36:31 2025.
 Gaussian 16:  ES64L-G16RevC.01  3-Jul-2019

 ----------------------------------------------------------------------
 #t hf aug-cc-pvdz iop(5/13=1,5/36=2,99/5=2) pseudo=read geom=check gue
 ss=(read,tcheck) scf=(maxcycle=1)
 ----------------------------------------------------------------------
 -----
 title
 -----
 Structure from the checkpoint file:  "3-hexyne.chk"
 Charge =  0 Multiplicity = 1

                         Standard orientation:
 ---------------------------------------------------------------------
 Center     Atomic      Atomic             Coordinates (Angstroms)
 Number     Number       Type             X           Y           Z
 ---------------------------------------------------------------------
      1          6           0       -0.218611   -2.656740    0.856457
      2          6           0        0.218611    2.656740    0.856457
      3          6           0        0.001222    2.061425   -0.542357
      4          6           0       -0.001222   -2.061425   -0.542357
      5          6           0        0.001222   -0.601199   -0.556308
      6          6           0       -0.001222    0.601199   -0.556308
      7          1           0       -0.212880   -3.746339    0.811070
      8          1           0        0.212880    3.746339    0.811070
      9          1           0        1.174145    2.335610    1.270132
     10          1           0       -0.567645    2.337886    1.540172
     11          1           0        0.567645   -2.337886    1.540172
     12          1           0       -1.174145   -2.335610    1.270132
     13          1           0        0.780734    2.424674   -1.217851
     14          1           0       -0.945635    2.426023   -0.950275
     15          1           0        0.945635   -2.426023   -0.950275
     16          1           0       -0.780734   -2.424674   -1.217851
 ---------------------------------------------------------------------

 SCF Done:  E(RHF) =  -233.079782621     A.U. after    2 cycles

 The electronic state is 1-A.
 Alpha  occ. eigenvalues --  -11.25427 -11.25420 -11.22963 -11.22963 -11.22528
 Alpha  occ. eigenvalues --  -11.22131  -1.07344  -1.04411  -0.96902  -0.87861
 Alpha  occ. eigenvalues --   -0.84871  -0.66547  -0.63109  -0.62741  -0.61810
 Alpha  occ. eigenvalues --   -0.54978  -0.54581  -0.52023  -0.51723  -0.51349
 Alpha  occ. eigenvalues --   -0.50469  -0.36400  -0.36229
 Alpha virt. eigenvalues --    0.03591   0.03751   0.04841   0.04964   0.06097
 Alpha virt. eigenvalues --    0.06171   0.06549   0.07417   0.08317   0.08618
 Alpha virt. eigenvalues --    0.11501   0.12448   0.13196   0.13768   0.14224

 Mulliken charges:
               1
     1  C    0.445070
     2  C    0.445070
     3  C   -0.038805
     4  C   -0.038805
     5  C   -0.522871
     6  C   -0.522871
     7  H   -0.070861
     8  H   -0.070861
     9  H   -0.057247
    10  H   -0.057431
    11  H   -0.057431
    12  H   -0.057247
    13  H    0.152111
    14  H    0.150034
    15  H    0.150034
    16  H    0.152111
 Sum of Mulliken charges =  -0.00000

 Dipole moment (field-independent basis, Debye):
    X=             -0.0000    Y=             -0.0000    Z=              0.1313  Tot=              0.1313

 Test job not archived.
 1\1\GINC-SE222\SP\RHF\Aug-CC-pVDZ\C6H10\OHZDE\05-Apr-2025\0\\#t hf aug
 -cc-pvdz iop(5/13=1,5/36=2,99/5=2) pseudo=read geom=check guess=(read,
 tcheck) scf=(maxcycle=1)\\title\\0,1\C,0,-0.218611,-2.65674,0.856457\C
 ,0,0.218611,2.65674,0.856457\C,0,0.001222,2.061425,-0.542357\C,0,-0.00
 1222,-2.061425,-0.542357\C,0,0.001222,-0.601199,-0.556308\C,0,-0.00122
 2,0.601199,-0.556308\H,0,-0.21288,-3.746339,0.81107\H,0,0.21288,3.7463
 39,0.81107\H,0,1.174145,2.33561,1.270132\H,0,-0.567645,2.337886,1.5401
 72\H,0,0.567645,-2.337886,1.540172\H,0,-1.174145,-2.33561,1.270132\H,0

 Normal termination of Gaussian 16 at Sat Apr  5 22:37:34 2025.
