 Gaussian 16, Revision C.01,

 ----------------------------------------------------------------------
 #t hf aug-cc-pvdz symm=none int=(grid=ultrafine) guess=(read,tcheck) s
 table=(opt,rrhf)
 ----------------------------------------------------------------------
 -----
 title
 -----
 Symbolic Z-matrix:
 Charge =  0 Multiplicity = 1

 SCF Done:  E(RHF) =  -418.345941327     A.U. after   16 cycles
 Normal termination of Gaussian 16 at Sat Apr  5 22:38:26 2025.
 Gaussian 16:  ES64L-G16RevC.01  3-Jul-2019

 ----------------------------------------------------------------------
 #t hf aug-cc-pvdz iop(5/13=1,5/36=2,99/5=2) pseudo=read geom=check gue
 ss=(read,tcheck) scf=(maxcycle=1)
 ----------------------------------------------------------------------
 -----
 title
 -----
 Structure from the checkpoint file:  "3-hydroxybenzaldehyde.chk"
 Charge =  0 Multiplicity = 1

                         Standard orientation:
 ---------------------------------------------------------------------
 Center     Atomic      Atomic             Coordinates (Angstroms)
 Number     Number       Type             X           Y           Z
 ---------------------------------------------------------------------
      1          6           0        1.664907   -0.863089    0.000000
      2          6           0        1.344951    0.483532   -0.000000
      3          6           0        0.661934   -1.830509    0.000000
      4          6           0       -1.007329   -0.096986   -0.000000
      5          6           0       -0.000000    0.864343   -0.000000
      6          6           0       -0.676595   -1.448300    0.000000
      7          6           0       -0.383063    2.293828   -0.000000
      8          8           0        0.394376    3.219298   -0.000000
      9          8           0       -1.703952   -2.348067    0.000000
     10          1           0        2.700183   -1.175867    0.000000
     11          1           0        2.108986    1.247054   -0.000000
     12          1           0        0.922410   -2.882429    0.000000
     13          1           0       -2.049997    0.193551   -0.000000
     14          1           0       -1.476268    2.476862   -0.000000
     15          1           0       -1.357530   -3.245935    0.000000
 ---------------------------------------------------------------------

 SCF Done:  E(RHF) =  -418.472784035     A.U. after    2 cycles

 The electronic state is 1-A'.
 Alpha  occ. eigenvalues --  -20.62004 -20.57433 -11.34932 -11.33135 -11.26751
 Alpha  occ. eigenvalues --  -11.26688 -11.26575 -11.26410 -11.25514  -1.38347
 Alpha  occ. eigenvalues --   -1.36088  -1.16427  -1.05076  -1.02545  -0.90881
 Alpha  occ. eigenvalues --   -0.85353  -0.82265  -0.74714  -0.71147  -0.68766
 Alpha  occ. eigenvalues --   -0.67240  -0.64216  -0.62350  -0.62056  -0.59549
 Alpha  occ. eigenvalues --   -0.56417  -0.54791  -0.52820  -0.49912  -0.44542
 Alpha  occ. eigenvalues --   -0.36683  -0.33848
 Alpha virt. eigenvalues --    0.02490   0.03854   0.04187   0.05335   0.05693
 Alpha virt. eigenvalues --    0.06362   0.07442   0.08637   0.10613   0.10680
 Alpha virt. eigenvalues --    0.11440   0.12149   0.12626   0.13579   0.13819

 Mulliken charges:
               1
     1  C    0.423838
     2  C    0.243720
     3  C    0.459166
     4  C    0.294837
     5  C    0.842725
     6  C    0.408522
     7  C    0.653239
     8  O   -0.496972
     9  O   -0.595331
    10  H   -0.436831
    11  H   -0.562001
    12  H   -0.558167
    13  H   -0.530085
    14  H   -0.290451
    15  H    0.143791
 Sum of Mulliken charges =  -0.00000

 Dipole moment (field-independent basis, Debye):
    X=             -0.2089    Y=             -4.4435    Z=             -0.0000  Tot=              4.4484

 Test job not archived.
 1\1\GINC-SE194\SP\RHF\Aug-CC-pVDZ\C7H6O2\OHZDE\05-Apr-2025\0\\#t hf au
 g-cc-pvdz iop(5/13=1,5/36=2,99/5=2) pseudo=read geom=check guess=(read
 ,tcheck) scf=(maxcycle=1)\\title\\0,1\C,0,1.664907,-0.863089,0.\C,0,1.
 344951,0.483532,0.\C,0,0.661934,-1.830509,0.\C,0,-1.007329,-0.096986,0
 .\C,0,0.,0.864343,0.\C,0,-0.676595,-1.4483,0.\C,0,-0.383063,2.293828,0
 .\O,0,0.394376,3.219298,0.\O,0,-1.703952,-2.348067,0.\H,0,2.700183,-1.
 175867,0.\H,0,2.108986,1.247054,0.\H,0,0.922411,-2.882429,0.\H,0,-2.04
 9997,0.193551,0.\H,0,-1.476268,2.476862,0.\H,0,-1.357529,-3.245935,0.\

 Normal termination of Gaussian 16 at Sat Apr  5 22:38:38 2025.
