 Gaussian 16, Revision C.01,

 ----------------------------------------------------------------------
 #t hf aug-cc-pvdz symm=none int=(grid=ultrafine) guess=(read,tcheck) s
 table=(opt,rrhf)
 ----------------------------------------------------------------------
 -----
 title
 -----
 Symbolic Z-matrix:
 Charge =  0 Multiplicity = 1

 SCF Done:  E(RHF) =  -397.344756225     A.U. after   17 cycles
 Normal termination of Gaussian 16 at Sat Apr  5 22:38:37 2025.
 Gaussian 16:  ES64L-G16RevC.01  3-Jul-2019

 ----------------------------------------------------------------------
 #t hf aug-cc-pvdz iop(5/13=1,5/36=2,99/5=2) pseudo=read geom=check gue
 ss=(read,tcheck) scf=(maxcycle=1)
 ----------------------------------------------------------------------
 -----
 title
 -----
 Structure from the checkpoint file:  "3-hydroxybenzonitrile.chk"
 Charge =  0 Multiplicity = 1

                         Standard orientation:
 ---------------------------------------------------------------------
 Center     Atomic      Atomic             Coordinates (Angstroms)
 Number     Number       Type             X           Y           Z
 ---------------------------------------------------------------------
      1          6           0        2.334677    0.206359    0.000000
      2          6           0       -0.822718   -1.740768   -0.000000
      3          6           0        0.532575   -1.450511    0.000000
      4          6           0       -1.767452   -0.721730   -0.000000
      5          6           0        0.000000    0.919953    0.000000
      6          6           0        0.939278   -0.111681    0.000000
      7          6           0       -1.355148    0.609356   -0.000000
      8          7           0        3.459374    0.456489    0.000000
      9          8           0       -2.231417    1.653230   -0.000000
     10          1           0       -1.151423   -2.770634   -0.000000
     11          1           0        1.270286   -2.238560    0.000000
     12          1           0       -2.824291   -0.959586   -0.000000
     13          1           0        0.311031    1.954012    0.000000
     14          1           0       -3.137157    1.327636   -0.000000
 ---------------------------------------------------------------------

 SCF Done:  E(RHF) =  -397.462736135     A.U. after    2 cycles

 The electronic state is 1-A'.
 Alpha  occ. eigenvalues --  -20.62744 -15.64360 -11.34174 -11.30570 -11.29187
 Alpha  occ. eigenvalues --  -11.27838 -11.27489 -11.27430 -11.27267  -1.39203
 Alpha  occ. eigenvalues --   -1.20496  -1.17108  -1.06114  -1.03880  -0.90731
 Alpha  occ. eigenvalues --   -0.86382  -0.80561  -0.72342  -0.70268  -0.68223
 Alpha  occ. eigenvalues --   -0.63719  -0.63170  -0.61222  -0.56838  -0.55122
 Alpha  occ. eigenvalues --   -0.54725  -0.53534  -0.47847  -0.47098  -0.36941
 Alpha  occ. eigenvalues --   -0.34881
 Alpha virt. eigenvalues --    0.02098   0.03425   0.04586   0.05394   0.05959
 Alpha virt. eigenvalues --    0.06473   0.08821   0.09197   0.09618   0.11058
 Alpha virt. eigenvalues --    0.11976   0.12297   0.12778   0.13285   0.13341

 Mulliken charges:
               1
     1  C   -1.177193
     2  C    0.376690
     3  C    0.196459
     4  C    0.632152
     5  C    0.275269
     6  C    1.934996
     7  C    0.342096
     8  N   -0.125093
     9  O   -0.571837
    10  H   -0.417207
    11  H   -0.543562
    12  H   -0.557634
    13  H   -0.508890
    14  H    0.143753
 Sum of Mulliken charges =  -0.00000

 Dipole moment (field-independent basis, Debye):
    X=             -5.5494    Y=             -2.1773    Z=             -0.0000  Tot=              5.9613

 Test job not archived.
 1\1\GINC-SE014\SP\RHF\Aug-CC-pVDZ\C7H5N1O1\OHZDE\05-Apr-2025\0\\#t hf
 aug-cc-pvdz iop(5/13=1,5/36=2,99/5=2) pseudo=read geom=check guess=(re
 ad,tcheck) scf=(maxcycle=1)\\title\\0,1\C,0,2.334677,0.20636,0.\C,0,-0
 .822717,-1.740768,0.\C,0,0.532576,-1.450511,0.\C,0,-1.767452,-0.72173,
 0.\C,0,0.,0.919953,0.\C,0,0.939278,-0.111681,0.\C,0,-1.355148,0.609356
 ,0.\N,0,3.459374,0.45649,0.\O,0,-2.231417,1.653229,0.\H,0,-1.151422,-2
 .770634,0.\H,0,1.270287,-2.23856,0.\H,0,-2.824291,-0.959587,0.\H,0,0.3
 11031,1.954012,0.\H,0,-3.137157,1.327635,0.\\Version=ES64L-G16RevC.01\

 Normal termination of Gaussian 16 at Sat Apr  5 22:39:13 2025.
