 Gaussian 16, Revision C.01,

 ----------------------------------------------------------------------
 #t hf aug-cc-pvdz symm=none int=(grid=ultrafine) guess=(read,tcheck) s
 table=(opt,rrhf)
 ----------------------------------------------------------------------
 -----
 title
 -----
 Symbolic Z-matrix:
 Charge =  0 Multiplicity = 1

 SCF Done:  E(RHF) =  -1039.67997996     A.U. after   15 cycles
 Normal termination of Gaussian 16 at Sat Apr  5 22:36:20 2025.
 Gaussian 16:  ES64L-G16RevC.01  3-Jul-2019

 ----------------------------------------------------------------------
 #t hf aug-cc-pvdz iop(5/13=1,5/36=2,99/5=2) pseudo=read geom=check gue
 ss=(read,tcheck) scf=(maxcycle=1)
 ----------------------------------------------------------------------
 -----
 title
 -----
 Structure from the checkpoint file:  "3-hydroxy-1-3-thiazole-23H-thione.chk"
 Charge =  0 Multiplicity = 1

                         Standard orientation:
 ---------------------------------------------------------------------
 Center     Atomic      Atomic             Coordinates (Angstroms)
 Number     Number       Type             X           Y           Z
 ---------------------------------------------------------------------
      1         16           0        1.022965   -1.331872    0.000004
      2         16           0       -2.014356   -0.693644   -0.000004
      3          8           0       -0.819041    2.032145   -0.000005
      4          7           0        0.058506    0.978276   -0.000000
      5          6           0        1.414989    1.194251    0.000002
      6          6           0       -0.395063   -0.296584   -0.000000
      7          6           0        2.103807    0.039075    0.000005
      8          1           0        1.783115    2.205430    0.000001
      9          1           0        3.171199   -0.084468    0.000008
     10          1           0       -1.691668    1.561773   -0.000006
 ---------------------------------------------------------------------

 SCF Done:  E(RHF) =  -1039.79390258     A.U. after    2 cycles

 The electronic state is 1-A.
 Alpha  occ. eigenvalues --  -93.60394 -93.50121 -20.66022 -15.77726 -11.39556
 Alpha  occ. eigenvalues --  -11.33396 -11.30796  -8.90187  -8.80037  -6.24281
 Alpha  occ. eigenvalues --   -6.24142  -6.23758  -6.14298  -6.13698  -6.13693
 Alpha  occ. eigenvalues --   -1.45378  -1.26606  -1.08853  -1.06962  -0.93926
 Alpha  occ. eigenvalues --   -0.86830  -0.81545  -0.72994  -0.70094  -0.69352
 Alpha  occ. eigenvalues --   -0.66220  -0.60224  -0.55976  -0.53231  -0.51841
 Alpha  occ. eigenvalues --   -0.43306  -0.42046  -0.35175  -0.31067
 Alpha virt. eigenvalues --    0.02564   0.03935   0.05623   0.06903   0.08007
 Alpha virt. eigenvalues --    0.08717   0.09000   0.10017   0.10709   0.10744
 Alpha virt. eigenvalues --    0.12185   0.14389   0.14677   0.14773   0.15218

 Mulliken charges:
               1
     1  S    0.594807
     2  S   -0.156619
     3  O   -0.579762
     4  N    0.008558
     5  C    0.743812
     6  C   -0.268242
     7  C    0.016303
     8  H   -0.231453
     9  H   -0.350991
    10  H    0.223587
 Sum of Mulliken charges =  -0.00000

 Dipole moment (field-independent basis, Debye):
    X=              4.3842    Y=              1.4520    Z=              0.0000  Tot=              4.6184

 Test job not archived.
 1\1\GINC-SE151\SP\RHF\Aug-CC-pVDZ\C3H3N1O1S2\OHZDE\05-Apr-2025\0\\#t h
 f aug-cc-pvdz iop(5/13=1,5/36=2,99/5=2) pseudo=read geom=check guess=(
 read,tcheck) scf=(maxcycle=1)\\title\\0,1\S,0,1.022965,-1.331872,0.000
 004\S,0,-2.014356,-0.693644,-0.000004\O,0,-0.819041,2.032145,-0.000005
 \N,0,0.058506,0.978276,0.\C,0,1.414989,1.194251,0.000002\C,0,-0.395063
 ,-0.296584,0.\C,0,2.103807,0.039075,0.000005\H,0,1.783115,2.20543,0.00
 0001\H,0,3.171199,-0.084468,0.000008\H,0,-1.691668,1.561773,-0.000006\
 \Version=ES64L-G16RevC.01\State=1-A\HF=-1039.7939026\RMSD=8.373e-03\Di

 Normal termination of Gaussian 16 at Sat Apr  5 22:37:35 2025.
