 Gaussian 16, Revision C.01,

 ----------------------------------------------------------------------
 #t hf aug-cc-pvdz symm=none int=(grid=ultrafine) guess=(read,tcheck) s
 table=(opt,rrhf)
 ----------------------------------------------------------------------
 -----
 title
 -----
 Symbolic Z-matrix:
 Charge =  0 Multiplicity = 1

 SCF Done:  E(RHF) =  -434.587640422     A.U. after   14 cycles
 Normal termination of Gaussian 16 at Sat Apr  5 22:38:24 2025.
 Gaussian 16:  ES64L-G16RevC.01  3-Jul-2019

 ----------------------------------------------------------------------
 #t hf aug-cc-pvdz iop(5/13=1,5/36=2,99/5=2) pseudo=read geom=check gue
 ss=(read,tcheck) scf=(maxcycle=1)
 ----------------------------------------------------------------------
 -----
 title
 -----
 Structure from the checkpoint file:  "3-hydroxy-1-3-oxazinan-4-one.chk"
 Charge =  0 Multiplicity = 1

                         Standard orientation:
 ---------------------------------------------------------------------
 Center     Atomic      Atomic             Coordinates (Angstroms)
 Number     Number       Type             X           Y           Z
 ---------------------------------------------------------------------
      1          6           0       -0.625254    0.796229   -0.069321
      2          6           0        0.748082    1.424367   -0.171862
      3          6           0        1.831447    0.472172    0.325884
      4          6           0        0.493068   -1.432208    0.084495
      5          7           0       -0.642039   -0.552571   -0.197890
      6          8           0       -1.673211    1.417918    0.082626
      7          8           0        1.681886   -0.808195   -0.288855
      8          8           0       -1.868778   -1.171591    0.063455
      9          1           0        0.927139    1.687106   -1.216193
     10          1           0        0.732773    2.348662    0.404513
     11          1           0        2.826636    0.822193    0.062253
     12          1           0        1.780973    0.363978    1.416043
     13          1           0        0.486076   -1.691814    1.152629
     14          1           0        0.385932   -2.336757   -0.510335
     15          1           0       -2.448486   -0.393789    0.203331
 ---------------------------------------------------------------------

 SCF Done:  E(RHF) =  -434.722653323     A.U. after    2 cycles

 The electronic state is 1-A.
 Alpha  occ. eigenvalues --  -20.62695 -20.60775 -20.55607 -15.71267 -11.38179
 Alpha  occ. eigenvalues --  -11.35349 -11.32001 -11.26970  -1.42397  -1.37785
 Alpha  occ. eigenvalues --   -1.33855  -1.15173  -1.07498  -0.94911  -0.90555
 Alpha  occ. eigenvalues --   -0.80027  -0.73564  -0.73259  -0.69598  -0.68727
 Alpha  occ. eigenvalues --   -0.65348  -0.63953  -0.62101  -0.61013  -0.57969
 Alpha  occ. eigenvalues --   -0.56006  -0.52996  -0.51767  -0.48026  -0.46137
 Alpha  occ. eigenvalues --   -0.38924
 Alpha virt. eigenvalues --    0.02959   0.04112   0.04404   0.05083   0.06317
 Alpha virt. eigenvalues --    0.06510   0.07184   0.10212   0.10651   0.11675
 Alpha virt. eigenvalues --    0.12656   0.13678   0.13933   0.14384   0.14688

 Mulliken charges:
               1
     1  C    0.317233
     2  C    0.181826
     3  C    0.732566
     4  C    1.269876
     5  N   -0.269554
     6  O   -0.582167
     7  O   -0.647250
     8  O   -0.557356
     9  H    0.053766
    10  H    0.033994
    11  H   -0.211739
    12  H   -0.059893
    13  H   -0.192446
    14  H   -0.262906
    15  H    0.194052
 Sum of Mulliken charges =  -0.00000

 Dipole moment (field-independent basis, Debye):
    X=              3.1674    Y=             -0.0101    Z=              1.0389  Tot=              3.3335

 Test job not archived.
 1\1\GINC-SE155\SP\RHF\Aug-CC-pVDZ\C4H7N1O3\OHZDE\05-Apr-2025\0\\#t hf
 aug-cc-pvdz iop(5/13=1,5/36=2,99/5=2) pseudo=read geom=check guess=(re
 ad,tcheck) scf=(maxcycle=1)\\title\\0,1\C,0,-0.625254,0.796229,-0.0693
 21\C,0,0.748082,1.424367,-0.171862\C,0,1.831447,0.472172,0.325884\C,0,
 0.493068,-1.432208,0.084495\N,0,-0.642039,-0.552571,-0.19789\O,0,-1.67
 3211,1.417918,0.082626\O,0,1.681886,-0.808195,-0.288855\O,0,-1.868778,
 -1.171591,0.063455\H,0,0.927139,1.687106,-1.216193\H,0,0.732774,2.3486
 62,0.404513\H,0,2.826636,0.822192,0.062253\H,0,1.780973,0.363978,1.416

 Normal termination of Gaussian 16 at Sat Apr  5 22:38:37 2025.
