 Gaussian 16, Revision C.01,

 ----------------------------------------------------------------------
 #t hf aug-cc-pvdz symm=none int=(grid=ultrafine) guess=(read,tcheck) s
 table=(opt,rrhf)
 ----------------------------------------------------------------------
 -----
 title
 -----
 Symbolic Z-matrix:
 Charge =  0 Multiplicity = 1

 SCF Done:  E(RHF) =  -733.947959510     A.U. after   16 cycles
 Normal termination of Gaussian 16 at Sat Apr  5 22:37:50 2025.
 Gaussian 16:  ES64L-G16RevC.01  3-Jul-2019

 ----------------------------------------------------------------------
 #t hf aug-cc-pvdz iop(5/13=1,5/36=2,99/5=2) pseudo=read geom=check gue
 ss=(read,tcheck) scf=(maxcycle=1)
 ----------------------------------------------------------------------
 -----
 title
 -----
 Structure from the checkpoint file:  "3-hydroxy-1-2-thiazole-4-carbonitrile.chk"
 Charge =  0 Multiplicity = 1

                         Standard orientation:
 ---------------------------------------------------------------------
 Center     Atomic      Atomic             Coordinates (Angstroms)
 Number     Number       Type             X           Y           Z
 ---------------------------------------------------------------------
      1         16           0       -1.919398   -0.623306   -0.000004
      2          8           0        0.684500    2.053364    0.000006
      3          7           0       -1.349126    0.945938    0.000001
      4          7           0        3.124988   -0.766794    0.000002
      5          6           0        0.587079   -0.360579    0.000000
      6          6           0       -0.044852    0.929530    0.000002
      7          6           0       -0.373055   -1.340201   -0.000004
      8          6           0        1.987770   -0.580577    0.000001
      9          1           0        0.082922    2.809754    0.000007
     10          1           0       -0.221242   -2.406813   -0.000007
 ---------------------------------------------------------------------

 SCF Done:  E(RHF) =  -734.072411985     A.U. after    2 cycles

 The electronic state is 1-A.
 Alpha  occ. eigenvalues --  -93.62665 -20.64658 -15.67309 -15.65364 -11.39764
 Alpha  occ. eigenvalues --  -11.34325 -11.31582 -11.30433  -8.92152  -6.26287
 Alpha  occ. eigenvalues --   -6.26119  -6.25710  -1.42541  -1.27677  -1.20730
 Alpha  occ. eigenvalues --   -1.10828  -1.03332  -0.87468  -0.86459  -0.79559
 Alpha  occ. eigenvalues --   -0.71019  -0.67255  -0.66858  -0.61627  -0.57035
 Alpha  occ. eigenvalues --   -0.56115  -0.53185  -0.51198  -0.50115  -0.46833
 Alpha  occ. eigenvalues --   -0.40461  -0.36973
 Alpha virt. eigenvalues --    0.02907   0.03411   0.04873   0.06424   0.07492
 Alpha virt. eigenvalues --    0.08068   0.09295   0.09639   0.12305   0.12466
 Alpha virt. eigenvalues --    0.12680   0.12771   0.12853   0.14446   0.14472

 Mulliken charges:
               1
     1  S    0.907918
     2  O   -0.530633
     3  N   -0.835049
     4  N   -0.120599
     5  C    1.420366
     6  C    0.490364
     7  C   -0.197272
     8  C   -0.930640
     9  H    0.174056
    10  H   -0.378510
 Sum of Mulliken charges =  -0.00000

 Dipole moment (field-independent basis, Debye):
    X=             -3.6799    Y=             -0.4613    Z=             -0.0000  Tot=              3.7087

 Test job not archived.
 1\1\GINC-SE223\SP\RHF\Aug-CC-pVDZ\C4H2N2O1S1\OHZDE\05-Apr-2025\0\\#t h
 f aug-cc-pvdz iop(5/13=1,5/36=2,99/5=2) pseudo=read geom=check guess=(
 read,tcheck) scf=(maxcycle=1)\\title\\0,1\S,0,-1.919398,-0.623306,-0.0
 00004\O,0,0.6845,2.053364,0.000006\N,0,-1.349126,0.945938,0.000001\N,0
 ,3.124988,-0.766794,0.000002\C,0,0.587079,-0.360579,0.\C,0,-0.044852,0
 .92953,0.000002\C,0,-0.373055,-1.340201,-0.000004\C,0,1.98777,-0.58057
 7,0.000001\H,0,0.082922,2.809754,0.000007\H,0,-0.221242,-2.406813,-0.0
 00007\\Version=ES64L-G16RevC.01\State=1-A\HF=-734.072412\RMSD=1.063e-0

 Normal termination of Gaussian 16 at Sat Apr  5 22:37:55 2025.
