 Gaussian 16, Revision C.01,

 ----------------------------------------------------------------------
 #t hf aug-cc-pvdz symm=none int=(grid=ultrafine) guess=(read,tcheck) s
 table=(opt,rrhf)
 ----------------------------------------------------------------------
 -----
 title
 -----
 Symbolic Z-matrix:
 Charge =  0 Multiplicity = 1

 SCF Done:  E(RHF) =  -580.089435933     A.U. after   16 cycles
 Normal termination of Gaussian 16 at Sat Apr  5 22:39:05 2025.
 Gaussian 16:  ES64L-G16RevC.01  3-Jul-2019

 ----------------------------------------------------------------------
 #t hf aug-cc-pvdz iop(5/13=1,5/36=2,99/5=2) pseudo=read geom=check gue
 ss=(read,tcheck) scf=(maxcycle=1)
 ----------------------------------------------------------------------
 -----
 title
 -----
 Structure from the checkpoint file:  "3-hydroxy-4a-7a-dihydrofuro2-3-d1-2-3triazin-43H-one.chk"
 Charge =  0 Multiplicity = 1

                         Standard orientation:
 ---------------------------------------------------------------------
 Center     Atomic      Atomic             Coordinates (Angstroms)
 Number     Number       Type             X           Y           Z
 ---------------------------------------------------------------------
      1          8           0       -2.290204   -0.882999   -0.151424
      2          8           0        1.444926    1.959948    0.003154
      3          8           0        2.919242   -0.207425   -0.239915
      4          7           0       -0.081213   -1.807611    0.272914
      5          7           0        1.538222   -0.300125   -0.183639
      6          7           0        1.139137   -1.556445    0.277999
      7          6           0       -0.561361    0.592228    0.420127
      8          6           0       -0.879772   -0.732796   -0.252028
      9          6           0       -1.815431    1.347987    0.067672
     10          6           0        0.851036    0.905794    0.038355
     11          6           0       -2.746502    0.420002   -0.163318
     12          1           0       -0.516052    0.455732    1.514116
     13          1           0       -0.629924   -0.648724   -1.323073
     14          1           0       -1.972359    2.408820    0.151036
     15          1           0       -3.804155    0.525826   -0.340190
     16          1           0        3.069933    0.752129   -0.132165
 ---------------------------------------------------------------------

 SCF Done:  E(RHF) =  -580.260574287     A.U. after    2 cycles

 The electronic state is 1-A.
 Alpha  occ. eigenvalues --  -20.64826 -20.63658 -20.60128 -15.77904 -15.76999
 Alpha  occ. eigenvalues --  -15.72227 -11.42253 -11.37062 -11.34064 -11.30476
 Alpha  occ. eigenvalues --  -11.27439  -1.46847  -1.42254  -1.39269  -1.36599
 Alpha  occ. eigenvalues --   -1.16472  -1.12824  -1.07029  -0.93661  -0.93138
 Alpha  occ. eigenvalues --   -0.83097  -0.80744  -0.78093  -0.76846  -0.72698
 Alpha  occ. eigenvalues --   -0.69896  -0.67811  -0.66638  -0.63935  -0.62892
 Alpha  occ. eigenvalues --   -0.60699  -0.60012  -0.59207  -0.56850  -0.55760
 Alpha  occ. eigenvalues --   -0.52571  -0.49575  -0.44559  -0.40037  -0.38138
 Alpha virt. eigenvalues --    0.02665   0.03736   0.04206   0.04980   0.05652
 Alpha virt. eigenvalues --    0.08287   0.08729   0.09474   0.09782   0.10550
 Alpha virt. eigenvalues --    0.11366   0.12128   0.12950   0.13407   0.14005

 Mulliken charges:
               1
     1  O   -0.739802
     2  O   -0.488303
     3  O   -0.523485
     4  N   -0.436662
     5  N    0.019429
     6  N   -0.069569
     7  C   -0.140666
     8  C    1.199086
     9  C    0.524355
    10  C    0.247734
    11  C    0.766668
    12  H    0.025494
    13  H    0.025746
    14  H   -0.303543
    15  H   -0.294754
    16  H    0.188272
 Sum of Mulliken charges =  -0.00000

 Dipole moment (field-independent basis, Debye):
    X=             -2.7166    Y=              2.2045    Z=             -0.0419  Tot=              3.4988

 Test job not archived.
 1\1\GINC-SE225\SP\RHF\Aug-CC-pVDZ\C5H5N3O3\OHZDE\05-Apr-2025\0\\#t hf
 aug-cc-pvdz iop(5/13=1,5/36=2,99/5=2) pseudo=read geom=check guess=(re
 ad,tcheck) scf=(maxcycle=1)\\title\\0,1\O,0,-2.290204,-0.882999,-0.151
 424\O,0,1.444926,1.959948,0.003154\O,0,2.919242,-0.207425,-0.239915\N,
 0,-0.081213,-1.807611,0.272914\N,0,1.538222,-0.300125,-0.183639\N,0,1.
 139137,-1.556445,0.277999\C,0,-0.561361,0.592228,0.420127\C,0,-0.87977
 2,-0.732796,-0.252028\C,0,-1.815431,1.347987,0.067672\C,0,0.851036,0.9
 05794,0.038355\C,0,-2.746502,0.420002,-0.163318\H,0,-0.516052,0.455732

 Normal termination of Gaussian 16 at Sat Apr  5 22:39:15 2025.
