 Gaussian 16, Revision C.01,

 ----------------------------------------------------------------------
 #t hf aug-cc-pvdz symm=none int=(grid=ultrafine) guess=(read,tcheck) s
 table=(opt,rrhf)
 ----------------------------------------------------------------------
 -----
 title
 -----
 Symbolic Z-matrix:
 Charge =  0 Multiplicity = 1

 SCF Done:  E(RHF) =  -339.331857622     A.U. after   16 cycles
 Normal termination of Gaussian 16 at Sat Apr  5 22:37:41 2025.
 Gaussian 16:  ES64L-G16RevC.01  3-Jul-2019

 ----------------------------------------------------------------------
 #t hf aug-cc-pvdz iop(5/13=1,5/36=2,99/5=2) pseudo=read geom=check gue
 ss=(read,tcheck) scf=(maxcycle=1)
 ----------------------------------------------------------------------
 -----
 title
 -----
 Structure from the checkpoint file:  "3-hydroxy-2-propynoic_acid.chk"
 Charge =  0 Multiplicity = 1

                         Standard orientation:
 ---------------------------------------------------------------------
 Center     Atomic      Atomic             Coordinates (Angstroms)
 Number     Number       Type             X           Y           Z
 ---------------------------------------------------------------------
      1          8           0       -1.742727   -1.171659   -0.000001
      2          8           0       -1.798817    1.053904    0.000000
      3          8           0        2.791456    0.110796    0.000000
      4          6           0       -1.139153   -0.134860    0.000000
      5          6           0        0.298037   -0.026971    0.000000
      6          6           0        1.499219    0.000183    0.000000
      7          1           0       -1.166265    1.783255    0.000000
      8          1           0        3.218346   -0.757686    0.000000
 ---------------------------------------------------------------------

 SCF Done:  E(RHF) =  -339.442652869     A.U. after    2 cycles

 The electronic state is 1-A.
 Alpha  occ. eigenvalues --  -20.68927 -20.63446 -20.57104 -11.42948 -11.36288
 Alpha  occ. eigenvalues --  -11.27286  -1.45356  -1.42983  -1.34124  -1.07530
 Alpha  occ. eigenvalues --   -0.91795  -0.86497  -0.81924  -0.72435  -0.68598
 Alpha  occ. eigenvalues --   -0.68125  -0.65331  -0.62663  -0.51421  -0.49979
 Alpha  occ. eigenvalues --   -0.43577  -0.41937
 Alpha virt. eigenvalues --    0.01798   0.03824   0.08305   0.08545   0.09232
 Alpha virt. eigenvalues --    0.10397   0.10936   0.12267   0.13068   0.13156
 Alpha virt. eigenvalues --    0.15080   0.16286   0.17812   0.18041   0.21382

 Mulliken charges:
               1
     1  O   -0.438680
     2  O   -0.487668
     3  O   -0.333304
     4  C    0.633476
     5  C    0.568562
     6  C   -0.314069
     7  H    0.199206
     8  H    0.172478
 Sum of Mulliken charges =  -0.00000

 Dipole moment (field-independent basis, Debye):
    X=              5.0938    Y=              1.4253    Z=              0.0000  Tot=              5.2894

 Test job not archived.
 1\1\GINC-SE047\SP\RHF\Aug-CC-pVDZ\C3H2O3\OHZDE\05-Apr-2025\0\\#t hf au
 g-cc-pvdz iop(5/13=1,5/36=2,99/5=2) pseudo=read geom=check guess=(read
 ,tcheck) scf=(maxcycle=1)\\title\\0,1\O,0,-1.742727,-1.171659,-0.00000
 1\O,0,-1.798817,1.053904,0.\O,0,2.791456,0.110796,0.\C,0,-1.139153,-0.
 13486,0.\C,0,0.298037,-0.026971,0.\C,0,1.499219,0.000183,0.\H,0,-1.166
 265,1.783255,0.\H,0,3.218346,-0.757686,0.\\Version=ES64L-G16RevC.01\St
 ate=1-A\HF=-339.4426529\RMSD=7.928e-03\Dipole=2.004037,0.5607375,0.000
 0009\Quadrupole=-0.4087633,0.7385205,-0.3297573,-7.0738954,-0.0000026,

 Normal termination of Gaussian 16 at Sat Apr  5 22:37:44 2025.
