 Gaussian 16, Revision C.01,

 ----------------------------------------------------------------------
 #t hf aug-cc-pvdz symm=none int=(grid=ultrafine) guess=(read,tcheck) s
 table=(opt,rrhf)
 ----------------------------------------------------------------------
 -----
 title
 -----
 Symbolic Z-matrix:
 Charge =  0 Multiplicity = 1

 SCF Done:  E(RHF) =  -223.635695792     A.U. after   15 cycles
 Normal termination of Gaussian 16 at Sat Apr  5 22:37:50 2025.
 Gaussian 16:  ES64L-G16RevC.01  3-Jul-2019

 ----------------------------------------------------------------------
 #t hf aug-cc-pvdz iop(5/13=1,5/36=2,99/5=2) pseudo=read geom=check gue
 ss=(read,tcheck) scf=(maxcycle=1)
 ----------------------------------------------------------------------
 -----
 title
 -----
 Structure from the checkpoint file:  "3-iminoacrylonitrile.chk"
 Charge =  0 Multiplicity = 1

                         Standard orientation:
 ---------------------------------------------------------------------
 Center     Atomic      Atomic             Coordinates (Angstroms)
 Number     Number       Type             X           Y           Z
 ---------------------------------------------------------------------
      1          7           0        2.167803   -0.419703   -0.124405
      2          7           0       -2.312485   -0.509274   -0.000062
      3          6           0       -0.068587    0.741058    0.011284
      4          6           0        1.098133    0.121401    0.008582
      5          6           0       -1.296379    0.036975    0.003444
      6          1           0       -0.082728    1.822552    0.039789
      7          1           0        2.696506   -0.716315    0.691622
 ---------------------------------------------------------------------

 SCF Done:  E(RHF) =  -223.702823195     A.U. after    2 cycles

 The electronic state is 1-A.
 Alpha  occ. eigenvalues --  -15.69897 -15.64230 -11.38796 -11.30424 -11.30008
 Alpha  occ. eigenvalues --   -1.27037  -1.19904  -1.08447  -0.84225  -0.77498
 Alpha  occ. eigenvalues --   -0.70695  -0.60291  -0.55461  -0.52097  -0.51248
 Alpha  occ. eigenvalues --   -0.47199  -0.37506
 Alpha virt. eigenvalues --    0.02212   0.03484   0.07832   0.08383   0.09831
 Alpha virt. eigenvalues --    0.10169   0.10725   0.11656   0.12836   0.13391
 Alpha virt. eigenvalues --    0.13599   0.14272   0.15180   0.15322   0.18904

 Mulliken charges:
               1
     1  N   -0.103652
     2  N   -0.147809
     3  C    1.534037
     4  C   -0.532631
     5  C   -0.625867
     6  H   -0.231950
     7  H    0.107872
 Sum of Mulliken charges =   0.00000

 Dipole moment (field-independent basis, Debye):
    X=              4.2685    Y=              1.5811    Z=              1.4846  Tot=              4.7879

 Test job not archived.
 1\1\GINC-SE129\SP\RHF\Aug-CC-pVDZ\C3H2N2\OHZDE\05-Apr-2025\0\\#t hf au
 g-cc-pvdz iop(5/13=1,5/36=2,99/5=2) pseudo=read geom=check guess=(read
 ,tcheck) scf=(maxcycle=1)\\title\\0,1\N,0,2.167803,-0.419703,-0.124405
 \N,0,-2.312485,-0.509274,-0.000062\C,0,-0.068587,0.741058,0.011284\C,0
 ,1.098133,0.121401,0.008582\C,0,-1.296379,0.036975,0.003444\H,0,-0.082
 728,1.822552,0.039789\H,0,2.696506,-0.716315,0.691622\\Version=ES64L-G
 16RevC.01\State=1-A\HF=-223.7028232\RMSD=4.605e-03\Dipole=1.6793592,0.
 6220669,0.5840733\Quadrupole=-3.22613,2.5825419,0.6435881,-2.9594873,3

 Normal termination of Gaussian 16 at Sat Apr  5 22:37:52 2025.
