 Gaussian 16, Revision C.01,

 ----------------------------------------------------------------------
 #t hf aug-cc-pvdz symm=none int=(grid=ultrafine) guess=(read,tcheck) s
 table=(opt,rrhf)
 ----------------------------------------------------------------------
 -----
 title
 -----
 Symbolic Z-matrix:
 Charge =  0 Multiplicity = 1

 SCF Done:  E(RHF) =  -243.444584425     A.U. after   16 cycles
 Normal termination of Gaussian 16 at Sat Apr  5 22:37:50 2025.
 Gaussian 16:  ES64L-G16RevC.01  3-Jul-2019

 ----------------------------------------------------------------------
 #t hf aug-cc-pvdz iop(5/13=1,5/36=2,99/5=2) pseudo=read geom=check gue
 ss=(read,tcheck) scf=(maxcycle=1)
 ----------------------------------------------------------------------
 -----
 title
 -----
 Structure from the checkpoint file:  "3-imino-1-allenone.chk"
 Charge =  0 Multiplicity = 1

                         Standard orientation:
 ---------------------------------------------------------------------
 Center     Atomic      Atomic             Coordinates (Angstroms)
 Number     Number       Type             X           Y           Z
 ---------------------------------------------------------------------
      1          8           0        2.465982    0.020631   -0.000235
      2          7           0       -2.444823   -0.094872   -0.000289
      3          6           0        0.032526   -0.028629    0.000643
      4          6           0        1.301270   -0.000338   -0.000035
      5          6           0       -1.244363    0.008532    0.000055
      6          1           0       -3.150699    0.621669   -0.000074
 ---------------------------------------------------------------------

 SCF Done:  E(RHF) =  -243.523238068     A.U. after    2 cycles

 The electronic state is 1-A.
 Alpha  occ. eigenvalues --  -20.64478 -15.67504 -11.42162 -11.40203 -11.25077
 Alpha  occ. eigenvalues --   -1.44063  -1.25198  -1.08108  -0.92287  -0.79795
 Alpha  occ. eigenvalues --   -0.74831  -0.65845  -0.65114  -0.57317  -0.56421
 Alpha  occ. eigenvalues --   -0.38791  -0.37114
 Alpha virt. eigenvalues --    0.02784   0.05605   0.06825   0.07833   0.08002
 Alpha virt. eigenvalues --    0.08819   0.08985   0.12046   0.13174   0.13287
 Alpha virt. eigenvalues --    0.16102   0.18350   0.18874   0.21124   0.22700

 Mulliken charges:
               1
     1  O   -0.240502
     2  N   -0.136068
     3  C    1.548616
     4  C   -0.651856
     5  C   -0.598780
     6  H    0.078590
 Sum of Mulliken charges =  -0.00000

 Dipole moment (field-independent basis, Debye):
    X=             -3.1966    Y=              1.3521    Z=             -0.0005  Tot=              3.4708

 Test job not archived.
 1\1\GINC-SE050\SP\RHF\Aug-CC-pVDZ\C3H1N1O1\OHZDE\05-Apr-2025\0\\#t hf
 aug-cc-pvdz iop(5/13=1,5/36=2,99/5=2) pseudo=read geom=check guess=(re
 ad,tcheck) scf=(maxcycle=1)\\title\\0,1\O,0,2.465982,0.020631,-0.00023
 5\N,0,-2.444823,-0.094872,-0.000289\C,0,0.032526,-0.028629,0.000643\C,
 0,1.30127,-0.000338,-0.000035\C,0,-1.244363,0.008532,0.000055\H,0,-3.1
 50699,0.621669,-0.000074\\Version=ES64L-G16RevC.01\State=1-A\HF=-243.5
 232381\RMSD=1.168e-02\Dipole=-1.257643,0.5319638,-0.0002083\Quadrupole
 =-0.4741467,0.6302226,-0.156076,-3.4218732,-0.0007848,0.0000023\PG=C01

 Normal termination of Gaussian 16 at Sat Apr  5 22:37:52 2025.
