 Gaussian 16, Revision C.01,

 ----------------------------------------------------------------------
 #t hf aug-cc-pvdz symm=none int=(grid=ultrafine) guess=(read,tcheck) s
 table=(opt,rrhf)
 ----------------------------------------------------------------------
 -----
 title
 -----
 Symbolic Z-matrix:
 Charge =  0 Multiplicity = 1

 SCF Done:  E(RHF) =  -660.246624162     A.U. after   15 cycles
 Normal termination of Gaussian 16 at Sat Apr  5 22:38:00 2025.
 Gaussian 16:  ES64L-G16RevC.01  3-Jul-2019

 ----------------------------------------------------------------------
 #t hf aug-cc-pvdz iop(5/13=1,5/36=2,99/5=2) pseudo=read geom=check gue
 ss=(read,tcheck) scf=(maxcycle=1)
 ----------------------------------------------------------------------
 -----
 title
 -----
 Structure from the checkpoint file:  "3-isothiocyanatopropanenitrile.chk"
 Charge =  0 Multiplicity = 1

                         Standard orientation:
 ---------------------------------------------------------------------
 Center     Atomic      Atomic             Coordinates (Angstroms)
 Number     Number       Type             X           Y           Z
 ---------------------------------------------------------------------
      1         16           0        3.337777   -0.078999   -0.008241
      2          7           0        0.585203    0.215569    0.016899
      3          7           0       -4.172513   -0.426062   -0.009011
      4          6           0       -0.703901   -0.405684    0.011919
      5          6           0       -1.805058    0.666399   -0.001765
      6          6           0       -3.134377    0.067327   -0.005912
      7          6           0        1.762573    0.040262    0.005120
      8          1           0       -0.797866   -1.046210   -0.866960
      9          1           0       -0.809327   -1.034429    0.897962
     10          1           0       -1.695465    1.298430   -0.884021
     11          1           0       -1.706021    1.309821    0.873498
 ---------------------------------------------------------------------

 SCF Done:  E(RHF) =  -660.345255217     A.U. after    2 cycles

 The electronic state is 1-A.
 Alpha  occ. eigenvalues --  -93.54474 -15.69028 -15.65645 -11.40434 -11.34808
 Alpha  occ. eigenvalues --  -11.31783 -11.30475  -8.84399  -6.18721  -6.18030
 Alpha  occ. eigenvalues --   -6.17984  -1.28286  -1.21434  -1.11725  -1.03504
 Alpha  occ. eigenvalues --   -0.96043  -0.77391  -0.71340  -0.70186  -0.64220
 Alpha  occ. eigenvalues --   -0.61664  -0.60297  -0.56311  -0.55039  -0.53931
 Alpha  occ. eigenvalues --   -0.47854  -0.47711  -0.37821  -0.36793
 Alpha virt. eigenvalues --    0.02654   0.03739   0.03915   0.06072   0.06694
 Alpha virt. eigenvalues --    0.07769   0.08877   0.10290   0.10416   0.10507
 Alpha virt. eigenvalues --    0.10963   0.11149   0.13242   0.13803   0.14489

 Mulliken charges:
               1
     1  S    0.167511
     2  N   -0.088108
     3  N   -0.166191
     4  C    0.840912
     5  C    0.534323
     6  C   -0.299544
     7  C   -0.695018
     8  H   -0.171657
     9  H   -0.170169
    10  H    0.024255
    11  H    0.023687
 Sum of Mulliken charges =   0.00000

 Dipole moment (field-independent basis, Debye):
    X=              0.6375    Y=              0.8008    Z=              0.0151  Tot=              1.0237

 Test job not archived.
 1\1\GINC-SE196\SP\RHF\Aug-CC-pVDZ\C4H4N2S1\OHZDE\05-Apr-2025\0\\#t hf
 aug-cc-pvdz iop(5/13=1,5/36=2,99/5=2) pseudo=read geom=check guess=(re
 ad,tcheck) scf=(maxcycle=1)\\title\\0,1\S,0,3.337777,-0.078999,-0.0082
 41\N,0,0.585203,0.215569,0.016899\N,0,-4.172513,-0.426062,-0.009011\C,
 0,-0.703901,-0.405684,0.011919\C,0,-1.805058,0.666399,-0.001765\C,0,-3
 .134377,0.067327,-0.005912\C,0,1.762573,0.040262,0.00512\H,0,-0.797866
 ,-1.04621,-0.86696\H,0,-0.809327,-1.034429,0.897962\H,0,-1.695465,1.29
 843,-0.884021\H,0,-1.706021,1.309821,0.873498\\Version=ES64L-G16RevC.0

 Normal termination of Gaussian 16 at Sat Apr  5 22:38:05 2025.
