 Gaussian 16, Revision C.01,

 ----------------------------------------------------------------------
 #t hf aug-cc-pvdz symm=none int=(grid=ultrafine) guess=(read,tcheck) s
 table=(opt,rrhf)
 ----------------------------------------------------------------------
 -----
 title
 -----
 Symbolic Z-matrix:
 Charge =  0 Multiplicity = 1

 SCF Done:  E(RHF) =  -605.136636751     A.U. after   15 cycles
 Normal termination of Gaussian 16 at Sat Apr  5 22:37:54 2025.
 Gaussian 16:  ES64L-G16RevC.01  3-Jul-2019

 ----------------------------------------------------------------------
 #t hf aug-cc-pvdz iop(5/13=1,5/36=2,99/5=2) pseudo=read geom=check gue
 ss=(read,tcheck) scf=(maxcycle=1)
 ----------------------------------------------------------------------
 -----
 title
 -----
 Structure from the checkpoint file:  "3-isothiocyanato-1-propyne.chk"
 Charge =  0 Multiplicity = 1

                         Standard orientation:
 ---------------------------------------------------------------------
 Center     Atomic      Atomic             Coordinates (Angstroms)
 Number     Number       Type             X           Y           Z
 ---------------------------------------------------------------------
      1         16           0        2.304780    0.469076    0.000055
      2          7           0       -0.000276   -1.064889   -0.000264
      3          6           0       -1.440161   -1.078448    0.000154
      4          6           0       -2.045252    0.250085    0.000038
      5          6           0        0.961067   -0.361593   -0.000087
      6          6           0       -2.535008    1.342919   -0.000048
      7          1           0       -1.775353   -1.640578   -0.874688
      8          1           0       -1.774829   -1.640184    0.875452
      9          1           0       -2.968251    2.311985   -0.000143
 ---------------------------------------------------------------------

 SCF Done:  E(RHF) =  -605.221176055     A.U. after    2 cycles

 The electronic state is 1-A.
 Alpha  occ. eigenvalues --  -93.53407 -15.67880 -11.39274 -11.35014 -11.27001
 Alpha  occ. eigenvalues --  -11.26305  -8.83337  -6.17647  -6.16975  -6.16919
 Alpha  occ. eigenvalues --   -1.27074  -1.09394  -1.03083  -0.98720  -0.78584
 Alpha  occ. eigenvalues --   -0.72798  -0.68423  -0.67496  -0.59436  -0.54884
 Alpha  occ. eigenvalues --   -0.54051  -0.42741  -0.41872  -0.36843  -0.35604
 Alpha virt. eigenvalues --    0.02927   0.03584   0.04935   0.06926   0.08220
 Alpha virt. eigenvalues --    0.09231   0.09736   0.10259   0.10810   0.12266
 Alpha virt. eigenvalues --    0.13076   0.13133   0.13374   0.14084   0.15578

 Mulliken charges:
               1
     1  S    0.204879
     2  N   -0.262157
     3  C    0.675810
     4  C   -0.690274
     5  C   -0.510891
     6  C    1.127800
     7  H   -0.030906
     8  H   -0.030809
     9  H   -0.483452
 Sum of Mulliken charges =  -0.00000

 Dipole moment (field-independent basis, Debye):
    X=             -3.0975    Y=             -0.7336    Z=              0.0005  Tot=              3.1832

 Test job not archived.
 1\1\GINC-SE158\SP\RHF\Aug-CC-pVDZ\C4H3N1S1\OHZDE\05-Apr-2025\0\\#t hf
 aug-cc-pvdz iop(5/13=1,5/36=2,99/5=2) pseudo=read geom=check guess=(re
 ad,tcheck) scf=(maxcycle=1)\\title\\0,1\S,0,2.30478,0.469076,0.000055\
 N,0,-0.000276,-1.064889,-0.000264\C,0,-1.440161,-1.078448,0.000154\C,0
 ,-2.045252,0.250085,0.000038\C,0,0.961067,-0.361593,-0.000087\C,0,-2.5
 35008,1.342919,-0.000048\H,0,-1.775353,-1.640578,-0.874688\H,0,-1.7748
 29,-1.640184,0.875452\H,0,-2.968251,2.311985,-0.000143\\Version=ES64L-
 G16RevC.01\State=1-A\HF=-605.2211761\RMSD=8.039e-03\Dipole=-1.2186615,

 Normal termination of Gaussian 16 at Sat Apr  5 22:37:57 2025.
