 Gaussian 16, Revision C.01,

 ----------------------------------------------------------------------
 #t hf aug-cc-pvdz symm=none int=(grid=ultrafine) guess=(read,tcheck) s
 table=(opt,rrhf)
 ----------------------------------------------------------------------
 -----
 title
 -----
 Symbolic Z-matrix:
 Charge =  0 Multiplicity = 1

 SCF Done:  E(RHF) =  -419.498777717     A.U. after   15 cycles
 Normal termination of Gaussian 16 at Sat Apr  5 22:38:48 2025.
 Gaussian 16:  ES64L-G16RevC.01  3-Jul-2019

 ----------------------------------------------------------------------
 #t hf aug-cc-pvdz iop(5/13=1,5/36=2,99/5=2) pseudo=read geom=check gue
 ss=(read,tcheck) scf=(maxcycle=1)
 ----------------------------------------------------------------------
 -----
 title
 -----
 Structure from the checkpoint file:  "3-methoxyphenol.chk"
 Charge =  0 Multiplicity = 1

                         Standard orientation:
 ---------------------------------------------------------------------
 Center     Atomic      Atomic             Coordinates (Angstroms)
 Number     Number       Type             X           Y           Z
 ---------------------------------------------------------------------
      1          6           0       -1.579132   -1.018404    0.000000
      2          6           0       -0.556518   -1.950256    0.000000
      3          6           0       -1.323399    0.352438    0.000000
      4          6           0        1.044493   -0.139672    0.000000
      5          6           0        0.763417   -1.497487    0.000000
      6          6           0        0.000000    0.787801    0.000000
      7          6           0       -0.623241    3.096404    0.000000
      8          8           0        1.751266   -2.443316    0.000000
      9          8           0        0.383127    2.095674    0.000000
     10          1           0       -2.605756   -1.359527    0.000000
     11          1           0       -0.754444   -3.011972    0.000000
     12          1           0       -2.144558    1.051118    0.000000
     13          1           0        2.064483    0.223401    0.000000
     14          1           0       -1.251546    3.030018    0.891559
     15          1           0       -1.251546    3.030018   -0.891559
     16          1           0       -0.098191    4.047676    0.000000
     17          1           0        2.612695   -2.014536    0.000000
 ---------------------------------------------------------------------

 SCF Done:  E(RHF) =  -419.629470422     A.U. after    2 cycles

 The electronic state is 1-A'.
 Alpha  occ. eigenvalues --  -20.60525 -20.60244 -11.31775 -11.31701 -11.29802
 Alpha  occ. eigenvalues --  -11.25348 -11.23377 -11.23211 -11.22870  -1.37307
 Alpha  occ. eigenvalues --   -1.36716  -1.13813  -1.02561  -1.00455  -0.94659
 Alpha  occ. eigenvalues --   -0.85750  -0.81452  -0.75121  -0.71733  -0.67586
 Alpha  occ. eigenvalues --   -0.66897  -0.66339  -0.62415  -0.60546  -0.60255
 Alpha  occ. eigenvalues --   -0.56894  -0.54450  -0.52821  -0.52604  -0.49902
 Alpha  occ. eigenvalues --   -0.46621  -0.33559  -0.31597
 Alpha virt. eigenvalues --    0.03281   0.03795   0.04137   0.05404   0.05813
 Alpha virt. eigenvalues --    0.06111   0.07260   0.08896   0.10142   0.10683
 Alpha virt. eigenvalues --    0.12464   0.12659   0.13242   0.13517   0.14063

 Mulliken charges:
               1
     1  C    0.608578
     2  C    0.581507
     3  C    0.321711
     4  C    0.452001
     5  C    0.594023
     6  C    0.550044
     7  C    0.843924
     8  O   -0.591865
     9  O   -0.703638
    10  H   -0.453256
    11  H   -0.472672
    12  H   -0.728805
    13  H   -0.641798
    14  H   -0.089079
    15  H   -0.089079
    16  H   -0.318597
    17  H    0.137002
 Sum of Mulliken charges =   0.00000

 Dipole moment (field-independent basis, Debye):
    X=             -0.6215    Y=              1.8805    Z=              0.0000  Tot=              1.9805

 Test job not archived.
 1\1\GINC-SE146\SP\RHF\Aug-CC-pVDZ\C7H8O2\OHZDE\05-Apr-2025\0\\#t hf au
 g-cc-pvdz iop(5/13=1,5/36=2,99/5=2) pseudo=read geom=check guess=(read
 ,tcheck) scf=(maxcycle=1)\\title\\0,1\C,0,-1.579132,-1.018404,0.\C,0,-
 0.556518,-1.950256,0.\C,0,-1.323399,0.352438,0.\C,0,1.044493,-0.139672
 ,0.\C,0,0.763417,-1.497487,0.\C,0,0.,0.787801,0.\C,0,-0.623241,3.09640
 4,0.\O,0,1.751266,-2.443316,0.\O,0,0.383127,2.095674,0.\H,0,-2.605756,
 -1.359527,0.\H,0,-0.754444,-3.011972,0.\H,0,-2.144558,1.051118,0.\H,0,
 2.064483,0.223401,0.\H,0,-1.251546,3.030018,0.891559\H,0,-1.251546,3.0

 Normal termination of Gaussian 16 at Sat Apr  5 22:39:14 2025.
