 Gaussian 16, Revision C.01,

 ----------------------------------------------------------------------
 #t hf aug-cc-pvdz symm=none int=(grid=ultrafine) guess=(read,tcheck) s
 table=(opt,rrhf)
 ----------------------------------------------------------------------
 -----
 title
 -----
 Symbolic Z-matrix:
 Charge =  0 Multiplicity = 1

 SCF Done:  E(RHF) =  -233.039109447     A.U. after   13 cycles
 Normal termination of Gaussian 16 at Sat Apr  5 22:39:02 2025.
 Gaussian 16:  ES64L-G16RevC.01  3-Jul-2019

 ----------------------------------------------------------------------
 #t hf aug-cc-pvdz iop(5/13=1,5/36=2,99/5=2) pseudo=read geom=check gue
 ss=(read,tcheck) scf=(maxcycle=1)
 ----------------------------------------------------------------------
 -----
 title
 -----
 Structure from the checkpoint file:  "3-methylcyclopentene.chk"
 Charge =  0 Multiplicity = 1

                         Standard orientation:
 ---------------------------------------------------------------------
 Center     Atomic      Atomic             Coordinates (Angstroms)
 Number     Number       Type             X           Y           Z
 ---------------------------------------------------------------------
      1          1           0       -0.288253    2.211377    0.113712
      2          6           0        0.103075    1.202002    0.097091
      3          1           0        2.155830    1.583915   -0.380964
      4          6           0        1.366429    0.878250   -0.158285
      5          1           0        2.158926   -0.837607    0.868606
      6          1           0        2.190120   -1.009750   -0.873105
      7          6           0        1.601620   -0.607266   -0.046137
      8          1           0        0.072016   -2.042382    0.656132
      9          1           0       -0.122787   -1.505070   -1.005335
     10          6           0        0.165989   -1.180038   -0.003279
     11          1           0       -0.908864   -0.034062    1.507559
     12          6           0       -0.750290   -0.003256    0.421562
     13          1           0       -2.727516    0.841153    0.071891
     14          1           0       -2.677022   -0.918993   -0.000210
     15          1           0       -2.025849    0.037111   -1.334613
     16          6           0       -2.124590   -0.010641   -0.248232
 ---------------------------------------------------------------------

 SCF Done:  E(RHF) =  -233.110921702     A.U. after    2 cycles

 The electronic state is 1-A.
 Alpha  occ. eigenvalues --  -11.23430 -11.22916 -11.22860 -11.22581 -11.22445
 Alpha  occ. eigenvalues --  -11.22078  -1.12409  -1.00135  -0.95723  -0.88123
 Alpha  occ. eigenvalues --   -0.77480  -0.72216  -0.67125  -0.63304  -0.57706
 Alpha  occ. eigenvalues --   -0.56807  -0.52408  -0.51553  -0.48770  -0.48419
 Alpha  occ. eigenvalues --   -0.47144  -0.45685  -0.34305
 Alpha virt. eigenvalues --    0.03623   0.04369   0.04623   0.04910   0.06155
 Alpha virt. eigenvalues --    0.06476   0.06805   0.07093   0.08309   0.09008
 Alpha virt. eigenvalues --    0.12328   0.12877   0.13219   0.14326   0.15222

 Mulliken charges:
               1
     1  H   -0.366983
     2  C    0.474408
     3  H   -0.297256
     4  C    0.068712
     5  H   -0.037982
     6  H   -0.036957
     7  C    0.317095
     8  H   -0.059928
     9  H   -0.168695
    10  C    0.400888
    11  H   -0.062085
    12  C   -0.662605
    13  H   -0.089096
    14  H   -0.055553
    15  H    0.003909
    16  C    0.572127
 Sum of Mulliken charges =  -0.00000

 Dipole moment (field-independent basis, Debye):
    X=             -0.0114    Y=             -0.2048    Z=              0.1671  Tot=              0.2645

 Test job not archived.
 1\1\GINC-SE085\SP\RHF\Aug-CC-pVDZ\C6H10\OHZDE\05-Apr-2025\0\\#t hf aug
 -cc-pvdz iop(5/13=1,5/36=2,99/5=2) pseudo=read geom=check guess=(read,
 tcheck) scf=(maxcycle=1)\\title\\0,1\H,0,-0.288253,2.211377,0.113712\C
 ,0,0.103075,1.202002,0.097091\H,0,2.15583,1.583915,-0.380964\C,0,1.366
 429,0.87825,-0.158285\H,0,2.158926,-0.837607,0.868606\H,0,2.19012,-1.0
 0975,-0.873105\C,0,1.60162,-0.607266,-0.046137\H,0,0.072016,-2.042382,
 0.656132\H,0,-0.122787,-1.50507,-1.005335\C,0,0.165989,-1.180038,-0.00
 3279\H,0,-0.908864,-0.034062,1.507559\C,0,-0.75029,-0.003256,0.421562\

 Normal termination of Gaussian 16 at Sat Apr  5 22:39:12 2025.
