 Gaussian 16, Revision C.01,

 ----------------------------------------------------------------------
 #t hf aug-cc-pvdz symm=none int=(grid=ultrafine) guess=(read,tcheck) s
 table=(opt,rrhf)
 ----------------------------------------------------------------------
 -----
 title
 -----
 Symbolic Z-matrix:
 Charge =  0 Multiplicity = 1

 SCF Done:  E(RHF) =  -195.164484775     A.U. after   13 cycles
 Normal termination of Gaussian 16 at Sat Apr  5 22:38:19 2025.
 Gaussian 16:  ES64L-G16RevC.01  3-Jul-2019

 ----------------------------------------------------------------------
 #t hf aug-cc-pvdz iop(5/13=1,5/36=2,99/5=2) pseudo=read geom=check gue
 ss=(read,tcheck) scf=(maxcycle=1)
 ----------------------------------------------------------------------
 -----
 title
 -----
 Structure from the checkpoint file:  "3-methyl-1-butene.chk"
 Charge =  0 Multiplicity = 1

                         Standard orientation:
 ---------------------------------------------------------------------
 Center     Atomic      Atomic             Coordinates (Angstroms)
 Number     Number       Type             X           Y           Z
 ---------------------------------------------------------------------
      1          6           0        0.038790   -2.151291   -0.000000
      2          6           0       -0.466392   -0.924162   -0.000000
      3          6           0        0.038790    1.174358    1.264341
      4          6           0        0.038790    1.174358   -1.264341
      5          6           0        0.328419    0.351813    0.000000
      6          1           0       -0.595889   -3.027411   -0.000000
      7          1           0        1.108765   -2.324083   -0.000000
      8          1           0       -1.547581   -0.800215   -0.000000
      9          1           0        0.621162    2.097450    1.268423
     10          1           0        0.283840    0.612320    2.165774
     11          1           0       -1.017756    1.447586    1.316867
     12          1           0       -1.017756    1.447586   -1.316867
     13          1           0        0.621162    2.097450   -1.268423
     14          1           0        0.283840    0.612320   -2.165774
     15          1           0        1.389834    0.086538    0.000000
 ---------------------------------------------------------------------

 SCF Done:  E(RHF) =  -195.228274356     A.U. after    2 cycles

 The electronic state is 1-A'.
 Alpha  occ. eigenvalues --  -11.23978 -11.23837 -11.22732 -11.22338 -11.22331
 Alpha  occ. eigenvalues --   -1.08884  -0.99841  -0.92699  -0.82680  -0.75231
 Alpha  occ. eigenvalues --   -0.63797  -0.62459  -0.58572  -0.56649  -0.53870
 Alpha  occ. eigenvalues --   -0.53582  -0.48652  -0.47504  -0.46693  -0.36247
 Alpha virt. eigenvalues --    0.03653   0.04365   0.04651   0.05029   0.06475
 Alpha virt. eigenvalues --    0.06780   0.07134   0.07567   0.07783   0.09182
 Alpha virt. eigenvalues --    0.11982   0.13492   0.13925   0.14441   0.15399

 Mulliken charges:
               1
     1  C    0.370687
     2  C    0.816836
     3  C    0.647642
     4  C    0.647642
     5  C   -0.947905
     6  H   -0.303617
     7  H   -0.298837
     8  H   -0.434452
     9  H   -0.079979
    10  H   -0.073588
    11  H   -0.022870
    12  H   -0.022870
    13  H   -0.079979
    14  H   -0.073588
    15  H   -0.145121
 Sum of Mulliken charges =  -0.00000

 Dipole moment (field-independent basis, Debye):
    X=              0.0908    Y=              0.3791    Z=              0.0000  Tot=              0.3898

 Test job not archived.
 1\1\GINC-SE188\SP\RHF\Aug-CC-pVDZ\C5H10\OHZDE\05-Apr-2025\0\\#t hf aug
 -cc-pvdz iop(5/13=1,5/36=2,99/5=2) pseudo=read geom=check guess=(read,
 tcheck) scf=(maxcycle=1)\\title\\0,1\C,0,0.03879,-2.151291,0.\C,0,-0.4
 66392,-0.924162,0.\C,0,0.03879,1.174358,1.264341\C,0,0.03879,1.174358,
 -1.264341\C,0,0.328419,0.351813,0.\H,0,-0.595889,-3.027411,0.\H,0,1.10
 8765,-2.324083,0.\H,0,-1.547581,-0.800215,0.\H,0,0.621162,2.09745,1.26
 8423\H,0,0.28384,0.61232,2.165774\H,0,-1.017756,1.447586,1.316867\H,0,
 -1.017756,1.447586,-1.316867\H,0,0.621162,2.09745,-1.268423\H,0,0.2838

 Normal termination of Gaussian 16 at Sat Apr  5 22:38:34 2025.
