 Gaussian 16, Revision C.01,

 ----------------------------------------------------------------------
 #t hf aug-cc-pvdz symm=none int=(grid=ultrafine) guess=(read,tcheck) s
 table=(opt,rrhf)
 ----------------------------------------------------------------------
 -----
 title
 -----
 Symbolic Z-matrix:
 Charge =  0 Multiplicity = 1

 SCF Done:  E(RHF) =  -593.883032012     A.U. after   13 cycles

 1\1\GINC-SE179\Stability\RHF\Aug-CC-pVDZ\C5H12S1\OHZDE\05-Apr-2025\0\\
 #t hf aug-cc-pvdz symm=none int=(grid=ultrafine) guess=(read,tcheck) s
 table=(opt,rrhf)\\title\\0,1\C,0,-1.178493,-1.652194,0.116805\H,0,-2.0
 72764,-2.05324,-0.361889\H,0,-0.342512,-2.298223,-0.146619\H,0,-1.3214
 81,-1.71964,1.198086\C,0,0.547343,1.874508,-0.035601\H,0,-0.265216,2.5
 15201,0.308948\H,0,1.466983,2.246656,0.415537\H,0,0.637818,1.980802,-1
 .117431\S,0,1.773454,-0.622977,-0.100054\H,0,2.70471,0.202406,0.408749
 \C,0,0.298134,0.419562,0.349892\H,0,0.183677,0.344478,1.433269\C,0,-0.

 Normal termination of Gaussian 16 at Sat Apr  5 22:39:24 2025.
 Gaussian 16:  ES64L-G16RevC.01  3-Jul-2019

 ----------------------------------------------------------------------
 #t hf aug-cc-pvdz iop(5/13=1,5/36=2,99/5=2) pseudo=read geom=check gue
 ss=(read,tcheck) scf=(maxcycle=1)
 ----------------------------------------------------------------------
 -----
 title
 -----
 Structure from the checkpoint file:  "3-methyl-2-butanethiol.chk"
 Charge =  0 Multiplicity = 1

                         Standard orientation:
 ---------------------------------------------------------------------
 Center     Atomic      Atomic             Coordinates (Angstroms)
 Number     Number       Type             X           Y           Z
 ---------------------------------------------------------------------
      1          6           0       -1.178493   -1.652194    0.116805
      2          1           0       -2.072764   -2.053240   -0.361889
      3          1           0       -0.342512   -2.298223   -0.146619
      4          1           0       -1.321481   -1.719640    1.198086
      5          6           0        0.547343    1.874508   -0.035601
      6          1           0       -0.265216    2.515201    0.308948
      7          1           0        1.466983    2.246656    0.415537
      8          1           0        0.637818    1.980802   -1.117431
      9         16           0        1.773454   -0.622977   -0.100054
     10          1           0        2.704710    0.202406    0.408749
     11          6           0        0.298134    0.419562    0.349892
     12          1           0        0.183677    0.344478    1.433269
     13          6           0       -0.951456   -0.197739   -0.311553
     14          1           0       -0.786007   -0.181121   -1.393993
     15          6           0       -2.209169    0.629016   -0.010608
     16          1           0       -2.374526    0.713213    1.066488
     17          1           0       -2.158055    1.634905   -0.423808
     18          1           0       -3.086048    0.143279   -0.440087
 ---------------------------------------------------------------------

 SCF Done:  E(RHF) =  -593.965213198     A.U. after    2 cycles

 The electronic state is 1-A.
 Alpha  occ. eigenvalues --  -93.52457 -11.27542 -11.24562 -11.23358 -11.22771
 Alpha  occ. eigenvalues --  -11.22260  -8.82207  -6.16404  -6.16167  -6.15832
 Alpha  occ. eigenvalues --   -1.10458  -1.01384  -0.94323  -0.91541  -0.84594
 Alpha  occ. eigenvalues --   -0.76309  -0.63712  -0.62277  -0.59798  -0.59048
 Alpha  occ. eigenvalues --   -0.55049  -0.54430  -0.52052  -0.51597  -0.48972
 Alpha  occ. eigenvalues --   -0.47365  -0.46430  -0.42497  -0.34900
 Alpha virt. eigenvalues --    0.03517   0.04199   0.04760   0.04940   0.06359
 Alpha virt. eigenvalues --    0.06560   0.06849   0.07156   0.07600   0.08762
 Alpha virt. eigenvalues --    0.09366   0.09667   0.12436   0.13011   0.13824

 Mulliken charges:
               1
     1  C    0.755089
     2  H   -0.040896
     3  H   -0.092836
     4  H   -0.032997
     5  C    0.550070
     6  H   -0.084970
     7  H   -0.123110
     8  H   -0.038815
     9  S    0.312517
    10  H   -0.006913
    11  C   -0.400107
    12  H   -0.209866
    13  C   -0.993533
    14  H   -0.206605
    15  C    0.808887
    16  H   -0.009541
    17  H   -0.105878
    18  H   -0.080494
 Sum of Mulliken charges =  -0.00000

 Dipole moment (field-independent basis, Debye):
    X=             -1.0779    Y=              1.3873    Z=              0.5577  Tot=              1.8432

 Test job not archived.
 1\1\GINC-SE179\SP\RHF\Aug-CC-pVDZ\C5H12S1\OHZDE\05-Apr-2025\0\\#t hf a
 ug-cc-pvdz iop(5/13=1,5/36=2,99/5=2) pseudo=read geom=check guess=(rea
 d,tcheck) scf=(maxcycle=1)\\title\\0,1\C,0,-1.178493,-1.652194,0.11680
 5\H,0,-2.072764,-2.05324,-0.361889\H,0,-0.342512,-2.298223,-0.146619\H
 ,0,-1.321481,-1.71964,1.198086\C,0,0.547343,1.874508,-0.035601\H,0,-0.
 265216,2.515201,0.308948\H,0,1.466983,2.246656,0.415537\H,0,0.637818,1
 .980802,-1.117431\S,0,1.773454,-0.622977,-0.100054\H,0,2.70471,0.20240
 6,0.408749\C,0,0.298134,0.419562,0.349892\H,0,0.183677,0.344478,1.4332

 Normal termination of Gaussian 16 at Sat Apr  5 22:39:52 2025.
