 Gaussian 16, Revision C.01,

 ----------------------------------------------------------------------
 #t hf aug-cc-pvdz symm=none int=(grid=ultrafine) guess=(read,tcheck) s
 table=(opt,rrhf)
 ----------------------------------------------------------------------
 -----
 title
 -----
 Symbolic Z-matrix:
 Charge =  0 Multiplicity = 1

 SCF Done:  E(RHF) =  -313.466754255     A.U. after   11 cycles
 Normal termination of Gaussian 16 at Sat Apr  5 22:41:07 2025.
 Gaussian 16:  ES64L-G16RevC.01  3-Jul-2019

 ----------------------------------------------------------------------
 #t hf aug-cc-pvdz iop(5/13=1,5/36=2,99/5=2) pseudo=read geom=check gue
 ss=(read,tcheck) scf=(maxcycle=1)
 ----------------------------------------------------------------------
 -----
 title
 -----
 Structure from the checkpoint file:  "3-methylheptane.chk"
 Charge =  0 Multiplicity = 1

                         Standard orientation:
 ---------------------------------------------------------------------
 Center     Atomic      Atomic             Coordinates (Angstroms)
 Number     Number       Type             X           Y           Z
 ---------------------------------------------------------------------
      1          6           0        4.015672    0.099100    0.289449
      2          6           0       -3.659890   -0.381305    0.397793
      3          6           0       -1.312953    1.589945   -0.274353
      4          6           0        2.736727   -0.537959   -0.251184
      5          6           0       -2.319478   -0.745039   -0.241002
      6          6           0        1.463534    0.175911    0.206921
      7          6           0        0.184875   -0.466156   -0.335149
      8          6           0       -1.132203    0.137622    0.180181
      9          1           0        4.109221    1.136544   -0.038345
     10          1           0        4.025788    0.097510    1.381427
     11          1           0        4.903264   -0.436410   -0.050520
     12          1           0       -3.592023   -0.395135    1.487967
     13          1           0       -4.434015   -1.093105    0.107456
     14          1           0       -4.003439    0.609778    0.100382
     15          1           0       -0.491110    2.223149    0.059161
     16          1           0       -1.356401    1.648509   -1.365506
     17          1           0       -2.232244    2.024627    0.117681
     18          1           0        2.769370   -0.548538   -1.344870
     19          1           0        2.692400   -1.586189    0.059526
     20          1           0       -2.414267   -0.714025   -1.331790
     21          1           0       -2.082615   -1.782577    0.011079
     22          1           0        1.429172    0.178672    1.301980
     23          1           0        1.519308    1.224408   -0.097653
     24          1           0        0.198956   -1.530706   -0.080311
     25          1           0        0.192317   -0.418766   -1.430343
     26          1           0       -1.091387    0.129538    1.276747
 ---------------------------------------------------------------------

 SCF Done:  E(RHF) =  -313.567817332     A.U. after    2 cycles

 The electronic state is 1-A.
 Alpha  occ. eigenvalues --  -11.22785 -11.22334 -11.22188 -11.22041 -11.21934
 Alpha  occ. eigenvalues --  -11.21875 -11.21823 -11.21554  -1.08956  -1.04792
 Alpha  occ. eigenvalues --   -0.98840  -0.94853  -0.88763  -0.83415  -0.78685
 Alpha  occ. eigenvalues --   -0.75929  -0.64936  -0.62582  -0.61146  -0.59207
 Alpha  occ. eigenvalues --   -0.57577  -0.56418  -0.54490  -0.53024  -0.51633
 Alpha  occ. eigenvalues --   -0.50795  -0.49439  -0.48359  -0.47174  -0.46246
 Alpha  occ. eigenvalues --   -0.45384  -0.44525  -0.43113
 Alpha virt. eigenvalues --    0.03556   0.03859   0.04281   0.04489   0.05499
 Alpha virt. eigenvalues --    0.05735   0.06092   0.06484   0.07202   0.07682
 Alpha virt. eigenvalues --    0.07855   0.08314   0.08500   0.10210   0.10701

 Mulliken charges:
               1
     1  C    0.670204
     2  C    0.599189
     3  C    0.773608
     4  C    0.427364
     5  C    0.610031
     6  C    0.180736
     7  C    0.363200
     8  C   -1.038804
     9  H   -0.093323
    10  H   -0.091049
    11  H   -0.066353
    12  H   -0.076648
    13  H   -0.066328
    14  H   -0.120738
    15  H   -0.102029
    16  H   -0.052535
    17  H   -0.139502
    18  H   -0.158424
    19  H   -0.178857
    20  H   -0.139062
    21  H   -0.160844
    22  H   -0.193922
    23  H   -0.266879
    24  H   -0.207656
    25  H   -0.162966
    26  H   -0.308410
 Sum of Mulliken charges =  -0.00000

 Dipole moment (field-independent basis, Debye):
    X=              0.0055    Y=             -0.0802    Z=              0.0243  Tot=              0.0840

 Test job not archived.
 1\1\GINC-SE196\SP\RHF\Aug-CC-pVDZ\C8H18\OHZDE\05-Apr-2025\0\\#t hf aug
 -cc-pvdz iop(5/13=1,5/36=2,99/5=2) pseudo=read geom=check guess=(read,
 tcheck) scf=(maxcycle=1)\\title\\0,1\C,0,4.015672,0.0991,0.289449\C,0,
 -3.65989,-0.381305,0.397793\C,0,-1.312953,1.589945,-0.274353\C,0,2.736
 727,-0.537959,-0.251184\C,0,-2.319478,-0.745039,-0.241002\C,0,1.463534
 ,0.175911,0.206921\C,0,0.184875,-0.466156,-0.335149\C,0,-1.132203,0.13
 7622,0.180181\H,0,4.109221,1.136544,-0.038345\H,0,4.025788,0.09751,1.3
 81427\H,0,4.903264,-0.43641,-0.05052\H,0,-3.592023,-0.395135,1.487967\

 Normal termination of Gaussian 16 at Sat Apr  5 22:41:41 2025.
