 Gaussian 16, Revision C.01,

 ----------------------------------------------------------------------
 #t hf aug-cc-pvdz symm=none int=(grid=ultrafine) guess=(read,tcheck) s
 table=(opt,rrhf)
 ----------------------------------------------------------------------
 -----
 title
 -----
 Symbolic Z-matrix:
 Charge =  0 Multiplicity = 1

 SCF Done:  E(RHF) =  -399.667951245     A.U. after   15 cycles
 Normal termination of Gaussian 16 at Sat Apr  5 22:38:58 2025.
 Gaussian 16:  ES64L-G16RevC.01  3-Jul-2019

 ----------------------------------------------------------------------
 #t hf aug-cc-pvdz iop(5/13=1,5/36=2,99/5=2) pseudo=read geom=check gue
 ss=(read,tcheck) scf=(maxcycle=1)
 ----------------------------------------------------------------------
 -----
 title
 -----
 Structure from the checkpoint file:  "3-methoxyaniline.chk"
 Charge =  0 Multiplicity = 1

                         Standard orientation:
 ---------------------------------------------------------------------
 Center     Atomic      Atomic             Coordinates (Angstroms)
 Number     Number       Type             X           Y           Z
 ---------------------------------------------------------------------
      1          6           0       -0.533337    1.799111    0.003615
      2          6           0       -1.705095    1.064563   -0.002894
      3          6           0        0.717403    1.184420    0.004395
      4          6           0       -0.402266   -0.962277   -0.006106
      5          6           0       -1.646552   -0.337109   -0.007512
      6          6           0        0.770726   -0.209050   -0.000830
      7          6           0        3.162146   -0.235899    0.003261
      8          7           0       -2.816974   -1.091799   -0.070750
      9          8           0        1.927453   -0.933333    0.000800
     10          1           0       -0.586702    2.879891    0.008420
     11          1           0       -2.664991    1.564249   -0.010323
     12          1           0        1.613061    1.784526    0.009583
     13          1           0       -0.323439   -2.041438   -0.015180
     14          1           0        3.268427    0.385502    0.896029
     15          1           0        3.269501    0.389402   -0.886596
     16          1           0        3.936497   -0.998414    0.002060
     17          1           0       -3.647664   -0.634953    0.267787
     18          1           0       -2.743642   -2.042069    0.253499
 ---------------------------------------------------------------------

 SCF Done:  E(RHF) =  -399.791197679     A.U. after    2 cycles

 The electronic state is 1-A.
 Alpha  occ. eigenvalues --  -20.59506 -15.62935 -11.30889 -11.29217 -11.29005
 Alpha  occ. eigenvalues --  -11.24696 -11.22318 -11.22297 -11.22113  -1.36504
 Alpha  occ. eigenvalues --   -1.19605  -1.11233  -1.01661  -0.98108  -0.93861
 Alpha  occ. eigenvalues --   -0.83438  -0.80543  -0.72563  -0.70235  -0.66699
 Alpha  occ. eigenvalues --   -0.66203  -0.64179  -0.64025  -0.59078  -0.57330
 Alpha  occ. eigenvalues --   -0.54232  -0.53244  -0.52106  -0.50148  -0.48895
 Alpha  occ. eigenvalues --   -0.43446  -0.32208  -0.29524
 Alpha virt. eigenvalues --    0.03353   0.03707   0.03997   0.05219   0.05767
 Alpha virt. eigenvalues --    0.06116   0.07188   0.08358   0.09877   0.10889
 Alpha virt. eigenvalues --    0.11179   0.12195   0.12808   0.13427   0.14089

 Mulliken charges:
               1
     1  C    0.393010
     2  C    0.710681
     3  C    0.373848
     4  C    0.639384
     5  C    0.417438
     6  C    0.620588
     7  C    0.863210
     8  N   -0.308546
     9  O   -0.706610
    10  H   -0.452433
    11  H   -0.570257
    12  H   -0.747005
    13  H   -0.640673
    14  H   -0.091312
    15  H   -0.091190
    16  H   -0.327867
    17  H   -0.041904
    18  H   -0.040361
 Sum of Mulliken charges =  -0.00000

 Dipole moment (field-independent basis, Debye):
    X=             -0.0985    Y=              0.4944    Z=              0.9468  Tot=              1.0726

 Test job not archived.
 1\1\GINC-SE115\SP\RHF\Aug-CC-pVDZ\C7H9N1O1\OHZDE\05-Apr-2025\0\\#t hf
 aug-cc-pvdz iop(5/13=1,5/36=2,99/5=2) pseudo=read geom=check guess=(re
 ad,tcheck) scf=(maxcycle=1)\\title\\0,1\C,0,-0.533337,1.799111,0.00361
 5\C,0,-1.705095,1.064563,-0.002894\C,0,0.717403,1.18442,0.004395\C,0,-
 0.402266,-0.962277,-0.006106\C,0,-1.646552,-0.337109,-0.007512\C,0,0.7
 70726,-0.20905,-0.00083\C,0,3.162146,-0.235899,0.003261\N,0,-2.816974,
 -1.091799,-0.07075\O,0,1.927453,-0.933333,0.0008\H,0,-0.586702,2.87989
 1,0.00842\H,0,-2.664991,1.564249,-0.010323\H,0,1.613061,1.784526,0.009

 Normal termination of Gaussian 16 at Sat Apr  5 22:39:15 2025.
