 Gaussian 16, Revision C.01,

 ----------------------------------------------------------------------
 #t hf aug-cc-pvdz symm=none int=(grid=ultrafine) guess=(read,tcheck) s
 table=(opt,rrhf)
 ----------------------------------------------------------------------
 -----
 title
 -----
 Symbolic Z-matrix:
 Charge =  0 Multiplicity = 1

 SCF Done:  E(RHF) =  -193.960239032     A.U. after   12 cycles
 Normal termination of Gaussian 16 at Sat Apr  5 22:38:01 2025.
 Gaussian 16:  ES64L-G16RevC.01  3-Jul-2019

 ----------------------------------------------------------------------
 #t hf aug-cc-pvdz iop(5/13=1,5/36=2,99/5=2) pseudo=read geom=check gue
 ss=(read,tcheck) scf=(maxcycle=1)
 ----------------------------------------------------------------------
 -----
 title
 -----
 Structure from the checkpoint file:  "3-methyl-1-2-butadiene.chk"
 Charge =  0 Multiplicity = 1

                         Standard orientation:
 ---------------------------------------------------------------------
 Center     Atomic      Atomic             Coordinates (Angstroms)
 Number     Number       Type             X           Y           Z
 ---------------------------------------------------------------------
      1          6           0        0.000000    0.000000    2.232657
      2          6           0        0.000000    0.000000    0.930096
      3          1           0       -0.923706    0.000000    2.800709
      4          1           0        0.923706   -0.000000    2.800709
      5          6           0        0.000000    0.000000   -0.374142
      6          6           0        0.000000    1.284198   -1.168462
      7          6           0       -0.000000   -1.284198   -1.168462
      8          1           0        0.000000    2.158725   -0.521798
      9          1           0       -0.000000   -2.158725   -0.521798
     10          1           0        0.878905    1.332755   -1.816985
     11          1           0       -0.878905    1.332755   -1.816985
     12          1           0       -0.878905   -1.332755   -1.816985
     13          1           0        0.878905   -1.332755   -1.816985
 ---------------------------------------------------------------------

 SCF Done:  E(RHF) =  -194.023828207     A.U. after    2 cycles

 The electronic state is 1-A1.
 Alpha  occ. eigenvalues --  -11.25319 -11.24974 -11.23723 -11.23548 -11.23543
 Alpha  occ. eigenvalues --   -1.09495  -1.00205  -0.94164  -0.86964  -0.68052
 Alpha  occ. eigenvalues --   -0.63176  -0.61138  -0.58789  -0.58467  -0.54421
 Alpha  occ. eigenvalues --   -0.53494  -0.51058  -0.37013  -0.34995
 Alpha virt. eigenvalues --    0.03506   0.04401   0.04961   0.05011   0.06522
 Alpha virt. eigenvalues --    0.07052   0.07263   0.08110   0.09824   0.12093
 Alpha virt. eigenvalues --    0.12853   0.14035   0.14696   0.14711   0.15946

 Mulliken charges:
               1
     1  C    0.775716
     2  C   -0.244858
     3  H   -0.250877
     4  H   -0.250877
     5  C   -0.353642
     6  C    0.235226
     7  C    0.235226
     8  H   -0.117102
     9  H   -0.117102
    10  H    0.022073
    11  H    0.022073
    12  H    0.022073
    13  H    0.022073
 Sum of Mulliken charges =  -0.00000

 Dipole moment (field-independent basis, Debye):
    X=              0.0000    Y=             -0.0000    Z=             -0.6928  Tot=              0.6928

 Test job not archived.
 1\1\GINC-SE165\SP\RHF\Aug-CC-pVDZ\C5H8\OHZDE\05-Apr-2025\0\\#t hf aug-
 cc-pvdz iop(5/13=1,5/36=2,99/5=2) pseudo=read geom=check guess=(read,t
 check) scf=(maxcycle=1)\\title\\0,1\C,0,0.,0.,2.232657\C,0,0.,0.,0.930
 096\H,0,-0.923706,0.,2.800709\H,0,0.923706,0.,2.800709\C,0,0.,0.,-0.37
 4142\C,0,0.,1.284198,-1.168462\C,0,0.,-1.284198,-1.168462\H,0,0.,2.158
 725,-0.521798\H,0,0.,-2.158725,-0.521798\H,0,0.878905,1.332755,-1.8169
 85\H,0,-0.878905,1.332755,-1.816985\H,0,-0.878905,-1.332755,-1.816985\
 H,0,0.878905,-1.332755,-1.816985\\Version=ES64L-G16RevC.01\State=1-A1\

 Normal termination of Gaussian 16 at Sat Apr  5 22:38:05 2025.
