 Gaussian 16, Revision C.01,

 ----------------------------------------------------------------------
 #t hf aug-cc-pvdz symm=none int=(grid=ultrafine) guess=(read,tcheck) s
 table=(opt,rrhf)
 ----------------------------------------------------------------------
 -----
 title
 -----
 Symbolic Z-matrix:
 Charge =  0 Multiplicity = 1

 SCF Done:  E(RHF) =  -267.697028519     A.U. after   14 cycles
 Normal termination of Gaussian 16 at Sat Apr  5 22:39:20 2025.
 Gaussian 16:  ES64L-G16RevC.01  3-Jul-2019

 ----------------------------------------------------------------------
 #t hf aug-cc-pvdz iop(5/13=1,5/36=2,99/5=2) pseudo=read geom=check gue
 ss=(read,tcheck) scf=(maxcycle=1)
 ----------------------------------------------------------------------
 -----
 title
 -----
 Structure from the checkpoint file:  "3-methylfuran.chk"
 Charge =  0 Multiplicity = 1

                         Standard orientation:
 ---------------------------------------------------------------------
 Center     Atomic      Atomic             Coordinates (Angstroms)
 Number     Number       Type             X           Y           Z
 ---------------------------------------------------------------------
      1          8           0       -0.697958   -1.455911    0.000000
      2          6           0       -1.079484   -0.145052    0.000000
      3          6           0        0.661528   -1.463672    0.000000
      4          6           0        0.000000    0.676627    0.000000
      5          6           0        1.141177   -0.197619    0.000000
      6          6           0        0.006984    2.171398    0.000000
      7          1           0       -2.139263    0.036670    0.000000
      8          1           0        1.128523   -2.431792    0.000000
      9          1           0        2.178895    0.090679    0.000000
     10          1           0       -1.007010    2.569914    0.000000
     11          1           0        0.520643    2.565867    0.878993
     12          1           0        0.520643    2.565867   -0.878993
 ---------------------------------------------------------------------

 SCF Done:  E(RHF) =  -267.781925150     A.U. after    2 cycles

 The electronic state is 1-A'.
 Alpha  occ. eigenvalues --  -20.63059 -11.29713 -11.28784 -11.24273 -11.23918
 Alpha  occ. eigenvalues --  -11.23451  -1.41328  -1.09067  -1.01165  -0.94808
 Alpha  occ. eigenvalues --   -0.80103  -0.77301  -0.72194  -0.64609  -0.61400
 Alpha  occ. eigenvalues --   -0.58903  -0.57388  -0.57298  -0.54945  -0.51200
 Alpha  occ. eigenvalues --   -0.39086  -0.31763
 Alpha virt. eigenvalues --    0.03510   0.04081   0.04495   0.05756   0.05890
 Alpha virt. eigenvalues --    0.07297   0.09760   0.10362   0.11628   0.13022
 Alpha virt. eigenvalues --    0.13516   0.14450   0.14540   0.15481   0.15683

 Mulliken charges:
               1
     1  O   -0.513454
     2  C    0.818895
     3  C    0.452728
     4  C   -0.622148
     5  C    0.492859
     6  C    0.426158
     7  H   -0.375218
     8  H   -0.317536
     9  H   -0.385171
    10  H   -0.089164
    11  H    0.056026
    12  H    0.056026
 Sum of Mulliken charges =  -0.00000

 Dipole moment (field-independent basis, Debye):
    X=              0.6678    Y=              1.1032    Z=              0.0000  Tot=              1.2896

 Test job not archived.
 1\1\GINC-SE196\SP\RHF\Aug-CC-pVDZ\C5H6O1\OHZDE\05-Apr-2025\0\\#t hf au
 g-cc-pvdz iop(5/13=1,5/36=2,99/5=2) pseudo=read geom=check guess=(read
 ,tcheck) scf=(maxcycle=1)\\title\\0,1\O,0,-0.697958,-1.455911,0.\C,0,-
 1.079484,-0.145052,0.\C,0,0.661528,-1.463672,0.\C,0,0.,0.676627,0.\C,0
 ,1.141177,-0.197619,0.\C,0,0.006984,2.171398,0.\H,0,-2.139263,0.03667,
 0.\H,0,1.128523,-2.431792,0.\H,0,2.178895,0.090679,0.\H,0,-1.00701,2.5
 69914,0.\H,0,0.520643,2.565867,0.878993\H,0,0.520643,2.565867,-0.87899
 3\\Version=ES64L-G16RevC.01\State=1-A'\HF=-267.7819252\RMSD=8.938e-03\

 Normal termination of Gaussian 16 at Sat Apr  5 22:39:49 2025.
