 Gaussian 16, Revision C.01,

 ----------------------------------------------------------------------
 #t hf aug-cc-pvdz symm=none int=(grid=ultrafine) guess=(read,tcheck) s
 table=(opt,rrhf)
 ----------------------------------------------------------------------
 -----
 title
 -----
 Symbolic Z-matrix:
 Charge =  0 Multiplicity = 1

 SCF Done:  E(RHF) =  -400.552957802     A.U. after   17 cycles
 Normal termination of Gaussian 16 at Sat Apr  5 22:40:43 2025.
 Gaussian 16:  ES64L-G16RevC.01  3-Jul-2019

 ----------------------------------------------------------------------
 #t hf aug-cc-pvdz iop(5/13=1,5/36=2,99/5=2) pseudo=read geom=check gue
 ss=(read,tcheck) scf=(maxcycle=1)
 ----------------------------------------------------------------------
 -----
 title
 -----
 Structure from the checkpoint file:  "3-methyl-1H-indole.chk"
 Charge =  0 Multiplicity = 1

                         Standard orientation:
 ---------------------------------------------------------------------
 Center     Atomic      Atomic             Coordinates (Angstroms)
 Number     Number       Type             X           Y           Z
 ---------------------------------------------------------------------
      1          6           0        2.400164    0.371988    0.000000
      2          6           0        2.378035   -1.032832    0.000000
      3          6           0        1.225975    1.104452    0.000000
      4          6           0        1.182366   -1.731751    0.000000
      5          6           0       -2.128810   -0.282840    0.000000
      6          6           0        0.000000    0.426694    0.000000
      7          6           0       -1.373591    0.855620    0.000000
      8          6           0        0.002264   -0.990913    0.000000
      9          6           0       -1.867832    2.265726    0.000000
     10          7           0       -1.311241   -1.397590    0.000000
     11          1           0        3.352447    0.884836    0.000000
     12          1           0        3.311975   -1.578319    0.000000
     13          1           0        1.256606    2.186234    0.000000
     14          1           0        1.169379   -2.813921    0.000000
     15          1           0       -3.200520   -0.392057    0.000000
     16          1           0       -1.518423    2.813684    0.878543
     17          1           0       -1.518423    2.813684   -0.878543
     18          1           0       -2.957160    2.300825    0.000000
     19          1           0       -1.628626   -2.348692    0.000000
 ---------------------------------------------------------------------

 SCF Done:  E(RHF) =  -400.670870853     A.U. after    2 cycles

 The electronic state is 1-A'.
 Alpha  occ. eigenvalues --  -15.66169 -11.27329 -11.27258 -11.23849 -11.23749
 Alpha  occ. eigenvalues --  -11.23647 -11.23086 -11.22987 -11.22896 -11.22803
 Alpha  occ. eigenvalues --   -1.26302  -1.11989  -1.06471  -0.99383  -0.98379
 Alpha  occ. eigenvalues --   -0.93050  -0.84186  -0.80710  -0.76015  -0.72451
 Alpha  occ. eigenvalues --   -0.66343  -0.65139  -0.60902  -0.59932  -0.59375
 Alpha  occ. eigenvalues --   -0.57570  -0.55296  -0.54703  -0.53468  -0.50291
 Alpha  occ. eigenvalues --   -0.47964  -0.46599  -0.37735  -0.30088  -0.28172
 Alpha virt. eigenvalues --    0.02963   0.03597   0.03850   0.05247   0.05454
 Alpha virt. eigenvalues --    0.06088   0.07207   0.07549   0.08959   0.09562
 Alpha virt. eigenvalues --    0.10269   0.12042   0.12623   0.12697   0.13191

 Mulliken charges:
               1
     1  C    0.371782
     2  C    0.517353
     3  C    0.534571
     4  C    1.209339
     5  C    1.199539
     6  C   -0.136546
     7  C   -0.443599
     8  C   -0.778960
     9  C    0.627696
    10  N   -0.637374
    11  H   -0.486839
    12  H   -0.468451
    13  H   -0.512501
    14  H   -0.538410
    15  H   -0.401709
    16  H    0.105156
    17  H    0.105156
    18  H   -0.148493
    19  H   -0.117710
 Sum of Mulliken charges =  -0.00000

 Dipole moment (field-independent basis, Debye):
    X=             -1.5745    Y=             -1.2170    Z=              0.0000  Tot=              1.9900

 Test job not archived.
 1\1\GINC-SE055\SP\RHF\Aug-CC-pVDZ\C9H9N1\OHZDE\05-Apr-2025\0\\#t hf au
 g-cc-pvdz iop(5/13=1,5/36=2,99/5=2) pseudo=read geom=check guess=(read
 ,tcheck) scf=(maxcycle=1)\\title\\0,1\C,0,2.400164,0.371989,0.\C,0,2.3
 78036,-1.032831,0.\C,0,1.225975,1.104452,0.\C,0,1.182367,-1.731751,0.\
 C,0,-2.12881,-0.282841,0.\C,0,0.,0.426694,0.\C,0,-1.373591,0.855619,0.
 \C,0,0.002265,-0.990913,0.\C,0,-1.867833,2.265725,0.\N,0,-1.31124,-1.3
 97591,0.\H,0,3.352447,0.884837,0.\H,0,3.311976,-1.578318,0.\H,0,1.2566
 05,2.186234,0.\H,0,1.16938,-2.813921,0.\H,0,-3.20052,-0.392058,0.\H,0,

 Normal termination of Gaussian 16 at Sat Apr  5 22:41:01 2025.
