 Gaussian 16, Revision C.01,

 ----------------------------------------------------------------------
 #t hf aug-cc-pvdz symm=none int=(grid=ultrafine) guess=(read,tcheck) s
 table=(opt,rrhf)
 ----------------------------------------------------------------------
 -----
 title
 -----
 Symbolic Z-matrix:
 Charge =  0 Multiplicity = 1

 SCF Done:  E(RHF) =  -274.427955845     A.U. after   11 cycles
 Normal termination of Gaussian 16 at Sat Apr  5 22:40:35 2025.
 Gaussian 16:  ES64L-G16RevC.01  3-Jul-2019

 ----------------------------------------------------------------------
 #t hf aug-cc-pvdz iop(5/13=1,5/36=2,99/5=2) pseudo=read geom=check gue
 ss=(read,tcheck) scf=(maxcycle=1)
 ----------------------------------------------------------------------
 -----
 title
 -----
 Structure from the checkpoint file:  "3-methylhexane.chk"
 Charge =  0 Multiplicity = 1

                         Standard orientation:
 ---------------------------------------------------------------------
 Center     Atomic      Atomic             Coordinates (Angstroms)
 Number     Number       Type             X           Y           Z
 ---------------------------------------------------------------------
      1          6           0       -3.327207   -0.419023    0.041928
      2          6           0        3.090721   -0.451140   -0.274255
      3          6           0       -0.788431   -0.412239    0.253951
      4          6           0        0.571113    0.141230   -0.203853
      5          6           0        1.708576   -0.763650    0.299514
      6          6           0       -2.017419    0.251736   -0.371051
      7          1           0        3.827406   -1.178545    0.069812
      8          1           0       -4.188029    0.070172   -0.416159
      9          1           0       -3.463898   -0.383764    1.124825
     10          1           0       -3.344052   -1.469173   -0.256997
     11          1           0        3.079369   -0.485016   -1.366025
     12          1           0        3.447082    0.535638    0.022419
     13          1           0       -1.923476    0.224375   -1.461206
     14          1           0       -2.055863    1.307823   -0.095365
     15          1           0        1.456099   -1.799914    0.057534
     16          1           0        1.746302   -0.710073    1.392821
     17          1           0       -0.853981   -0.337240    1.345824
     18          1           0       -0.821582   -1.482078    0.023681
     19          1           0        0.587534    0.107539   -1.300667
     20          6           0        0.769883    1.598721    0.226172
     21          1           0       -0.014695    2.245965   -0.165115
     22          1           0        1.720804    1.997706   -0.126289
     23          1           0        0.757558    1.682770    1.316470
 ---------------------------------------------------------------------

 SCF Done:  E(RHF) =  -274.517042524     A.U. after    2 cycles

 The electronic state is 1-A.
 Alpha  occ. eigenvalues --  -11.22794 -11.22294 -11.22199 -11.21950 -11.21880
 Alpha  occ. eigenvalues --  -11.21831 -11.21572  -1.08808  -1.03111  -0.97426
 Alpha  occ. eigenvalues --   -0.91760  -0.86079  -0.79594  -0.75980  -0.64499
 Alpha  occ. eigenvalues --   -0.62101  -0.60869  -0.58664  -0.56575  -0.54142
 Alpha  occ. eigenvalues --   -0.53641  -0.52006  -0.51217  -0.49669  -0.47897
 Alpha  occ. eigenvalues --   -0.46772  -0.45395  -0.44644  -0.43504
 Alpha virt. eigenvalues --    0.03590   0.04018   0.04387   0.04606   0.05776
 Alpha virt. eigenvalues --    0.06124   0.06384   0.06645   0.07274   0.08118
 Alpha virt. eigenvalues --    0.08430   0.08736   0.09086   0.11126   0.11220

 Mulliken charges:
               1
     1  C    0.581488
     2  C    0.552845
     3  C    0.374467
     4  C   -1.032812
     5  C    0.575480
     6  C    0.320530
     7  H   -0.064933
     8  H   -0.068278
     9  H   -0.077242
    10  H   -0.098154
    11  H   -0.075155
    12  H   -0.123400
    13  H   -0.152672
    14  H   -0.191668
    15  H   -0.162853
    16  H   -0.124363
    17  H   -0.167985
    18  H   -0.191419
    19  H   -0.292514
    20  C    0.710685
    21  H   -0.117261
    22  H   -0.129480
    23  H   -0.045309
 Sum of Mulliken charges =  -0.00000

 Dipole moment (field-independent basis, Debye):
    X=             -0.0014    Y=             -0.0125    Z=             -0.0747  Tot=              0.0758

 Test job not archived.
 1\1\GINC-SE177\SP\RHF\Aug-CC-pVDZ\C7H16\OHZDE\05-Apr-2025\0\\#t hf aug
 -cc-pvdz iop(5/13=1,5/36=2,99/5=2) pseudo=read geom=check guess=(read,
 tcheck) scf=(maxcycle=1)\\title\\0,1\C,0,-3.327207,-0.419023,0.041928\
 C,0,3.090721,-0.45114,-0.274255\C,0,-0.788431,-0.412239,0.253951\C,0,0
 .571113,0.14123,-0.203853\C,0,1.708576,-0.76365,0.299514\C,0,-2.017419
 ,0.251736,-0.371051\H,0,3.827406,-1.178545,0.069812\H,0,-4.188029,0.07
 0172,-0.416159\H,0,-3.463898,-0.383764,1.124825\H,0,-3.344052,-1.46917
 3,-0.256997\H,0,3.079369,-0.485016,-1.366025\H,0,3.447082,0.535638,0.0

 Normal termination of Gaussian 16 at Sat Apr  5 22:41:02 2025.
