 Gaussian 16, Revision C.01,

 ----------------------------------------------------------------------
 #t hf aug-cc-pvdz symm=none int=(grid=ultrafine) guess=(read,tcheck) s
 table=(opt,rrhf)
 ----------------------------------------------------------------------
 -----
 title
 -----
 Symbolic Z-matrix:
 Charge =  0 Multiplicity = 1

 SCF Done:  E(RHF) =  -283.668426974     A.U. after   15 cycles
 Normal termination of Gaussian 16 at Sat Apr  5 22:37:57 2025.
 Gaussian 16:  ES64L-G16RevC.01  3-Jul-2019

 ----------------------------------------------------------------------
 #t hf aug-cc-pvdz iop(5/13=1,5/36=2,99/5=2) pseudo=read geom=check gue
 ss=(read,tcheck) scf=(maxcycle=1)
 ----------------------------------------------------------------------
 -----
 title
 -----
 Structure from the checkpoint file:  "3-methyl-1-2-oxazole.chk"
 Charge =  0 Multiplicity = 1

                         Standard orientation:
 ---------------------------------------------------------------------
 Center     Atomic      Atomic             Coordinates (Angstroms)
 Number     Number       Type             X           Y           Z
 ---------------------------------------------------------------------
      1          6           0        0.053087    2.127284    0.000000
      2          1           0       -0.448036    2.532049    0.880290
      3          1           0        1.086611    2.465817    0.000000
      4          1           0       -0.448036    2.532049   -0.880290
      5          6           0       -0.629178   -1.458575    0.000000
      6          8           0        0.709685   -1.409033    0.000000
      7          7           0        1.104596   -0.064916    0.000000
      8          6           0        0.000000    0.635944    0.000000
      9          6           0       -1.148537   -0.210735    0.000000
     10          1           0       -2.184862    0.075240    0.000000
     11          1           0       -1.067559   -2.441986    0.000000
 ---------------------------------------------------------------------

 SCF Done:  E(RHF) =  -283.754747432     A.U. after    2 cycles

 The electronic state is 1-A'.
 Alpha  occ. eigenvalues --  -20.65546 -15.68114 -11.32744 -11.29649 -11.25115
 Alpha  occ. eigenvalues --  -11.24744  -1.44545  -1.15761  -1.06300  -0.98330
 Alpha  occ. eigenvalues --   -0.83604  -0.78134  -0.73034  -0.66779  -0.62966
 Alpha  occ. eigenvalues --   -0.59586  -0.58937  -0.56280  -0.54517  -0.47138
 Alpha  occ. eigenvalues --   -0.41812  -0.36856
 Alpha virt. eigenvalues --    0.02988   0.03655   0.05077   0.05498   0.07048
 Alpha virt. eigenvalues --    0.09143   0.09542   0.10768   0.12503   0.12968
 Alpha virt. eigenvalues --    0.13948   0.13974   0.14559   0.14696   0.16622

 Mulliken charges:
               1
     1  C    0.548328
     2  H    0.072196
     3  H   -0.101227
     4  H    0.072196
     5  C    0.679960
     6  O   -0.636344
     7  N   -0.254668
     8  C   -0.332474
     9  C    0.567975
    10  H   -0.338520
    11  H   -0.277421
 Sum of Mulliken charges =   0.00000

 Dipole moment (field-independent basis, Debye):
    X=             -3.3176    Y=              1.0157    Z=              0.0000  Tot=              3.4696

 Test job not archived.
 1\1\GINC-SE185\SP\RHF\Aug-CC-pVDZ\C4H5N1O1\OHZDE\05-Apr-2025\0\\#t hf
 aug-cc-pvdz iop(5/13=1,5/36=2,99/5=2) pseudo=read geom=check guess=(re
 ad,tcheck) scf=(maxcycle=1)\\title\\0,1\C,0,0.053087,2.127284,0.\H,0,-
 0.448036,2.532049,0.88029\H,0,1.086611,2.465817,0.\H,0,-0.448036,2.532
 049,-0.88029\C,0,-0.629178,-1.458575,0.\O,0,0.709685,-1.409033,0.\N,0,
 1.104596,-0.064916,0.\C,0,0.,0.635944,0.\C,0,-1.148537,-0.210735,0.\H,
 0,-2.184862,0.07524,0.\H,0,-1.067559,-2.441986,0.\\Version=ES64L-G16Re
 vC.01\State=1-A'\HF=-283.7547474\RMSD=7.053e-03\Dipole=-1.305261,0.399

 Normal termination of Gaussian 16 at Sat Apr  5 22:38:01 2025.
