 Gaussian 16, Revision C.01,

 ----------------------------------------------------------------------
 #t hf aug-cc-pvdz symm=none int=(grid=ultrafine) guess=(read,tcheck) s
 table=(opt,rrhf)
 ----------------------------------------------------------------------
 -----
 title
 -----
 Symbolic Z-matrix:
 Charge =  0 Multiplicity = 1

 SCF Done:  E(RHF) =  -271.224306296     A.U. after   12 cycles

 1\1\GINC-SE194\Stability\RHF\Aug-CC-pVDZ\C5H12O1\OHZDE\05-Apr-2025\0\\
 #t hf aug-cc-pvdz symm=none int=(grid=ultrafine) guess=(read,tcheck) s
 table=(opt,rrhf)\\title\\0,1\C,0,-1.572019,-1.152435,0.064704\H,0,-2.5
 44151,-1.085014,-0.426242\H,0,-1.109397,-2.095497,-0.217069\H,0,-1.747
 322,-1.170696,1.143837\C,0,1.649859,1.062268,-0.055942\H,0,1.313035,2.
 014631,0.352183\H,0,2.646218,0.870729,0.349265\H,0,1.737758,1.156202,-
 1.139611\O,0,1.248482,-1.330506,-0.129077\H,0,2.137286,-1.421916,0.225
 802\C,0,0.703049,-0.076396,0.308494\H,0,0.58065,-0.102704,1.400853\C,0

 Normal termination of Gaussian 16 at Sat Apr  5 22:39:09 2025.
 Gaussian 16:  ES64L-G16RevC.01  3-Jul-2019

 ----------------------------------------------------------------------
 #t hf aug-cc-pvdz iop(5/13=1,5/36=2,99/5=2) pseudo=read geom=check gue
 ss=(read,tcheck) scf=(maxcycle=1)
 ----------------------------------------------------------------------
 -----
 title
 -----
 Structure from the checkpoint file:  "3-methyl-2-butanol.chk"
 Charge =  0 Multiplicity = 1

                         Standard orientation:
 ---------------------------------------------------------------------
 Center     Atomic      Atomic             Coordinates (Angstroms)
 Number     Number       Type             X           Y           Z
 ---------------------------------------------------------------------
      1          6           0       -1.572019   -1.152435    0.064704
      2          1           0       -2.544151   -1.085014   -0.426242
      3          1           0       -1.109397   -2.095497   -0.217069
      4          1           0       -1.747322   -1.170696    1.143837
      5          6           0        1.649859    1.062268   -0.055942
      6          1           0        1.313035    2.014631    0.352183
      7          1           0        2.646218    0.870729    0.349265
      8          1           0        1.737758    1.156202   -1.139611
      9          8           0        1.248482   -1.330506   -0.129077
     10          1           0        2.137286   -1.421916    0.225802
     11          6           0        0.703049   -0.076396    0.308494
     12          1           0        0.580650   -0.102704    1.400853
     13          6           0       -0.691524    0.040475   -0.320727
     14          1           0       -0.545223    0.020911   -1.406038
     15          6           0       -1.380726    1.356806    0.052990
     16          1           0       -1.468276    1.460678    1.137735
     17          1           0       -0.850062    2.229463   -0.326308
     18          1           0       -2.390195    1.382956   -0.358897
 ---------------------------------------------------------------------

 SCF Done:  E(RHF) =  -271.311655932     A.U. after    2 cycles

 The electronic state is 1-A.
 Alpha  occ. eigenvalues --  -20.56497 -11.28639 -11.23095 -11.22685 -11.22150
 Alpha  occ. eigenvalues --  -11.21099  -1.31530  -1.07328  -0.98716  -0.92206
 Alpha  occ. eigenvalues --   -0.86112  -0.76563  -0.69843  -0.64151  -0.61857
 Alpha  occ. eigenvalues --   -0.59869  -0.56049  -0.54896  -0.53863  -0.53011
 Alpha  occ. eigenvalues --   -0.51670  -0.48019  -0.47224  -0.45135  -0.44175
 Alpha virt. eigenvalues --    0.03475   0.04258   0.04724   0.04886   0.06422
 Alpha virt. eigenvalues --    0.06537   0.06905   0.07060   0.07595   0.09045
 Alpha virt. eigenvalues --    0.09548   0.09904   0.12997   0.13974   0.15037

 Mulliken charges:
               1
     1  C    0.814348
     2  H   -0.049831
     3  H   -0.039135
     4  H   -0.040566
     5  C    0.491082
     6  H   -0.046733
     7  H   -0.110443
     8  H    0.017961
     9  O   -0.629814
    10  H    0.144670
    11  C    0.407479
    12  H   -0.158910
    13  C   -1.377209
    14  H   -0.109572
    15  C    0.880524
    16  H   -0.007937
    17  H   -0.107917
    18  H   -0.077999
 Sum of Mulliken charges =  -0.00000

 Dipole moment (field-independent basis, Debye):
    X=              0.7943    Y=              1.2659    Z=              0.8661  Tot=              1.7273

 Test job not archived.
 1\1\GINC-SE194\SP\RHF\Aug-CC-pVDZ\C5H12O1\OHZDE\05-Apr-2025\0\\#t hf a
 ug-cc-pvdz iop(5/13=1,5/36=2,99/5=2) pseudo=read geom=check guess=(rea
 d,tcheck) scf=(maxcycle=1)\\title\\0,1\C,0,-1.572019,-1.152435,0.06470
 4\H,0,-2.544151,-1.085014,-0.426242\H,0,-1.109397,-2.095497,-0.217069\
 H,0,-1.747322,-1.170696,1.143837\C,0,1.649859,1.062268,-0.055942\H,0,1
 .313035,2.014631,0.352183\H,0,2.646218,0.870729,0.349265\H,0,1.737758,
 1.156202,-1.139611\O,0,1.248482,-1.330506,-0.129077\H,0,2.137286,-1.42
 1916,0.225802\C,0,0.703049,-0.076396,0.308494\H,0,0.58065,-0.102704,1.

 Normal termination of Gaussian 16 at Sat Apr  5 22:39:51 2025.
