 Gaussian 16, Revision C.01,

 ----------------------------------------------------------------------
 #t hf aug-cc-pvdz symm=none int=(grid=ultrafine) guess=(read,tcheck) s
 table=(opt,rrhf)
 ----------------------------------------------------------------------
 -----
 title
 -----
 Symbolic Z-matrix:
 Charge =  0 Multiplicity = 1

 SCF Done:  E(RHF) =  -270.065343138     A.U. after   14 cycles

 1\1\GINC-SE010\Stability\RHF\Aug-CC-pVDZ\C5H10O1\OHZDE\05-Apr-2025\0\\
 #t hf aug-cc-pvdz symm=none int=(grid=ultrafine) guess=(read,tcheck) s
 table=(opt,rrhf)\\title\\0,1\C,0,0.753389,-0.242774,-0.066189\C,0,1.95
 0166,0.504928,0.480694\C,0,-1.111331,1.335203,-0.553983\C,0,-1.623252,
 -0.9268,0.469523\C,0,-0.624754,0.227078,0.399162\O,0,0.883709,-1.16136
 8,-0.844108\H,0,1.79544,1.584352,0.445517\H,0,2.847365,0.235724,-0.070
 49\H,0,2.082848,0.238822,1.5328\H,0,-1.24058,0.938427,-1.561561\H,0,-2
 .07193,1.724975,-0.21589\H,0,-0.41227,2.170887,-0.605134\H,0,-1.294846

 Normal termination of Gaussian 16 at Sat Apr  5 22:39:02 2025.
 Gaussian 16:  ES64L-G16RevC.01  3-Jul-2019

 ----------------------------------------------------------------------
 #t hf aug-cc-pvdz iop(5/13=1,5/36=2,99/5=2) pseudo=read geom=check gue
 ss=(read,tcheck) scf=(maxcycle=1)
 ----------------------------------------------------------------------
 -----
 title
 -----
 Structure from the checkpoint file:  "3-methyl-2-butanone.chk"
 Charge =  0 Multiplicity = 1

                         Standard orientation:
 ---------------------------------------------------------------------
 Center     Atomic      Atomic             Coordinates (Angstroms)
 Number     Number       Type             X           Y           Z
 ---------------------------------------------------------------------
      1          6           0        0.753389   -0.242774   -0.066189
      2          6           0        1.950166    0.504928    0.480694
      3          6           0       -1.111331    1.335203   -0.553983
      4          6           0       -1.623252   -0.926800    0.469523
      5          6           0       -0.624754    0.227078    0.399162
      6          8           0        0.883709   -1.161368   -0.844108
      7          1           0        1.795440    1.584352    0.445517
      8          1           0        2.847365    0.235723   -0.070490
      9          1           0        2.082848    0.238822    1.532800
     10          1           0       -1.240580    0.938427   -1.561561
     11          1           0       -2.071930    1.724976   -0.215890
     12          1           0       -0.412270    2.170887   -0.605134
     13          1           0       -1.294846   -1.694619    1.170584
     14          1           0       -1.735386   -1.397169   -0.506315
     15          1           0       -2.599221   -0.564363    0.794752
     16          1           0       -0.506399    0.668094    1.393352
 ---------------------------------------------------------------------

 SCF Done:  E(RHF) =  -270.151924741     A.U. after    2 cycles

 The electronic state is 1-A.
 Alpha  occ. eigenvalues --  -20.55753 -11.33735 -11.25120 -11.24346 -11.23852
 Alpha  occ. eigenvalues --  -11.22570  -1.35001  -1.07992  -1.00001  -0.93619
 Alpha  occ. eigenvalues --   -0.85125  -0.72956  -0.67312  -0.64063  -0.61986
 Alpha  occ. eigenvalues --   -0.60242  -0.57604  -0.55738  -0.54823  -0.52593
 Alpha  occ. eigenvalues --   -0.51069  -0.48911  -0.48229  -0.41423
 Alpha virt. eigenvalues --    0.03122   0.04178   0.04515   0.05121   0.06479
 Alpha virt. eigenvalues --    0.06535   0.07160   0.07589   0.08250   0.09212
 Alpha virt. eigenvalues --    0.11268   0.13240   0.13740   0.13830   0.14673

 Mulliken charges:
               1
     1  C    0.051783
     2  C    0.373388
     3  C    0.705000
     4  C    0.735068
     5  C   -0.912260
     6  O   -0.541445
     7  H   -0.011208
     8  H   -0.075806
     9  H    0.083068
    10  H    0.011982
    11  H   -0.075013
    12  H   -0.129902
    13  H   -0.063034
    14  H    0.013938
    15  H   -0.035469
    16  H   -0.130091
 Sum of Mulliken charges =  -0.00000

 Dipole moment (field-independent basis, Debye):
    X=             -0.5216    Y=              2.6400    Z=              2.1384  Tot=              3.4372

 Test job not archived.
 1\1\GINC-SE010\SP\RHF\Aug-CC-pVDZ\C5H10O1\OHZDE\05-Apr-2025\0\\#t hf a
 ug-cc-pvdz iop(5/13=1,5/36=2,99/5=2) pseudo=read geom=check guess=(rea
 d,tcheck) scf=(maxcycle=1)\\title\\0,1\C,0,0.753389,-0.242774,-0.06618
 9\C,0,1.950166,0.504928,0.480694\C,0,-1.111331,1.335203,-0.553983\C,0,
 -1.623252,-0.9268,0.469523\C,0,-0.624754,0.227078,0.399162\O,0,0.88370
 9,-1.161368,-0.844108\H,0,1.79544,1.584352,0.445517\H,0,2.847365,0.235
 724,-0.07049\H,0,2.082848,0.238822,1.5328\H,0,-1.24058,0.938427,-1.561
 561\H,0,-2.07193,1.724975,-0.21589\H,0,-0.41227,2.170887,-0.605134\H,0

 Normal termination of Gaussian 16 at Sat Apr  5 22:39:12 2025.
