 Gaussian 16, Revision C.01,

 ----------------------------------------------------------------------
 #t hf aug-cc-pvdz symm=none int=(grid=ultrafine) guess=(read,tcheck) s
 table=(opt,rrhf)
 ----------------------------------------------------------------------
 -----
 title
 -----
 Symbolic Z-matrix:
 Charge =  0 Multiplicity = 1

 SCF Done:  E(RHF) =  -235.389322936     A.U. after   11 cycles
 Normal termination of Gaussian 16 at Sat Apr  5 22:39:16 2025.
 Gaussian 16:  ES64L-G16RevC.01  3-Jul-2019

 ----------------------------------------------------------------------
 #t hf aug-cc-pvdz iop(5/13=1,5/36=2,99/5=2) pseudo=read geom=check gue
 ss=(read,tcheck) scf=(maxcycle=1)
 ----------------------------------------------------------------------
 -----
 title
 -----
 Structure from the checkpoint file:  "3-methylpentane.chk"
 Charge =  0 Multiplicity = 1

                         Standard orientation:
 ---------------------------------------------------------------------
 Center     Atomic      Atomic             Coordinates (Angstroms)
 Number     Number       Type             X           Y           Z
 ---------------------------------------------------------------------
      1          6           0        0.332422   -0.120738    2.576193
      2          6           0        0.332422   -0.120738   -2.576193
      3          6           0       -1.326599   -0.799534   -0.000000
      4          6           0        0.332422    0.658899    1.260993
      5          6           0        0.332422    0.658899   -1.260993
      6          6           0        0.076207   -0.183223   -0.000000
      7          1           0        1.064695   -0.930894    2.552760
      8          1           0        0.589136    0.530437    3.413029
      9          1           0       -0.640971   -0.560347    2.794714
     10          1           0        0.589136    0.530437   -3.413029
     11          1           0       -0.640971   -0.560347   -2.794714
     12          1           0        1.064695   -0.930894   -2.552760
     13          1           0       -2.090417   -0.016871   -0.000000
     14          1           0       -1.492605   -1.425260    0.876651
     15          1           0       -1.492605   -1.425260   -0.876651
     16          1           0        1.299473    1.157680    1.150999
     17          1           0       -0.414951    1.458132    1.311128
     18          1           0       -0.414951    1.458132   -1.311128
     19          1           0        1.299473    1.157680   -1.150999
     20          1           0        0.805074   -1.004008   -0.000000
 ---------------------------------------------------------------------

 SCF Done:  E(RHF) =  -235.466451756     A.U. after    2 cycles

 The electronic state is 1-A'.
 Alpha  occ. eigenvalues --  -11.22791 -11.22214 -11.22205 -11.21841 -11.21840
 Alpha  occ. eigenvalues --  -11.21581  -1.08508  -1.00698  -0.95741  -0.88632
 Alpha  occ. eigenvalues --   -0.81834  -0.75859  -0.63884  -0.62222  -0.59389
 Alpha  occ. eigenvalues --   -0.57571  -0.55138  -0.54103  -0.52473  -0.50943
 Alpha  occ. eigenvalues --   -0.49361  -0.47724  -0.45448  -0.44723  -0.44148
 Alpha virt. eigenvalues --    0.03614   0.04261   0.04526   0.04767   0.06259
 Alpha virt. eigenvalues --    0.06298   0.06729   0.06826   0.07384   0.08906
 Alpha virt. eigenvalues --    0.08960   0.09335   0.09765   0.11747   0.13842

 Mulliken charges:
               1
     1  C    0.498884
     2  C    0.498884
     3  C    0.689541
     4  C    0.539918
     5  C    0.539918
     6  C   -1.133435
     7  H   -0.071094
     8  H   -0.062934
     9  H   -0.114712
    10  H   -0.062934
    11  H   -0.114712
    12  H   -0.071094
    13  H   -0.049400
    14  H   -0.115275
    15  H   -0.115275
    16  H   -0.165114
    17  H   -0.125429
    18  H   -0.125429
    19  H   -0.165114
    20  H   -0.275193
 Sum of Mulliken charges =  -0.00000

 Dipole moment (field-independent basis, Debye):
    X=              0.0811    Y=              0.0355    Z=              0.0000  Tot=              0.0886

 Test job not archived.
 1\1\GINC-SE226\SP\RHF\Aug-CC-pVDZ\C6H14\OHZDE\05-Apr-2025\0\\#t hf aug
 -cc-pvdz iop(5/13=1,5/36=2,99/5=2) pseudo=read geom=check guess=(read,
 tcheck) scf=(maxcycle=1)\\title\\0,1\C,0,0.332422,-0.120738,2.576193\C
 ,0,0.332422,-0.120738,-2.576193\C,0,-1.326599,-0.799534,0.\C,0,0.33242
 2,0.658899,1.260993\C,0,0.332422,0.658899,-1.260993\C,0,0.076207,-0.18
 3223,0.\H,0,1.064695,-0.930894,2.55276\H,0,0.589136,0.530437,3.413029\
 H,0,-0.640971,-0.560347,2.794714\H,0,0.589136,0.530437,-3.413029\H,0,-
 0.640971,-0.560347,-2.794714\H,0,1.064695,-0.930894,-2.55276\H,0,-2.09

 Normal termination of Gaussian 16 at Sat Apr  5 22:39:50 2025.
