 Gaussian 16, Revision C.01,

 ----------------------------------------------------------------------
 #t hf aug-cc-pvdz symm=none int=(grid=ultrafine) guess=(read,tcheck) s
 table=(opt,rrhf)
 ----------------------------------------------------------------------
 -----
 title
 -----
 Symbolic Z-matrix:
 Charge =  0 Multiplicity = 1

 SCF Done:  E(RHF) =  -741.203860633     A.U. after   13 cycles
 Normal termination of Gaussian 16 at Sat Apr  5 22:39:25 2025.
 Gaussian 16:  ES64L-G16RevC.01  3-Jul-2019

 ----------------------------------------------------------------------
 #t hf aug-cc-pvdz iop(5/13=1,5/36=2,99/5=2) pseudo=read geom=check gue
 ss=(read,tcheck) scf=(maxcycle=1)
 ----------------------------------------------------------------------
 -----
 title
 -----
 Structure from the checkpoint file:  "3-methyl-2-5-dihydrothiophene-1-1-dioxide.chk"
 Charge =  0 Multiplicity = 1

                         Standard orientation:
 ---------------------------------------------------------------------
 Center     Atomic      Atomic             Coordinates (Angstroms)
 Number     Number       Type             X           Y           Z
 ---------------------------------------------------------------------
      1          8           0       -1.801585   -0.353946   -1.263177
      2         16           0       -1.102837   -0.138972    0.000074
      3          8           0       -1.800137   -0.353814    1.264151
      4          6           0        0.470647   -1.077138   -0.000655
      5          6           0        1.551977   -0.034521   -0.000177
      6          6           0        2.979502   -0.481812    0.000109
      7          6           0       -0.322179    1.520248   -0.000351
      8          6           0        1.145332    1.235846   -0.000038
      9          1           0        0.476225   -1.706442   -0.890781
     10          1           0        0.476388   -1.707450    0.888755
     11          1           0        3.659750    0.368607    0.000410
     12          1           0        3.197004   -1.095951   -0.877283
     13          1           0        3.196558   -1.096217    0.877425
     14          1           0       -0.672041    2.042715   -0.890512
     15          1           0       -0.672325    2.043260    0.889375
     16          1           0        1.845935    2.061374    0.000310
 ---------------------------------------------------------------------

 SCF Done:  E(RHF) =  -741.379741467     A.U. after    2 cycles

 The electronic state is 1-A.
 Alpha  occ. eigenvalues --  -93.77529 -20.55440 -20.55438 -11.29294 -11.29246
 Alpha  occ. eigenvalues --  -11.28719 -11.27281 -11.26160  -9.04311  -6.38922
 Alpha  occ. eigenvalues --   -6.38746  -6.38634  -1.40733  -1.29433  -1.15936
 Alpha  occ. eigenvalues --   -1.04193  -1.00472  -0.93200  -0.81676  -0.77039
 Alpha  occ. eigenvalues --   -0.69656  -0.67789  -0.64874  -0.64100  -0.63176
 Alpha  occ. eigenvalues --   -0.61901  -0.61151  -0.58434  -0.55394  -0.54650
 Alpha  occ. eigenvalues --   -0.50883  -0.49903  -0.48609  -0.43569  -0.38406
 Alpha virt. eigenvalues --    0.02518   0.03459   0.04444   0.04682   0.06106
 Alpha virt. eigenvalues --    0.06232   0.07308   0.07965   0.09129   0.11184
 Alpha virt. eigenvalues --    0.11213   0.12269   0.12914   0.13532   0.14045

 Mulliken charges:
               1
     1  O   -1.108650
     2  S    2.769855
     3  O   -1.108715
     4  C   -0.464872
     5  C   -0.654604
     6  C    0.467773
     7  C   -0.123466
     8  C    0.289361
     9  H    0.110702
    10  H    0.110697
    11  H   -0.139508
    12  H    0.048971
    13  H    0.048993
    14  H    0.094817
    15  H    0.094904
    16  H   -0.436258
 Sum of Mulliken charges =  -0.00000

 Dipole moment (field-independent basis, Debye):
    X=              6.0459    Y=              1.4553    Z=             -0.0028  Tot=              6.2186

 Test job not archived.
 1\1\GINC-SE129\SP\RHF\Aug-CC-pVDZ\C5H8O2S1\OHZDE\05-Apr-2025\0\\#t hf
 aug-cc-pvdz iop(5/13=1,5/36=2,99/5=2) pseudo=read geom=check guess=(re
 ad,tcheck) scf=(maxcycle=1)\\title\\0,1\O,0,-1.801585,-0.353946,-1.263
 177\S,0,-1.102837,-0.138972,0.000074\O,0,-1.800137,-0.353814,1.264151\
 C,0,0.470647,-1.077138,-0.000655\C,0,1.551977,-0.034521,-0.000177\C,0,
 2.979502,-0.481812,0.000109\C,0,-0.322179,1.520248,-0.000351\C,0,1.145
 332,1.235846,-0.000038\H,0,0.476225,-1.706442,-0.890781\H,0,0.476388,-
 1.70745,0.888755\H,0,3.65975,0.368607,0.00041\H,0,3.197004,-1.095951,-

 Normal termination of Gaussian 16 at Sat Apr  5 22:39:52 2025.
