 Gaussian 16, Revision C.01,

 ----------------------------------------------------------------------
 #t hf aug-cc-pvdz symm=none int=(grid=ultrafine) guess=(read,tcheck) s
 table=(opt,rrhf)
 ----------------------------------------------------------------------
 -----
 title
 -----
 Symbolic Z-matrix:
 Charge =  0 Multiplicity = 1

 SCF Done:  E(RHF) =  -234.203551827     A.U. after   12 cycles
 Normal termination of Gaussian 16 at Sat Apr  5 22:39:09 2025.
 Gaussian 16:  ES64L-G16RevC.01  3-Jul-2019

 ----------------------------------------------------------------------
 #t hf aug-cc-pvdz iop(5/13=1,5/36=2,99/5=2) pseudo=read geom=check gue
 ss=(read,tcheck) scf=(maxcycle=1)
 ----------------------------------------------------------------------
 -----
 title
 -----
 Structure from the checkpoint file:  "3-methylenepentane.chk"
 Charge =  0 Multiplicity = 1

                         Standard orientation:
 ---------------------------------------------------------------------
 Center     Atomic      Atomic             Coordinates (Angstroms)
 Number     Number       Type             X           Y           Z
 ---------------------------------------------------------------------
      1          6           0       -0.000000    1.958176   -0.987741
      2          1           0        0.566649    1.430602   -1.755450
      3          1           0       -0.650438    2.672727   -1.493685
      4          1           0        0.707866    2.520346   -0.377078
      5          6           0       -0.827026    0.996208   -0.123763
      6          1           0       -1.529824    0.461466   -0.769662
      7          1           0       -1.433305    1.572550    0.576719
      8          6           0       -0.000000   -1.958176   -0.987741
      9          1           0       -0.566649   -1.430602   -1.755450
     10          1           0        0.650438   -2.672727   -1.493685
     11          1           0       -0.707866   -2.520346   -0.377078
     12          6           0        0.827026   -0.996208   -0.123763
     13          1           0        1.529824   -0.461466   -0.769662
     14          1           0        1.433305   -1.572550    0.576719
     15          6           0        0.000000    0.000000    0.656119
     16          6           0        0.000000    0.000000    1.987937
     17          1           0       -0.592649    0.706057    2.556012
     18          1           0        0.592649   -0.706057    2.556012
 ---------------------------------------------------------------------

 SCF Done:  E(RHF) =  -234.279402380     A.U. after    2 cycles

 The electronic state is 1-A.
 Alpha  occ. eigenvalues --  -11.24132 -11.23168 -11.23161 -11.22466 -11.22466
 Alpha  occ. eigenvalues --  -11.21743  -1.09458  -1.00990  -0.97472  -0.85353
 Alpha  occ. eigenvalues --   -0.85270  -0.71314  -0.64009  -0.63849  -0.58374
 Alpha  occ. eigenvalues --   -0.57813  -0.57317  -0.52348  -0.52180  -0.50576
 Alpha  occ. eigenvalues --   -0.49337  -0.47535  -0.45677  -0.34870
 Alpha virt. eigenvalues --    0.03586   0.04215   0.04425   0.04863   0.06236
 Alpha virt. eigenvalues --    0.06255   0.06853   0.07060   0.07608   0.09161
 Alpha virt. eigenvalues --    0.09507   0.10100   0.11926   0.13215   0.13792

 Mulliken charges:
               1
     1  C    0.420547
     2  H   -0.136978
     3  H   -0.097547
     4  H   -0.089470
     5  C    0.151049
     6  H   -0.063219
     7  H   -0.179384
     8  C    0.420547
     9  H   -0.136978
    10  H   -0.097547
    11  H   -0.089470
    12  C    0.151049
    13  H   -0.063219
    14  H   -0.179384
    15  C   -0.411779
    16  C    1.215523
    17  H   -0.406871
    18  H   -0.406871
 Sum of Mulliken charges =  -0.00000

 Dipole moment (field-independent basis, Debye):
    X=              0.0000    Y=              0.0000    Z=             -0.5806  Tot=              0.5806

 Test job not archived.
 1\1\GINC-SE165\SP\RHF\Aug-CC-pVDZ\C6H12\OHZDE\05-Apr-2025\0\\#t hf aug
 -cc-pvdz iop(5/13=1,5/36=2,99/5=2) pseudo=read geom=check guess=(read,
 tcheck) scf=(maxcycle=1)\\title\\0,1\C,0,0.,1.958176,-0.987741\H,0,0.5
 66649,1.430602,-1.75545\H,0,-0.650438,2.672727,-1.493685\H,0,0.707866,
 2.520346,-0.377078\C,0,-0.827026,0.996208,-0.123763\H,0,-1.529824,0.46
 1466,-0.769662\H,0,-1.433305,1.57255,0.576719\C,0,0.,-1.958176,-0.9877
 41\H,0,-0.566649,-1.430602,-1.75545\H,0,0.650438,-2.672727,-1.493685\H
 ,0,-0.707866,-2.520346,-0.377078\C,0,0.827026,-0.996208,-0.123763\H,0,

 Normal termination of Gaussian 16 at Sat Apr  5 22:39:50 2025.
