 Gaussian 16, Revision C.01,

 ----------------------------------------------------------------------
 #t hf aug-cc-pvdz symm=none int=(grid=ultrafine) guess=(read,tcheck) s
 table=(opt,rrhf)
 ----------------------------------------------------------------------
 -----
 title
 -----
 Symbolic Z-matrix:
 Charge =  0 Multiplicity = 1

 SCF Done:  E(RHF) =  -593.883868862     A.U. after   12 cycles

 1\1\GINC-SE190\Stability\RHF\Aug-CC-pVDZ\C5H12S1\OHZDE\05-Apr-2025\0\\
 #t hf aug-cc-pvdz symm=none int=(grid=ultrafine) guess=(read,tcheck) s
 table=(opt,rrhf)\\title\\0,1\C,0,1.606387,-0.480067,0.\H,0,2.540581,0.
 090664,0.\S,0,-2.13095,1.425864,0.\H,0,-3.258675,0.692401,0.\C,0,-0.93
 8661,0.019058,0.\C,0,0.482787,0.577197,0.\C,0,1.606387,-1.344668,1.264
 784\C,0,1.606387,-1.344668,-1.264784\H,0,-1.123532,-0.585866,0.884604\
 H,0,-1.123532,-0.585866,-0.884604\H,0,0.607472,1.219754,-0.87567\H,0,0
 .607472,1.219754,0.87567\H,0,2.487666,-1.987485,-1.29199\H,0,2.487666,

 Normal termination of Gaussian 16 at Sat Apr  5 22:38:24 2025.
 Gaussian 16:  ES64L-G16RevC.01  3-Jul-2019

 ----------------------------------------------------------------------
 #t hf aug-cc-pvdz iop(5/13=1,5/36=2,99/5=2) pseudo=read geom=check gue
 ss=(read,tcheck) scf=(maxcycle=1)
 ----------------------------------------------------------------------
 -----
 title
 -----
 Structure from the checkpoint file:  "3-methyl-1-butanethiol.chk"
 Charge =  0 Multiplicity = 1

                         Standard orientation:
 ---------------------------------------------------------------------
 Center     Atomic      Atomic             Coordinates (Angstroms)
 Number     Number       Type             X           Y           Z
 ---------------------------------------------------------------------
      1          6           0        1.606387   -0.480067    0.000000
      2          1           0        2.540581    0.090664    0.000000
      3         16           0       -2.130950    1.425864    0.000000
      4          1           0       -3.258675    0.692401   -0.000000
      5          6           0       -0.938661    0.019058   -0.000000
      6          6           0        0.482787    0.577197    0.000000
      7          6           0        1.606387   -1.344668    1.264784
      8          6           0        1.606387   -1.344668   -1.264784
      9          1           0       -1.123532   -0.585866    0.884604
     10          1           0       -1.123532   -0.585866   -0.884604
     11          1           0        0.607472    1.219754   -0.875670
     12          1           0        0.607472    1.219754    0.875670
     13          1           0        2.487666   -1.987485   -1.291990
     14          1           0        2.487666   -1.987485    1.291990
     15          1           0        0.730680   -1.994906    1.310682
     16          1           0        0.730680   -1.994906   -1.310682
     17          1           0        1.614497   -0.730494    2.167099
     18          1           0        1.614497   -0.730494   -2.167099
 ---------------------------------------------------------------------

 SCF Done:  E(RHF) =  -593.966743838     A.U. after    2 cycles

 The electronic state is 1-A'.
 Alpha  occ. eigenvalues --  -93.52854 -11.26793 -11.24180 -11.23721 -11.22557
 Alpha  occ. eigenvalues --  -11.22549  -8.82581  -6.16770  -6.16525  -6.16179
 Alpha  occ. eigenvalues --   -1.09605  -1.02805  -0.93194  -0.92567  -0.83651
 Alpha  occ. eigenvalues --   -0.75857  -0.64354  -0.63908  -0.61035  -0.57238
 Alpha  occ. eigenvalues --   -0.56191  -0.53735  -0.52937  -0.50871  -0.47379
 Alpha  occ. eigenvalues --   -0.47006  -0.45733  -0.43923  -0.35086
 Alpha virt. eigenvalues --    0.03337   0.04092   0.04654   0.04784   0.06287
 Alpha virt. eigenvalues --    0.06818   0.06982   0.06993   0.07217   0.09168
 Alpha virt. eigenvalues --    0.09729   0.09788   0.10779   0.12860   0.13773

 Mulliken charges:
               1
     1  C   -1.244426
     2  H   -0.032055
     3  S    0.350438
     4  H    0.035041
     5  C    0.083925
     6  C    0.344948
     7  C    0.785883
     8  C    0.785883
     9  H   -0.174554
    10  H   -0.174554
    11  H   -0.141738
    12  H   -0.141738
    13  H   -0.091047
    14  H   -0.091047
    15  H   -0.083334
    16  H   -0.083334
    17  H   -0.064146
    18  H   -0.064146
 Sum of Mulliken charges =  -0.00000

 Dipole moment (field-independent basis, Debye):
    X=              0.8615    Y=             -1.6806    Z=              0.0000  Tot=              1.8886

 Test job not archived.
 1\1\GINC-SE190\SP\RHF\Aug-CC-pVDZ\C5H12S1\OHZDE\05-Apr-2025\0\\#t hf a
 ug-cc-pvdz iop(5/13=1,5/36=2,99/5=2) pseudo=read geom=check guess=(rea
 d,tcheck) scf=(maxcycle=1)\\title\\0,1\C,0,1.606387,-0.480067,0.\H,0,2
 .540581,0.090664,0.\S,0,-2.13095,1.425864,0.\H,0,-3.258675,0.692401,0.
 \C,0,-0.938661,0.019058,0.\C,0,0.482787,0.577197,0.\C,0,1.606387,-1.34
 4668,1.264784\C,0,1.606387,-1.344668,-1.264784\H,0,-1.123532,-0.585866
 ,0.884604\H,0,-1.123532,-0.585866,-0.884604\H,0,0.607472,1.219754,-0.8
 7567\H,0,0.607472,1.219754,0.87567\H,0,2.487666,-1.987485,-1.29199\H,0

 Normal termination of Gaussian 16 at Sat Apr  5 22:38:36 2025.
