 Gaussian 16, Revision C.01,

 ----------------------------------------------------------------------
 #t hf aug-cc-pvdz symm=none int=(grid=ultrafine) guess=(read,tcheck) s
 table=(opt,rrhf)
 ----------------------------------------------------------------------
 -----
 title
 -----
 Symbolic Z-matrix:
 Charge =  0 Multiplicity = 1

 SCF Done:  E(RHF) =  -590.370663959     A.U. after   15 cycles
 Normal termination of Gaussian 16 at Sat Apr  5 22:38:46 2025.
 Gaussian 16:  ES64L-G16RevC.01  3-Jul-2019

 ----------------------------------------------------------------------
 #t hf aug-cc-pvdz iop(5/13=1,5/36=2,99/5=2) pseudo=read geom=check gue
 ss=(read,tcheck) scf=(maxcycle=1)
 ----------------------------------------------------------------------
 -----
 title
 -----
 Structure from the checkpoint file:  "3-methylthiophene.chk"
 Charge =  0 Multiplicity = 1

                         Standard orientation:
 ---------------------------------------------------------------------
 Center     Atomic      Atomic             Coordinates (Angstroms)
 Number     Number       Type             X           Y           Z
 ---------------------------------------------------------------------
      1          1           0       -2.208077    0.786344    0.000000
      2          6           0       -1.250002    0.285807    0.000000
      3          6           0        0.000000    0.979789    0.000000
      4          6           0        1.052965    0.110970    0.000000
      5          1           0       -1.892989   -1.815714    0.000000
      6          6           0       -1.117544   -1.068772    0.000000
      7         16           0        0.542369   -1.539521    0.000000
      8          1           0        1.168494    2.786598    0.000000
      9          1           0       -0.354771    2.912496    0.878798
     10          1           0       -0.354771    2.912496   -0.878798
     11          6           0        0.124666    2.475760    0.000000
     12          1           0        2.103691    0.348795    0.000000
 ---------------------------------------------------------------------

 SCF Done:  E(RHF) =  -590.452415492     A.U. after    2 cycles

 The electronic state is 1-A'.
 Alpha  occ. eigenvalues --  -93.55809 -11.27066 -11.26215 -11.25168 -11.24322
 Alpha  occ. eigenvalues --  -11.23934  -8.85651  -6.19760  -6.19644  -6.19281
 Alpha  occ. eigenvalues --   -1.16130  -1.02317  -0.97654  -0.91053  -0.77103
 Alpha  occ. eigenvalues --   -0.73573  -0.67355  -0.58763  -0.58455  -0.56822
 Alpha  occ. eigenvalues --   -0.52573  -0.51579  -0.50773  -0.46693  -0.33892
 Alpha  occ. eigenvalues --   -0.32593
 Alpha virt. eigenvalues --    0.03525   0.04074   0.04561   0.05806   0.05951
 Alpha virt. eigenvalues --    0.07255   0.09846   0.10330   0.10431   0.12821
 Alpha virt. eigenvalues --    0.12937   0.13746   0.13987   0.14720   0.14788

 Mulliken charges:
               1
     1  H   -0.451953
     2  C    0.442021
     3  C   -0.470212
     4  C    0.277048
     5  H   -0.352775
     6  C   -0.065863
     7  S    0.744802
     8  H   -0.158720
     9  H    0.030549
    10  H    0.030549
    11  C    0.456493
    12  H   -0.481939
 Sum of Mulliken charges =  -0.00000

 Dipole moment (field-independent basis, Debye):
    X=             -0.4473    Y=              1.1269    Z=              0.0000  Tot=              1.2124

 Test job not archived.
 1\1\GINC-SE199\SP\RHF\Aug-CC-pVDZ\C5H6S1\OHZDE\05-Apr-2025\0\\#t hf au
 g-cc-pvdz iop(5/13=1,5/36=2,99/5=2) pseudo=read geom=check guess=(read
 ,tcheck) scf=(maxcycle=1)\\title\\0,1\H,0,-2.208077,0.786344,0.\C,0,-1
 .250002,0.285807,0.\C,0,0.,0.979789,0.\C,0,1.052965,0.11097,0.\H,0,-1.
 892989,-1.815714,0.\C,0,-1.117544,-1.068772,0.\S,0,0.542369,-1.539521,
 0.\H,0,1.168494,2.786598,0.\H,0,-0.354771,2.912496,0.878798\H,0,-0.354
 771,2.912496,-0.878798\C,0,0.124666,2.47576,0.\H,0,2.103691,0.348795,0
 .\\Version=ES64L-G16RevC.01\State=1-A'\HF=-590.4524155\RMSD=1.331e-02\

 Normal termination of Gaussian 16 at Sat Apr  5 22:39:11 2025.
