 Gaussian 16, Revision C.01,

 ----------------------------------------------------------------------
 #t hf aug-cc-pvdz symm=none int=(grid=ultrafine) guess=(read,tcheck) s
 table=(opt,rrhf)
 ----------------------------------------------------------------------
 -----
 title
 -----
 Symbolic Z-matrix:
 Charge =  0 Multiplicity = 1

 SCF Done:  E(RHF) =  -605.139010672     A.U. after   16 cycles
 Normal termination of Gaussian 16 at Sat Apr  5 22:38:42 2025.
 Gaussian 16:  ES64L-G16RevC.01  3-Jul-2019

 ----------------------------------------------------------------------
 #t hf aug-cc-pvdz iop(5/13=1,5/36=2,99/5=2) pseudo=read geom=check gue
 ss=(read,tcheck) scf=(maxcycle=1)
 ----------------------------------------------------------------------
 -----
 title
 -----
 Structure from the checkpoint file:  "3-methylsulfanylprop-2-ynenitrile.chk"
 Charge =  0 Multiplicity = 1

                         Standard orientation:
 ---------------------------------------------------------------------
 Center     Atomic      Atomic             Coordinates (Angstroms)
 Number     Number       Type             X           Y           Z
 ---------------------------------------------------------------------
      1         16           0        1.646373   -0.642200   -0.000046
      2          7           0       -3.679210    0.273566    0.000060
      3          6           0        2.361907    1.048758    0.000007
      4          6           0        0.007828   -0.301890   -0.000011
      5          6           0       -1.191000   -0.121742    0.000012
      6          6           0       -2.535848    0.090366    0.000037
      7          1           0        2.057644    1.581413    0.895536
      8          1           0        3.439906    0.904390   -0.000013
      9          1           0        2.057620    1.581480   -0.895474
 ---------------------------------------------------------------------

 SCF Done:  E(RHF) =  -605.226385709     A.U. after    2 cycles

 The electronic state is 1-A.
 Alpha  occ. eigenvalues --  -93.59860 -15.66352 -11.32385 -11.31762 -11.30520
 Alpha  occ. eigenvalues --  -11.29883  -8.89517  -6.23764  -6.23431  -6.23097
 Alpha  occ. eigenvalues --   -1.21124  -1.12220  -1.05413  -0.94403  -0.86992
 Alpha  occ. eigenvalues --   -0.66740  -0.63366  -0.60595  -0.56854  -0.55144
 Alpha  occ. eigenvalues --   -0.55076  -0.51023  -0.46977  -0.40837  -0.35865
 Alpha virt. eigenvalues --    0.02404   0.04678   0.05084   0.06008   0.06951
 Alpha virt. eigenvalues --    0.08372   0.08541   0.09762   0.10419   0.11085
 Alpha virt. eigenvalues --    0.11481   0.12038   0.13188   0.14394   0.15045

 Mulliken charges:
               1
     1  S    0.390576
     2  N   -0.155628
     3  C    0.070287
     4  C   -0.019531
     5  C    1.005269
     6  C   -1.105366
     7  H   -0.038817
     8  H   -0.107972
     9  H   -0.038818
 Sum of Mulliken charges =  -0.00000

 Dipole moment (field-independent basis, Debye):
    X=              5.3263    Y=              1.1005    Z=             -0.0000  Tot=              5.4388

 Test job not archived.
 1\1\GINC-SE232\SP\RHF\Aug-CC-pVDZ\C4H3N1S1\OHZDE\05-Apr-2025\0\\#t hf
 aug-cc-pvdz iop(5/13=1,5/36=2,99/5=2) pseudo=read geom=check guess=(re
 ad,tcheck) scf=(maxcycle=1)\\title\\0,1\S,0,1.646373,-0.6422,-0.000046
 \N,0,-3.67921,0.273566,0.00006\C,0,2.361907,1.048758,0.000007\C,0,0.00
 7828,-0.30189,-0.000011\C,0,-1.191,-0.121742,0.000012\C,0,-2.535848,0.
 090366,0.000037\H,0,2.057644,1.581413,0.895536\H,0,3.439906,0.90439,-0
 .000013\H,0,2.05762,1.58148,-0.895474\\Version=ES64L-G16RevC.01\State=
 1-A\HF=-605.2263857\RMSD=1.359e-02\Dipole=2.0955361,0.4329716,-0.00001

 Normal termination of Gaussian 16 at Sat Apr  5 22:39:10 2025.
