 Gaussian 16, Revision C.01,

 ----------------------------------------------------------------------
 #t hf aug-cc-pvdz symm=none int=(grid=ultrafine) guess=(read,tcheck) s
 table=(opt,rrhf)
 ----------------------------------------------------------------------
 -----
 title
 -----
 Symbolic Z-matrix:
 Charge =  0 Multiplicity = 1

 SCF Done:  E(RHF) =  -703.322557671     A.U. after   14 cycles
 Normal termination of Gaussian 16 at Sat Apr  5 22:39:10 2025.
 Gaussian 16:  ES64L-G16RevC.01  3-Jul-2019

 ----------------------------------------------------------------------
 #t hf aug-cc-pvdz iop(5/13=1,5/36=2,99/5=2) pseudo=read geom=check gue
 ss=(read,tcheck) scf=(maxcycle=1)
 ----------------------------------------------------------------------
 -----
 title
 -----
 Structure from the checkpoint file:  "3-methylsulphonyl-1-propene.chk"
 Charge =  0 Multiplicity = 1

                         Standard orientation:
 ---------------------------------------------------------------------
 Center     Atomic      Atomic             Coordinates (Angstroms)
 Number     Number       Type             X           Y           Z
 ---------------------------------------------------------------------
      1          6           0       -2.115162   -0.859134   -0.446944
      2         16           0       -0.736952    0.145568    0.134592
      3          8           0       -0.603003   -0.070176    1.570701
      4          8           0       -0.913666    1.497805   -0.387410
      5          6           0        0.712310   -0.599546   -0.708204
      6          6           0        1.940525    0.209848   -0.457486
      7          6           0        2.972177   -0.220038    0.256620
      8          1           0       -1.957196   -1.891564   -0.146285
      9          1           0       -2.996316   -0.452994    0.044646
     10          1           0       -2.202825   -0.759745   -1.525431
     11          1           0        0.446453   -0.619309   -1.766218
     12          1           0        0.799645   -1.614868   -0.324996
     13          1           0        1.949759    1.202936   -0.889296
     14          1           0        2.982692   -1.202462    0.711754
     15          1           0        3.843275    0.401100    0.412111
 ---------------------------------------------------------------------

 SCF Done:  E(RHF) =  -703.490687960     A.U. after    2 cycles

 The electronic state is 1-A.
 Alpha  occ. eigenvalues --  -93.77701 -20.55360 -20.55277 -11.29752 -11.29049
 Alpha  occ. eigenvalues --  -11.26592 -11.25582  -9.04458  -6.39072  -6.38864
 Alpha  occ. eigenvalues --   -6.38795  -1.40793  -1.29426  -1.10249  -1.04267
 Alpha  occ. eigenvalues --   -0.97812  -0.82737  -0.78264  -0.69747  -0.68648
 Alpha  occ. eigenvalues --   -0.67155  -0.65290  -0.62611  -0.61155  -0.60540
 Alpha  occ. eigenvalues --   -0.57553  -0.52639  -0.51167  -0.50899  -0.48492
 Alpha  occ. eigenvalues --   -0.45563  -0.38515
 Alpha virt. eigenvalues --    0.02750   0.04040   0.04436   0.04802   0.05982
 Alpha virt. eigenvalues --    0.06439   0.07384   0.08121   0.09799   0.10352
 Alpha virt. eigenvalues --    0.11760   0.12585   0.13983   0.15013   0.15079

 Mulliken charges:
               1
     1  C    0.077746
     2  S    2.165308
     3  O   -1.111227
     4  O   -1.130598
     5  C   -0.186277
     6  C    0.833659
     7  C    0.421189
     8  H   -0.014098
     9  H    0.043135
    10  H   -0.004318
    11  H   -0.017979
    12  H   -0.169720
    13  H   -0.379695
    14  H   -0.248460
    15  H   -0.278666
 Sum of Mulliken charges =  -0.00000

 Dipole moment (field-independent basis, Debye):
    X=              0.4181    Y=             -4.1307    Z=             -3.2304  Tot=              5.2605

 Test job not archived.
 1\1\GINC-SE198\SP\RHF\Aug-CC-pVDZ\C4H8O2S1\OHZDE\05-Apr-2025\0\\#t hf
 aug-cc-pvdz iop(5/13=1,5/36=2,99/5=2) pseudo=read geom=check guess=(re
 ad,tcheck) scf=(maxcycle=1)\\title\\0,1\C,0,-2.115162,-0.859134,-0.446
 944\S,0,-0.736952,0.145568,0.134592\O,0,-0.603003,-0.070176,1.570701\O
 ,0,-0.913666,1.497805,-0.38741\C,0,0.71231,-0.599546,-0.708204\C,0,1.9
 40525,0.209848,-0.457486\C,0,2.972177,-0.220038,0.25662\H,0,-1.957196,
 -1.891564,-0.146285\H,0,-2.996316,-0.452994,0.044646\H,0,-2.202825,-0.
 759745,-1.525431\H,0,0.446453,-0.619309,-1.766218\H,0,0.799645,-1.6148

 Normal termination of Gaussian 16 at Sat Apr  5 22:39:51 2025.
