 Gaussian 16, Revision C.01,

 ----------------------------------------------------------------------
 #t hf aug-cc-pvdz symm=none int=(grid=ultrafine) guess=(read,tcheck) s
 table=(opt,rrhf)
 ----------------------------------------------------------------------
 -----
 title
 -----
 Symbolic Z-matrix:
 Charge =  0 Multiplicity = 1

 SCF Done:  E(RHF) =  -231.857670175     A.U. after   13 cycles
 Normal termination of Gaussian 16 at Sat Apr  5 22:38:53 2025.
 Gaussian 16:  ES64L-G16RevC.01  3-Jul-2019

 ----------------------------------------------------------------------
 #t hf aug-cc-pvdz iop(5/13=1,5/36=2,99/5=2) pseudo=read geom=check gue
 ss=(read,tcheck) scf=(maxcycle=1)
 ----------------------------------------------------------------------
 -----
 title
 -----
 Structure from the checkpoint file:  "3-methylenecyclopentene.chk"
 Charge =  0 Multiplicity = 1

                         Standard orientation:
 ---------------------------------------------------------------------
 Center     Atomic      Atomic             Coordinates (Angstroms)
 Number     Number       Type             X           Y           Z
 ---------------------------------------------------------------------
      1          6           0       -0.101375   -1.193285    0.000050
      2          1           0        0.073644   -1.818598    0.875674
      3          1           0        0.073697   -1.818666   -0.875519
      4          6           0       -1.534643   -0.600290   -0.000041
      5          1           0       -2.112333   -0.914628    0.873359
      6          1           0       -2.112265   -0.914644   -0.873479
      7          6           0        2.169627   -0.018400   -0.000040
      8          1           0        2.749486    0.894993   -0.000074
      9          1           0        2.721180   -0.949106   -0.000022
     10          6           0        0.834976    0.009041    0.000011
     11          6           0       -1.306567    0.887577   -0.000018
     12          1           0       -2.117586    1.602915   -0.000019
     13          6           0       -0.007168    1.200885    0.000034
     14          1           0        0.395073    2.204577    0.000103
 ---------------------------------------------------------------------

 SCF Done:  E(RHF) =  -231.928239831     A.U. after    2 cycles

 The electronic state is 1-A.
 Alpha  occ. eigenvalues --  -11.24671 -11.24468 -11.23889 -11.23554 -11.23499
 Alpha  occ. eigenvalues --  -11.21875  -1.13697  -1.01111  -0.97071  -0.87473
 Alpha  occ. eigenvalues --   -0.77004  -0.71760  -0.67039  -0.62886  -0.59503
 Alpha  occ. eigenvalues --   -0.55296  -0.51863  -0.51667  -0.50017  -0.47312
 Alpha  occ. eigenvalues --   -0.42734  -0.30772
 Alpha virt. eigenvalues --    0.03527   0.04262   0.04602   0.05299   0.06015
 Alpha virt. eigenvalues --    0.06418   0.07425   0.08281   0.10112   0.10132
 Alpha virt. eigenvalues --    0.12330   0.13053   0.13889   0.15148   0.15197

 Mulliken charges:
               1
     1  C   -0.124188
     2  H    0.030822
     3  H    0.030858
     4  C    0.485939
     5  H   -0.005987
     6  H   -0.006017
     7  C    1.259538
     8  H   -0.406241
     9  H   -0.412256
    10  C   -0.652437
    11  C    0.081458
    12  H   -0.322347
    13  C    0.522293
    14  H   -0.481434
 Sum of Mulliken charges =  -0.00000

 Dipole moment (field-independent basis, Debye):
    X=             -0.9376    Y=             -0.2332    Z=              0.0001  Tot=              0.9662

 Test job not archived.
 1\1\GINC-SE085\SP\RHF\Aug-CC-pVDZ\C6H8\OHZDE\05-Apr-2025\0\\#t hf aug-
 cc-pvdz iop(5/13=1,5/36=2,99/5=2) pseudo=read geom=check guess=(read,t
 check) scf=(maxcycle=1)\\title\\0,1\C,0,-0.101375,-1.193285,0.00005\H,
 0,0.073644,-1.818598,0.875674\H,0,0.073697,-1.818666,-0.875519\C,0,-1.
 534643,-0.60029,-0.000041\H,0,-2.112333,-0.914628,0.873359\H,0,-2.1122
 65,-0.914644,-0.873479\C,0,2.169627,-0.0184,-0.00004\H,0,2.749486,0.89
 4993,-0.000074\H,0,2.72118,-0.949106,-0.000022\C,0,0.834976,0.009041,0
 .000011\C,0,-1.306567,0.887577,-0.000018\H,0,-2.117586,1.602915,-0.000

 Normal termination of Gaussian 16 at Sat Apr  5 22:39:11 2025.
