 Gaussian 16, Revision C.01,

 ----------------------------------------------------------------------
 #t hf aug-cc-pvdz symm=none int=(grid=ultrafine) guess=(read,tcheck) s
 table=(opt,rrhf)
 ----------------------------------------------------------------------
 -----
 title
 -----
 Symbolic Z-matrix:
 Charge =  0 Multiplicity = 1

 SCF Done:  E(RHF) =  -458.736161486     A.U. after   14 cycles

 1\1\GINC-SE011\Stability\RHF\Aug-CC-pVDZ\C6H12O3\OHZDE\05-Apr-2025\0\\
 #t hf aug-cc-pvdz symm=none int=(grid=ultrafine) guess=(read,tcheck) s
 table=(opt,rrhf)\\title\\0,1\O,0,1.270396,-1.072639,-0.506582\O,0,1.51
 7293,1.629822,0.199626\O,0,2.683542,-0.799493,-0.331343\C,0,0.56324,-0
 .576995,0.62928\C,0,0.307919,0.934523,0.521011\C,0,-1.624769,-0.258153
 ,-0.451572\C,0,-0.849525,-1.149198,0.553638\C,0,-0.801644,1.058787,-0.
 534497\C,0,-3.086772,-0.05309,-0.062299\H,0,1.309055,2.53608,-0.044132
 \H,0,2.700175,0.16802,-0.431915\H,0,1.109271,-0.857959,1.530822\H,0,-0

 Normal termination of Gaussian 16 at Sat Apr  5 22:40:30 2025.
 Gaussian 16:  ES64L-G16RevC.01  3-Jul-2019

 ----------------------------------------------------------------------
 #t hf aug-cc-pvdz iop(5/13=1,5/36=2,99/5=2) pseudo=read geom=check gue
 ss=(read,tcheck) scf=(maxcycle=1)
 ----------------------------------------------------------------------
 -----
 title
 -----
 Structure from the checkpoint file:  "3-methyl-2-peroxycyclopentanol.chk"
 Charge =  0 Multiplicity = 1

                         Standard orientation:
 ---------------------------------------------------------------------
 Center     Atomic      Atomic             Coordinates (Angstroms)
 Number     Number       Type             X           Y           Z
 ---------------------------------------------------------------------
      1          8           0        1.270396   -1.072639   -0.506582
      2          8           0        1.517293    1.629822    0.199626
      3          8           0        2.683542   -0.799493   -0.331343
      4          6           0        0.563240   -0.576995    0.629280
      5          6           0        0.307919    0.934523    0.521011
      6          6           0       -1.624769   -0.258153   -0.451572
      7          6           0       -0.849525   -1.149198    0.553638
      8          6           0       -0.801644    1.058787   -0.534497
      9          6           0       -3.086772   -0.053090   -0.062299
     10          1           0        1.309055    2.536080   -0.044132
     11          1           0        2.700175    0.168020   -0.431915
     12          1           0        1.109271   -0.857959    1.530822
     13          1           0       -0.053565    1.281853    1.495981
     14          1           0       -1.598532   -0.739344   -1.429450
     15          1           0       -1.302471   -1.082953    1.545764
     16          1           0       -0.834433   -2.200567    0.271677
     17          1           0       -0.336755    1.157769   -1.515782
     18          1           0       -1.419865    1.942579   -0.368709
     19          1           0       -3.610629   -1.007454    0.018344
     20          1           0       -3.169359    0.453398    0.902715
     21          1           0       -3.613427    0.551813   -0.802280
 ---------------------------------------------------------------------

 SCF Done:  E(RHF) =  -458.876867234     A.U. after    2 cycles

 The electronic state is 1-A.
 Alpha  occ. eigenvalues --  -20.62334 -20.61535 -20.59329 -11.30127 -11.29262
 Alpha  occ. eigenvalues --  -11.24419 -11.23661 -11.23654 -11.23099  -1.40968
 Alpha  occ. eigenvalues --   -1.33970  -1.19846  -1.10593  -1.00071  -0.96663
 Alpha  occ. eigenvalues --   -0.90258  -0.79914  -0.78520  -0.73724  -0.70953
 Alpha  occ. eigenvalues --   -0.67081  -0.66261  -0.63634  -0.63114  -0.58835
 Alpha  occ. eigenvalues --   -0.57424  -0.56459  -0.55046  -0.54394  -0.52886
 Alpha  occ. eigenvalues --   -0.49118  -0.47854  -0.47401  -0.46676  -0.45169
 Alpha  occ. eigenvalues --   -0.44131
 Alpha virt. eigenvalues --    0.02911   0.03783   0.04075   0.04821   0.05772
 Alpha virt. eigenvalues --    0.06255   0.06392   0.06738   0.07272   0.08747
 Alpha virt. eigenvalues --    0.08788   0.09092   0.12546   0.13360   0.13400

 Mulliken charges:
               1
     1  O   -0.526450
     2  O   -0.692933
     3  O   -0.317488
     4  C    0.573792
     5  C    0.499798
     6  C   -0.565566
     7  C    0.529529
     8  C    0.463598
     9  C    0.593694
    10  H    0.158904
    11  H    0.263357
    12  H   -0.144982
    13  H   -0.149665
    14  H   -0.135084
    15  H   -0.089045
    16  H   -0.105051
    17  H   -0.071014
    18  H   -0.169450
    19  H   -0.057739
    20  H    0.001424
    21  H   -0.059630
 Sum of Mulliken charges =  -0.00000

 Dipole moment (field-independent basis, Debye):
    X=             -3.1166    Y=              3.0037    Z=              1.0489  Tot=              4.4537

 Test job not archived.
 1\1\GINC-SE011\SP\RHF\Aug-CC-pVDZ\C6H12O3\OHZDE\05-Apr-2025\0\\#t hf a
 ug-cc-pvdz iop(5/13=1,5/36=2,99/5=2) pseudo=read geom=check guess=(rea
 d,tcheck) scf=(maxcycle=1)\\title\\0,1\O,0,1.270396,-1.072639,-0.50658
 2\O,0,1.517293,1.629822,0.199626\O,0,2.683542,-0.799493,-0.331343\C,0,
 0.56324,-0.576995,0.62928\C,0,0.307919,0.934523,0.521011\C,0,-1.624769
 ,-0.258153,-0.451572\C,0,-0.849525,-1.149198,0.553638\C,0,-0.801644,1.
 058787,-0.534497\C,0,-3.086772,-0.05309,-0.062299\H,0,1.309055,2.53608
 ,-0.044132\H,0,2.700175,0.16802,-0.431915\H,0,1.109271,-0.857959,1.530

 Normal termination of Gaussian 16 at Sat Apr  5 22:41:02 2025.
