 Gaussian 16, Revision C.01,

 ----------------------------------------------------------------------
 #t hf aug-cc-pvdz symm=none int=(grid=ultrafine) guess=(read,tcheck) s
 table=(opt,rrhf)
 ----------------------------------------------------------------------
 -----
 title
 -----
 Symbolic Z-matrix:
 Charge =  0 Multiplicity = 1

 SCF Done:  E(RHF) =  -344.965530886     A.U. after   13 cycles

 1\1\GINC-SE052\Stability\RHF\Aug-CC-pVDZ\C5H10O2\OHZDE\05-Apr-2025\0\\
 #t hf aug-cc-pvdz symm=none int=(grid=ultrafine) guess=(read,tcheck) s
 table=(opt,rrhf)\\title\\0,1\C,0,-1.385093,-0.119037,-0.191443\C,0,1.1
 98586,1.436061,0.377759\C,0,2.456843,-0.677449,-0.193579\C,0,-0.014446
 ,-0.553958,-0.640655\C,0,1.127999,-0.090146,0.287288\O,0,-2.127693,0.6
 17199,-0.789592\O,0,-1.722647,-0.661713,1.007831\H,0,0.267397,1.867338
 ,0.747324\H,0,1.400121,1.875664,-0.601872\H,0,1.997897,1.744882,1.0527
 19\H,0,2.699166,-0.326079,-1.199339\H,0,3.273423,-0.380691,0.46604\H,0

 Normal termination of Gaussian 16 at Sat Apr  5 22:39:15 2025.
 Gaussian 16:  ES64L-G16RevC.01  3-Jul-2019

 ----------------------------------------------------------------------
 #t hf aug-cc-pvdz iop(5/13=1,5/36=2,99/5=2) pseudo=read geom=check gue
 ss=(read,tcheck) scf=(maxcycle=1)
 ----------------------------------------------------------------------
 -----
 title
 -----
 Structure from the checkpoint file:  "3-methylbutanoic_acid.chk"
 Charge =  0 Multiplicity = 1

                         Standard orientation:
 ---------------------------------------------------------------------
 Center     Atomic      Atomic             Coordinates (Angstroms)
 Number     Number       Type             X           Y           Z
 ---------------------------------------------------------------------
      1          6           0       -1.385093   -0.119037   -0.191443
      2          6           0        1.198586    1.436061    0.377759
      3          6           0        2.456843   -0.677449   -0.193579
      4          6           0       -0.014446   -0.553958   -0.640655
      5          6           0        1.127999   -0.090146    0.287288
      6          8           0       -2.127693    0.617199   -0.789592
      7          8           0       -1.722647   -0.661713    1.007831
      8          1           0        0.267397    1.867338    0.747324
      9          1           0        1.400121    1.875664   -0.601872
     10          1           0        1.997897    1.744882    1.052719
     11          1           0        2.699166   -0.326079   -1.199339
     12          1           0        3.273423   -0.380691    0.466040
     13          1           0        2.426108   -1.767952   -0.218522
     14          1           0       -0.012100   -1.645227   -0.691635
     15          1           0        0.133247   -0.165542   -1.647605
     16          1           0        0.921724   -0.484958    1.284881
     17          1           0       -2.607598   -0.334141    1.225892
 ---------------------------------------------------------------------

 SCF Done:  E(RHF) =  -345.076006318     A.U. after    2 cycles

 The electronic state is 1-A.
 Alpha  occ. eigenvalues --  -20.62438 -20.56471 -11.39816 -11.25272 -11.25184
 Alpha  occ. eigenvalues --  -11.23166 -11.22838  -1.42406  -1.32566  -1.09778
 Alpha  occ. eigenvalues --   -0.98735  -0.93666  -0.83863  -0.79063  -0.71751
 Alpha  occ. eigenvalues --   -0.69163  -0.66092  -0.63769  -0.60815  -0.59472
 Alpha  occ. eigenvalues --   -0.56054  -0.55224  -0.54240  -0.50813  -0.50036
 Alpha  occ. eigenvalues --   -0.48096  -0.47602  -0.45679
 Alpha virt. eigenvalues --    0.03261   0.04164   0.04530   0.04940   0.06189
 Alpha virt. eigenvalues --    0.06992   0.07087   0.07473   0.07951   0.08960
 Alpha virt. eigenvalues --    0.11240   0.12557   0.14069   0.14409   0.14706

 Mulliken charges:
               1
     1  C    0.584425
     2  C    0.709703
     3  C    0.882353
     4  C    0.632426
     5  C   -1.397463
     6  O   -0.504718
     7  O   -0.546020
     8  H   -0.096047
     9  H   -0.011438
    10  H   -0.066842
    11  H   -0.015129
    12  H   -0.048515
    13  H   -0.083355
    14  H    0.010871
    15  H   -0.071165
    16  H   -0.162607
    17  H    0.183520
 Sum of Mulliken charges =  -0.00000

 Dipole moment (field-independent basis, Debye):
    X=              1.6163    Y=             -1.1312    Z=              1.1522  Tot=              2.2847

 Test job not archived.
 1\1\GINC-SE052\SP\RHF\Aug-CC-pVDZ\C5H10O2\OHZDE\05-Apr-2025\0\\#t hf a
 ug-cc-pvdz iop(5/13=1,5/36=2,99/5=2) pseudo=read geom=check guess=(rea
 d,tcheck) scf=(maxcycle=1)\\title\\0,1\C,0,-1.385093,-0.119037,-0.1914
 43\C,0,1.198586,1.436061,0.377759\C,0,2.456843,-0.677449,-0.193579\C,0
 ,-0.014446,-0.553958,-0.640655\C,0,1.127999,-0.090146,0.287288\O,0,-2.
 127693,0.617199,-0.789592\O,0,-1.722647,-0.661713,1.007831\H,0,0.26739
 7,1.867338,0.747324\H,0,1.400121,1.875664,-0.601872\H,0,1.997897,1.744
 882,1.052719\H,0,2.699166,-0.326079,-1.199339\H,0,3.273423,-0.380691,0

 Normal termination of Gaussian 16 at Sat Apr  5 22:39:51 2025.
