 Gaussian 16, Revision C.01,

 ----------------------------------------------------------------------
 #t hf aug-cc-pvdz symm=none int=(grid=ultrafine) guess=(read,tcheck) s
 table=(opt,rrhf)
 ----------------------------------------------------------------------
 -----
 title
 -----
 Symbolic Z-matrix:
 Charge =  0 Multiplicity = 1

 SCF Done:  E(RHF) =  -285.765444692     A.U. after   15 cycles
 Normal termination of Gaussian 16 at Sat Apr  5 22:39:36 2025.
 Gaussian 16:  ES64L-G16RevC.01  3-Jul-2019

 ----------------------------------------------------------------------
 #t hf aug-cc-pvdz iop(5/13=1,5/36=2,99/5=2) pseudo=read geom=check gue
 ss=(read,tcheck) scf=(maxcycle=1)
 ----------------------------------------------------------------------
 -----
 title
 -----
 Structure from the checkpoint file:  "3-methylpyridine.chk"
 Charge =  0 Multiplicity = 1

                         Standard orientation:
 ---------------------------------------------------------------------
 Center     Atomic      Atomic             Coordinates (Angstroms)
 Number     Number       Type             X           Y           Z
 ---------------------------------------------------------------------
      1          6           0       -1.174839   -1.203589    0.000000
      2          6           0       -1.199799    0.182128    0.000000
      3          6           0        0.057339   -1.847450    0.000000
      4          6           0        1.173702    0.138239    0.000000
      5          6           0       -0.000000    0.891573    0.000000
      6          6           0        0.034480    2.395305    0.000000
      7          7           0        1.217307   -1.194023    0.000000
      8          1           0       -2.090952   -1.778442    0.000000
      9          1           0       -2.144751    0.712153    0.000000
     10          1           0        0.113787   -2.930206    0.000000
     11          1           0        2.134084    0.644651    0.000000
     12          1           0       -0.468705    2.803456    0.878765
     13          1           0        1.058791    2.765852    0.000000
     14          1           0       -0.468705    2.803456   -0.878765
 ---------------------------------------------------------------------

 SCF Done:  E(RHF) =  -285.850084676     A.U. after    2 cycles

 The electronic state is 1-A'.
 Alpha  occ. eigenvalues --  -15.62753 -11.27881 -11.27743 -11.26167 -11.25552
 Alpha  occ. eigenvalues --  -11.24895 -11.24269  -1.23000  -1.08898  -1.04253
 Alpha  occ. eigenvalues --   -0.94885  -0.85734  -0.82823  -0.71345  -0.67519
 Alpha  occ. eigenvalues --   -0.63568  -0.59070  -0.58332  -0.57358  -0.55357
 Alpha  occ. eigenvalues --   -0.52889  -0.51322  -0.40870  -0.37831  -0.33933
 Alpha virt. eigenvalues --    0.03129   0.03711   0.04591   0.05564   0.05698
 Alpha virt. eigenvalues --    0.06178   0.08240   0.08606   0.10154   0.11165
 Alpha virt. eigenvalues --    0.11335   0.12612   0.13748   0.14022   0.14174

 Mulliken charges:
               1
     1  C    0.472908
     2  C   -0.045229
     3  C    0.504448
     4  C    0.872147
     5  C    0.001974
     6  C    0.395930
     7  N   -0.523139
     8  H   -0.393869
     9  H   -0.523368
    10  H   -0.344710
    11  H   -0.408216
    12  H    0.067711
    13  H   -0.144298
    14  H    0.067711
 Sum of Mulliken charges =  -0.00000

 Dipole moment (field-independent basis, Debye):
    X=             -1.9653    Y=              1.5354    Z=             -0.0000  Tot=              2.4939

 Test job not archived.
 1\1\GINC-SE232\SP\RHF\Aug-CC-pVDZ\C6H7N1\OHZDE\05-Apr-2025\0\\#t hf au
 g-cc-pvdz iop(5/13=1,5/36=2,99/5=2) pseudo=read geom=check guess=(read
 ,tcheck) scf=(maxcycle=1)\\title\\0,1\C,0,-1.174839,-1.203589,0.\C,0,-
 1.199799,0.182128,0.\C,0,0.057339,-1.84745,0.\C,0,1.173702,0.138239,0.
 \C,0,0.,0.891573,0.\C,0,0.03448,2.395305,0.\N,0,1.217307,-1.194023,0.\
 H,0,-2.090952,-1.778442,0.\H,0,-2.144751,0.712153,0.\H,0,0.113787,-2.9
 30206,0.\H,0,2.134084,0.644651,0.\H,0,-0.468705,2.803456,0.878765\H,0,
 1.058791,2.765852,0.\H,0,-0.468705,2.803456,-0.878765\\Version=ES64L-G

 Normal termination of Gaussian 16 at Sat Apr  5 22:39:49 2025.
