 Gaussian 16, Revision C.01,

 ----------------------------------------------------------------------
 #t hf aug-cc-pvdz symm=none int=(grid=ultrafine) guess=(read,tcheck) s
 table=(opt,rrhf)
 ----------------------------------------------------------------------
 -----
 title
 -----
 Symbolic Z-matrix:
 Charge =  0 Multiplicity = 1

 SCF Done:  E(RHF) =  -489.275524789     A.U. after   16 cycles
 Normal termination of Gaussian 16 at Sat Apr  5 22:39:50 2025.
 Gaussian 16:  ES64L-G16RevC.01  3-Jul-2019

 ----------------------------------------------------------------------
 #t hf aug-cc-pvdz iop(5/13=1,5/36=2,99/5=2) pseudo=read geom=check gue
 ss=(read,tcheck) scf=(maxcycle=1)
 ----------------------------------------------------------------------
 -----
 title
 -----
 Structure from the checkpoint file:  "3-nitroaniline.chk"
 Charge =  0 Multiplicity = 1

                         Standard orientation:
 ---------------------------------------------------------------------
 Center     Atomic      Atomic             Coordinates (Angstroms)
 Number     Number       Type             X           Y           Z
 ---------------------------------------------------------------------
      1          6           0       -1.019949    1.869903    0.005061
      2          6           0       -2.035560    0.925894   -0.000762
      3          6           0        0.315136    1.486331    0.004036
      4          6           0       -0.402977   -0.840723   -0.007286
      5          6           0       -1.742943   -0.445332   -0.006521
      6          6           0        0.587891    0.126743   -0.001813
      7          7           0       -2.757551   -1.389060   -0.067066
      8          7           0        1.997431   -0.318897    0.000986
      9          8           0        2.865495    0.541162   -0.001230
     10          8           0        2.215470   -1.522514    0.006001
     11          1           0       -1.272850    2.921047    0.010796
     12          1           0       -3.069081    1.248201   -0.005007
     13          1           0        1.119865    2.202562    0.008669
     14          1           0       -0.125177   -1.883684   -0.015106
     15          1           0       -3.666794   -1.094774    0.247033
     16          1           0       -2.522433   -2.323737    0.221720
 ---------------------------------------------------------------------

 SCF Done:  E(RHF) =  -489.421338270     A.U. after    2 cycles

 The electronic state is 1-A.
 Alpha  occ. eigenvalues --  -20.61571 -20.61510 -15.91764 -15.65219 -11.31998
 Alpha  occ. eigenvalues --  -11.31914 -11.27301 -11.27008 -11.26806 -11.26623
 Alpha  occ. eigenvalues --   -1.54901  -1.36361  -1.22759  -1.16358  -1.07431
 Alpha  occ. eigenvalues --   -1.02051  -0.95293  -0.86044  -0.83105  -0.78487
 Alpha  occ. eigenvalues --   -0.74201  -0.72505  -0.71638  -0.70305  -0.67687
 Alpha  occ. eigenvalues --   -0.63362  -0.62781  -0.56725  -0.55893  -0.54219
 Alpha  occ. eigenvalues --   -0.51205  -0.50880  -0.47903  -0.47222  -0.37839
 Alpha  occ. eigenvalues --   -0.32297
 Alpha virt. eigenvalues --    0.02295   0.03180   0.03450   0.04225   0.05672
 Alpha virt. eigenvalues --    0.06201   0.08652   0.09446   0.10857   0.11081
 Alpha virt. eigenvalues --    0.11780   0.12852   0.13007   0.13210   0.13812

 Mulliken charges:
               1
     1  C    0.486828
     2  C    0.798631
     3  C    0.283567
     4  C    0.456883
     5  C    0.322685
     6  C    1.014540
     7  N   -0.276760
     8  N    0.138771
     9  O   -0.573645
    10  O   -0.576242
    11  H   -0.432228
    12  H   -0.567207
    13  H   -0.455318
    14  H   -0.540608
    15  H   -0.042356
    16  H   -0.037542
 Sum of Mulliken charges =  -0.00000

 Dipole moment (field-independent basis, Debye):
    X=             -6.1011    Y=              0.6891    Z=              0.8714  Tot=              6.2014

 Test job not archived.
 1\1\GINC-SE106\SP\RHF\Aug-CC-pVDZ\C6H6N2O2\OHZDE\05-Apr-2025\0\\#t hf
 aug-cc-pvdz iop(5/13=1,5/36=2,99/5=2) pseudo=read geom=check guess=(re
 ad,tcheck) scf=(maxcycle=1)\\title\\0,1\C,0,-1.019949,1.869903,0.00506
 1\C,0,-2.03556,0.925894,-0.000762\C,0,0.315136,1.486331,0.004036\C,0,-
 0.402977,-0.840723,-0.007286\C,0,-1.742943,-0.445332,-0.006521\C,0,0.5
 87891,0.126743,-0.001813\N,0,-2.757551,-1.38906,-0.067066\N,0,1.997431
 ,-0.318897,0.000986\O,0,2.865495,0.541162,-0.00123\O,0,2.21547,-1.5225
 14,0.006001\H,0,-1.27285,2.921047,0.010796\H,0,-3.069081,1.248201,-0.0

 Normal termination of Gaussian 16 at Sat Apr  5 22:39:58 2025.
