 Gaussian 16, Revision C.01,

 ----------------------------------------------------------------------
 #t hf aug-cc-pvdz symm=none int=(grid=ultrafine) guess=(read,tcheck) s
 table=(opt,rrhf)
 ----------------------------------------------------------------------
 -----
 title
 -----
 Symbolic Z-matrix:
 Charge =  0 Multiplicity = 1

 SCF Done:  E(RHF) =  -1039.63920990     A.U. after   18 cycles
 Normal termination of Gaussian 16 at Sat Apr  5 22:38:47 2025.
 Gaussian 16:  ES64L-G16RevC.01  3-Jul-2019

 ----------------------------------------------------------------------
 #t hf aug-cc-pvdz iop(5/13=1,5/36=2,99/5=2) pseudo=read geom=check gue
 ss=(read,tcheck) scf=(maxcycle=1)
 ----------------------------------------------------------------------
 -----
 title
 -----
 Structure from the checkpoint file:  "3-nitroso-3H-dithiole.chk"
 Charge =  0 Multiplicity = 1

                         Standard orientation:
 ---------------------------------------------------------------------
 Center     Atomic      Atomic             Coordinates (Angstroms)
 Number     Number       Type             X           Y           Z
 ---------------------------------------------------------------------
      1         16           0        0.262272   -1.270575    0.351509
      2         16           0        1.911534   -0.165680   -0.415891
      3          8           0       -2.958453   -0.023467   -0.342226
      4          7           0       -1.819104    0.125111   -0.669138
      5          6           0       -0.854816    0.161427    0.535168
      6          6           0       -0.048735    1.415196    0.494290
      7          6           0        1.197951    1.369932    0.028995
      8          1           0       -1.455073    0.027442    1.436830
      9          1           0       -0.518659    2.347856    0.774850
     10          1           0        1.827781    2.237414   -0.110510
 ---------------------------------------------------------------------

 SCF Done:  E(RHF) =  -1039.75085074     A.U. after    2 cycles

 The electronic state is 1-A.
 Alpha  occ. eigenvalues --  -93.58568 -93.58248 -20.66196 -15.78296 -11.33955
 Alpha  occ. eigenvalues --  -11.31330 -11.27965  -8.88255  -8.87881  -6.22335
 Alpha  occ. eigenvalues --   -6.22179  -6.21966  -6.21779  -6.21725  -6.21355
 Alpha  occ. eigenvalues --   -1.49230  -1.16926  -1.05489  -1.00397  -0.91775
 Alpha  occ. eigenvalues --   -0.82085  -0.78498  -0.71545  -0.70708  -0.68166
 Alpha  occ. eigenvalues --   -0.62699  -0.58563  -0.53478  -0.51402  -0.49546
 Alpha  occ. eigenvalues --   -0.46835  -0.42172  -0.40490  -0.32495
 Alpha virt. eigenvalues --    0.03046   0.04027   0.05144   0.05815   0.06296
 Alpha virt. eigenvalues --    0.07490   0.09705   0.10316   0.11299   0.12645
 Alpha virt. eigenvalues --    0.12697   0.13117   0.13542   0.14378   0.14897

 Mulliken charges:
               1
     1  S    0.435339
     2  S    0.227088
     3  O   -0.371962
     4  N   -0.201373
     5  C    0.077398
     6  C    0.750167
     7  C   -0.115023
     8  H   -0.078362
     9  H   -0.312992
    10  H   -0.410279
 Sum of Mulliken charges =  -0.00000

 Dipole moment (field-independent basis, Debye):
    X=              1.6830    Y=              2.0977    Z=              1.4345  Tot=              3.0481

 Test job not archived.
 1\1\GINC-SE107\SP\RHF\Aug-CC-pVDZ\C3H3N1O1S2\OHZDE\05-Apr-2025\0\\#t h
 f aug-cc-pvdz iop(5/13=1,5/36=2,99/5=2) pseudo=read geom=check guess=(
 read,tcheck) scf=(maxcycle=1)\\title\\0,1\S,0,0.262272,-1.270575,0.351
 509\S,0,1.911534,-0.16568,-0.415891\O,0,-2.958453,-0.023467,-0.342226\
 N,0,-1.819104,0.125111,-0.669138\C,0,-0.854816,0.161427,0.535168\C,0,-
 0.048735,1.415196,0.49429\C,0,1.197951,1.369932,0.028995\H,0,-1.455073
 ,0.027442,1.43683\H,0,-0.518659,2.347856,0.77485\H,0,1.827781,2.237414
 ,-0.11051\\Version=ES64L-G16RevC.01\State=1-A\HF=-1039.7508507\RMSD=9.

 Normal termination of Gaussian 16 at Sat Apr  5 22:39:11 2025.
