 Gaussian 16, Revision C.01,

 ----------------------------------------------------------------------
 #t hf aug-cc-pvdz symm=none int=(grid=ultrafine) guess=(read,tcheck) s
 table=(opt,rrhf)
 ----------------------------------------------------------------------
 -----
 title
 -----
 Symbolic Z-matrix:
 Charge =  0 Multiplicity = 1

 SCF Done:  E(RHF) =  -339.388050505     A.U. after   15 cycles
 Normal termination of Gaussian 16 at Sat Apr  5 22:39:14 2025.
 Gaussian 16:  ES64L-G16RevC.01  3-Jul-2019

 ----------------------------------------------------------------------
 #t hf aug-cc-pvdz iop(5/13=1,5/36=2,99/5=2) pseudo=read geom=check gue
 ss=(read,tcheck) scf=(maxcycle=1)
 ----------------------------------------------------------------------
 -----
 title
 -----
 Structure from the checkpoint file:  "3-oxoprop-2-enoicacid.chk"
 Charge =  0 Multiplicity = 1

                         Standard orientation:
 ---------------------------------------------------------------------
 Center     Atomic      Atomic             Coordinates (Angstroms)
 Number     Number       Type             X           Y           Z
 ---------------------------------------------------------------------
      1          8           0       -2.088631   -0.584833   -0.000019
      2          8           0       -0.935596    1.306407    0.000008
      3          8           0        2.497307    0.192352   -0.000016
      4          6           0       -1.014648   -0.052431    0.000002
      5          6           0        0.243940   -0.824199    0.000019
      6          6           0        1.450682   -0.297452    0.000000
      7          1           0       -0.029116    1.634178    0.000053
      8          1           0        0.164626   -1.901098    0.000033
 ---------------------------------------------------------------------

 SCF Done:  E(RHF) =  -339.496688397     A.U. after    2 cycles

 The electronic state is 1-A.
 Alpha  occ. eigenvalues --  -20.70071 -20.64281 -20.57086 -11.45051 -11.42892
 Alpha  occ. eigenvalues --  -11.29507  -1.49716  -1.43554  -1.34564  -1.11326
 Alpha  occ. eigenvalues --   -0.88572  -0.83670  -0.79256  -0.73555  -0.71329
 Alpha  occ. eigenvalues --   -0.67519  -0.65971  -0.65416  -0.60162  -0.52132
 Alpha  occ. eigenvalues --   -0.49319  -0.41418
 Alpha virt. eigenvalues --    0.02480   0.04230   0.06134   0.07356   0.08624
 Alpha virt. eigenvalues --    0.10094   0.10338   0.11192   0.11890   0.12527
 Alpha virt. eigenvalues --    0.13488   0.13789   0.15069   0.15982   0.18302

 Mulliken charges:
               1
     1  O   -0.413233
     2  O   -0.444065
     3  O   -0.182007
     4  C    0.480498
     5  C    1.155547
     6  C   -0.466220
     7  H    0.150862
     8  H   -0.281382
 Sum of Mulliken charges =  -0.00000

 Dipole moment (field-independent basis, Debye):
    X=              3.8229    Y=             -0.2432    Z=              0.0001  Tot=              3.8306

 Test job not archived.
 1\1\GINC-SE220\SP\RHF\Aug-CC-pVDZ\C3H2O3\OHZDE\05-Apr-2025\0\\#t hf au
 g-cc-pvdz iop(5/13=1,5/36=2,99/5=2) pseudo=read geom=check guess=(read
 ,tcheck) scf=(maxcycle=1)\\title\\0,1\O,0,-2.088631,-0.584833,-0.00001
 9\O,0,-0.935596,1.306407,0.000008\O,0,2.497307,0.192352,-0.000016\C,0,
 -1.014648,-0.052431,0.000002\C,0,0.24394,-0.824199,0.000019\C,0,1.4506
 82,-0.297452,0.\H,0,-0.029116,1.634178,0.000053\H,0,0.164626,-1.901098
 ,0.000033\\Version=ES64L-G16RevC.01\State=1-A\HF=-339.4966884\RMSD=4.8
 63e-03\Dipole=1.5040476,-0.0956911,0.0000546\Quadrupole=-7.3410616,4.9

 Normal termination of Gaussian 16 at Sat Apr  5 22:39:48 2025.
