 Gaussian 16, Revision C.01,

 ----------------------------------------------------------------------
 #t hf aug-cc-pvdz symm=none int=(grid=ultrafine) guess=(read,tcheck) s
 table=(opt,rrhf)
 ----------------------------------------------------------------------
 -----
 title
 -----
 Symbolic Z-matrix:
 Charge =  0 Multiplicity = 1

 SCF Done:  E(RHF) =  -340.583068093     A.U. after   14 cycles
 Normal termination of Gaussian 16 at Sat Apr  5 22:38:41 2025.
 Gaussian 16:  ES64L-G16RevC.01  3-Jul-2019

 ----------------------------------------------------------------------
 #t hf aug-cc-pvdz iop(5/13=1,5/36=2,99/5=2) pseudo=read geom=check gue
 ss=(read,tcheck) scf=(maxcycle=1)
 ----------------------------------------------------------------------
 -----
 title
 -----
 Structure from the checkpoint file:  "3-oxopropanoic_acid.chk"
 Charge =  0 Multiplicity = 1

                         Standard orientation:
 ---------------------------------------------------------------------
 Center     Atomic      Atomic             Coordinates (Angstroms)
 Number     Number       Type             X           Y           Z
 ---------------------------------------------------------------------
      1          6           0        1.643090   -0.157443    0.153934
      2          6           0       -0.880250   -0.166831    0.029956
      3          6           0        0.347276   -0.704458    0.723932
      4          8           0        1.723698    0.647413   -0.732257
      5          8           0       -1.466392   -0.723024   -0.859094
      6          8           0       -1.245723    1.033301    0.528366
      7          1           0        2.550479   -0.574965    0.632776
      8          1           0        0.367812   -1.791023    0.624453
      9          1           0        0.330267   -0.468364    1.790806
     10          1           0       -2.001918    1.345224    0.008912
 ---------------------------------------------------------------------

 SCF Done:  E(RHF) =  -340.691506632     A.U. after    2 cycles

 The electronic state is 1-A.
 Alpha  occ. eigenvalues --  -20.63604 -20.59574 -20.57758 -11.41589 -11.37190
 Alpha  occ. eigenvalues --  -11.28620  -1.43828  -1.38583  -1.34102  -1.07081
 Alpha  occ. eigenvalues --   -0.88940  -0.81045  -0.73201  -0.72057  -0.70758
 Alpha  occ. eigenvalues --   -0.66738  -0.63245  -0.62808  -0.60055  -0.54346
 Alpha  occ. eigenvalues --   -0.51393  -0.48941  -0.45641
 Alpha virt. eigenvalues --    0.02823   0.04104   0.05062   0.05281   0.09196
 Alpha virt. eigenvalues --    0.09344   0.09814   0.11570   0.12001   0.12985
 Alpha virt. eigenvalues --    0.14003   0.14644   0.15493   0.15812   0.16766

 Mulliken charges:
               1
     1  C    0.609273
     2  C    0.749870
     3  C   -0.166676
     4  O   -0.422319
     5  O   -0.475782
     6  O   -0.482138
     7  H   -0.126132
     8  H    0.057267
     9  H    0.080944
    10  H    0.175693
 Sum of Mulliken charges =  -0.00000

 Dipole moment (field-independent basis, Debye):
    X=              0.4700    Y=             -1.0670    Z=              3.6461  Tot=              3.8279

 Test job not archived.
 1\1\GINC-SE221\SP\RHF\Aug-CC-pVDZ\C3H4O3\OHZDE\05-Apr-2025\0\\#t hf au
 g-cc-pvdz iop(5/13=1,5/36=2,99/5=2) pseudo=read geom=check guess=(read
 ,tcheck) scf=(maxcycle=1)\\title\\0,1\C,0,1.64309,-0.157443,0.153934\C
 ,0,-0.88025,-0.166831,0.029956\C,0,0.347276,-0.704458,0.723932\O,0,1.7
 23698,0.647413,-0.732257\O,0,-1.466392,-0.723024,-0.859094\O,0,-1.2457
 23,1.033301,0.528366\H,0,2.550479,-0.574965,0.632776\H,0,0.367812,-1.7
 91023,0.624453\H,0,0.330267,-0.468364,1.790806\H,0,-2.001918,1.345224,
 0.008912\\Version=ES64L-G16RevC.01\State=1-A\HF=-340.6915066\RMSD=3.79

 Normal termination of Gaussian 16 at Sat Apr  5 22:39:10 2025.
