 Gaussian 16, Revision C.01,

 ----------------------------------------------------------------------
 #t hf aug-cc-pvdz symm=none int=(grid=ultrafine) guess=(read,tcheck) s
 table=(opt,rrhf)
 ----------------------------------------------------------------------
 -----
 title
 -----
 Symbolic Z-matrix:
 Charge =  0 Multiplicity = 1

 SCF Done:  E(RHF) =  -270.067319633     A.U. after   12 cycles

 1\1\GINC-SE151\Stability\RHF\Aug-CC-pVDZ\C5H10O1\OHZDE\05-Apr-2025\0\\
 #t hf aug-cc-pvdz symm=none int=(grid=ultrafine) guess=(read,tcheck) s
 table=(opt,rrhf)\\title\\0,1\C,0,0.,0.,0.077636\C,0,0.,2.555166,0.1223
 97\C,0,0.,-2.555166,0.122397\C,0,0.,1.291,-0.726245\C,0,0.,-1.291,-0.7
 26245\O,0,0.,0.,1.288225\H,0,0.,3.442073,-0.511364\H,0,-0.876892,2.593
 353,0.767222\H,0,0.876892,2.593353,0.767222\H,0,-0.876892,-2.593353,0.
 767222\H,0,0.876892,-2.593353,0.767222\H,0,0.,-3.442073,-0.511364\H,0,
 -0.868213,1.26523,-1.392902\H,0,0.868213,1.26523,-1.392902\H,0,0.86821

 Normal termination of Gaussian 16 at Sat Apr  5 22:39:39 2025.
 Gaussian 16:  ES64L-G16RevC.01  3-Jul-2019

 ----------------------------------------------------------------------
 #t hf aug-cc-pvdz iop(5/13=1,5/36=2,99/5=2) pseudo=read geom=check gue
 ss=(read,tcheck) scf=(maxcycle=1)
 ----------------------------------------------------------------------
 -----
 title
 -----
 Structure from the checkpoint file:  "3-pentanone.chk"
 Charge =  0 Multiplicity = 1

                         Standard orientation:
 ---------------------------------------------------------------------
 Center     Atomic      Atomic             Coordinates (Angstroms)
 Number     Number       Type             X           Y           Z
 ---------------------------------------------------------------------
      1          6           0       -0.000000   -0.000000    0.077636
      2          6           0        0.000000    2.555166    0.122397
      3          6           0       -0.000000   -2.555166    0.122397
      4          6           0        0.000000    1.291000   -0.726245
      5          6           0       -0.000000   -1.291000   -0.726245
      6          8           0       -0.000000   -0.000000    1.288225
      7          1           0        0.000000    3.442073   -0.511364
      8          1           0       -0.876892    2.593353    0.767222
      9          1           0        0.876892    2.593353    0.767222
     10          1           0       -0.876892   -2.593353    0.767222
     11          1           0        0.876892   -2.593353    0.767222
     12          1           0       -0.000000   -3.442073   -0.511364
     13          1           0       -0.868213    1.265230   -1.392902
     14          1           0        0.868213    1.265230   -1.392902
     15          1           0        0.868213   -1.265230   -1.392902
     16          1           0       -0.868213   -1.265230   -1.392902
 ---------------------------------------------------------------------

 SCF Done:  E(RHF) =  -270.153988078     A.U. after    2 cycles

 The electronic state is 1-A1.
 Alpha  occ. eigenvalues --  -20.55805 -11.33657 -11.24706 -11.24700 -11.22618
 Alpha  occ. eigenvalues --  -11.22617  -1.35070  -1.06129  -1.03040  -0.91461
 Alpha  occ. eigenvalues --   -0.84430  -0.73255  -0.67412  -0.65061  -0.62612
 Alpha  occ. eigenvalues --   -0.60900  -0.56485  -0.53011  -0.52919  -0.51444
 Alpha  occ. eigenvalues --   -0.51158  -0.49331  -0.49259  -0.41730
 Alpha virt. eigenvalues --    0.03124   0.03953   0.04648   0.04998   0.06221
 Alpha virt. eigenvalues --    0.06470   0.06638   0.07240   0.08812   0.09890
 Alpha virt. eigenvalues --    0.10674   0.13082   0.13375   0.14235   0.15158

 Mulliken charges:
               1
     1  C   -0.450614
     2  C    0.550421
     3  C    0.550421
     4  C    0.139075
     5  C    0.139075
     6  O   -0.506053
     7  H   -0.040408
     8  H   -0.063089
     9  H   -0.063089
    10  H   -0.063089
    11  H   -0.063089
    12  H   -0.040408
    13  H   -0.022288
    14  H   -0.022288
    15  H   -0.022288
    16  H   -0.022288
 Sum of Mulliken charges =   0.00000

 Dipole moment (field-independent basis, Debye):
    X=              0.0000    Y=              0.0000    Z=             -3.2944  Tot=              3.2944

 Test job not archived.
 1\1\GINC-SE151\SP\RHF\Aug-CC-pVDZ\C5H10O1\OHZDE\05-Apr-2025\0\\#t hf a
 ug-cc-pvdz iop(5/13=1,5/36=2,99/5=2) pseudo=read geom=check guess=(rea
 d,tcheck) scf=(maxcycle=1)\\title\\0,1\C,0,0.,0.,0.077636\C,0,0.,2.555
 166,0.122397\C,0,0.,-2.555166,0.122397\C,0,0.,1.291,-0.726245\C,0,0.,-
 1.291,-0.726245\O,0,0.,0.,1.288225\H,0,0.,3.442073,-0.511364\H,0,-0.87
 6892,2.593353,0.767222\H,0,0.876892,2.593353,0.767222\H,0,-0.876892,-2
 .593353,0.767222\H,0,0.876892,-2.593353,0.767222\H,0,0.,-3.442073,-0.5
 11364\H,0,-0.868213,1.26523,-1.392902\H,0,0.868213,1.26523,-1.392902\H

 Normal termination of Gaussian 16 at Sat Apr  5 22:39:49 2025.
