 Gaussian 16, Revision C.01,

 ----------------------------------------------------------------------
 #t hf aug-cc-pvdz symm=none int=(grid=ultrafine) guess=(read,tcheck) s
 table=(opt,rrhf)
 ----------------------------------------------------------------------
 -----
 title
 -----
 Symbolic Z-matrix:
 Charge =  0 Multiplicity = 1

 SCF Done:  E(RHF) =  -271.225172045     A.U. after   12 cycles

 1\1\GINC-SE221\Stability\RHF\Aug-CC-pVDZ\C5H12O1\OHZDE\05-Apr-2025\0\\
 #t hf aug-cc-pvdz symm=none int=(grid=ultrafine) guess=(read,tcheck) s
 table=(opt,rrhf)\\title\\0,1\C,0,0.256059,-0.14579,2.557816\C,0,0.2560
 59,-0.14579,-2.557816\C,0,0.256059,0.678253,1.27207\C,0,0.256059,0.678
 253,-1.27207\C,0,0.123504,-0.161251,0.\O,0,-1.093205,-0.921538,0.\H,0,
 0.329959,0.496804,3.435919\H,0,-0.654055,-0.737969,2.645405\H,0,1.1021
 79,-0.835589,2.578827\H,0,0.329959,0.496804,-3.435919\H,0,1.102179,-0.
 835589,-2.578827\H,0,-0.654055,-0.737969,-2.645405\H,0,-0.562591,1.406

 Normal termination of Gaussian 16 at Sat Apr  5 22:39:08 2025.
 Gaussian 16:  ES64L-G16RevC.01  3-Jul-2019

 ----------------------------------------------------------------------
 #t hf aug-cc-pvdz iop(5/13=1,5/36=2,99/5=2) pseudo=read geom=check gue
 ss=(read,tcheck) scf=(maxcycle=1)
 ----------------------------------------------------------------------
 -----
 title
 -----
 Structure from the checkpoint file:  "3-pentanol.chk"
 Charge =  0 Multiplicity = 1

                         Standard orientation:
 ---------------------------------------------------------------------
 Center     Atomic      Atomic             Coordinates (Angstroms)
 Number     Number       Type             X           Y           Z
 ---------------------------------------------------------------------
      1          6           0        0.256059   -0.145790    2.557816
      2          6           0        0.256059   -0.145790   -2.557816
      3          6           0        0.256059    0.678253    1.272070
      4          6           0        0.256059    0.678253   -1.272070
      5          6           0        0.123504   -0.161251   -0.000000
      6          8           0       -1.093205   -0.921538   -0.000000
      7          1           0        0.329959    0.496804    3.435919
      8          1           0       -0.654055   -0.737969    2.645405
      9          1           0        1.102179   -0.835589    2.578827
     10          1           0        0.329959    0.496804   -3.435919
     11          1           0        1.102179   -0.835589   -2.578827
     12          1           0       -0.654055   -0.737969   -2.645405
     13          1           0       -0.562591    1.406988    1.294805
     14          1           0        1.178723    1.261415    1.206832
     15          1           0       -0.562591    1.406988   -1.294805
     16          1           0        1.178723    1.261415   -1.206832
     17          1           0        0.906368   -0.925655   -0.000000
     18          1           0       -1.835609   -0.307374   -0.000000
 ---------------------------------------------------------------------

 SCF Done:  E(RHF) =  -271.312400992     A.U. after    2 cycles

 The electronic state is 1-A'.
 Alpha  occ. eigenvalues --  -20.56515 -11.28399 -11.23011 -11.23002 -11.21937
 Alpha  occ. eigenvalues --  -11.21937  -1.31496  -1.06073  -1.01457  -0.91630
 Alpha  occ. eigenvalues --   -0.82680  -0.80809  -0.65929  -0.65506  -0.63597
 Alpha  occ. eigenvalues --   -0.59993  -0.56672  -0.55088  -0.54152  -0.51906
 Alpha  occ. eigenvalues --   -0.49745  -0.48871  -0.48256  -0.46099  -0.43521
 Alpha virt. eigenvalues --    0.03434   0.04184   0.04415   0.04944   0.06115
 Alpha virt. eigenvalues --    0.06465   0.06772   0.06853   0.08798   0.08929
 Alpha virt. eigenvalues --    0.09631   0.09813   0.12094   0.14152   0.14248

 Mulliken charges:
               1
     1  C    0.507495
     2  C    0.507495
     3  C    0.310515
     4  C    0.310515
     5  C    0.035031
     6  O   -0.641907
     7  H   -0.051229
     8  H   -0.041356
     9  H   -0.066017
    10  H   -0.051229
    11  H   -0.066017
    12  H   -0.041356
    13  H   -0.152668
    14  H   -0.121557
    15  H   -0.152668
    16  H   -0.121557
    17  H   -0.328118
    18  H    0.164628
 Sum of Mulliken charges =  -0.00000

 Dipole moment (field-independent basis, Debye):
    X=              0.2691    Y=              1.8057    Z=              0.0000  Tot=              1.8257

 Test job not archived.
 1\1\GINC-SE221\SP\RHF\Aug-CC-pVDZ\C5H12O1\OHZDE\05-Apr-2025\0\\#t hf a
 ug-cc-pvdz iop(5/13=1,5/36=2,99/5=2) pseudo=read geom=check guess=(rea
 d,tcheck) scf=(maxcycle=1)\\title\\0,1\C,0,0.256059,-0.14579,2.557816\
 C,0,0.256059,-0.14579,-2.557816\C,0,0.256059,0.678253,1.27207\C,0,0.25
 6059,0.678253,-1.27207\C,0,0.123504,-0.161251,0.\O,0,-1.093205,-0.9215
 38,0.\H,0,0.329959,0.496804,3.435919\H,0,-0.654055,-0.737969,2.645405\
 H,0,1.102179,-0.835589,2.578827\H,0,0.329959,0.496804,-3.435919\H,0,1.
 102179,-0.835589,-2.578827\H,0,-0.654055,-0.737969,-2.645405\H,0,-0.56

 Normal termination of Gaussian 16 at Sat Apr  5 22:39:49 2025.
