 Gaussian 16, Revision C.01,

 ----------------------------------------------------------------------
 #t hf aug-cc-pvdz symm=none int=(grid=ultrafine) guess=(read,tcheck) s
 table=(opt,rrhf)
 ----------------------------------------------------------------------
 -----
 title
 -----
 Symbolic Z-matrix:
 Charge =  0 Multiplicity = 1

 SCF Done:  E(RHF) =  -492.258094472     A.U. after   16 cycles

 1\1\GINC-SE152\Stability\RHF\Aug-CC-pVDZ\C10H8N2\OHZDE\05-Apr-2025\0\\
 #t hf aug-cc-pvdz symm=none int=(grid=ultrafine) guess=(read,tcheck) s
 table=(opt,rrhf)\\title\\0,1\C,0,0.771928,0.031892,0.002176\N,0,1.3730
 89,-1.135533,-0.268058\C,0,1.517491,1.185214,0.283493\C,0,2.888656,1.0
 88544,0.253045\C,0,3.435576,-0.15637,-0.042961\N,0,2.692576,-1.231573,
 -0.286051\C,0,-0.70972,0.022857,-0.000158\C,0,-1.402884,-1.169419,0.23
 4804\C,0,-2.789799,-1.189168,0.240834\C,0,-3.510661,-0.022683,0.006144
 \C,0,-2.8326,1.165699,-0.237604\C,0,-1.444071,1.188439,-0.239574\H,0,4

 Normal termination of Gaussian 16 at Sat Apr  5 22:41:43 2025.
 Gaussian 16:  ES64L-G16RevC.01  3-Jul-2019

 ----------------------------------------------------------------------
 #t hf aug-cc-pvdz iop(5/13=1,5/36=2,99/5=2) pseudo=read geom=check gue
 ss=(read,tcheck) scf=(maxcycle=1)
 ----------------------------------------------------------------------
 -----
 title
 -----
 Structure from the checkpoint file:  "3-phenylpyridazine.chk"
 Charge =  0 Multiplicity = 1

                         Standard orientation:
 ---------------------------------------------------------------------
 Center     Atomic      Atomic             Coordinates (Angstroms)
 Number     Number       Type             X           Y           Z
 ---------------------------------------------------------------------
      1          6           0        0.771928    0.031892    0.002176
      2          7           0        1.373089   -1.135533   -0.268058
      3          6           0        1.517491    1.185214    0.283493
      4          6           0        2.888656    1.088544    0.253045
      5          6           0        3.435576   -0.156370   -0.042961
      6          7           0        2.692576   -1.231573   -0.286051
      7          6           0       -0.709720    0.022857   -0.000158
      8          6           0       -1.402884   -1.169419    0.234804
      9          6           0       -2.789799   -1.189168    0.240834
     10          6           0       -3.510661   -0.022683    0.006144
     11          6           0       -2.832600    1.165699   -0.237604
     12          6           0       -1.444071    1.188439   -0.239574
     13          1           0        4.505517   -0.314225   -0.081356
     14          1           0        3.523963    1.938063    0.462583
     15          1           0        1.028770    2.114805    0.536243
     16          1           0       -3.383886    2.075335   -0.434047
     17          1           0       -4.592120   -0.040627    0.009324
     18          1           0       -3.310530   -2.118188    0.430151
     19          1           0       -0.839342   -2.073585    0.409647
     20          1           0       -0.935526    2.118137   -0.454969
 ---------------------------------------------------------------------

 SCF Done:  E(RHF) =  -492.398237271     A.U. after    2 cycles

 The electronic state is 1-A.
 Alpha  occ. eigenvalues --  -15.67686 -15.67187 -11.30367 -11.29080 -11.27930
 Alpha  occ. eigenvalues --  -11.27691 -11.26082 -11.25437 -11.25124 -11.24995
 Alpha  occ. eigenvalues --  -11.24787 -11.24640  -1.31000  -1.16157  -1.10720
 Alpha  occ. eigenvalues --   -1.10169  -1.01890  -1.01449  -0.90044  -0.89548
 Alpha  occ. eigenvalues --   -0.83153  -0.81992  -0.73932  -0.70831  -0.70091
 Alpha  occ. eigenvalues --   -0.66907  -0.63444  -0.62128  -0.60438  -0.59887
 Alpha  occ. eigenvalues --   -0.58849  -0.57974  -0.52010  -0.51570  -0.50411
 Alpha  occ. eigenvalues --   -0.47818  -0.40831  -0.40352  -0.39282  -0.34705
 Alpha  occ. eigenvalues --   -0.32241
 Alpha virt. eigenvalues --    0.02617   0.03232   0.04173   0.04771   0.05309
 Alpha virt. eigenvalues --    0.05767   0.06726   0.06927   0.07350   0.07466
 Alpha virt. eigenvalues --    0.10138   0.10373   0.10684   0.11165   0.12053

 Mulliken charges:
               1
     1  C   -0.004641
     2  N   -0.679126
     3  C    0.873165
     4  C    0.454190
     5  C    0.629418
     6  N   -0.356327
     7  C    1.267700
     8  C    0.170329
     9  C    0.449083
    10  C    0.469065
    11  C    0.362603
    12  C    0.093072
    13  H   -0.305178
    14  H   -0.390271
    15  H   -0.513762
    16  H   -0.447552
    17  H   -0.440085
    18  H   -0.425726
    19  H   -0.611764
    20  H   -0.594193
 Sum of Mulliken charges =  -0.00000

 Dipole moment (field-independent basis, Debye):
    X=             -0.2245    Y=              3.6281    Z=              0.9147  Tot=              3.7483

 Test job not archived.
 1\1\GINC-SE152\SP\RHF\Aug-CC-pVDZ\C10H8N2\OHZDE\05-Apr-2025\0\\#t hf a
 ug-cc-pvdz iop(5/13=1,5/36=2,99/5=2) pseudo=read geom=check guess=(rea
 d,tcheck) scf=(maxcycle=1)\\title\\0,1\C,0,0.771928,0.031892,0.002176\
 N,0,1.373089,-1.135533,-0.268058\C,0,1.517491,1.185214,0.283493\C,0,2.
 888656,1.088544,0.253045\C,0,3.435576,-0.15637,-0.042961\N,0,2.692576,
 -1.231573,-0.286051\C,0,-0.70972,0.022857,-0.000158\C,0,-1.402884,-1.1
 69419,0.234804\C,0,-2.789799,-1.189168,0.240834\C,0,-3.510661,-0.02268
 3,0.006144\C,0,-2.8326,1.165699,-0.237604\C,0,-1.444071,1.188439,-0.23

 Normal termination of Gaussian 16 at Sat Apr  5 22:42:27 2025.
