 Gaussian 16, Revision C.01,

 ----------------------------------------------------------------------
 #t hf aug-cc-pvdz symm=none int=(grid=ultrafine) guess=(read,tcheck) s
 table=(opt,rrhf)
 ----------------------------------------------------------------------
 -----
 title
 -----
 Symbolic Z-matrix:
 Charge =  0 Multiplicity = 1

 SCF Done:  E(RHF) =  -321.595855128     A.U. after   15 cycles
 Normal termination of Gaussian 16 at Sat Apr  5 22:39:22 2025.
 Gaussian 16:  ES64L-G16RevC.01  3-Jul-2019

 ----------------------------------------------------------------------
 #t hf aug-cc-pvdz iop(5/13=1,5/36=2,99/5=2) pseudo=read geom=check gue
 ss=(read,tcheck) scf=(maxcycle=1)
 ----------------------------------------------------------------------
 -----
 title
 -----
 Structure from the checkpoint file:  "3-pyridinol.chk"
 Charge =  0 Multiplicity = 1

                         Standard orientation:
 ---------------------------------------------------------------------
 Center     Atomic      Atomic             Coordinates (Angstroms)
 Number     Number       Type             X           Y           Z
 ---------------------------------------------------------------------
      1          7           0       -1.199731   -1.156343    0.000000
      2          6           0       -1.178706    0.173175    0.000000
      3          6           0       -0.000000    0.918177    0.000000
      4          6           0        1.213975    0.242243    0.000000
      5          6           0        1.190617   -1.143321    0.000000
      6          6           0       -0.034471   -1.802433    0.000000
      7          8           0        0.013506    2.282556    0.000000
      8          1           0       -2.141010    0.679327    0.000000
      9          1           0        2.140074    0.800041    0.000000
     10          1           0        2.112543   -1.708300    0.000000
     11          1           0       -0.081634   -2.884350    0.000000
     12          1           0       -0.888395    2.620187    0.000000
 ---------------------------------------------------------------------

 SCF Done:  E(RHF) =  -321.691983179     A.U. after    2 cycles

 The electronic state is 1-A'.
 Alpha  occ. eigenvalues --  -20.61617 -15.63871 -11.32197 -11.28515 -11.27854
 Alpha  occ. eigenvalues --  -11.26354 -11.25793  -1.37963  -1.23497  -1.07932
 Alpha  occ. eigenvalues --   -1.02560  -0.88177  -0.85868  -0.76481  -0.71675
 Alpha  occ. eigenvalues --   -0.68405  -0.62208  -0.62126  -0.60445  -0.58143
 Alpha  occ. eigenvalues --   -0.54422  -0.53043  -0.41891  -0.38435  -0.33541
 Alpha virt. eigenvalues --    0.03128   0.03515   0.04601   0.06240   0.06299
 Alpha virt. eigenvalues --    0.08289   0.10250   0.10633   0.11347   0.12365
 Alpha virt. eigenvalues --    0.12871   0.13080   0.13697   0.14511   0.15083

 Mulliken charges:
               1
     1  N   -0.464819
     2  C    0.841591
     3  C    0.391549
     4  C    0.157610
     5  C    0.584171
     6  C    0.522759
     7  O   -0.582281
     8  H   -0.410900
     9  H   -0.422000
    10  H   -0.393020
    11  H   -0.351517
    12  H    0.126858
 Sum of Mulliken charges =  -0.00000

 Dipole moment (field-independent basis, Debye):
    X=              0.5541    Y=              0.7770    Z=              0.0000  Tot=              0.9544

 Test job not archived.
 1\1\GINC-SE153\SP\RHF\Aug-CC-pVDZ\C5H5N1O1\OHZDE\05-Apr-2025\0\\#t hf
 aug-cc-pvdz iop(5/13=1,5/36=2,99/5=2) pseudo=read geom=check guess=(re
 ad,tcheck) scf=(maxcycle=1)\\title\\0,1\N,0,-1.199731,-1.156343,0.\C,0
 ,-1.178706,0.173175,0.\C,0,0.,0.918177,0.\C,0,1.213975,0.242243,0.\C,0
 ,1.190617,-1.143321,0.\C,0,-0.034471,-1.802433,0.\O,0,0.013506,2.28255
 6,0.\H,0,-2.14101,0.679327,0.\H,0,2.140074,0.800041,0.\H,0,2.112543,-1
 .7083,0.\H,0,-0.081634,-2.88435,0.\H,0,-0.888395,2.620187,0.\\Version=
 ES64L-G16RevC.01\State=1-A'\HF=-321.6919832\RMSD=9.211e-03\Dipole=0.21

 Normal termination of Gaussian 16 at Sat Apr  5 22:39:50 2025.
