 Gaussian 16, Revision C.01,

 ----------------------------------------------------------------------
 #t hf aug-cc-pvdz symm=none int=(grid=ultrafine) guess=(read,tcheck) s
 table=(opt,rrhf)
 ----------------------------------------------------------------------
 -----
 title
 -----
 Symbolic Z-matrix:
 Charge =  0 Multiplicity = 1

 SCF Done:  E(RHF) =  -981.941094053     A.U. after   15 cycles
 Normal termination of Gaussian 16 at Sat Apr  5 22:40:12 2025.
 Gaussian 16:  ES64L-G16RevC.01  3-Jul-2019

 ----------------------------------------------------------------------
 #t hf aug-cc-pvdz iop(5/13=1,5/36=2,99/5=2) pseudo=read geom=check gue
 ss=(read,tcheck) scf=(maxcycle=1)
 ----------------------------------------------------------------------
 -----
 title
 -----
 Structure from the checkpoint file:  "3-sulfanyl-2H-thiadiazole.chk"
 Charge =  0 Multiplicity = 1

                         Standard orientation:
 ---------------------------------------------------------------------
 Center     Atomic      Atomic             Coordinates (Angstroms)
 Number     Number       Type             X           Y           Z
 ---------------------------------------------------------------------
      1         16           0       -1.704462   -0.551936   -0.348464
      2         16           0        2.023603   -0.133580   -0.423222
      3          7           0        0.632814    0.094551    0.642941
      4          7           0       -0.297676   -0.998966    0.631752
      5          6           0       -0.067494    1.302057    0.352543
      6          6           0       -1.293811    1.155566   -0.146389
      7          1           0        2.855091   -0.564541    0.544789
      8          1           0       -0.635754   -1.053433    1.588426
      9          1           0        0.457833    2.229855    0.510423
     10          1           0       -1.961569    1.941553   -0.456436
 ---------------------------------------------------------------------

 SCF Done:  E(RHF) =  -982.040713757     A.U. after    2 cycles

 The electronic state is 1-A.
 Alpha  occ. eigenvalues --  -93.57386 -93.57319 -15.70550 -15.69059 -11.29538
 Alpha  occ. eigenvalues --  -11.28133  -8.86888  -8.86722  -6.21011  -6.20926
 Alpha  occ. eigenvalues --   -6.20833  -6.20639  -6.20398  -6.20276  -1.29908
 Alpha  occ. eigenvalues --   -1.08896  -1.06840  -0.94368  -0.84217  -0.78366
 Alpha  occ. eigenvalues --   -0.70415  -0.67164  -0.61052  -0.57992  -0.54065
 Alpha  occ. eigenvalues --   -0.49436  -0.48699  -0.43616  -0.41402  -0.37307
 Alpha  occ. eigenvalues --   -0.30834
 Alpha virt. eigenvalues --    0.03375   0.03983   0.04876   0.05698   0.08278
 Alpha virt. eigenvalues --    0.08627   0.09661   0.11494   0.11643   0.12513
 Alpha virt. eigenvalues --    0.13003   0.13725   0.14589   0.15636   0.16065

 Mulliken charges:
               1
     1  S    0.635199
     2  S    0.382341
     3  N   -0.696262
     4  N   -0.679660
     5  C    0.826679
     6  C    0.023875
     7  H    0.050210
     8  H    0.126854
     9  H   -0.294064
    10  H   -0.375171
 Sum of Mulliken charges =  -0.00000

 Dipole moment (field-independent basis, Debye):
    X=             -0.0707    Y=              1.5760    Z=              1.2874  Tot=              2.0362

 Test job not archived.
 1\1\GINC-SE012\SP\RHF\Aug-CC-pVDZ\C2H4N2S2\OHZDE\05-Apr-2025\0\\#t hf
 aug-cc-pvdz iop(5/13=1,5/36=2,99/5=2) pseudo=read geom=check guess=(re
 ad,tcheck) scf=(maxcycle=1)\\title\\0,1\S,0,-1.704462,-0.551936,-0.348
 464\S,0,2.023603,-0.13358,-0.423222\N,0,0.632814,0.094551,0.642941\N,0
 ,-0.297676,-0.998966,0.631752\C,0,-0.067494,1.302057,0.352543\C,0,-1.2
 93811,1.155566,-0.146389\H,0,2.855091,-0.564541,0.544789\H,0,-0.635754
 ,-1.053433,1.588426\H,0,0.457833,2.229855,0.510423\H,0,-1.961569,1.941
 553,-0.456436\\Version=ES64L-G16RevC.01\State=1-A\HF=-982.0407138\RMSD

 Normal termination of Gaussian 16 at Sat Apr  5 22:40:55 2025.
