 Gaussian 16, Revision C.01,

 ----------------------------------------------------------------------
 #t hf aug-cc-pvdz symm=none int=(grid=ultrafine) guess=(read,tcheck) s
 table=(opt,rrhf)
 ----------------------------------------------------------------------
 -----
 title
 -----
 Symbolic Z-matrix:
 Charge =  0 Multiplicity = 1

 SCF Done:  E(RHF) =  -1019.89563700     A.U. after   15 cycles
 Normal termination of Gaussian 16 at Sat Apr  5 22:39:24 2025.
 Gaussian 16:  ES64L-G16RevC.01  3-Jul-2019

 ----------------------------------------------------------------------
 #t hf aug-cc-pvdz iop(5/13=1,5/36=2,99/5=2) pseudo=read geom=check gue
 ss=(read,tcheck) scf=(maxcycle=1)
 ----------------------------------------------------------------------
 -----
 title
 -----
 Structure from the checkpoint file:  "3-sulfanyl-1H-imidazole-2-thione.chk"
 Charge =  0 Multiplicity = 1

                         Standard orientation:
 ---------------------------------------------------------------------
 Center     Atomic      Atomic             Coordinates (Angstroms)
 Number     Number       Type             X           Y           Z
 ---------------------------------------------------------------------
      1         16           0        1.423114   -1.504034   -0.000003
      2         16           0        1.033269    1.806920    0.000000
      3          7           0       -0.098632   -0.682408    0.000000
      4          7           0       -1.561190    0.904247    0.000002
      5          6           0       -0.213029    0.685854    0.000000
      6          6           0       -1.351291   -1.279777    0.000001
      7          6           0       -2.265069   -0.285495    0.000003
      8          1           0        2.055117   -0.283371   -0.000002
      9          1           0       -1.946320    1.831521    0.000004
     10          1           0       -1.478170   -2.345481    0.000001
     11          1           0       -3.337664   -0.325202    0.000003
 ---------------------------------------------------------------------

 SCF Done:  E(RHF) =  -1020.00247581     A.U. after    2 cycles

 The electronic state is 1-A.
 Alpha  occ. eigenvalues --  -93.58986 -93.48071 -15.72095 -15.70766 -11.38691
 Alpha  occ. eigenvalues --  -11.31170 -11.30974  -8.88409  -8.77984  -6.22705
 Alpha  occ. eigenvalues --   -6.22330  -6.21892  -6.12252  -6.11670  -6.11635
 Alpha  occ. eigenvalues --   -1.36117  -1.20906  -1.07990  -0.99079  -0.92748
 Alpha  occ. eigenvalues --   -0.86796  -0.80697  -0.73572  -0.66903  -0.65967
 Alpha  occ. eigenvalues --   -0.64739  -0.60446  -0.52905  -0.51469  -0.50771
 Alpha  occ. eigenvalues --   -0.41292  -0.36758  -0.33170  -0.29485
 Alpha virt. eigenvalues --    0.02251   0.03520   0.04925   0.06031   0.08183
 Alpha virt. eigenvalues --    0.08814   0.09848   0.09992   0.10866   0.11628
 Alpha virt. eigenvalues --    0.12127   0.12392   0.14377   0.14787   0.15095

 Mulliken charges:
               1
     1  S    0.434023
     2  S   -0.125322
     3  N   -0.710955
     4  N   -0.487140
     5  C    0.108964
     6  C    0.532925
     7  C    0.718628
     8  H    0.149285
     9  H   -0.094804
    10  H   -0.303719
    11  H   -0.221886
 Sum of Mulliken charges =  -0.00000

 Dipole moment (field-independent basis, Debye):
    X=             -4.4178    Y=             -2.3698    Z=              0.0000  Tot=              5.0133

 Test job not archived.
 1\1\GINC-SE009\SP\RHF\Aug-CC-pVDZ\C3H4N2S2\OHZDE\05-Apr-2025\0\\#t hf
 aug-cc-pvdz iop(5/13=1,5/36=2,99/5=2) pseudo=read geom=check guess=(re
 ad,tcheck) scf=(maxcycle=1)\\title\\0,1\S,0,1.423113,-1.504035,-0.0000
 03\S,0,1.03327,1.806919,0.\N,0,-0.098633,-0.682408,0.\N,0,-1.561189,0.
 904248,0.000002\C,0,-0.213029,0.685854,0.\C,0,-1.351292,-1.279776,0.00
 0001\C,0,-2.265069,-0.285493,0.000003\H,0,2.055117,-0.283372,-0.000002
 \H,0,-1.946319,1.831522,0.000004\H,0,-1.478172,-2.34548,0.000001\H,0,-
 3.337664,-0.3252,0.000003\\Version=ES64L-G16RevC.01\State=1-A\HF=-1020

 Normal termination of Gaussian 16 at Sat Apr  5 22:39:50 2025.
