 Gaussian 16, Revision C.01,

 ----------------------------------------------------------------------
 #t hf aug-cc-pvdz symm=none int=(grid=ultrafine) guess=(read,tcheck) s
 table=(opt,rrhf)
 ----------------------------------------------------------------------
 -----
 title
 -----
 Symbolic Z-matrix:
 Charge =  0 Multiplicity = 1

 SCF Done:  E(RHF) =  -662.036940423     A.U. after   15 cycles
 Normal termination of Gaussian 16 at Sat Apr  5 22:39:15 2025.
 Gaussian 16:  ES64L-G16RevC.01  3-Jul-2019

 ----------------------------------------------------------------------
 #t hf aug-cc-pvdz iop(5/13=1,5/36=2,99/5=2) pseudo=read geom=check gue
 ss=(read,tcheck) scf=(maxcycle=1)
 ----------------------------------------------------------------------
 -----
 title
 -----
 Structure from the checkpoint file:  "3-sulfanylideneprop-2-enoicacid.chk"
 Charge =  0 Multiplicity = 1

                         Standard orientation:
 ---------------------------------------------------------------------
 Center     Atomic      Atomic             Coordinates (Angstroms)
 Number     Number       Type             X           Y           Z
 ---------------------------------------------------------------------
      1         16           0       -2.444945    0.114711   -0.000002
      2          8           0        1.338014    1.334195    0.000002
      3          8           0        2.574349   -0.551462    0.000001
      4          6           0        1.397186    0.128744    0.000001
      5          6           0        0.265164   -0.804020    0.000000
      6          6           0       -0.982040   -0.381913    0.000000
      7          1           0        3.277153    0.114294    0.000002
      8          1           0        0.461205   -1.868401    0.000000
 ---------------------------------------------------------------------

 SCF Done:  E(RHF) =  -662.139684592     A.U. after    2 cycles

 The electronic state is 1-A.
 Alpha  occ. eigenvalues --  -93.58527 -20.63527 -20.57098 -11.42101 -11.38584
 Alpha  occ. eigenvalues --  -11.28063  -8.88442  -6.22661  -6.22185  -6.21965
 Alpha  occ. eigenvalues --   -1.43384  -1.33589  -1.13816  -1.03741  -0.88943
 Alpha  occ. eigenvalues --   -0.74011  -0.73225  -0.69079  -0.65924  -0.62458
 Alpha  occ. eigenvalues --   -0.61102  -0.53508  -0.50660  -0.49273  -0.45411
 Alpha  occ. eigenvalues --   -0.35566
 Alpha virt. eigenvalues --    0.02669   0.03368   0.04645   0.06385   0.06428
 Alpha virt. eigenvalues --    0.09620   0.10313   0.10573   0.12423   0.12545
 Alpha virt. eigenvalues --    0.13335   0.14372   0.14706   0.16437   0.16957

 Mulliken charges:
               1
     1  S    0.267773
     2  O   -0.446890
     3  O   -0.512230
     4  C    0.443742
     5  C    0.768446
     6  C   -0.449866
     7  H    0.211172
     8  H   -0.282149
 Sum of Mulliken charges =  -0.00000

 Dipole moment (field-independent basis, Debye):
    X=             -0.1766    Y=             -2.0430    Z=             -0.0000  Tot=              2.0507

 Test job not archived.
 1\1\GINC-SE045\SP\RHF\Aug-CC-pVDZ\C3H2O2S1\OHZDE\05-Apr-2025\0\\#t hf
 aug-cc-pvdz iop(5/13=1,5/36=2,99/5=2) pseudo=read geom=check guess=(re
 ad,tcheck) scf=(maxcycle=1)\\title\\0,1\S,0,-2.444945,0.114711,-0.0000
 02\O,0,1.338014,1.334195,0.000002\O,0,2.574349,-0.551462,0.000001\C,0,
 1.397186,0.128744,0.000001\C,0,0.265164,-0.80402,0.\C,0,-0.98204,-0.38
 1913,0.\H,0,3.277153,0.114294,0.000002\H,0,0.461205,-1.868401,0.\\Vers
 ion=ES64L-G16RevC.01\State=1-A\HF=-662.1396846\RMSD=7.530e-03\Dipole=-
 0.0694899,-0.8037937,-0.0000006\Quadrupole=5.0595382,-3.0685489,-1.990

 Normal termination of Gaussian 16 at Sat Apr  5 22:39:48 2025.
