 Gaussian 16, Revision C.01,

 ----------------------------------------------------------------------
 #t hf aug-cc-pvdz symm=none int=(grid=ultrafine) guess=(read,tcheck) s
 table=(opt,rrhf)
 ----------------------------------------------------------------------
 -----
 title
 -----
 Symbolic Z-matrix:
 Charge =  0 Multiplicity = 1

 SCF Done:  E(RHF) =  -717.046579704     A.U. after   15 cycles
 Normal termination of Gaussian 16 at Sat Apr  5 22:40:24 2025.
 Gaussian 16:  ES64L-G16RevC.01  3-Jul-2019

 ----------------------------------------------------------------------
 #t hf aug-cc-pvdz iop(5/13=1,5/36=2,99/5=2) pseudo=read geom=check gue
 ss=(read,tcheck) scf=(maxcycle=1)
 ----------------------------------------------------------------------
 -----
 title
 -----
 Structure from the checkpoint file:  "3-thioxo-1-2-oxazolidin-5-one.chk"
 Charge =  0 Multiplicity = 1

                         Standard orientation:
 ---------------------------------------------------------------------
 Center     Atomic      Atomic             Coordinates (Angstroms)
 Number     Number       Type             X           Y           Z
 ---------------------------------------------------------------------
      1         16           0        2.388840   -0.228485   -0.065926
      2          8           0       -1.264798    1.114379   -0.020009
      3          8           0       -2.745689   -0.568829   -0.105351
      4          7           0        0.144946    1.180968    0.131545
      5          6           0        0.766882   -0.013837    0.054715
      6          6           0       -1.610527   -0.229493   -0.016169
      7          6           0       -0.337581   -1.036321    0.118536
      8          1           0        0.526739    2.051909   -0.206611
      9          1           0       -0.336392   -1.568271    1.071151
     10          1           0       -0.255164   -1.781153   -0.670150
 ---------------------------------------------------------------------

 SCF Done:  E(RHF) =  -717.162450338     A.U. after    2 cycles

 The electronic state is 1-A.
 Alpha  occ. eigenvalues --  -93.51830 -20.69630 -20.60658 -15.76276 -11.44241
 Alpha  occ. eigenvalues --  -11.40008 -11.31362  -8.81736  -6.15989  -6.15452
 Alpha  occ. eigenvalues --   -6.15314  -1.49203  -1.40012  -1.22457  -1.10400
 Alpha  occ. eigenvalues --   -0.99233  -0.88852  -0.82579  -0.76323  -0.74156
 Alpha  occ. eigenvalues --   -0.70538  -0.66307  -0.63808  -0.63454  -0.58977
 Alpha  occ. eigenvalues --   -0.55531  -0.50496  -0.49827  -0.36449  -0.35660
 Alpha virt. eigenvalues --    0.03037   0.03769   0.04407   0.06442   0.06894
 Alpha virt. eigenvalues --    0.08925   0.09789   0.10087   0.11130   0.12487
 Alpha virt. eigenvalues --    0.13008   0.13808   0.14266   0.14546   0.16162

 Mulliken charges:
               1
     1  S    0.005593
     2  O   -0.639688
     3  O   -0.414577
     4  N   -0.031554
     5  C    0.321827
     6  C    0.710030
     7  C   -0.187965
     8  H    0.039199
     9  H    0.117335
    10  H    0.079801
 Sum of Mulliken charges =  -0.00000

 Dipole moment (field-independent basis, Debye):
    X=              0.5475    Y=              0.4306    Z=              0.0372  Tot=              0.6975

 Test job not archived.
 1\1\GINC-SE104\SP\RHF\Aug-CC-pVDZ\C3H3N1O2S1\OHZDE\05-Apr-2025\0\\#t h
 f aug-cc-pvdz iop(5/13=1,5/36=2,99/5=2) pseudo=read geom=check guess=(
 read,tcheck) scf=(maxcycle=1)\\title\\0,1\S,0,2.38884,-0.228485,-0.065
 926\O,0,-1.264798,1.114379,-0.020009\O,0,-2.745689,-0.568829,-0.105351
 \N,0,0.144946,1.180968,0.131545\C,0,0.766882,-0.013837,0.054715\C,0,-1
 .610527,-0.229493,-0.016169\C,0,-0.337581,-1.036321,0.118536\H,0,0.526
 739,2.051909,-0.206611\H,0,-0.336392,-1.568271,1.071151\H,0,-0.255164,
 -1.781153,-0.67015\\Version=ES64L-G16RevC.01\State=1-A\HF=-717.1624503

 Normal termination of Gaussian 16 at Sat Apr  5 22:40:55 2025.
