 Gaussian 16, Revision C.01,

 ----------------------------------------------------------------------
 #t hf aug-cc-pvdz symm=none int=(grid=ultrafine) guess=(read,tcheck) s
 table=(opt,rrhf)
 ----------------------------------------------------------------------
 -----
 title
 -----
 Symbolic Z-matrix:
 Charge =  0 Multiplicity = 1

 SCF Done:  E(RHF) =  -321.570336320     A.U. after   15 cycles
 Normal termination of Gaussian 16 at Sat Apr  5 22:40:25 2025.
 Gaussian 16:  ES64L-G16RevC.01  3-Jul-2019

 ----------------------------------------------------------------------
 #t hf aug-cc-pvdz iop(5/13=1,5/36=2,99/5=2) pseudo=read geom=check gue
 ss=(read,tcheck) scf=(maxcycle=1)
 ----------------------------------------------------------------------
 -----
 title
 -----
 Structure from the checkpoint file:  "32H-pyridinone.chk"
 Charge =  0 Multiplicity = 1

                         Standard orientation:
 ---------------------------------------------------------------------
 Center     Atomic      Atomic             Coordinates (Angstroms)
 Number     Number       Type             X           Y           Z
 ---------------------------------------------------------------------
      1          7           0        1.200532   -1.192190    0.000009
      2          6           0       -0.248247   -1.251538    0.000100
      3          6           0       -1.059500    0.036614    0.000061
      4          6           0       -0.288709    1.286859    0.000113
      5          6           0        1.051418    1.235550   -0.000006
      6          6           0        1.757680   -0.047837   -0.000095
      7          8           0       -2.276005    0.018306   -0.000145
      8          1           0       -0.559635   -1.846968    0.864275
      9          1           0       -0.843315    2.215844    0.000201
     10          1           0        1.646021    2.141077   -0.000054
     11          1           0        2.845073   -0.022117   -0.000226
     12          1           0       -0.559677   -1.846841   -0.864144
 ---------------------------------------------------------------------

 SCF Done:  E(RHF) =  -321.665274663     A.U. after    2 cycles

 The electronic state is 1-A.
 Alpha  occ. eigenvalues --  -20.56806 -15.65222 -11.35410 -11.31130 -11.29302
 Alpha  occ. eigenvalues --  -11.28540 -11.27749  -1.35862  -1.23689  -1.09100
 Alpha  occ. eigenvalues --   -1.01938  -0.89136  -0.83422  -0.73135  -0.70060
 Alpha  occ. eigenvalues --   -0.68342  -0.64346  -0.61808  -0.60152  -0.56928
 Alpha  occ. eigenvalues --   -0.53732  -0.48546  -0.48070  -0.40390  -0.37910
 Alpha virt. eigenvalues --    0.02600   0.03233   0.04130   0.04493   0.05817
 Alpha virt. eigenvalues --    0.06074   0.08887   0.10786   0.11024   0.12265
 Alpha virt. eigenvalues --    0.12664   0.13252   0.13924   0.13930   0.14864

 Mulliken charges:
               1
     1  N   -0.392267
     2  C    0.653962
     3  C   -0.268578
     4  C    0.483533
     5  C    0.619816
     6  C    0.493181
     7  O   -0.549460
     8  H    0.033200
     9  H   -0.391092
    10  H   -0.382711
    11  H   -0.332852
    12  H    0.033267
 Sum of Mulliken charges =   0.00000

 Dipole moment (field-independent basis, Debye):
    X=              3.2559    Y=              1.8888    Z=              0.0004  Tot=              3.7641

 Test job not archived.
 1\1\GINC-SE176\SP\RHF\Aug-CC-pVDZ\C5H5N1O1\OHZDE\05-Apr-2025\0\\#t hf
 aug-cc-pvdz iop(5/13=1,5/36=2,99/5=2) pseudo=read geom=check guess=(re
 ad,tcheck) scf=(maxcycle=1)\\title\\0,1\N,0,1.200532,-1.19219,0.000009
 \C,0,-0.248247,-1.251538,0.0001\C,0,-1.0595,0.036614,0.000061\C,0,-0.2
 88709,1.286859,0.000113\C,0,1.051418,1.23555,-0.000006\C,0,1.75768,-0.
 047837,-0.000095\O,0,-2.276005,0.018306,-0.000145\H,0,-0.559635,-1.846
 968,0.864275\H,0,-0.843315,2.215844,0.000201\H,0,1.646021,2.141077,-0.
 000054\H,0,2.845073,-0.022117,-0.000226\H,0,-0.559677,-1.846841,-0.864

 Normal termination of Gaussian 16 at Sat Apr  5 22:40:55 2025.
