 Gaussian 16, Revision C.01,

 ----------------------------------------------------------------------
 #t hf aug-cc-pvdz symm=none int=(grid=ultrafine) guess=(read,tcheck) s
 table=(opt,rrhf)
 ----------------------------------------------------------------------
 -----
 title
 -----
 Symbolic Z-matrix:
 Charge =  0 Multiplicity = 1

 SCF Done:  E(RHF) =  -321.564740181     A.U. after   15 cycles
 Normal termination of Gaussian 16 at Sat Apr  5 22:40:25 2025.
 Gaussian 16:  ES64L-G16RevC.01  3-Jul-2019

 ----------------------------------------------------------------------
 #t hf aug-cc-pvdz iop(5/13=1,5/36=2,99/5=2) pseudo=read geom=check gue
 ss=(read,tcheck) scf=(maxcycle=1)
 ----------------------------------------------------------------------
 -----
 title
 -----
 Structure from the checkpoint file:  "34H-pyridinone.chk"
 Charge =  0 Multiplicity = 1

                         Standard orientation:
 ---------------------------------------------------------------------
 Center     Atomic      Atomic             Coordinates (Angstroms)
 Number     Number       Type             X           Y           Z
 ---------------------------------------------------------------------
      1          7           0        1.003702   -1.321515   -0.000044
      2          6           0       -0.274008   -1.255389    0.000230
      3          6           0       -1.057493    0.010593    0.000105
      4          6           0       -0.250299    1.293437    0.000138
      5          6           0        1.227716    1.089202    0.000005
      6          6           0        1.758426   -0.135993   -0.000177
      7          8           0       -2.271435   -0.003688   -0.000258
      8          1           0       -0.853456   -2.175087    0.000425
      9          1           0       -0.562854    1.887548   -0.865857
     10          1           0        1.870338    1.960254    0.000050
     11          1           0        2.828067   -0.291154   -0.000357
     12          1           0       -0.562581    1.887450    0.866314
 ---------------------------------------------------------------------

 SCF Done:  E(RHF) =  -321.659937367     A.U. after    2 cycles

 The electronic state is 1-A.
 Alpha  occ. eigenvalues --  -20.58337 -15.66518 -11.36328 -11.30907 -11.28734
 Alpha  occ. eigenvalues --  -11.27306 -11.27168  -1.37248  -1.24463  -1.08609
 Alpha  occ. eigenvalues --   -1.01480  -0.89356  -0.84159  -0.72891  -0.70296
 Alpha  occ. eigenvalues --   -0.68353  -0.64298  -0.63027  -0.59491  -0.55037
 Alpha  occ. eigenvalues --   -0.54255  -0.50929  -0.49510  -0.41199  -0.35765
 Alpha virt. eigenvalues --    0.02796   0.03551   0.04282   0.04522   0.05117
 Alpha virt. eigenvalues --    0.06112   0.08840   0.09991   0.10987   0.12532
 Alpha virt. eigenvalues --    0.12713   0.13264   0.13577   0.14474   0.14936

 Mulliken charges:
               1
     1  N   -0.433661
     2  C    0.561065
     3  C    0.025434
     4  C   -0.093418
     5  C    0.549692
     6  C    0.745804
     7  O   -0.540110
     8  H   -0.309765
     9  H    0.098713
    10  H   -0.362889
    11  H   -0.339666
    12  H    0.098799
 Sum of Mulliken charges =  -0.00000

 Dipole moment (field-independent basis, Debye):
    X=              2.4240    Y=              2.0496    Z=              0.0011  Tot=              3.1744

 Test job not archived.
 1\1\GINC-SE180\SP\RHF\Aug-CC-pVDZ\C5H5N1O1\OHZDE\05-Apr-2025\0\\#t hf
 aug-cc-pvdz iop(5/13=1,5/36=2,99/5=2) pseudo=read geom=check guess=(re
 ad,tcheck) scf=(maxcycle=1)\\title\\0,1\N,0,1.003702,-1.321515,-0.0000
 44\C,0,-0.274008,-1.255389,0.00023\C,0,-1.057493,0.010593,0.000105\C,0
 ,-0.250299,1.293437,0.000138\C,0,1.227716,1.089202,0.000005\C,0,1.7584
 26,-0.135993,-0.000177\O,0,-2.271435,-0.003688,-0.000258\H,0,-0.853456
 ,-2.175087,0.000425\H,0,-0.562854,1.887548,-0.865857\H,0,1.870338,1.96
 0254,0.00005\H,0,2.828067,-0.291154,-0.000357\H,0,-0.562581,1.88745,0.

 Normal termination of Gaussian 16 at Sat Apr  5 22:40:56 2025.
