 Gaussian 16, Revision C.01,

 ----------------------------------------------------------------------
 #t hf aug-cc-pvdz symm=none int=(grid=ultrafine) guess=(read,tcheck) s
 table=(opt,rrhf)
 ----------------------------------------------------------------------
 -----
 title
 -----
 Symbolic Z-matrix:
 Charge =  0 Multiplicity = 1

 SCF Done:  E(RHF) =  -321.571709109     A.U. after   15 cycles
 Normal termination of Gaussian 16 at Sat Apr  5 22:40:11 2025.
 Gaussian 16:  ES64L-G16RevC.01  3-Jul-2019

 ----------------------------------------------------------------------
 #t hf aug-cc-pvdz iop(5/13=1,5/36=2,99/5=2) pseudo=read geom=check gue
 ss=(read,tcheck) scf=(maxcycle=1)
 ----------------------------------------------------------------------
 -----
 title
 -----
 Structure from the checkpoint file:  "36H-pyridinone.chk"
 Charge =  0 Multiplicity = 1

                         Standard orientation:
 ---------------------------------------------------------------------
 Center     Atomic      Atomic             Coordinates (Angstroms)
 Number     Number       Type             X           Y           Z
 ---------------------------------------------------------------------
      1          7           0       -1.271596   -1.030212    0.000000
      2          6           0       -1.236096    0.239527    0.000000
      3          6           0        0.000000    1.085157    0.000000
      4          6           0        1.263984    0.348634    0.000000
      5          6           0        1.244327   -0.987977    0.000000
      6          6           0       -0.025532   -1.764497    0.000000
      7          8           0       -0.082178    2.301599    0.000000
      8          1           0       -2.173830    0.792159    0.000000
      9          1           0        2.180630    0.923062    0.000000
     10          1           0        2.167680   -1.557260    0.000000
     11          1           0       -0.047988   -2.442167    0.862672
     12          1           0       -0.047988   -2.442167   -0.862672
 ---------------------------------------------------------------------

 SCF Done:  E(RHF) =  -321.666685566     A.U. after    2 cycles

 The electronic state is 1-A'.
 Alpha  occ. eigenvalues --  -20.57355 -15.66088 -11.35513 -11.30508 -11.29899
 Alpha  occ. eigenvalues --  -11.29236 -11.26456  -1.36092  -1.24057  -1.09544
 Alpha  occ. eigenvalues --   -1.01651  -0.87111  -0.86157  -0.72698  -0.70140
 Alpha  occ. eigenvalues --   -0.68301  -0.64323  -0.62555  -0.58940  -0.56732
 Alpha  occ. eigenvalues --   -0.56575  -0.49558  -0.44193  -0.40554  -0.39853
 Alpha virt. eigenvalues --    0.02523   0.04261   0.04609   0.04675   0.05519
 Alpha virt. eigenvalues --    0.06064   0.08983   0.10097   0.10429   0.12069
 Alpha virt. eigenvalues --    0.12505   0.12793   0.13326   0.13871   0.15121

 Mulliken charges:
               1
     1  N   -0.420859
     2  C    0.660067
     3  C    0.031172
     4  C    0.534005
     5  C   -0.031357
     6  C    0.783863
     7  O   -0.533091
     8  H   -0.321222
     9  H   -0.395649
    10  H   -0.345748
    11  H    0.019409
    12  H    0.019409
 Sum of Mulliken charges =   0.00000

 Dipole moment (field-independent basis, Debye):
    X=              2.0126    Y=             -3.8161    Z=             -0.0000  Tot=              4.3143

 Test job not archived.
 1\1\GINC-SE010\SP\RHF\Aug-CC-pVDZ\C5H5N1O1\OHZDE\05-Apr-2025\0\\#t hf
 aug-cc-pvdz iop(5/13=1,5/36=2,99/5=2) pseudo=read geom=check guess=(re
 ad,tcheck) scf=(maxcycle=1)\\title\\0,1\N,0,-1.271596,-1.030212,0.\C,0
 ,-1.236096,0.239527,0.\C,0,0.,1.085157,0.\C,0,1.263984,0.348634,0.\C,0
 ,1.244327,-0.987977,0.\C,0,-0.025532,-1.764497,0.\O,0,-0.082178,2.3015
 99,0.\H,0,-2.17383,0.792159,0.\H,0,2.18063,0.923062,0.\H,0,2.16768,-1.
 55726,0.\H,0,-0.047988,-2.442167,0.862672\H,0,-0.047988,-2.442167,-0.8
 62672\\Version=ES64L-G16RevC.01\State=1-A'\HF=-321.6666856\RMSD=8.294e

 Normal termination of Gaussian 16 at Sat Apr  5 22:40:56 2025.
