 Gaussian 16, Revision C.01,

 ----------------------------------------------------------------------
 #t hf aug-cc-pvdz symm=none int=(grid=ultrafine) guess=(read,tcheck) s
 table=(opt,rrhf)
 ----------------------------------------------------------------------
 -----
 title
 -----
 Symbolic Z-matrix:
 Charge =  0 Multiplicity = 1

 SCF Done:  E(RHF) =  -233.024287157     A.U. after   13 cycles
 Normal termination of Gaussian 16 at Sat Apr  5 22:40:15 2025.
 Gaussian 16:  ES64L-G16RevC.01  3-Jul-2019

 ----------------------------------------------------------------------
 #t hf aug-cc-pvdz iop(5/13=1,5/36=2,99/5=2) pseudo=read geom=check gue
 ss=(read,tcheck) scf=(maxcycle=1)
 ----------------------------------------------------------------------
 -----
 title
 -----
 Structure from the checkpoint file:  "3E-2-methyl-1-3-pentadiene.chk"
 Charge =  0 Multiplicity = 1

                         Standard orientation:
 ---------------------------------------------------------------------
 Center     Atomic      Atomic             Coordinates (Angstroms)
 Number     Number       Type             X           Y           Z
 ---------------------------------------------------------------------
      1          6           0        2.066444   -1.078567   -0.000000
      2          6           0        1.117232   -0.133948    0.000001
      3          6           0       -0.293736   -0.518951    0.000015
      4          6           0       -1.341106    0.310850    0.000031
      5          6           0       -2.772365   -0.122358   -0.000019
      6          6           0        1.473859    1.328371   -0.000012
      7          1           0        3.118414   -0.827682   -0.000025
      8          1           0        1.813394   -2.130884    0.000014
      9          1           0       -0.482710   -1.588989   -0.000013
     10          1           0       -1.170199    1.382350    0.000073
     11          1           0       -2.863802   -1.208498   -0.000060
     12          1           0       -3.301379    0.263852    0.875706
     13          1           0       -3.301329    0.263911   -0.875747
     14          1           0        1.065954    1.834129   -0.878047
     15          1           0        1.066119    1.834099    0.878118
     16          1           0        2.553575    1.465330   -0.000111
 ---------------------------------------------------------------------

 SCF Done:  E(RHF) =  -233.098892456     A.U. after    2 cycles

 The electronic state is 1-A.
 Alpha  occ. eigenvalues --  -11.24933 -11.24202 -11.23427 -11.23302 -11.22919
 Alpha  occ. eigenvalues --  -11.22539  -1.10155  -1.03613  -0.93540  -0.92743
 Alpha  occ. eigenvalues --   -0.78785  -0.72179  -0.65163  -0.62133  -0.57752
 Alpha  occ. eigenvalues --   -0.56864  -0.56637  -0.54756  -0.52213  -0.51209
 Alpha  occ. eigenvalues --   -0.47993  -0.41754  -0.31280
 Alpha virt. eigenvalues --    0.03491   0.04107   0.04449   0.05491   0.06014
 Alpha virt. eigenvalues --    0.06215   0.07109   0.08237   0.08467   0.08843
 Alpha virt. eigenvalues --    0.10379   0.11762   0.12436   0.13576   0.14566

 Mulliken charges:
               1
     1  C    1.244041
     2  C   -0.525348
     3  C    0.586704
     4  C   -0.202784
     5  C    0.224119
     6  C    0.457090
     7  H   -0.427290
     8  H   -0.404144
     9  H   -0.497839
    10  H   -0.532295
    11  H   -0.139126
    12  H    0.087750
    13  H    0.087742
    14  H    0.135412
    15  H    0.135415
    16  H   -0.229445
 Sum of Mulliken charges =   0.00000

 Dipole moment (field-independent basis, Debye):
    X=             -0.5349    Y=              0.4419    Z=             -0.0000  Tot=              0.6938

 Test job not archived.
 1\1\GINC-SE050\SP\RHF\Aug-CC-pVDZ\C6H10\OHZDE\05-Apr-2025\0\\#t hf aug
 -cc-pvdz iop(5/13=1,5/36=2,99/5=2) pseudo=read geom=check guess=(read,
 tcheck) scf=(maxcycle=1)\\title\\0,1\C,0,2.066444,-1.078567,0.\C,0,1.1
 17232,-0.133948,0.000001\C,0,-0.293736,-0.518951,0.000015\C,0,-1.34110
 6,0.31085,0.000031\C,0,-2.772365,-0.122358,-0.000019\C,0,1.473859,1.32
 8371,-0.000012\H,0,3.118414,-0.827682,-0.000025\H,0,1.813394,-2.130884
 ,0.000014\H,0,-0.48271,-1.588989,-0.000013\H,0,-1.170199,1.38235,0.000
 073\H,0,-2.863802,-1.208498,-0.00006\H,0,-3.301379,0.263852,0.875706\H

 Normal termination of Gaussian 16 at Sat Apr  5 22:40:56 2025.
