 Gaussian 16, Revision C.01,

 ----------------------------------------------------------------------
 #t hf aug-cc-pvdz symm=none int=(grid=ultrafine) guess=(read,tcheck) s
 table=(opt,rrhf)
 ----------------------------------------------------------------------
 -----
 title
 -----
 Symbolic Z-matrix:
 Charge =  0 Multiplicity = 1

 SCF Done:  E(RHF) =  -281.567173453     A.U. after   14 cycles
 Normal termination of Gaussian 16 at Sat Apr  5 22:41:33 2025.
 Gaussian 16:  ES64L-G16RevC.01  3-Jul-2019

 ----------------------------------------------------------------------
 #t hf aug-cc-pvdz iop(5/13=1,5/36=2,99/5=2) pseudo=read geom=check gue
 ss=(read,tcheck) scf=(maxcycle=1)
 ----------------------------------------------------------------------
 -----
 title
 -----
 Structure from the checkpoint file:  "3H-1-2-4-dioxazole.chk"
 Charge =  0 Multiplicity = 1

                         Standard orientation:
 ---------------------------------------------------------------------
 Center     Atomic      Atomic             Coordinates (Angstroms)
 Number     Number       Type             X           Y           Z
 ---------------------------------------------------------------------
      1          8           0        0.891156   -0.824591    0.000333
      2          8           0       -0.557922   -1.054738   -0.000461
      3          7           0       -0.044879    1.222226   -0.000283
      4          6           0        1.000130    0.519723   -0.000070
      5          6           0       -1.143632    0.283845    0.000324
      6          1           0        2.022842    0.872055   -0.000125
      7          1           0       -1.756107    0.392725    0.898645
      8          1           0       -1.757438    0.392864   -0.897042
 ---------------------------------------------------------------------

 SCF Done:  E(RHF) =  -281.655732622     A.U. after    2 cycles

 The electronic state is 1-A.
 Alpha  occ. eigenvalues --  -20.68259 -20.66357 -15.64466 -11.37483 -11.34580
 Alpha  occ. eigenvalues --   -1.48447  -1.25518  -1.22209  -0.93037  -0.86101
 Alpha  occ. eigenvalues --   -0.75693  -0.73359  -0.62897  -0.61776  -0.61703
 Alpha  occ. eigenvalues --   -0.59914  -0.53363  -0.47801  -0.40926
 Alpha virt. eigenvalues --    0.03509   0.04156   0.05138   0.08567   0.09609
 Alpha virt. eigenvalues --    0.09843   0.10691   0.14769   0.16083   0.16303
 Alpha virt. eigenvalues --    0.16813   0.17131   0.18194   0.19370   0.20892

 Mulliken charges:
               1
     1  O   -0.321460
     2  O   -0.475188
     3  N   -0.525009
     4  C    0.720267
     5  C    1.052139
     6  H   -0.150559
     7  H   -0.150002
     8  H   -0.150188
 Sum of Mulliken charges =  -0.00000

 Dipole moment (field-independent basis, Debye):
    X=              0.0841    Y=              1.0735    Z=              0.0014  Tot=              1.0768

 Test job not archived.
 1\1\GINC-SE175\SP\RHF\Aug-CC-pVDZ\C2H3N1O2\OHZDE\05-Apr-2025\0\\#t hf
 aug-cc-pvdz iop(5/13=1,5/36=2,99/5=2) pseudo=read geom=check guess=(re
 ad,tcheck) scf=(maxcycle=1)\\title\\0,1\O,0,0.891155,-0.824592,0.00033
 3\O,0,-0.557923,-1.054738,-0.000461\N,0,-0.044878,1.222226,-0.000283\C
 ,0,1.000131,0.519722,-0.00007\C,0,-1.143632,0.283846,0.000324\H,0,2.02
 2843,0.872053,-0.000125\H,0,-1.756107,0.392727,0.898645\H,0,-1.757438,
 0.392866,-0.897042\\Version=ES64L-G16RevC.01\State=1-A\HF=-281.6557326
 \RMSD=2.608e-03\Dipole=0.033071,0.4223526,0.0005466\Quadrupole=4.90456

 Normal termination of Gaussian 16 at Sat Apr  5 22:41:35 2025.
