 Gaussian 16, Revision C.01,

 ----------------------------------------------------------------------
 #t hf aug-cc-pvdz symm=none int=(grid=ultrafine) guess=(read,tcheck) s
 table=(opt,rrhf)
 ----------------------------------------------------------------------
 -----
 title
 -----
 Symbolic Z-matrix:
 Charge =  0 Multiplicity = 1

 SCF Done:  E(RHF) =  -604.262123361     A.U. after   15 cycles
 Normal termination of Gaussian 16 at Sat Apr  5 22:40:25 2025.
 Gaussian 16:  ES64L-G16RevC.01  3-Jul-2019

 ----------------------------------------------------------------------
 #t hf aug-cc-pvdz iop(5/13=1,5/36=2,99/5=2) pseudo=read geom=check gue
 ss=(read,tcheck) scf=(maxcycle=1)
 ----------------------------------------------------------------------
 -----
 title
 -----
 Structure from the checkpoint file:  "3H-1-2-3-oxathiazole.chk"
 Charge =  0 Multiplicity = 1

                         Standard orientation:
 ---------------------------------------------------------------------
 Center     Atomic      Atomic             Coordinates (Angstroms)
 Number     Number       Type             X           Y           Z
 ---------------------------------------------------------------------
      1         16           0       -1.154148   -0.066919   -0.130433
      2          8           0        0.068806   -1.262764    0.214972
      3          7           0       -0.111862    1.263970    0.119104
      4          6           0        1.205240    0.713893   -0.140345
      5          6           0        1.248577   -0.612642   -0.043800
      6          1           0        2.033948    1.375479   -0.327363
      7          1           0       -0.169651    1.597164    1.080067
      8          1           0        2.111755   -1.255125   -0.114406
 ---------------------------------------------------------------------

 SCF Done:  E(RHF) =  -604.352312347     A.U. after    2 cycles

 The electronic state is 1-A.
 Alpha  occ. eigenvalues --  -93.62011 -20.62473 -15.67320 -11.31882 -11.28332
 Alpha  occ. eigenvalues --   -8.90860  -6.24989  -6.24784  -6.24220  -1.37975
 Alpha  occ. eigenvalues --   -1.20338  -1.02689  -0.88507  -0.80974  -0.72527
 Alpha  occ. eigenvalues --   -0.68369  -0.62513  -0.60731  -0.56902  -0.51935
 Alpha  occ. eigenvalues --   -0.47816  -0.38646  -0.33282
 Alpha virt. eigenvalues --    0.03378   0.04442   0.04995   0.07548   0.08134
 Alpha virt. eigenvalues --    0.10432   0.10949   0.12369   0.12910   0.13966
 Alpha virt. eigenvalues --    0.14662   0.16282   0.16529   0.17206   0.18248

 Mulliken charges:
               1
     1  S    0.846929
     2  O   -0.812097
     3  N   -0.852322
     4  C    0.628062
     5  C    0.560094
     6  H   -0.215991
     7  H    0.081726
     8  H   -0.236402
 Sum of Mulliken charges =  -0.00000

 Dipole moment (field-independent basis, Debye):
    X=              1.5678    Y=              1.2093    Z=              0.8466  Tot=              2.1534

 Test job not archived.
 1\1\GINC-SE036\SP\RHF\Aug-CC-pVDZ\C2H3N1O1S1\OHZDE\05-Apr-2025\0\\#t h
 f aug-cc-pvdz iop(5/13=1,5/36=2,99/5=2) pseudo=read geom=check guess=(
 read,tcheck) scf=(maxcycle=1)\\title\\0,1\S,0,-1.154148,-0.066919,-0.1
 30433\O,0,0.068806,-1.262764,0.214972\N,0,-0.111862,1.26397,0.119104\C
 ,0,1.20524,0.713893,-0.140345\C,0,1.248577,-0.612642,-0.0438\H,0,2.033
 948,1.375479,-0.327363\H,0,-0.169651,1.597164,1.080067\H,0,2.111755,-1
 .255125,-0.114406\\Version=ES64L-G16RevC.01\State=1-A\HF=-604.3523123\
 RMSD=6.663e-03\Dipole=0.6168355,0.4757649,0.3330743\Quadrupole=2.51492

 Normal termination of Gaussian 16 at Sat Apr  5 22:40:54 2025.
