 Gaussian 16, Revision C.01,

 ----------------------------------------------------------------------
 #t hf aug-cc-pvdz symm=none int=(grid=ultrafine) guess=(read,tcheck) s
 table=(opt,rrhf)
 ----------------------------------------------------------------------
 -----
 title
 -----
 Symbolic Z-matrix:
 Charge =  0 Multiplicity = 1

 SCF Done:  E(RHF) =  -1094.45168881     A.U. after   19 cycles
 Normal termination of Gaussian 16 at Sat Apr  5 22:40:52 2025.
 Gaussian 16:  ES64L-G16RevC.01  3-Jul-2019

 ----------------------------------------------------------------------
 #t hf aug-cc-pvdz iop(5/13=1,5/36=2,99/5=2) pseudo=read geom=check gue
 ss=(read,tcheck) scf=(maxcycle=1)
 ----------------------------------------------------------------------
 -----
 title
 -----
 Structure from the checkpoint file:  "3H-1-2-dithiole-4-5-dicarbonitrile.chk"
 Charge =  0 Multiplicity = 1

                         Standard orientation:
 ---------------------------------------------------------------------
 Center     Atomic      Atomic             Coordinates (Angstroms)
 Number     Number       Type             X           Y           Z
 ---------------------------------------------------------------------
      1         16           0       -1.222640    1.296701    0.169140
      2         16           0       -2.161882   -0.546051   -0.275063
      3          7           0        2.326633    2.291014   -0.116594
      4          7           0        2.731829   -2.027824   -0.080487
      5          6           0        0.395120    0.601936    0.030052
      6          6           0        0.511175   -0.743969    0.062000
      7          6           0       -0.745707   -1.549818    0.310030
      8          6           0        1.476896    1.515274   -0.054572
      9          6           0        1.752199   -1.421097   -0.020140
     10          1           0       -0.759980   -2.475318   -0.261951
     11          1           0       -0.835001   -1.791373    1.372058
 ---------------------------------------------------------------------

 SCF Done:  E(RHF) =  -1094.57697908     A.U. after    2 cycles

 The electronic state is 1-A.
 Alpha  occ. eigenvalues --  -93.61920 -93.60578 -15.68539 -15.67818 -11.37970
 Alpha  occ. eigenvalues --  -11.35491 -11.34054 -11.32828 -11.32259  -8.91534
 Alpha  occ. eigenvalues --   -8.90164  -6.25631  -6.25465  -6.24995  -6.24253
 Alpha  occ. eigenvalues --   -6.24068  -6.23622  -1.24864  -1.22840  -1.19437
 Alpha  occ. eigenvalues --   -1.07056  -1.05698  -0.90397  -0.86632  -0.82399
 Alpha  occ. eigenvalues --   -0.68290  -0.66066  -0.62023  -0.58674  -0.58201
 Alpha  occ. eigenvalues --   -0.57544  -0.54748  -0.52264  -0.50841  -0.50108
 Alpha  occ. eigenvalues --   -0.49068  -0.47948  -0.41224  -0.35409
 Alpha virt. eigenvalues --    0.01016   0.02594   0.04037   0.04852   0.05314
 Alpha virt. eigenvalues --    0.07575   0.07902   0.08754   0.09193   0.09874
 Alpha virt. eigenvalues --    0.10356   0.11116   0.12219   0.12432   0.13572

 Mulliken charges:
               1
     1  S    0.147133
     2  S    0.350420
     3  N   -0.003024
     4  N   -0.115082
     5  C    0.897609
     6  C    1.052998
     7  C   -0.261984
     8  C   -1.269520
     9  C   -0.988200
    10  H    0.077271
    11  H    0.112379
 Sum of Mulliken charges =  -0.00000

 Dipole moment (field-independent basis, Debye):
    X=             -4.5736    Y=             -1.7426    Z=              0.7850  Tot=              4.9569

 Test job not archived.
 1\1\GINC-SE179\SP\RHF\Aug-CC-pVDZ\C5H2N2S2\OHZDE\05-Apr-2025\0\\#t hf
 aug-cc-pvdz iop(5/13=1,5/36=2,99/5=2) pseudo=read geom=check guess=(re
 ad,tcheck) scf=(maxcycle=1)\\title\\0,1\S,0,-1.22264,1.296701,0.16914\
 S,0,-2.161882,-0.546051,-0.275063\N,0,2.326633,2.291015,-0.116594\N,0,
 2.731829,-2.027823,-0.080487\C,0,0.39512,0.601936,0.030052\C,0,0.51117
 5,-0.743969,0.062\C,0,-0.745707,-1.549818,0.31003\C,0,1.476896,1.51527
 4,-0.054572\C,0,1.752199,-1.421097,-0.02014\H,0,-0.75998,-2.475318,-0.
 261951\H,0,-0.835001,-1.791373,1.372058\\Version=ES64L-G16RevC.01\Stat

 Normal termination of Gaussian 16 at Sat Apr  5 22:41:34 2025.
