 Gaussian 16, Revision C.01,

 ----------------------------------------------------------------------
 #t hf aug-cc-pvdz symm=none int=(grid=ultrafine) guess=(read,tcheck) s
 table=(opt,rrhf)
 ----------------------------------------------------------------------
 -----
 title
 -----
 Symbolic Z-matrix:
 Charge =  0 Multiplicity = 1

 SCF Done:  E(RHF) =  -910.982361930     A.U. after   15 cycles
 Normal termination of Gaussian 16 at Sat Apr  5 22:40:27 2025.
 Gaussian 16:  ES64L-G16RevC.01  3-Jul-2019

 ----------------------------------------------------------------------
 #t hf aug-cc-pvdz iop(5/13=1,5/36=2,99/5=2) pseudo=read geom=check gue
 ss=(read,tcheck) scf=(maxcycle=1)
 ----------------------------------------------------------------------
 -----
 title
 -----
 Structure from the checkpoint file:  "3H-1-2-dithiolene.chk"
 Charge =  0 Multiplicity = 1

                         Standard orientation:
 ---------------------------------------------------------------------
 Center     Atomic      Atomic             Coordinates (Angstroms)
 Number     Number       Type             X           Y           Z
 ---------------------------------------------------------------------
      1         16           0        1.327006   -0.375637    0.105858
      2         16           0       -0.627900   -1.176631   -0.128471
      3          6           0        0.766846    1.280061   -0.119461
      4          6           0       -1.496295    0.415715    0.204467
      5          6           0       -0.535996    1.534602   -0.083959
      6          1           0        1.537200    2.027810   -0.243628
      7          1           0       -1.848317    0.454828    1.239330
      8          1           0       -2.365633    0.428754   -0.452364
      9          1           0       -0.916283    2.542633   -0.187804
 ---------------------------------------------------------------------

 SCF Done:  E(RHF) =  -911.057667960     A.U. after    2 cycles

 The electronic state is 1-A.
 Alpha  occ. eigenvalues --  -93.56465 -93.55832 -11.29255 -11.28797 -11.26423
 Alpha  occ. eigenvalues --   -8.86148  -8.85452  -6.20226  -6.20068  -6.19624
 Alpha  occ. eigenvalues --   -6.19532  -6.19345  -6.18921  -1.13565  -0.99642
 Alpha  occ. eigenvalues --   -0.98089  -0.80668  -0.75619  -0.68144  -0.62499
 Alpha  occ. eigenvalues --   -0.57596  -0.51375  -0.48480  -0.46667  -0.44750
 Alpha  occ. eigenvalues --   -0.38340  -0.30460
 Alpha virt. eigenvalues --    0.03230   0.04350   0.05350   0.05635   0.07146
 Alpha virt. eigenvalues --    0.07847   0.10348   0.11763   0.12660   0.13159
 Alpha virt. eigenvalues --    0.13398   0.14288   0.14581   0.15384   0.16454

 Mulliken charges:
               1
     1  S    0.179792
     2  S    0.305760
     3  C   -0.066596
     4  C   -0.268063
     5  C    0.488907
     6  H   -0.405861
     7  H    0.031988
     8  H    0.051061
     9  H   -0.316988
 Sum of Mulliken charges =   0.00000

 Dipole moment (field-independent basis, Debye):
    X=             -1.2153    Y=              2.3344    Z=              0.1942  Tot=              2.6390

 Test job not archived.
 1\1\GINC-SE185\SP\RHF\Aug-CC-pVDZ\C3H4S2\OHZDE\05-Apr-2025\0\\#t hf au
 g-cc-pvdz iop(5/13=1,5/36=2,99/5=2) pseudo=read geom=check guess=(read
 ,tcheck) scf=(maxcycle=1)\\title\\0,1\S,0,1.327006,-0.375637,0.105858\
 S,0,-0.6279,-1.176631,-0.128471\C,0,0.766846,1.280061,-0.119461\C,0,-1
 .496295,0.415715,0.204467\C,0,-0.535996,1.534602,-0.083959\H,0,1.5372,
 2.02781,-0.243628\H,0,-1.848317,0.454829,1.23933\H,0,-2.365633,0.42875
 5,-0.452364\H,0,-0.916283,2.542633,-0.187804\\Version=ES64L-G16RevC.01
 \State=1-A\HF=-911.057668\RMSD=9.621e-03\Dipole=-0.4781341,0.9184256,0

 Normal termination of Gaussian 16 at Sat Apr  5 22:40:54 2025.
