 Gaussian 16, Revision C.01,

 ----------------------------------------------------------------------
 #t hf aug-cc-pvdz symm=none int=(grid=ultrafine) guess=(read,tcheck) s
 table=(opt,rrhf)
 ----------------------------------------------------------------------
 -----
 title
 -----
 Symbolic Z-matrix:
 Charge =  0 Multiplicity = 1

 SCF Done:  E(RHF) =  -1098.62158341     A.U. after   16 cycles
 Normal termination of Gaussian 16 at Sat Apr  5 22:40:43 2025.
 Gaussian 16:  ES64L-G16RevC.01  3-Jul-2019

 ----------------------------------------------------------------------
 #t hf aug-cc-pvdz iop(5/13=1,5/36=2,99/5=2) pseudo=read geom=check gue
 ss=(read,tcheck) scf=(maxcycle=1)
 ----------------------------------------------------------------------
 -----
 title
 -----
 Structure from the checkpoint file:  "3H-1-2-dithiole-3-carboxylic_acid.chk"
 Charge =  0 Multiplicity = 1

                         Standard orientation:
 ---------------------------------------------------------------------
 Center     Atomic      Atomic             Coordinates (Angstroms)
 Number     Number       Type             X           Y           Z
 ---------------------------------------------------------------------
      1         16           0       -0.671855   -1.153928    0.660705
      2         16           0       -2.102626   -0.073495   -0.487708
      3          8           0        2.806302    0.706910    0.014558
      4          8           0        1.840814   -1.023297   -0.999049
      5          6           0        0.592505    0.197419    0.742618
      6          6           0        1.861261   -0.020299   -0.114890
      7          6           0       -0.080754    1.484200    0.342170
      8          6           0       -1.272181    1.455845   -0.241430
      9          1           0        0.997209   -1.505143   -0.912903
     10          1           0        0.933145    0.237738    1.777666
     11          1           0        0.468066    2.404340    0.484590
     12          1           0       -1.788640    2.329941   -0.612187
 ---------------------------------------------------------------------

 SCF Done:  E(RHF) =  -1098.75406082     A.U. after    2 cycles

 The electronic state is 1-A.
 Alpha  occ. eigenvalues --  -93.59325 -93.59292 -20.63499 -20.57214 -11.41559
 Alpha  occ. eigenvalues --  -11.33262 -11.31149 -11.28650  -8.88951  -8.88932
 Alpha  occ. eigenvalues --   -6.23057  -6.23012  -6.22869  -6.22828  -6.22489
 Alpha  occ. eigenvalues --   -6.22419  -1.43468  -1.34536  -1.16502  -1.03993
 Alpha  occ. eigenvalues --   -1.01040  -0.87935  -0.83687  -0.79105  -0.74208
 Alpha  occ. eigenvalues --   -0.70681  -0.68555  -0.66399  -0.60525  -0.59966
 Alpha  occ. eigenvalues --   -0.54163  -0.53431  -0.50838  -0.49641  -0.47578
 Alpha  occ. eigenvalues --   -0.47261  -0.41738  -0.33356
 Alpha virt. eigenvalues --    0.03036   0.03735   0.05035   0.05481   0.05883
 Alpha virt. eigenvalues --    0.06952   0.09153   0.09354   0.10174   0.10858
 Alpha virt. eigenvalues --    0.11941   0.12152   0.13728   0.13921   0.14609

 Mulliken charges:
               1
     1  S    0.200451
     2  S    0.233849
     3  O   -0.468565
     4  O   -0.481735
     5  C   -0.214675
     6  C    0.506973
     7  C    0.557377
     8  C    0.046728
     9  H    0.254654
    10  H    0.118753
    11  H   -0.340070
    12  H   -0.413739
 Sum of Mulliken charges =  -0.00000

 Dipole moment (field-independent basis, Debye):
    X=             -3.5569    Y=              0.3826    Z=              0.9590  Tot=              3.7037

 Test job not archived.
 1\1\GINC-SE151\SP\RHF\Aug-CC-pVDZ\C4H4O2S2\OHZDE\05-Apr-2025\0\\#t hf
 aug-cc-pvdz iop(5/13=1,5/36=2,99/5=2) pseudo=read geom=check guess=(re
 ad,tcheck) scf=(maxcycle=1)\\title\\0,1\S,0,-0.671855,-1.153928,0.6607
 05\S,0,-2.102626,-0.073495,-0.487708\O,0,2.806302,0.70691,0.014558\O,0
 ,1.840814,-1.023297,-0.999049\C,0,0.592505,0.197419,0.742618\C,0,1.861
 261,-0.020299,-0.11489\C,0,-0.080754,1.4842,0.34217\C,0,-1.272181,1.45
 5845,-0.24143\H,0,0.997209,-1.505143,-0.912903\H,0,0.933145,0.237738,1
 .777666\H,0,0.468066,2.40434,0.48459\H,0,-1.78864,2.329941,-0.612187\\

 Normal termination of Gaussian 16 at Sat Apr  5 22:40:57 2025.
