 Gaussian 16, Revision C.01,

 ----------------------------------------------------------------------
 #t hf aug-cc-pvdz symm=none int=(grid=ultrafine) guess=(read,tcheck) s
 table=(opt,rrhf)
 ----------------------------------------------------------------------
 -----
 title
 -----
 Symbolic Z-matrix:
 Charge =  0 Multiplicity = 1

 SCF Done:  E(RHF) =  -982.031269933     A.U. after   15 cycles
 Normal termination of Gaussian 16 at Sat Apr  5 22:40:30 2025.
 Gaussian 16:  ES64L-G16RevC.01  3-Jul-2019

 ----------------------------------------------------------------------
 #t hf aug-cc-pvdz iop(5/13=1,5/36=2,99/5=2) pseudo=read geom=check gue
 ss=(read,tcheck) scf=(maxcycle=1)
 ----------------------------------------------------------------------
 -----
 title
 -----
 Structure from the checkpoint file:  "3H-1-2-4-dithiazol-3-amine.chk"
 Charge =  0 Multiplicity = 1

                         Standard orientation:
 ---------------------------------------------------------------------
 Center     Atomic      Atomic             Coordinates (Angstroms)
 Number     Number       Type             X           Y           Z
 ---------------------------------------------------------------------
      1         16           0       -0.028479   -1.298792    0.113208
      2         16           0       -1.706091   -0.067083   -0.155054
      3          7           0        0.494117    1.411130    0.230341
      4          7           0        2.316910   -0.066084   -0.430930
      5          6           0        1.182581    0.157135    0.412230
      6          6           0       -0.739922    1.410171   -0.021635
      7          1           0        2.101161    0.113195   -1.403505
      8          1           0        3.105494    0.503334   -0.149239
      9          1           0        1.509307    0.087909    1.449130
     10          1           0       -1.295978    2.330405   -0.166289
 ---------------------------------------------------------------------

 SCF Done:  E(RHF) =  -982.124439423     A.U. after    2 cycles

 The electronic state is 1-A.
 Alpha  occ. eigenvalues --  -93.57640 -93.55915 -15.65073 -15.63203 -11.36002
 Alpha  occ. eigenvalues --  -11.34812  -8.87408  -8.85578  -6.21478  -6.21310
 Alpha  occ. eigenvalues --   -6.20893  -6.19664  -6.19439  -6.19038  -1.26109
 Alpha  occ. eigenvalues --   -1.16728  -1.03576  -0.97208  -0.82962  -0.79005
 Alpha  occ. eigenvalues --   -0.70392  -0.66023  -0.64352  -0.60604  -0.50661
 Alpha  occ. eigenvalues --   -0.48520  -0.47506  -0.44323  -0.41990  -0.39896
 Alpha  occ. eigenvalues --   -0.32234
 Alpha virt. eigenvalues --    0.03479   0.03833   0.04546   0.06536   0.07525
 Alpha virt. eigenvalues --    0.08220   0.09724   0.10176   0.10965   0.12920
 Alpha virt. eigenvalues --    0.13590   0.14000   0.14134   0.14587   0.15799

 Mulliken charges:
               1
     1  S    0.159828
     2  S    0.151072
     3  N   -0.327364
     4  N   -0.355654
     5  C    0.766020
     6  C    0.047242
     7  H    0.016998
     8  H    0.014437
     9  H   -0.220459
    10  H   -0.252120
 Sum of Mulliken charges =  -0.00000

 Dipole moment (field-independent basis, Debye):
    X=              0.4697    Y=              1.8384    Z=             -0.1656  Tot=              1.9047

 Test job not archived.
 1\1\GINC-SE013\SP\RHF\Aug-CC-pVDZ\C2H4N2S2\OHZDE\05-Apr-2025\0\\#t hf
 aug-cc-pvdz iop(5/13=1,5/36=2,99/5=2) pseudo=read geom=check guess=(re
 ad,tcheck) scf=(maxcycle=1)\\title\\0,1\S,0,-0.028479,-1.298792,0.1132
 08\S,0,-1.706091,-0.067083,-0.155054\N,0,0.494117,1.41113,0.230341\N,0
 ,2.31691,-0.066084,-0.43093\C,0,1.182581,0.157135,0.41223\C,0,-0.73992
 2,1.410171,-0.021635\H,0,2.101161,0.113195,-1.403505\H,0,3.105494,0.50
 3334,-0.149239\H,0,1.509307,0.087909,1.44913\H,0,-1.295978,2.330405,-0
 .166289\\Version=ES64L-G16RevC.01\State=1-A\HF=-982.1244394\RMSD=5.381

 Normal termination of Gaussian 16 at Sat Apr  5 22:40:55 2025.
