 Gaussian 16, Revision C.01,

 ----------------------------------------------------------------------
 #t hf aug-cc-pvdz symm=none int=(grid=ultrafine) guess=(read,tcheck) s
 table=(opt,rrhf)
 ----------------------------------------------------------------------
 -----
 title
 -----
 Symbolic Z-matrix:
 Charge =  0 Multiplicity = 1

 SCF Done:  E(RHF) =  -926.988103083     A.U. after   16 cycles
 Normal termination of Gaussian 16 at Sat Apr  5 22:40:25 2025.
 Gaussian 16:  ES64L-G16RevC.01  3-Jul-2019

 ----------------------------------------------------------------------
 #t hf aug-cc-pvdz iop(5/13=1,5/36=2,99/5=2) pseudo=read geom=check gue
 ss=(read,tcheck) scf=(maxcycle=1)
 ----------------------------------------------------------------------
 -----
 title
 -----
 Structure from the checkpoint file:  "3H-1-2-4-dithiazole.chk"
 Charge =  0 Multiplicity = 1

                         Standard orientation:
 ---------------------------------------------------------------------
 Center     Atomic      Atomic             Coordinates (Angstroms)
 Number     Number       Type             X           Y           Z
 ---------------------------------------------------------------------
      1         16           0        1.295601   -0.412021    0.082747
      2         16           0       -0.664807   -1.162625   -0.093069
      3          7           0       -0.479286    1.584300   -0.083568
      4          6           0        0.738132    1.267660   -0.100668
      5          6           0       -1.435057    0.543008    0.155054
      6          1           0        1.524839    2.007288   -0.203172
      7          1           0       -2.263983    0.603209   -0.546612
      8          1           0       -1.817013    0.629727    1.173604
 ---------------------------------------------------------------------

 SCF Done:  E(RHF) =  -927.066012480     A.U. after    2 cycles

 The electronic state is 1-A.
 Alpha  occ. eigenvalues --  -93.57856 -93.56465 -15.65525 -11.34611 -11.32526
 Alpha  occ. eigenvalues --   -8.87595  -8.86121  -6.21658  -6.21494  -6.21074
 Alpha  occ. eigenvalues --   -6.20196  -6.19994  -6.19579  -1.25196  -1.03660
 Alpha  occ. eigenvalues --   -1.01627  -0.83481  -0.78717  -0.65714  -0.64653
 Alpha  occ. eigenvalues --   -0.62341  -0.50018  -0.48652  -0.47573  -0.42910
 Alpha  occ. eigenvalues --   -0.41356  -0.32375
 Alpha virt. eigenvalues --    0.03657   0.04055   0.05385   0.06972   0.07136
 Alpha virt. eigenvalues --    0.09621   0.09937   0.10604   0.12398   0.13334
 Alpha virt. eigenvalues --    0.13403   0.14408   0.15069   0.16193   0.16337

 Mulliken charges:
               1
     1  S    0.149110
     2  S    0.124498
     3  N   -0.323917
     4  C    0.158940
     5  C    0.359500
     6  H   -0.228772
     7  H   -0.128708
     8  H   -0.110649
 Sum of Mulliken charges =  -0.00000

 Dipole moment (field-independent basis, Debye):
    X=             -0.1520    Y=              0.7420    Z=              0.2993  Tot=              0.8144

 Test job not archived.
 1\1\GINC-SE014\SP\RHF\Aug-CC-pVDZ\C2H3N1S2\OHZDE\05-Apr-2025\0\\#t hf
 aug-cc-pvdz iop(5/13=1,5/36=2,99/5=2) pseudo=read geom=check guess=(re
 ad,tcheck) scf=(maxcycle=1)\\title\\0,1\S,0,1.295602,-0.412017,0.08274
 7\S,0,-0.664803,-1.162627,-0.093069\N,0,-0.479291,1.584298,-0.083568\C
 ,0,0.738128,1.267662,-0.100668\C,0,-1.435059,0.543003,0.155054\H,0,1.5
 24832,2.007293,-0.203172\H,0,-2.263985,0.603202,-0.546612\H,0,-1.81701
 5,0.629721,1.173604\\Version=ES64L-G16RevC.01\State=1-A\HF=-927.066012
 5\RMSD=5.170e-03\Dipole=-0.0597869,0.291913,0.1177611\Quadrupole=3.907

 Normal termination of Gaussian 16 at Sat Apr  5 22:40:54 2025.
