 Gaussian 16, Revision C.01,

 ----------------------------------------------------------------------
 #t hf aug-cc-pvdz symm=none int=(grid=ultrafine) guess=(read,tcheck) s
 table=(opt,rrhf)
 ----------------------------------------------------------------------
 -----
 title
 -----
 Symbolic Z-matrix:
 Charge =  0 Multiplicity = 1

 SCF Done:  E(RHF) =  -147.856744155     A.U. after   11 cycles
 Normal termination of Gaussian 16 at Sat Apr  5 22:40:21 2025.
 Gaussian 16:  ES64L-G16RevC.01  3-Jul-2019

 ----------------------------------------------------------------------
 #t hf aug-cc-pvdz iop(5/13=1,5/36=2,99/5=2) pseudo=read geom=check gue
 ss=(read,tcheck) scf=(maxcycle=1)
 ----------------------------------------------------------------------
 -----
 title
 -----
 Structure from the checkpoint file:  "3H-diazirine.chk"
 Charge =  0 Multiplicity = 1

                         Standard orientation:
 ---------------------------------------------------------------------
 Center     Atomic      Atomic             Coordinates (Angstroms)
 Number     Number       Type             X           Y           Z
 ---------------------------------------------------------------------
      1          6           0        0.000000    0.000000    0.808471
      2          7           0        0.000000    0.607849   -0.539787
      3          7           0       -0.000000   -0.607849   -0.539787
      4          1           0        0.931674   -0.000000    1.353097
      5          1           0       -0.931674    0.000000    1.353097
 ---------------------------------------------------------------------

 SCF Done:  E(RHF) =  -147.894666840     A.U. after    2 cycles

 The electronic state is 1-A1.
 Alpha  occ. eigenvalues --  -15.73673 -15.73524 -11.31592  -1.43614  -0.92057
 Alpha  occ. eigenvalues --   -0.82156  -0.68869  -0.66199  -0.57651  -0.48872
 Alpha  occ. eigenvalues --   -0.40408
 Alpha virt. eigenvalues --    0.03458   0.04699   0.07377   0.08633   0.10200
 Alpha virt. eigenvalues --    0.15217   0.15345   0.16060   0.16711   0.19312
 Alpha virt. eigenvalues --    0.20599   0.23742   0.24217   0.25319   0.30154

 Mulliken charges:
               1
     1  C    0.933769
     2  N   -0.302099
     3  N   -0.302099
     4  H   -0.164785
     5  H   -0.164785
 Sum of Mulliken charges =  -0.00000

 Dipole moment (field-independent basis, Debye):
    X=             -0.0000    Y=             -0.0000    Z=              1.8598  Tot=              1.8598

 Test job not archived.
 1\1\GINC-SE190\SP\RHF\Aug-CC-pVDZ\C1H2N2\OHZDE\05-Apr-2025\0\\#t hf au
 g-cc-pvdz iop(5/13=1,5/36=2,99/5=2) pseudo=read geom=check guess=(read
 ,tcheck) scf=(maxcycle=1)\\title\\0,1\C,0,0.,0.,0.808471\N,0,0.,0.6078
 49,-0.539787\N,0,0.,-0.607849,-0.539787\H,0,0.931674,0.,1.353097\H,0,-
 0.931674,0.,1.353097\\Version=ES64L-G16RevC.01\State=1-A1\HF=-147.8946
 668\RMSD=2.489e-03\Dipole=0.,0.,0.7317107\Quadrupole=1.2939371,-1.6138
 219,0.3198848,0.,0.,0.\PG=C02V [C2(C1),SGV(N2),SGV'(H2)]\\@

 Normal termination of Gaussian 16 at Sat Apr  5 22:40:52 2025.
