 Gaussian 16, Revision C.01,

 ----------------------------------------------------------------------
 #t hf aug-cc-pvdz symm=none int=(grid=ultrafine) guess=(read,tcheck) s
 table=(opt,rrhf)
 ----------------------------------------------------------------------
 -----
 title
 -----
 Symbolic Z-matrix:
 Charge =  0 Multiplicity = 1

 SCF Done:  E(RHF) =  -926.957544244     A.U. after   16 cycles
 Normal termination of Gaussian 16 at Sat Apr  5 22:41:06 2025.
 Gaussian 16:  ES64L-G16RevC.01  3-Jul-2019

 ----------------------------------------------------------------------
 #t hf aug-cc-pvdz iop(5/13=1,5/36=2,99/5=2) pseudo=read geom=check gue
 ss=(read,tcheck) scf=(maxcycle=1)
 ----------------------------------------------------------------------
 -----
 title
 -----
 Structure from the checkpoint file:  "3H-dithiazole.chk"
 Charge =  0 Multiplicity = 1

                         Standard orientation:
 ---------------------------------------------------------------------
 Center     Atomic      Atomic             Coordinates (Angstroms)
 Number     Number       Type             X           Y           Z
 ---------------------------------------------------------------------
      1         16           0       -0.665332   -1.105338   -0.182687
      2         16           0        1.328504   -0.380759    0.146421
      3          7           0       -1.448430    0.367388    0.222713
      4          6           0        0.727120    1.257200   -0.172811
      5          6           0       -0.585499    1.466417   -0.095672
      6          1           0       -1.727962    0.395578    1.201544
      7          1           0        1.454704    2.032023   -0.360302
      8          1           0       -1.048219    2.436541   -0.209095
 ---------------------------------------------------------------------

 SCF Done:  E(RHF) =  -927.039600272     A.U. after    2 cycles

 The electronic state is 1-A.
 Alpha  occ. eigenvalues --  -93.59221 -93.56795 -15.67400 -11.29873 -11.28773
 Alpha  occ. eigenvalues --   -8.88489  -8.86447  -6.22585  -6.22362  -6.21894
 Alpha  occ. eigenvalues --   -6.20492  -6.20377  -6.19927  -1.23142  -1.05622
 Alpha  occ. eigenvalues --   -0.99494  -0.83596  -0.77963  -0.70067  -0.65871
 Alpha  occ. eigenvalues --   -0.56887  -0.51349  -0.51248  -0.47217  -0.41242
 Alpha  occ. eigenvalues --   -0.38788  -0.30815
 Alpha virt. eigenvalues --    0.03306   0.04384   0.05118   0.06565   0.07563
 Alpha virt. eigenvalues --    0.09549   0.10229   0.12179   0.12694   0.13433
 Alpha virt. eigenvalues --    0.13594   0.14736   0.15596   0.16255   0.16406

 Mulliken charges:
               1
     1  S    0.390793
     2  S    0.046537
     3  N   -0.671599
     4  C    0.123514
     5  C    0.682831
     6  H    0.055901
     7  H   -0.401114
     8  H   -0.226863
 Sum of Mulliken charges =  -0.00000

 Dipole moment (field-independent basis, Debye):
    X=             -0.2859    Y=              2.0257    Z=              0.9812  Tot=              2.2689

 Test job not archived.
 1\1\GINC-SE194\SP\RHF\Aug-CC-pVDZ\C2H3N1S2\OHZDE\05-Apr-2025\0\\#t hf
 aug-cc-pvdz iop(5/13=1,5/36=2,99/5=2) pseudo=read geom=check guess=(re
 ad,tcheck) scf=(maxcycle=1)\\title\\0,1\S,0,-0.665329,-1.10534,-0.1826
 87\S,0,1.328505,-0.380755,0.146421\N,0,-1.448431,0.367384,0.222713\C,0
 ,0.727116,1.257202,-0.172811\C,0,-0.585503,1.466416,-0.095672\H,0,-1.7
 27963,0.395573,1.201544\H,0,1.454698,2.032027,-0.360302\H,0,-1.048226,
 2.436538,-0.209095\\Version=ES64L-G16RevC.01\State=1-A\HF=-927.0396003
 \RMSD=7.514e-03\Dipole=-0.11248,0.796975,0.3860379\Quadrupole=-0.18140

 Normal termination of Gaussian 16 at Sat Apr  5 22:41:30 2025.
