 Gaussian 16, Revision C.01,

 ----------------------------------------------------------------------
 #t hf aug-cc-pvdz symm=none int=(grid=ultrafine) guess=(read,tcheck) s
 table=(opt,rrhf)
 ----------------------------------------------------------------------
 -----
 title
 -----
 Symbolic Z-matrix:
 Charge =  0 Multiplicity = 1

 SCF Done:  E(RHF) =  -461.751738209     A.U. after   15 cycles
 Normal termination of Gaussian 16 at Sat Apr  5 22:44:39 2025.
 Gaussian 16:  ES64L-G16RevC.01  3-Jul-2019

 ----------------------------------------------------------------------
 #t hf aug-cc-pvdz iop(5/13=1,5/36=2,99/5=2) pseudo=read geom=check gue
 ss=(read,tcheck) scf=(maxcycle=1)
 ----------------------------------------------------------------------
 -----
 title
 -----
 Structure from the checkpoint file:  "4-2-methyl-2-propanylphenol.chk"
 Charge =  0 Multiplicity = 1

                         Standard orientation:
 ---------------------------------------------------------------------
 Center     Atomic      Atomic             Coordinates (Angstroms)
 Number     Number       Type             X           Y           Z
 ---------------------------------------------------------------------
      1          6           0       -1.115443   -0.498903    0.000000
      2          6           0        1.250967   -0.260855    0.000000
      3          6           0       -0.986607   -1.880476    0.000000
      4          6           0        1.399896   -1.643053    0.000000
      5          6           0       -0.004568    0.350470    0.000000
      6          6           0        0.278520   -2.460677    0.000000
      7          6           0       -0.986607    2.295203    1.257771
      8          6           0       -0.986607    2.295203   -1.257771
      9          6           0        1.138805    2.629595    0.000000
     10          6           0       -0.198372    1.873754    0.000000
     11          8           0        0.472057   -3.816729    0.000000
     12          1           0       -2.113690   -0.082584    0.000000
     13          1           0        2.147758    0.340453    0.000000
     14          1           0       -1.871422   -2.506840    0.000000
     15          1           0        2.382431   -2.094241    0.000000
     16          1           0       -1.134610    3.376937    1.269176
     17          1           0       -1.969239    1.825058    1.295308
     18          1           0       -0.449010    2.016368    2.165116
     19          1           0       -1.969239    1.825058   -1.295308
     20          1           0       -1.134610    3.376937   -1.269176
     21          1           0       -0.449010    2.016368   -2.165116
     22          1           0        0.952247    3.704407    0.000000
     23          1           0        1.735409    2.400064    0.883926
     24          1           0        1.735409    2.400064   -0.883926
     25          1           0       -0.378786   -4.265777    0.000000
 ---------------------------------------------------------------------

 SCF Done:  E(RHF) =  -461.892201972     A.U. after    2 cycles

 The electronic state is 1-A'.
 Alpha  occ. eigenvalues --  -20.60141 -11.30719 -11.25086 -11.24425 -11.24159
 Alpha  occ. eigenvalues --  -11.24074 -11.23776 -11.23336 -11.22219 -11.22166
 Alpha  occ. eigenvalues --  -11.22159  -1.36281  -1.14673  -1.08702  -1.01334
 Alpha  occ. eigenvalues --   -0.98799  -0.93125  -0.92856  -0.85023  -0.83256
 Alpha  occ. eigenvalues --   -0.75734  -0.74300  -0.67991  -0.64979  -0.62454
 Alpha  occ. eigenvalues --   -0.60611  -0.60047  -0.59975  -0.59420  -0.58184
 Alpha  occ. eigenvalues --   -0.55678  -0.54886  -0.53117  -0.51721  -0.50225
 Alpha  occ. eigenvalues --   -0.48857  -0.46718  -0.46219  -0.45656  -0.34316
 Alpha  occ. eigenvalues --   -0.31054
 Alpha virt. eigenvalues --    0.03100   0.03701   0.04198   0.04965   0.05154
 Alpha virt. eigenvalues --    0.05726   0.06518   0.06980   0.07264   0.07755
 Alpha virt. eigenvalues --    0.07915   0.09176   0.10032   0.10449   0.10826

 Mulliken charges:
               1
     1  C    0.362572
     2  C    1.020891
     3  C    0.423735
     4  C    0.342072
     5  C    1.159623
     6  C    0.459538
     7  C    1.037003
     8  C    1.037003
     9  C    1.272089
    10  C   -3.533047
    11  O   -0.594059
    12  H   -0.725319
    13  H   -0.782499
    14  H   -0.564709
    15  H   -0.489960
    16  H   -0.064281
    17  H   -0.116298
    18  H   -0.048782
    19  H   -0.116298
    20  H   -0.064281
    21  H   -0.048782
    22  H   -0.097286
    23  H    0.001593
    24  H    0.001593
    25  H    0.127890
 Sum of Mulliken charges =  -0.00000

 Dipole moment (field-independent basis, Debye):
    X=             -1.4801    Y=              0.6149    Z=             -0.0000  Tot=              1.6028

 Test job not archived.
 1\1\GINC-SE085\SP\RHF\Aug-CC-pVDZ\C10H14O1\OHZDE\05-Apr-2025\0\\#t hf
 aug-cc-pvdz iop(5/13=1,5/36=2,99/5=2) pseudo=read geom=check guess=(re
 ad,tcheck) scf=(maxcycle=1)\\title\\0,1\C,0,-1.115443,-0.498903,0.\C,0
 ,1.250967,-0.260855,0.\C,0,-0.986607,-1.880476,0.\C,0,1.399896,-1.6430
 53,0.\C,0,-0.004568,0.35047,0.\C,0,0.27852,-2.460677,0.\C,0,-0.986607,
 2.295203,1.257771\C,0,-0.986607,2.295203,-1.257771\C,0,1.138805,2.6295
 95,0.\C,0,-0.198372,1.873754,0.\O,0,0.472057,-3.816729,0.\H,0,-2.11369
 ,-0.082584,0.\H,0,2.147758,0.340453,0.\H,0,-1.871422,-2.50684,0.\H,0,2

 Normal termination of Gaussian 16 at Sat Apr  5 22:45:06 2025.
