 Gaussian 16, Revision C.01,

 ----------------------------------------------------------------------
 #t hf aug-cc-pvdz symm=none int=(grid=ultrafine) guess=(read,tcheck) s
 table=(opt,rrhf)
 ----------------------------------------------------------------------
 -----
 title
 -----
 Symbolic Z-matrix:
 Charge =  0 Multiplicity = 1

 SCF Done:  E(RHF) =  -501.237978761     A.U. after   16 cycles
 Normal termination of Gaussian 16 at Sat Apr  5 22:41:41 2025.
 Gaussian 16:  ES64L-G16RevC.01  3-Jul-2019

 ----------------------------------------------------------------------
 #t hf aug-cc-pvdz iop(5/13=1,5/36=2,99/5=2) pseudo=read geom=check gue
 ss=(read,tcheck) scf=(maxcycle=1)
 ----------------------------------------------------------------------
 -----
 title
 -----
 Structure from the checkpoint file:  "4-4-difluoro-2-butynoic_acid.chk"
 Charge =  0 Multiplicity = 1

                         Standard orientation:
 ---------------------------------------------------------------------
 Center     Atomic      Atomic             Coordinates (Angstroms)
 Number     Number       Type             X           Y           Z
 ---------------------------------------------------------------------
      1          9           0        2.506325    1.085625   -0.291206
      2          9           0        2.521596   -0.878303    0.707492
      3          8           0       -2.800863   -1.049313   -0.310556
      4          8           0       -2.668371    1.055585    0.407816
      5          6           0        1.976955   -0.173421   -0.324959
      6          6           0        0.523022   -0.117121   -0.183650
      7          6           0       -0.674290   -0.101787   -0.111486
      8          6           0       -2.125829   -0.103987   -0.024120
      9          1           0       -1.980086    1.705683    0.601006
     10          1           0        2.283524   -0.643865   -1.260372
 ---------------------------------------------------------------------

 SCF Done:  E(RHF) =  -501.407123520     A.U. after    2 cycles

 The electronic state is 1-A.
 Alpha  occ. eigenvalues --  -26.16992 -26.16950 -20.65700 -20.59806 -11.48419
 Alpha  occ. eigenvalues --  -11.45269 -11.31708 -11.31176  -1.73314  -1.68767
 Alpha  occ. eigenvalues --   -1.45537  -1.36761  -1.12608  -1.04460  -0.93034
 Alpha  occ. eigenvalues --   -0.86897  -0.85402  -0.84543  -0.84120  -0.76190
 Alpha  occ. eigenvalues --   -0.72689  -0.72251  -0.71097  -0.68031  -0.64975
 Alpha  occ. eigenvalues --   -0.62746  -0.53655  -0.52485  -0.46951  -0.46514
 Alpha virt. eigenvalues --    0.02743   0.03561   0.05302   0.07231   0.08451
 Alpha virt. eigenvalues --    0.08646   0.09362   0.10263   0.11733   0.12662
 Alpha virt. eigenvalues --    0.13084   0.13993   0.15212   0.16101   0.18728

 Mulliken charges:
               1
     1  F   -0.331127
     2  F   -0.328185
     3  O   -0.412142
     4  O   -0.472916
     5  C    0.739210
     6  C   -0.033252
     7  C    0.128700
     8  C    0.510716
     9  H    0.212427
    10  H   -0.013431
 Sum of Mulliken charges =  -0.00000

 Dipole moment (field-independent basis, Debye):
    X=              2.2210    Y=              1.8074    Z=             -0.9008  Tot=              3.0018

 Test job not archived.
 1\1\GINC-SE106\SP\RHF\Aug-CC-pVDZ\C4H2F2O2\OHZDE\05-Apr-2025\0\\#t hf
 aug-cc-pvdz iop(5/13=1,5/36=2,99/5=2) pseudo=read geom=check guess=(re
 ad,tcheck) scf=(maxcycle=1)\\title\\0,1\F,0,2.506325,1.085625,-0.29120
 6\F,0,2.521596,-0.878303,0.707492\O,0,-2.800863,-1.049313,-0.310556\O,
 0,-2.668371,1.055585,0.407816\C,0,1.976955,-0.173421,-0.324959\C,0,0.5
 23022,-0.117121,-0.18365\C,0,-0.67429,-0.101787,-0.111486\C,0,-2.12582
 9,-0.103987,-0.02412\H,0,-1.980086,1.705683,0.601006\H,0,2.283524,-0.6
 43865,-1.260372\\Version=ES64L-G16RevC.01\State=1-A\HF=-501.4071235\RM

 Normal termination of Gaussian 16 at Sat Apr  5 22:41:45 2025.
