 Gaussian 16, Revision C.01,

 ----------------------------------------------------------------------
 #t hf aug-cc-pvdz symm=none int=(grid=ultrafine) guess=(read,tcheck) s
 table=(opt,rrhf)
 ----------------------------------------------------------------------
 -----
 title
 -----
 Symbolic Z-matrix:
 Charge =  0 Multiplicity = 1

 SCF Done:  E(RHF) =  -1042.96167542     A.U. after   15 cycles
 Normal termination of Gaussian 16 at Sat Apr  5 22:41:13 2025.
 Gaussian 16:  ES64L-G16RevC.01  3-Jul-2019

 ----------------------------------------------------------------------
 #t hf aug-cc-pvdz iop(5/13=1,5/36=2,99/5=2) pseudo=read geom=check gue
 ss=(read,tcheck) scf=(maxcycle=1)
 ----------------------------------------------------------------------
 -----
 title
 -----
 Structure from the checkpoint file:  "4-5-dimethyl-1-3-thiazole-23H-thione.chk"
 Charge =  0 Multiplicity = 1

                         Standard orientation:
 ---------------------------------------------------------------------
 Center     Atomic      Atomic             Coordinates (Angstroms)
 Number     Number       Type             X           Y           Z
 ---------------------------------------------------------------------
      1          6           0        2.045287    1.959573    0.000020
      2          6           0        1.079023    0.821006    0.000009
      3          6           0        1.317642   -0.506197    0.000000
      4          6           0        2.614953   -1.243781    0.000000
      5         16           0       -0.210914   -1.391881   -0.000010
      6          6           0       -1.168018    0.085615   -0.000003
      7          7           0       -0.281545    1.116807    0.000007
      8         16           0       -2.819584    0.202116   -0.000008
      9          1           0        1.909294    2.589853   -0.881908
     10          1           0        3.071241    1.602683    0.000021
     11          1           0        1.909289    2.589840    0.881956
     12          1           0        2.709293   -1.883500   -0.879789
     13          1           0        2.709288   -1.883511    0.879781
     14          1           0        3.456495   -0.553476    0.000007
     15          1           0       -0.639431    2.059413    0.000012
 ---------------------------------------------------------------------

 SCF Done:  E(RHF) =  -1043.07595000     A.U. after    2 cycles

 The electronic state is 1-A.
 Alpha  occ. eigenvalues --  -93.57774 -93.48171 -15.70129 -11.38267 -11.31657
 Alpha  occ. eigenvalues --  -11.29032 -11.27249 -11.26493  -8.87620  -8.78082
 Alpha  occ. eigenvalues --   -6.21730  -6.21595  -6.21201  -6.12347  -6.11766
 Alpha  occ. eigenvalues --   -6.11684  -1.29942  -1.10845  -1.07685  -0.99307
 Alpha  occ. eigenvalues --   -0.97502  -0.89403  -0.81133  -0.77831  -0.68322
 Alpha  occ. eigenvalues --   -0.64408  -0.62288  -0.59754  -0.59252  -0.58173
 Alpha  occ. eigenvalues --   -0.57199  -0.56420  -0.50500  -0.48741  -0.41949
 Alpha  occ. eigenvalues --   -0.39878  -0.32390  -0.29157
 Alpha virt. eigenvalues --    0.02316   0.03211   0.04494   0.04789   0.06045
 Alpha virt. eigenvalues --    0.06563   0.07702   0.08336   0.08505   0.09646
 Alpha virt. eigenvalues --    0.10519   0.11899   0.12658   0.12852   0.12887

 Mulliken charges:
               1
     1  C    0.549317
     2  C   -0.020621
     3  C   -0.711031
     4  C    0.415163
     5  S    0.562176
     6  C   -0.407517
     7  N   -0.499301
     8  S   -0.057326
     9  H    0.086246
    10  H   -0.046820
    11  H    0.086245
    12  H    0.088714
    13  H    0.088713
    14  H   -0.052958
    15  H   -0.080999
 Sum of Mulliken charges =  -0.00000

 Dipole moment (field-independent basis, Debye):
    X=              6.5317    Y=              1.9429    Z=              0.0000  Tot=              6.8145

 Test job not archived.
 1\1\GINC-SE199\SP\RHF\Aug-CC-pVDZ\C5H7N1S2\OHZDE\05-Apr-2025\0\\#t hf
 aug-cc-pvdz iop(5/13=1,5/36=2,99/5=2) pseudo=read geom=check guess=(re
 ad,tcheck) scf=(maxcycle=1)\\title\\0,1\C,0,2.045287,1.959573,0.00002\
 C,0,1.079023,0.821006,0.000009\C,0,1.317642,-0.506197,0.\C,0,2.614953,
 -1.243781,0.\S,0,-0.210914,-1.391881,-0.00001\C,0,-1.168018,0.085615,-
 0.000003\N,0,-0.281545,1.116807,0.000007\S,0,-2.819584,0.202116,-0.000
 008\H,0,1.909294,2.589853,-0.881908\H,0,3.071241,1.602683,0.000021\H,0
 ,1.909289,2.58984,0.881956\H,0,2.709293,-1.8835,-0.879789\H,0,2.709288

 Normal termination of Gaussian 16 at Sat Apr  5 22:41:34 2025.
