 Gaussian 16, Revision C.01,

 ----------------------------------------------------------------------
 #t hf aug-cc-pvdz symm=none int=(grid=ultrafine) guess=(read,tcheck) s
 table=(opt,rrhf)
 ----------------------------------------------------------------------
 -----
 title
 -----
 Symbolic Z-matrix:
 Charge =  0 Multiplicity = 1

 SCF Done:  E(RHF) =  -643.307971732     A.U. after   14 cycles
 Normal termination of Gaussian 16 at Sat Apr  5 22:40:31 2025.
 Gaussian 16:  ES64L-G16RevC.01  3-Jul-2019

 ----------------------------------------------------------------------
 #t hf aug-cc-pvdz iop(5/13=1,5/36=2,99/5=2) pseudo=read geom=check gue
 ss=(read,tcheck) scf=(maxcycle=1)
 ----------------------------------------------------------------------
 -----
 title
 -----
 Structure from the checkpoint file:  "4-5-dihydro-1-2-thiazole-1-oxide.chk"
 Charge =  0 Multiplicity = 1

                         Standard orientation:
 ---------------------------------------------------------------------
 Center     Atomic      Atomic             Coordinates (Angstroms)
 Number     Number       Type             X           Y           Z
 ---------------------------------------------------------------------
      1          6           0       -1.612174    0.568511    0.325815
      2          6           0       -1.359474   -0.903273    0.131974
      3          6           0       -0.398399    1.283143   -0.255369
      4          7           0       -0.231575   -1.335367   -0.251174
      5          8           0        1.735392    0.014127    0.833141
      6         16           0        0.935671   -0.012414   -0.425050
      7          1           0       -2.539917    0.860499   -0.169257
      8          1           0       -1.752446    0.764996    1.391742
      9          1           0       -2.153498   -1.621061    0.337364
     10          1           0       -0.586581    1.674298   -1.253682
     11          1           0        0.019871    2.064161    0.373207
 ---------------------------------------------------------------------

 SCF Done:  E(RHF) =  -643.424536089     A.U. after    2 cycles

 The electronic state is 1-A.
 Alpha  occ. eigenvalues --  -93.68374 -20.52961 -15.66363 -11.33146 -11.28853
 Alpha  occ. eigenvalues --  -11.28411  -8.96417  -6.30643  -6.30467  -6.30154
 Alpha  occ. eigenvalues --   -1.32262  -1.22879  -1.06886  -0.98035  -0.84324
 Alpha  occ. eigenvalues --   -0.77891  -0.69525  -0.68078  -0.62718  -0.58717
 Alpha  occ. eigenvalues --   -0.57735  -0.56021  -0.55629  -0.48814  -0.45636
 Alpha  occ. eigenvalues --   -0.41718  -0.38781
 Alpha virt. eigenvalues --    0.02393   0.03774   0.04504   0.05381   0.06717
 Alpha virt. eigenvalues --    0.08450   0.09550   0.09688   0.10957   0.11184
 Alpha virt. eigenvalues --    0.12666   0.13813   0.14311   0.15178   0.15650

 Mulliken charges:
               1
     1  C   -0.041625
     2  C    0.520811
     3  C    0.005231
     4  N   -0.766806
     5  O   -1.007336
     6  S    1.604729
     7  H   -0.021100
     8  H   -0.002712
     9  H   -0.226691
    10  H   -0.013844
    11  H   -0.050658
 Sum of Mulliken charges =  -0.00000

 Dipole moment (field-independent basis, Debye):
    X=             -5.4811    Y=              2.3354    Z=             -1.6173  Tot=              6.1735

 Test job not archived.
 1\1\GINC-SE198\SP\RHF\Aug-CC-pVDZ\C3H5N1O1S1\OHZDE\05-Apr-2025\0\\#t h
 f aug-cc-pvdz iop(5/13=1,5/36=2,99/5=2) pseudo=read geom=check guess=(
 read,tcheck) scf=(maxcycle=1)\\title\\0,1\C,0,-1.612174,0.568511,0.325
 815\C,0,-1.359474,-0.903273,0.131974\C,0,-0.398399,1.283143,-0.255369\
 N,0,-0.231575,-1.335367,-0.251174\O,0,1.735392,0.014128,0.833141\S,0,0
 .935671,-0.012414,-0.42505\H,0,-2.539917,0.860498,-0.169257\H,0,-1.752
 446,0.764996,1.391742\H,0,-2.153498,-1.621061,0.337364\H,0,-0.586582,1
 .674298,-1.253682\H,0,0.01987,2.064161,0.373207\\Version=ES64L-G16RevC

 Normal termination of Gaussian 16 at Sat Apr  5 22:40:55 2025.
