 Gaussian 16, Revision C.01,

 ----------------------------------------------------------------------
 #t hf aug-cc-pvdz symm=none int=(grid=ultrafine) guess=(read,tcheck) s
 table=(opt,rrhf)
 ----------------------------------------------------------------------
 -----
 title
 -----
 Symbolic Z-matrix:
 Charge =  0 Multiplicity = 1

 SCF Done:  E(RHF) =  -298.424592618     A.U. after   16 cycles
 Normal termination of Gaussian 16 at Sat Apr  5 22:40:27 2025.
 Gaussian 16:  ES64L-G16RevC.01  3-Jul-2019

 ----------------------------------------------------------------------
 #t hf aug-cc-pvdz iop(5/13=1,5/36=2,99/5=2) pseudo=read geom=check gue
 ss=(read,tcheck) scf=(maxcycle=1)
 ----------------------------------------------------------------------
 -----
 title
 -----
 Structure from the checkpoint file:  "4-5-didehydro-1-3-dihydro-2H-imidazol-2-one.chk"
 Charge =  0 Multiplicity = 1

                         Standard orientation:
 ---------------------------------------------------------------------
 Center     Atomic      Atomic             Coordinates (Angstroms)
 Number     Number       Type             X           Y           Z
 ---------------------------------------------------------------------
      1          8           0       -1.905063    0.000001    0.000000
      2          7           0        0.190297    1.107884    0.120754
      3          7           0        0.190296   -1.107884   -0.120755
      4          6           0       -0.714324    0.000000    0.000000
      5          6           0        1.431605    0.685517   -0.183402
      6          6           0        1.431604   -0.685518    0.183403
      7          1           0       -0.158478    2.033494   -0.089560
      8          1           0       -0.158483   -2.033493    0.089561
 ---------------------------------------------------------------------

 SCF Done:  E(RHF) =  -298.512320143     A.U. after    2 cycles

 The electronic state is 1-A.
 Alpha  occ. eigenvalues --  -20.61364 -15.72226 -15.72220 -11.45655 -11.31062
 Alpha  occ. eigenvalues --  -11.30958  -1.43724  -1.34091  -1.21514  -0.99629
 Alpha  occ. eigenvalues --   -0.88779  -0.83549  -0.73489  -0.71940  -0.67558
 Alpha  occ. eigenvalues --   -0.66561  -0.55559  -0.52051  -0.50613  -0.41470
 Alpha  occ. eigenvalues --   -0.38056
 Alpha virt. eigenvalues --    0.01413   0.03223   0.03724   0.07063   0.07790
 Alpha virt. eigenvalues --    0.10138   0.10571   0.11558   0.12553   0.13293
 Alpha virt. eigenvalues --    0.14335   0.15250   0.15656   0.16622   0.16857

 Mulliken charges:
               1
     1  O   -0.344629
     2  N   -0.330201
     3  N   -0.330201
     4  C    0.830283
     5  C    0.109604
     6  C    0.109604
     7  H   -0.022230
     8  H   -0.022229
 Sum of Mulliken charges =  -0.00000

 Dipole moment (field-independent basis, Debye):
    X=             -1.1226    Y=              0.0000    Z=              0.0000  Tot=              1.1226

 Test job not archived.
 1\1\GINC-SE107\SP\RHF\Aug-CC-pVDZ\C3H2N2O1\OHZDE\05-Apr-2025\0\\#t hf
 aug-cc-pvdz iop(5/13=1,5/36=2,99/5=2) pseudo=read geom=check guess=(re
 ad,tcheck) scf=(maxcycle=1)\\title\\0,1\O,0,-1.905063,0.,0.\N,0,0.1902
 97,1.107884,0.120754\N,0,0.190296,-1.107884,-0.120755\C,0,-0.714324,0.
 ,0.\C,0,1.431605,0.685517,-0.183402\C,0,1.431604,-0.685518,0.183403\H,
 0,-0.158479,2.033494,-0.08956\H,0,-0.158482,-2.033493,0.089561\\Versio
 n=ES64L-G16RevC.01\State=1-A\HF=-298.5123201\RMSD=3.345e-03\Dipole=-0.
 4416751,0.000001,0.0000003\Quadrupole=-8.9292622,7.0482495,1.8810126,0

 Normal termination of Gaussian 16 at Sat Apr  5 22:40:54 2025.
