 Gaussian 16, Revision C.01,

 ----------------------------------------------------------------------
 #t hf aug-cc-pvdz symm=none int=(grid=ultrafine) guess=(read,tcheck) s
 table=(opt,rrhf)
 ----------------------------------------------------------------------
 -----
 title
 -----
 Symbolic Z-matrix:
 Charge =  0 Multiplicity = 1

 SCF Done:  E(RHF) =  -981.983987483     A.U. after   16 cycles
 Normal termination of Gaussian 16 at Sat Apr  5 22:40:29 2025.
 Gaussian 16:  ES64L-G16RevC.01  3-Jul-2019

 ----------------------------------------------------------------------
 #t hf aug-cc-pvdz iop(5/13=1,5/36=2,99/5=2) pseudo=read geom=check gue
 ss=(read,tcheck) scf=(maxcycle=1)
 ----------------------------------------------------------------------
 -----
 title
 -----
 Structure from the checkpoint file:  "4-5-dihydro-1-2-3-thiadiazole-4-thiol.chk"
 Charge =  0 Multiplicity = 1

                         Standard orientation:
 ---------------------------------------------------------------------
 Center     Atomic      Atomic             Coordinates (Angstroms)
 Number     Number       Type             X           Y           Z
 ---------------------------------------------------------------------
      1         16           0       -1.983658   -0.378275   -0.077921
      2         16           0        2.278646   -0.016762   -0.202915
      3          7           0       -0.053374    1.287591    0.110852
      4          7           0       -1.248787    1.259796   -0.126326
      5          6           0        0.571612   -0.012113    0.475502
      6          6           0       -0.332408   -1.149797   -0.006743
      7          1           0        2.698054   -1.070500    0.520774
      8          1           0        0.640671    0.011826    1.564772
      9          1           0       -0.043820   -1.503899   -0.993521
     10          1           0       -0.334803   -1.977092    0.697118
 ---------------------------------------------------------------------

 SCF Done:  E(RHF) =  -982.076472617     A.U. after    2 cycles

 The electronic state is 1-A.
 Alpha  occ. eigenvalues --  -93.57679 -93.56132 -15.74275 -15.71693 -11.34168
 Alpha  occ. eigenvalues --  -11.29960  -8.87285  -8.85860  -6.21373  -6.21176
 Alpha  occ. eigenvalues --   -6.20771  -6.20015  -6.19815  -6.19439  -1.36423
 Alpha  occ. eigenvalues --   -1.10706  -1.04497  -0.94177  -0.86120  -0.77271
 Alpha  occ. eigenvalues --   -0.69983  -0.65756  -0.60591  -0.59071  -0.54534
 Alpha  occ. eigenvalues --   -0.54152  -0.51312  -0.46361  -0.39369  -0.38091
 Alpha  occ. eigenvalues --   -0.36651
 Alpha virt. eigenvalues --    0.02693   0.04482   0.04960   0.06027   0.07905
 Alpha virt. eigenvalues --    0.08268   0.09469   0.09904   0.11080   0.11569
 Alpha virt. eigenvalues --    0.12915   0.13695   0.14676   0.14816   0.15525

 Mulliken charges:
               1
     1  S    0.732302
     2  S    0.385044
     3  N   -0.385950
     4  N   -0.522925
     5  C    0.016654
     6  C   -0.086874
     7  H    0.064503
     8  H   -0.117994
     9  H   -0.095910
    10  H    0.011150
 Sum of Mulliken charges =  -0.00000

 Dipole moment (field-independent basis, Debye):
    X=              1.0367    Y=             -3.4155    Z=              1.3430  Tot=              3.8136

 Test job not archived.
 1\1\GINC-SE146\SP\RHF\Aug-CC-pVDZ\C2H4N2S2\OHZDE\05-Apr-2025\0\\#t hf
 aug-cc-pvdz iop(5/13=1,5/36=2,99/5=2) pseudo=read geom=check guess=(re
 ad,tcheck) scf=(maxcycle=1)\\title\\0,1\S,0,-1.983658,-0.378275,-0.077
 921\S,0,2.278646,-0.016762,-0.202915\N,0,-0.053374,1.287591,0.110852\N
 ,0,-1.248787,1.259796,-0.126326\C,0,0.571612,-0.012113,0.475502\C,0,-0
 .332408,-1.149797,-0.006743\H,0,2.698054,-1.0705,0.520774\H,0,0.640671
 ,0.011826,1.564772\H,0,-0.04382,-1.503899,-0.993521\H,0,-0.334803,-1.9
 77092,0.697118\\Version=ES64L-G16RevC.01\State=1-A\HF=-982.0764726\RMS

 Normal termination of Gaussian 16 at Sat Apr  5 22:40:55 2025.
