 Gaussian 16, Revision C.01,

 ----------------------------------------------------------------------
 #t hf aug-cc-pvdz symm=none int=(grid=ultrafine) guess=(read,tcheck) s
 table=(opt,rrhf)
 ----------------------------------------------------------------------
 -----
 title
 -----
 Symbolic Z-matrix:
 Charge =  0 Multiplicity = 1

 SCF Done:  E(RHF) =  -496.921523303     A.U. after   15 cycles
 Normal termination of Gaussian 16 at Sat Apr  5 22:45:39 2025.
 Gaussian 16:  ES64L-G16RevC.01  3-Jul-2019

 ----------------------------------------------------------------------
 #t hf aug-cc-pvdz iop(5/13=1,5/36=2,99/5=2) pseudo=read geom=check gue
 ss=(read,tcheck) scf=(maxcycle=1)
 ----------------------------------------------------------------------
 -----
 title
 -----
 Structure from the checkpoint file:  "4-5-dipropylpyridazine.chk"
 Charge =  0 Multiplicity = 1

                         Standard orientation:
 ---------------------------------------------------------------------
 Center     Atomic      Atomic             Coordinates (Angstroms)
 Number     Number       Type             X           Y           Z
 ---------------------------------------------------------------------
      1          6           0       -0.550872    1.183343    1.818393
      2          6           0        0.550872   -1.183343    1.818393
      3          6           0       -0.290910    0.631581    0.558623
      4          6           0        0.290910   -0.631581    0.558623
      5          6           0        0.216434    3.129438   -2.389797
      6          6           0       -0.216434   -3.129438   -2.389797
      7          6           0       -0.608822    1.420841   -0.684182
      8          6           0        0.608822   -1.420841   -0.684182
      9          6           0        0.550872    2.327591   -1.134342
     10          6           0       -0.550872   -2.327591   -1.134342
     11          7           0       -0.282914    0.601718    2.979528
     12          7           0        0.282914   -0.601718    2.979528
     13          1           0       -1.012928    2.161604    1.897374
     14          1           0        1.012928   -2.161604    1.897374
     15          1           0       -0.012670    2.471736   -3.230631
     16          1           0       -0.650384    3.773094   -2.228370
     17          1           0        1.051528    3.765640   -2.684387
     18          1           0        0.012670   -2.471736   -3.230631
     19          1           0        0.650384   -3.773094   -2.228370
     20          1           0       -1.051528   -3.765640   -2.684387
     21          1           0       -0.878678    0.750885   -1.501953
     22          1           0       -1.486647    2.042926   -0.493539
     23          1           0        0.878678   -0.750885   -1.501953
     24          1           0        1.486647   -2.042926   -0.493539
     25          1           0        0.807198    3.006117   -0.317347
     26          1           0        1.439842    1.716802   -1.310001
     27          1           0       -0.807198   -3.006117   -0.317347
     28          1           0       -1.439842   -1.716802   -1.310001
 ---------------------------------------------------------------------

 SCF Done:  E(RHF) =  -497.068686620     A.U. after    2 cycles

 The electronic state is 1-A.
 Alpha  occ. eigenvalues --  -15.66337 -15.66265 -11.28022 -11.28015 -11.27160
 Alpha  occ. eigenvalues --  -11.27049 -11.25362 -11.25358 -11.24675 -11.24675
 Alpha  occ. eigenvalues --  -11.23568 -11.23568  -1.29799  -1.13247  -1.09791
 Alpha  occ. eigenvalues --   -1.06468  -1.04597  -0.96978  -0.94234  -0.86639
 Alpha  occ. eigenvalues --   -0.85649  -0.82071  -0.80830  -0.72016  -0.68633
 Alpha  occ. eigenvalues --   -0.65167  -0.63992  -0.63767  -0.60259  -0.59816
 Alpha  occ. eigenvalues --   -0.59624  -0.57564  -0.55520  -0.55140  -0.54806
 Alpha  occ. eigenvalues --   -0.50933  -0.50793  -0.50260  -0.50066  -0.49351
 Alpha  occ. eigenvalues --   -0.48954  -0.45953  -0.38572  -0.37078  -0.37018
 Alpha virt. eigenvalues --    0.02670   0.03228   0.03649   0.04385   0.05008
 Alpha virt. eigenvalues --    0.05171   0.05472   0.06239   0.06406   0.07388
 Alpha virt. eigenvalues --    0.07841   0.07851   0.08426   0.09036   0.09945

 Mulliken charges:
               1
     1  C    1.144081
     2  C    1.144081
     3  C   -0.255045
     4  C   -0.255045
     5  C    0.458968
     6  C    0.458968
     7  C    0.228230
     8  C    0.228230
     9  C    0.360994
    10  C    0.360994
    11  N   -0.587846
    12  N   -0.587846
    13  H   -0.452907
    14  H   -0.452907
    15  H   -0.103940
    16  H   -0.062582
    17  H   -0.050344
    18  H   -0.103940
    19  H   -0.062582
    20  H   -0.050344
    21  H   -0.109461
    22  H   -0.206490
    23  H   -0.109461
    24  H   -0.206490
    25  H   -0.179341
    26  H   -0.184317
    27  H   -0.179341
    28  H   -0.184317
 Sum of Mulliken charges =   0.00000

 Dipole moment (field-independent basis, Debye):
    X=              0.0000    Y=             -0.0000    Z=             -5.3189  Tot=              5.3189

 Test job not archived.
 1\1\GINC-SE226\SP\RHF\Aug-CC-pVDZ\C10H16N2\OHZDE\05-Apr-2025\0\\#t hf
 aug-cc-pvdz iop(5/13=1,5/36=2,99/5=2) pseudo=read geom=check guess=(re
 ad,tcheck) scf=(maxcycle=1)\\title\\0,1\C,0,-0.550872,1.183343,1.81839
 3\C,0,0.550872,-1.183343,1.818393\C,0,-0.29091,0.631581,0.558623\C,0,0
 .29091,-0.631581,0.558623\C,0,0.216434,3.129438,-2.389797\C,0,-0.21643
 4,-3.129438,-2.389797\C,0,-0.608822,1.420841,-0.684182\C,0,0.608822,-1
 .420841,-0.684182\C,0,0.550872,2.327591,-1.134342\C,0,-0.550872,-2.327
 591,-1.134342\N,0,-0.282914,0.601718,2.979528\N,0,0.282914,-0.601718,2

 Normal termination of Gaussian 16 at Sat Apr  5 22:46:01 2025.
