 Gaussian 16, Revision C.01,

 ----------------------------------------------------------------------
 #t hf aug-cc-pvdz symm=none int=(grid=ultrafine) guess=(read,tcheck) s
 table=(opt,rrhf)
 ----------------------------------------------------------------------
 -----
 title
 -----
 Symbolic Z-matrix:
 Charge =  0 Multiplicity = 1

 SCF Done:  E(RHF) =  -714.123916615     A.U. after   16 cycles
 Normal termination of Gaussian 16 at Sat Apr  5 22:40:41 2025.
 Gaussian 16:  ES64L-G16RevC.01  3-Jul-2019

 ----------------------------------------------------------------------
 #t hf aug-cc-pvdz iop(5/13=1,5/36=2,99/5=2) pseudo=read geom=check gue
 ss=(read,tcheck) scf=(maxcycle=1)
 ----------------------------------------------------------------------
 -----
 title
 -----
 Structure from the checkpoint file:  "4-amino-1-3-thiazole-5-carbonitrile.chk"
 Charge =  0 Multiplicity = 1

                         Standard orientation:
 ---------------------------------------------------------------------
 Center     Atomic      Atomic             Coordinates (Angstroms)
 Number     Number       Type             X           Y           Z
 ---------------------------------------------------------------------
      1         16           0       -0.844455   -1.432131   -0.001735
      2          7           0       -1.485615    1.063138    0.005370
      3          7           0        0.565464    2.204052   -0.054581
      4          7           0        2.937529   -0.771304    0.008341
      5          6           0       -0.117671    1.028945   -0.005236
      6          6           0        0.435762   -0.243451   -0.005215
      7          6           0       -1.980824   -0.136886    0.007729
      8          6           0        1.800797   -0.558509   -0.000399
      9          1           0       -3.040901   -0.340536    0.015885
     10          1           0        0.051496    3.036922    0.173244
     11          1           0        1.550661    2.205914    0.143440
 ---------------------------------------------------------------------

 SCF Done:  E(RHF) =  -714.237644931     A.U. after    2 cycles

 The electronic state is 1-A.
 Alpha  occ. eigenvalues --  -93.60263 -15.66707 -15.66482 -15.64195 -11.37018
 Alpha  occ. eigenvalues --  -11.36170 -11.29916 -11.29743  -8.90041  -6.24145
 Alpha  occ. eigenvalues --   -6.24043  -6.23642  -1.30882  -1.20596  -1.19612
 Alpha  occ. eigenvalues --   -1.08800  -1.00998  -0.88589  -0.81930  -0.77627
 Alpha  occ. eigenvalues --   -0.70265  -0.65662  -0.62980  -0.62075  -0.55515
 Alpha  occ. eigenvalues --   -0.54998  -0.50845  -0.49438  -0.47201  -0.45181
 Alpha  occ. eigenvalues --   -0.40575  -0.32668
 Alpha virt. eigenvalues --    0.02820   0.03088   0.05768   0.05922   0.07220
 Alpha virt. eigenvalues --    0.07647   0.08211   0.09962   0.11749   0.11862
 Alpha virt. eigenvalues --    0.12171   0.13019   0.13411   0.14469   0.14959

 Mulliken charges:
               1
     1  S    0.531873
     2  N   -0.498726
     3  N   -0.206611
     4  N   -0.119993
     5  C    0.360335
     6  C    0.971861
     7  C    0.213810
     8  C   -0.960943
     9  H   -0.268044
    10  H   -0.040093
    11  H    0.016530
 Sum of Mulliken charges =  -0.00000

 Dipole moment (field-independent basis, Debye):
    X=             -3.6985    Y=              1.7153    Z=              0.6183  Tot=              4.1235

 Test job not archived.
 1\1\GINC-SE047\SP\RHF\Aug-CC-pVDZ\C4H3N3S1\OHZDE\05-Apr-2025\0\\#t hf
 aug-cc-pvdz iop(5/13=1,5/36=2,99/5=2) pseudo=read geom=check guess=(re
 ad,tcheck) scf=(maxcycle=1)\\title\\0,1\S,0,-0.844455,-1.432131,-0.001
 735\N,0,-1.485615,1.063138,0.00537\N,0,0.565464,2.204052,-0.054581\N,0
 ,2.937529,-0.771304,0.008341\C,0,-0.117671,1.028945,-0.005236\C,0,0.43
 5762,-0.243451,-0.005215\C,0,-1.980824,-0.136886,0.007729\C,0,1.800797
 ,-0.558509,-0.000399\H,0,-3.040901,-0.340536,0.015885\H,0,0.051496,3.0
 36922,0.173244\H,0,1.550661,2.205914,0.14344\\Version=ES64L-G16RevC.01

 Normal termination of Gaussian 16 at Sat Apr  5 22:41:32 2025.
