 Gaussian 16, Revision C.01,

 ----------------------------------------------------------------------
 #t hf aug-cc-pvdz symm=none int=(grid=ultrafine) guess=(read,tcheck) s
 table=(opt,rrhf)
 ----------------------------------------------------------------------
 -----
 title
 -----
 Symbolic Z-matrix:
 Charge =  0 Multiplicity = 1

 SCF Done:  E(RHF) =  -714.102108213     A.U. after   17 cycles
 Normal termination of Gaussian 16 at Sat Apr  5 22:40:42 2025.
 Gaussian 16:  ES64L-G16RevC.01  3-Jul-2019

 ----------------------------------------------------------------------
 #t hf aug-cc-pvdz iop(5/13=1,5/36=2,99/5=2) pseudo=read geom=check gue
 ss=(read,tcheck) scf=(maxcycle=1)
 ----------------------------------------------------------------------
 -----
 title
 -----
 Structure from the checkpoint file:  "4-amino-1-2-thiazole-5-carbonitrile.chk"
 Charge =  0 Multiplicity = 1

                         Standard orientation:
 ---------------------------------------------------------------------
 Center     Atomic      Atomic             Coordinates (Angstroms)
 Number     Number       Type             X           Y           Z
 ---------------------------------------------------------------------
      1         16           0        0.849093   -1.404452   -0.001478
      2          7           0        2.043738   -0.263167    0.010200
      3          7           0       -0.588772    2.219969   -0.067972
      4          7           0       -2.942184   -0.775655    0.010632
      5          6           0       -0.440552   -0.233849   -0.006414
      6          6           0        0.105987    1.037713   -0.005426
      7          6           0        1.531170    0.941099    0.004087
      8          6           0       -1.808893   -0.550499   -0.000160
      9          1           0       -0.122155    3.047725    0.260526
     10          1           0       -1.574094    2.192039    0.137048
     11          1           0        2.195028    1.796650    0.003525
 ---------------------------------------------------------------------

 SCF Done:  E(RHF) =  -714.218832621     A.U. after    2 cycles

 The electronic state is 1-A.
 Alpha  occ. eigenvalues --  -93.61563 -15.69392 -15.67378 -15.65666 -11.34420
 Alpha  occ. eigenvalues --  -11.32023 -11.31584 -11.30811  -8.91011  -6.25170
 Alpha  occ. eigenvalues --   -6.24987  -6.24553  -1.29068  -1.22246  -1.20717
 Alpha  occ. eigenvalues --   -1.07792  -1.01049  -0.88850  -0.81895  -0.76317
 Alpha  occ. eigenvalues --   -0.71744  -0.65340  -0.63427  -0.61447  -0.56273
 Alpha  occ. eigenvalues --   -0.52885  -0.51561  -0.50856  -0.49665  -0.45761
 Alpha  occ. eigenvalues --   -0.38637  -0.33502
 Alpha virt. eigenvalues --    0.02050   0.03961   0.04669   0.06007   0.07321
 Alpha virt. eigenvalues --    0.07939   0.08162   0.09883   0.11240   0.11548
 Alpha virt. eigenvalues --    0.12113   0.12738   0.13267   0.13843   0.14657

 Mulliken charges:
               1
     1  S    0.818420
     2  N   -0.880729
     3  N   -0.425389
     4  N   -0.050819
     5  C    1.027118
     6  C    0.116680
     7  C    0.933154
     8  C   -1.237730
     9  H   -0.048655
    10  H    0.013283
    11  H   -0.265333
 Sum of Mulliken charges =  -0.00000

 Dipole moment (field-independent basis, Debye):
    X=              1.9164    Y=              3.9542    Z=              0.7519  Tot=              4.4580

 Test job not archived.
 1\1\GINC-SE232\SP\RHF\Aug-CC-pVDZ\C4H3N3S1\OHZDE\05-Apr-2025\0\\#t hf
 aug-cc-pvdz iop(5/13=1,5/36=2,99/5=2) pseudo=read geom=check guess=(re
 ad,tcheck) scf=(maxcycle=1)\\title\\0,1\S,0,0.849093,-1.404452,-0.0014
 78\N,0,2.043738,-0.263167,0.0102\N,0,-0.588772,2.219969,-0.067972\N,0,
 -2.942184,-0.775655,0.010632\C,0,-0.440552,-0.233849,-0.006414\C,0,0.1
 05987,1.037713,-0.005426\C,0,1.53117,0.941099,0.004087\C,0,-1.808893,-
 0.550499,-0.00016\H,0,-0.122155,3.047725,0.260526\H,0,-1.574094,2.1920
 39,0.137048\H,0,2.195028,1.79665,0.003525\\Version=ES64L-G16RevC.01\St

 Normal termination of Gaussian 16 at Sat Apr  5 22:40:56 2025.
