 Gaussian 16, Revision C.01,

 ----------------------------------------------------------------------
 #t hf aug-cc-pvdz symm=none int=(grid=ultrafine) guess=(read,tcheck) s
 table=(opt,rrhf)
 ----------------------------------------------------------------------
 -----
 title
 -----
 Symbolic Z-matrix:
 Charge =  0 Multiplicity = 1

 SCF Done:  E(RHF) =  -892.411482093     A.U. after   15 cycles
 Normal termination of Gaussian 16 at Sat Apr  5 22:42:20 2025.
 Gaussian 16:  ES64L-G16RevC.01  3-Jul-2019

 ----------------------------------------------------------------------
 #t hf aug-cc-pvdz iop(5/13=1,5/36=2,99/5=2) pseudo=read geom=check gue
 ss=(read,tcheck) scf=(maxcycle=1)
 ----------------------------------------------------------------------
 -----
 title
 -----
 Structure from the checkpoint file:  "4-amino-3-chloro-5-hydroxy-25H-furanone.chk"
 Charge =  0 Multiplicity = 1

                         Standard orientation:
 ---------------------------------------------------------------------
 Center     Atomic      Atomic             Coordinates (Angstroms)
 Number     Number       Type             X           Y           Z
 ---------------------------------------------------------------------
      1         17           0       -2.280642   -0.628707   -0.145550
      2          8           0        1.092025    1.391278    0.220496
      3          8           0       -0.955684    2.323645   -0.050493
      4          8           0        2.553373   -0.218210   -0.655230
      5          7           0        0.574476   -2.183960    0.238082
      6          6           0       -0.663800   -0.075616    0.058842
      7          6           0        0.431472   -0.842507    0.189010
      8          6           0       -0.290734    1.338463    0.058027
      9          6           0        1.619020    0.075759    0.341980
     10          1           0        3.324738    0.348497   -0.543164
     11          1           0       -0.217906   -2.752537   -0.012740
     12          1           0        1.479328   -2.567370    0.021871
     13          1           0        2.069968   -0.003146    1.336481
 ---------------------------------------------------------------------

 SCF Done:  E(RHF) =  -892.564480854     A.U. after    2 cycles

 The electronic state is 1-A.
 Alpha  occ. eigenvalues -- -103.68402 -20.62791 -20.62511 -20.56374 -15.68364
 Alpha  occ. eigenvalues --  -11.40720 -11.40122 -11.34881 -11.30850 -10.71636
 Alpha  occ. eigenvalues --   -8.37389  -8.37065  -8.37042  -1.44207  -1.38189
 Alpha  occ. eigenvalues --   -1.33406  -1.25326  -1.19271  -1.06767  -0.98169
 Alpha  occ. eigenvalues --   -0.84813  -0.83219  -0.77576  -0.74250  -0.73065
 Alpha  occ. eigenvalues --   -0.70114  -0.66629  -0.65616  -0.61405  -0.60095
 Alpha  occ. eigenvalues --   -0.57400  -0.55681  -0.54345  -0.50407  -0.49630
 Alpha  occ. eigenvalues --   -0.49406  -0.46600  -0.35684
 Alpha virt. eigenvalues --    0.02059   0.03188   0.04540   0.05542   0.08113
 Alpha virt. eigenvalues --    0.09220   0.09814   0.10207   0.11300   0.12102
 Alpha virt. eigenvalues --    0.12479   0.12972   0.13880   0.14605   0.15416

 Mulliken charges:
               1
     1  Cl  -0.324328
     2  O   -0.693719
     3  O   -0.439224
     4  O   -0.563484
     5  N   -0.352254
     6  C    0.301791
     7  C    0.279685
     8  C    0.393989
     9  C    1.338790
    10  H    0.171492
    11  H   -0.004382
    12  H   -0.024765
    13  H   -0.083590
 Sum of Mulliken charges =  -0.00000

 Dipole moment (field-independent basis, Debye):
    X=              4.3280    Y=             -5.4563    Z=              1.0014  Tot=              7.0360

 Test job not archived.
 1\1\GINC-SE045\SP\RHF\Aug-CC-pVDZ\C4H4Cl1N1O3\OHZDE\05-Apr-2025\0\\#t
 hf aug-cc-pvdz iop(5/13=1,5/36=2,99/5=2) pseudo=read geom=check guess=
 (read,tcheck) scf=(maxcycle=1)\\title\\0,1\Cl,0,-2.280642,-0.628707,-0
 .14555\O,0,1.092025,1.391278,0.220496\O,0,-0.955684,2.323645,-0.050493
 \O,0,2.553373,-0.21821,-0.65523\N,0,0.574476,-2.18396,0.238082\C,0,-0.
 6638,-0.075616,0.058842\C,0,0.431472,-0.842507,0.18901\C,0,-0.290734,1
 .338463,0.058027\C,0,1.61902,0.075759,0.34198\H,0,3.324738,0.348497,-0
 .543164\H,0,-0.217906,-2.752537,-0.01274\H,0,1.479328,-2.56737,0.02187

 Normal termination of Gaussian 16 at Sat Apr  5 22:43:18 2025.
