 Gaussian 16, Revision C.01,

 ----------------------------------------------------------------------
 #t hf aug-cc-pvdz symm=none int=(grid=ultrafine) guess=(read,tcheck) s
 table=(opt,rrhf)
 ----------------------------------------------------------------------
 -----
 title
 -----
 Symbolic Z-matrix:
 Charge =  0 Multiplicity = 1

 SCF Done:  E(RHF) =  -1103.09942088     A.U. after   15 cycles
 Normal termination of Gaussian 16 at Sat Apr  5 22:42:05 2025.
 Gaussian 16:  ES64L-G16RevC.01  3-Jul-2019

 ----------------------------------------------------------------------
 #t hf aug-cc-pvdz iop(5/13=1,5/36=2,99/5=2) pseudo=read geom=check gue
 ss=(read,tcheck) scf=(maxcycle=1)
 ----------------------------------------------------------------------
 -----
 title
 -----
 Structure from the checkpoint file:  "4-chloro-2-butyn-1-ylthiocyanate.chk"
 Charge =  0 Multiplicity = 1

                         Standard orientation:
 ---------------------------------------------------------------------
 Center     Atomic      Atomic             Coordinates (Angstroms)
 Number     Number       Type             X           Y           Z
 ---------------------------------------------------------------------
      1         17           0        3.790159   -0.565860   -0.387381
      2         16           0       -2.085317   -0.503553    0.546804
      3          7           0       -4.695349   -0.036278   -0.498130
      4          6           0       -1.119696    0.706179   -0.506380
      5          6           0        2.801833    0.572983    0.637702
      6          6           0        0.267289    0.664830   -0.108118
      7          6           0        1.418175    0.614979    0.230597
      8          6           0       -3.630791   -0.216125   -0.084152
      9          1           0       -1.553731    1.692329   -0.354795
     10          1           0       -1.245536    0.411120   -1.546247
     11          1           0        3.273951    1.547665    0.545309
     12          1           0        2.904272    0.222241    1.661369
 ---------------------------------------------------------------------

 SCF Done:  E(RHF) =  -1103.21376922     A.U. after    2 cycles

 The electronic state is 1-A.
 Alpha  occ. eigenvalues -- -103.67160 -93.61017 -15.65890 -11.35274 -11.34225
 Alpha  occ. eigenvalues --  -11.31745 -11.28701 -11.28299 -10.70385  -8.90623
 Alpha  occ. eigenvalues --   -8.36105  -8.35801  -8.35791  -6.24835  -6.24512
 Alpha  occ. eigenvalues --   -6.24142  -1.21113  -1.18574  -1.12521  -1.06134
 Alpha  occ. eigenvalues --   -0.99084  -0.93854  -0.72703  -0.69652  -0.67082
 Alpha  occ. eigenvalues --   -0.66868  -0.66609  -0.59356  -0.57057  -0.54384
 Alpha  occ. eigenvalues --   -0.52871  -0.47847  -0.47649  -0.46836  -0.42237
 Alpha  occ. eigenvalues --   -0.41438  -0.39095
 Alpha virt. eigenvalues --    0.02585   0.03698   0.04628   0.05048   0.06605
 Alpha virt. eigenvalues --    0.07310   0.07677   0.09525   0.10474   0.10849
 Alpha virt. eigenvalues --    0.11127   0.12043   0.12512   0.12962   0.13428

 Mulliken charges:
               1
     1  Cl  -0.094605
     2  S    0.819199
     3  N   -0.167358
     4  C   -0.190641
     5  C   -0.119069
     6  C   -0.025116
     7  C   -0.399242
     8  C   -0.499648
     9  H    0.162250
    10  H    0.148691
    11  H    0.185018
    12  H    0.180522
 Sum of Mulliken charges =  -0.00000

 Dipole moment (field-independent basis, Debye):
    X=              3.0878    Y=              1.9663    Z=              1.2971  Tot=              3.8838

 Test job not archived.
 1\1\GINC-SE170\SP\RHF\Aug-CC-pVDZ\C5H4Cl1N1S1\OHZDE\05-Apr-2025\0\\#t
 hf aug-cc-pvdz iop(5/13=1,5/36=2,99/5=2) pseudo=read geom=check guess=
 (read,tcheck) scf=(maxcycle=1)\\title\\0,1\Cl,0,3.790159,-0.56586,-0.3
 87381\S,0,-2.085317,-0.503553,0.546804\N,0,-4.695349,-0.036278,-0.4981
 3\C,0,-1.119696,0.706179,-0.50638\C,0,2.801833,0.572983,0.637702\C,0,0
 .267289,0.66483,-0.108118\C,0,1.418175,0.614979,0.230597\C,0,-3.630791
 ,-0.216125,-0.084152\H,0,-1.553731,1.692329,-0.354795\H,0,-1.245536,0.
 41112,-1.546247\H,0,3.273951,1.547665,0.545309\H,0,2.904272,0.222241,1

 Normal termination of Gaussian 16 at Sat Apr  5 22:42:24 2025.
