 Gaussian 16, Revision C.01,

 ----------------------------------------------------------------------
 #t hf aug-cc-pvdz symm=none int=(grid=ultrafine) guess=(read,tcheck) s
 table=(opt,rrhf)
 ----------------------------------------------------------------------
 -----
 title
 -----
 Symbolic Z-matrix:
 Charge =  0 Multiplicity = 1

 SCF Done:  E(RHF) =  -1444.80367989     A.U. after   16 cycles
 Normal termination of Gaussian 16 at Sat Apr  5 22:41:43 2025.
 Gaussian 16:  ES64L-G16RevC.01  3-Jul-2019

 ----------------------------------------------------------------------
 #t hf aug-cc-pvdz iop(5/13=1,5/36=2,99/5=2) pseudo=read geom=check gue
 ss=(read,tcheck) scf=(maxcycle=1)
 ----------------------------------------------------------------------
 -----
 title
 -----
 Structure from the checkpoint file:  "4-chlorodithiolan-3-one.chk"
 Charge =  0 Multiplicity = 1

                         Standard orientation:
 ---------------------------------------------------------------------
 Center     Atomic      Atomic             Coordinates (Angstroms)
 Number     Number       Type             X           Y           Z
 ---------------------------------------------------------------------
      1         17           0       -2.010456   -0.590268   -0.599839
      2         16           0        1.409201   -1.226558   -0.189113
      3         16           0        1.477785    0.867297   -0.404520
      4          8           0       -0.613216    2.315389    0.315501
      5          6           0       -0.892502   -0.061929    0.726505
      6          6           0        0.101019   -1.136073    1.098478
      7          6           0       -0.172173    1.206202    0.240534
      8          1           0       -1.528841    0.214376    1.562461
      9          1           0        0.561916   -0.885355    2.054656
     10          1           0       -0.359432   -2.118613    1.161173
 ---------------------------------------------------------------------

 SCF Done:  E(RHF) =  -1444.91796182     A.U. after    2 cycles

 The electronic state is 1-A.
 Alpha  occ. eigenvalues -- -103.68033 -93.59169 -93.58532 -20.60685 -11.41113
 Alpha  occ. eigenvalues --  -11.35728 -11.32111 -10.71270  -8.88888  -8.88142
 Alpha  occ. eigenvalues --   -8.36991  -8.36686  -8.36675  -6.22939  -6.22784
 Alpha  occ. eigenvalues --   -6.22372  -6.22215  -6.22046  -6.21613  -1.40604
 Alpha  occ. eigenvalues --   -1.20758  -1.11635  -1.01423  -0.97406  -0.83989
 Alpha  occ. eigenvalues --   -0.77072  -0.70767  -0.68903  -0.65117  -0.62107
 Alpha  occ. eigenvalues --   -0.60814  -0.55775  -0.52124  -0.49398  -0.48513
 Alpha  occ. eigenvalues --   -0.46720  -0.45821  -0.43481  -0.35112
 Alpha virt. eigenvalues --    0.02885   0.04482   0.05166   0.06438   0.06475
 Alpha virt. eigenvalues --    0.06850   0.08891   0.10138   0.10449   0.12104
 Alpha virt. eigenvalues --    0.12338   0.12851   0.13604   0.14558   0.15059

 Mulliken charges:
               1
     1  Cl  -0.140675
     2  S    0.270877
     3  S    0.269142
     4  O   -0.415442
     5  C    0.029425
     6  C    0.003501
     7  C    0.014812
     8  H   -0.016223
     9  H   -0.019951
    10  H    0.004533
 Sum of Mulliken charges =  -0.00000

 Dipole moment (field-independent basis, Debye):
    X=              0.5892    Y=             -2.8707    Z=              2.4488  Tot=              3.8190

 Test job not archived.
 1\1\GINC-SE173\SP\RHF\Aug-CC-pVDZ\C3H3Cl1O1S2\OHZDE\05-Apr-2025\0\\#t
 hf aug-cc-pvdz iop(5/13=1,5/36=2,99/5=2) pseudo=read geom=check guess=
 (read,tcheck) scf=(maxcycle=1)\\title\\0,1\Cl,0,-2.010456,-0.590268,-0
 .599839\S,0,1.409201,-1.226558,-0.189113\S,0,1.477785,0.867297,-0.4045
 2\O,0,-0.613216,2.315389,0.315501\C,0,-0.892502,-0.061929,0.726505\C,0
 ,0.101019,-1.136073,1.098478\C,0,-0.172173,1.206202,0.240534\H,0,-1.52
 8841,0.214376,1.562461\H,0,0.561916,-0.885355,2.054656\H,0,-0.359432,-
 2.118613,1.161173\\Version=ES64L-G16RevC.01\State=1-A\HF=-1444.9179618

 Normal termination of Gaussian 16 at Sat Apr  5 22:41:49 2025.
