 Gaussian 16, Revision C.01,

 ----------------------------------------------------------------------
 #t hf aug-cc-pvdz symm=none int=(grid=ultrafine) guess=(read,tcheck) s
 table=(opt,rrhf)
 ----------------------------------------------------------------------
 -----
 title
 -----
 Symbolic Z-matrix:
 Charge =  0 Multiplicity = 1

 SCF Done:  E(RHF) =  -615.051837018     A.U. after   13 cycles

 1\1\GINC-SE221\Stability\RHF\Aug-CC-pVDZ\C4H7Cl1\OHZDE\05-Apr-2025\0\\
 #t hf aug-cc-pvdz symm=none int=(grid=ultrafine) guess=(read,tcheck) s
 table=(opt,rrhf)\\title\\0,1\H,0,3.260702,-1.294214,-0.401232\C,0,1.43
 8044,-0.423931,0.19133\H,0,3.206899,0.548451,-0.421234\C,0,2.695041,-0
 .387967,-0.232098\H,0,0.306468,0.824211,1.506818\C,0,0.591287,0.786117
 ,0.451638\H,0,-1.211253,1.787841,-0.217654\H,0,-0.46326,0.753418,-1.45
 0887\C,0,-0.675702,0.859133,-0.390868\H,0,0.96336,-1.382561,0.370238\H
 ,0,1.169489,1.691325,0.243452\Cl,0,-1.854378,-0.466387,0.014735\\Versi

 Normal termination of Gaussian 16 at Sat Apr  5 22:41:38 2025.
 Gaussian 16:  ES64L-G16RevC.01  3-Jul-2019

 ----------------------------------------------------------------------
 #t hf aug-cc-pvdz iop(5/13=1,5/36=2,99/5=2) pseudo=read geom=check gue
 ss=(read,tcheck) scf=(maxcycle=1)
 ----------------------------------------------------------------------
 -----
 title
 -----
 Structure from the checkpoint file:  "4-chloro-1-butene.chk"
 Charge =  0 Multiplicity = 1

                         Standard orientation:
 ---------------------------------------------------------------------
 Center     Atomic      Atomic             Coordinates (Angstroms)
 Number     Number       Type             X           Y           Z
 ---------------------------------------------------------------------
      1          1           0        3.260702   -1.294214   -0.401232
      2          6           0        1.438044   -0.423931    0.191330
      3          1           0        3.206899    0.548451   -0.421234
      4          6           0        2.695041   -0.387967   -0.232098
      5          1           0        0.306468    0.824211    1.506818
      6          6           0        0.591287    0.786117    0.451638
      7          1           0       -1.211253    1.787841   -0.217654
      8          1           0       -0.463260    0.753418   -1.450887
      9          6           0       -0.675702    0.859133   -0.390868
     10          1           0        0.963360   -1.382561    0.370238
     11          1           0        1.169489    1.691325    0.243452
     12         17           0       -1.854378   -0.466387    0.014735
 ---------------------------------------------------------------------

 SCF Done:  E(RHF) =  -615.119819865     A.U. after    2 cycles

 The electronic state is 1-A.
 Alpha  occ. eigenvalues -- -103.64696 -11.30883 -11.25684 -11.24979 -11.23899
 Alpha  occ. eigenvalues --  -10.67980  -8.33695  -8.33418  -8.33407  -1.16224
 Alpha  occ. eigenvalues --   -1.07548  -0.98664  -0.86202  -0.76781  -0.66942
 Alpha  occ. eigenvalues --   -0.64380  -0.60632  -0.57484  -0.55853  -0.51498
 Alpha  occ. eigenvalues --   -0.49787  -0.44741  -0.44353  -0.37501
 Alpha virt. eigenvalues --    0.03420   0.04216   0.04996   0.05296   0.06504
 Alpha virt. eigenvalues --    0.07123   0.07736   0.09790   0.10655   0.12270
 Alpha virt. eigenvalues --    0.13175   0.14600   0.14841   0.15718   0.16466

 Mulliken charges:
               1
     1  H   -0.279754
     2  C    0.671476
     3  H   -0.285220
     4  C    0.401290
     5  H    0.010455
     6  C    0.151464
     7  H    0.012144
     8  H    0.013308
     9  C   -0.052267
    10  H   -0.416335
    11  H   -0.067121
    12  Cl  -0.159439
 Sum of Mulliken charges =  -0.00000

 Dipole moment (field-independent basis, Debye):
    X=              1.5108    Y=              1.7532    Z=             -0.3186  Tot=              2.3362

 Test job not archived.
 1\1\GINC-SE221\SP\RHF\Aug-CC-pVDZ\C4H7Cl1\OHZDE\05-Apr-2025\0\\#t hf a
 ug-cc-pvdz iop(5/13=1,5/36=2,99/5=2) pseudo=read geom=check guess=(rea
 d,tcheck) scf=(maxcycle=1)\\title\\0,1\H,0,3.260702,-1.294214,-0.40123
 2\C,0,1.438044,-0.423931,0.19133\H,0,3.206899,0.548451,-0.421234\C,0,2
 .695041,-0.387967,-0.232098\H,0,0.306468,0.824211,1.506818\C,0,0.59128
 7,0.786117,0.451638\H,0,-1.211253,1.787841,-0.217654\H,0,-0.46326,0.75
 3418,-1.450887\C,0,-0.675702,0.859133,-0.390868\H,0,0.96336,-1.382561,
 0.370238\H,0,1.169489,1.691325,0.243452\Cl,0,-1.854378,-0.466387,0.014

 Normal termination of Gaussian 16 at Sat Apr  5 22:41:43 2025.
