 Gaussian 16, Revision C.01,

 ----------------------------------------------------------------------
 #t hf aug-cc-pvdz symm=none int=(grid=ultrafine) guess=(read,tcheck) s
 table=(opt,rrhf)
 ----------------------------------------------------------------------
 -----
 title
 -----
 Symbolic Z-matrix:
 Charge =  0 Multiplicity = 1

 SCF Done:  E(RHF) =  -1138.97799397     A.U. after   17 cycles
 Normal termination of Gaussian 16 at Sat Apr  5 22:41:46 2025.
 Gaussian 16:  ES64L-G16RevC.01  3-Jul-2019

 ----------------------------------------------------------------------
 #t hf aug-cc-pvdz iop(5/13=1,5/36=2,99/5=2) pseudo=read geom=check gue
 ss=(read,tcheck) scf=(maxcycle=1)
 ----------------------------------------------------------------------
 -----
 title
 -----
 Structure from the checkpoint file:  "4-chloro-1-2-thiazole-5-carbaldehyde.chk"
 Charge =  0 Multiplicity = 1

                         Standard orientation:
 ---------------------------------------------------------------------
 Center     Atomic      Atomic             Coordinates (Angstroms)
 Number     Number       Type             X           Y           Z
 ---------------------------------------------------------------------
      1         17           0        1.997780   -1.371459    0.000000
      2         16           0       -1.725995    0.605097    0.000000
      3          8           0        0.396341    2.866951    0.000000
      4          7           0       -1.923957   -1.041509    0.000000
      5          6           0        0.000000    0.542410    0.000000
      6          6           0        0.370267   -0.782870    0.000000
      7          6           0       -0.756625   -1.641068    0.000000
      8          6           0        0.840877    1.741435    0.000000
      9          1           0       -0.703404   -2.720895    0.000000
     10          1           0        1.926917    1.549668    0.000000
 ---------------------------------------------------------------------

 SCF Done:  E(RHF) =  -1139.10497782     A.U. after    2 cycles

 The electronic state is 1-A'.
 Alpha  occ. eigenvalues -- -103.70797 -93.62323 -20.60312 -15.69481 -11.38099
 Alpha  occ. eigenvalues --  -11.35316 -11.32667 -11.32246 -10.74054  -8.91777
 Alpha  occ. eigenvalues --   -8.39801  -8.39476  -8.39456  -6.25911  -6.25734
 Alpha  occ. eigenvalues --   -6.25334  -1.38857  -1.29203  -1.21702  -1.09134
 Alpha  occ. eigenvalues --   -1.01849  -0.92290  -0.81517  -0.78434  -0.71647
 Alpha  occ. eigenvalues --   -0.69731  -0.65586  -0.62351  -0.61213  -0.56985
 Alpha  occ. eigenvalues --   -0.54151  -0.53137  -0.50829  -0.47764  -0.46854
 Alpha  occ. eigenvalues --   -0.40244  -0.37666
 Alpha virt. eigenvalues --    0.01565   0.03416   0.04145   0.06608   0.07664
 Alpha virt. eigenvalues --    0.08312   0.08931   0.09731   0.10888   0.11586
 Alpha virt. eigenvalues --    0.12189   0.13286   0.13454   0.15125   0.15278

 Mulliken charges:
               1
     1  Cl  -0.347975
     2  S    0.830052
     3  O   -0.460391
     4  N   -0.871496
     5  C    0.135631
     6  C   -0.179609
     7  C    0.680433
     8  C    0.567088
     9  H   -0.240771
    10  H   -0.112962
 Sum of Mulliken charges =  -0.00000

 Dipole moment (field-independent basis, Debye):
    X=              1.4776    Y=             -2.5474    Z=              0.0000  Tot=              2.9449

 Test job not archived.
 1\1\GINC-SE223\SP\RHF\Aug-CC-pVDZ\C4H2Cl1N1O1S1\OHZDE\05-Apr-2025\0\\#
 t hf aug-cc-pvdz iop(5/13=1,5/36=2,99/5=2) pseudo=read geom=check gues
 s=(read,tcheck) scf=(maxcycle=1)\\title\\0,1\Cl,0,1.99778,-1.371459,0.
 \S,0,-1.725995,0.605097,0.\O,0,0.396341,2.866951,0.\N,0,-1.923957,-1.0
 41509,0.\C,0,0.,0.54241,0.\C,0,0.370267,-0.78287,0.\C,0,-0.756625,-1.6
 41068,0.\C,0,0.840877,1.741435,0.\H,0,-0.703404,-2.720895,0.\H,0,1.926
 917,1.549668,0.\\Version=ES64L-G16RevC.01\State=1-A'\HF=-1139.1049778\
 RMSD=1.524e-02\Dipole=0.581322,-1.0022242,0.\Quadrupole=1.6477192,-3.4

 Normal termination of Gaussian 16 at Sat Apr  5 22:41:53 2025.
