 Gaussian 16, Revision C.01,

 ----------------------------------------------------------------------
 #t hf aug-cc-pvdz symm=none int=(grid=ultrafine) guess=(read,tcheck) s
 table=(opt,rrhf)
 ----------------------------------------------------------------------
 -----
 title
 -----
 Symbolic Z-matrix:
 Charge =  0 Multiplicity = 1

 SCF Done:  E(RHF) =  -1164.15911067     A.U. after   15 cycles
 Normal termination of Gaussian 16 at Sat Apr  5 22:42:20 2025.
 Gaussian 16:  ES64L-G16RevC.01  3-Jul-2019

 ----------------------------------------------------------------------
 #t hf aug-cc-pvdz iop(5/13=1,5/36=2,99/5=2) pseudo=read geom=check gue
 ss=(read,tcheck) scf=(maxcycle=1)
 ----------------------------------------------------------------------
 -----
 title
 -----
 Structure from the checkpoint file:  "4-chloromethyl-2-fluoro-1-3-thiazole.chk"
 Charge =  0 Multiplicity = 1

                         Standard orientation:
 ---------------------------------------------------------------------
 Center     Atomic      Atomic             Coordinates (Angstroms)
 Number     Number       Type             X           Y           Z
 ---------------------------------------------------------------------
      1         17           0       -2.893971   -0.323448   -0.516915
      2         16           0        1.947247    0.982404   -0.300395
      3          9           0        2.454522   -1.612150   -0.075441
      4          7           0        0.331438   -0.906310    0.410222
      5          6           0       -0.387056    0.275290    0.443852
      6          6           0        1.530280   -0.673246    0.042767
      7          6           0        0.310052    1.391096    0.099770
      8          6           0       -1.816007    0.247130    0.843769
      9          1           0       -0.036503    2.408900    0.047814
     10          1           0       -2.175019    1.233905    1.114544
     11          1           0       -1.981283   -0.450741    1.657975
 ---------------------------------------------------------------------

 SCF Done:  E(RHF) =  -1164.29654591     A.U. after    2 cycles

 The electronic state is 1-A.
 Alpha  occ. eigenvalues -- -103.65526 -93.60538 -26.18282 -15.65904 -11.43013
 Alpha  occ. eigenvalues --  -11.32537 -11.31706 -11.30013 -10.68770  -8.90363
 Alpha  occ. eigenvalues --   -8.34487  -8.34193  -8.34184  -6.24452  -6.24350
 Alpha  occ. eigenvalues --   -6.23956  -1.72833  -1.29537  -1.16617  -1.08759
 Alpha  occ. eigenvalues --   -1.04983  -0.94342  -0.88347  -0.83625  -0.79819
 Alpha  occ. eigenvalues --   -0.76130  -0.73599  -0.66353  -0.62612  -0.60406
 Alpha  occ. eigenvalues --   -0.59060  -0.55193  -0.53256  -0.46670  -0.45714
 Alpha  occ. eigenvalues --   -0.45293  -0.41873  -0.36303
 Alpha virt. eigenvalues --    0.02939   0.04229   0.05567   0.06798   0.07242
 Alpha virt. eigenvalues --    0.08208   0.08724   0.10685   0.10896   0.11178
 Alpha virt. eigenvalues --    0.11560   0.12427   0.13995   0.14507   0.15268

 Mulliken charges:
               1
     1  Cl  -0.116724
     2  S    0.555357
     3  F   -0.260034
     4  N   -0.559313
     5  C    0.514760
     6  C    0.034234
     7  C    0.087021
     8  C    0.153294
     9  H   -0.397115
    10  H   -0.013142
    11  H    0.001661
 Sum of Mulliken charges =  -0.00000

 Dipole moment (field-independent basis, Debye):
    X=              0.6621    Y=              3.4773    Z=              1.3415  Tot=              3.7855

 Test job not archived.
 1\1\GINC-SE202\SP\RHF\Aug-CC-pVDZ\C4H3Cl1F1N1S1\OHZDE\05-Apr-2025\0\\#
 t hf aug-cc-pvdz iop(5/13=1,5/36=2,99/5=2) pseudo=read geom=check gues
 s=(read,tcheck) scf=(maxcycle=1)\\title\\0,1\Cl,0,-2.893971,-0.323448,
 -0.516915\S,0,1.947247,0.982404,-0.300395\F,0,2.454522,-1.61215,-0.075
 441\N,0,0.331438,-0.90631,0.410222\C,0,-0.387056,0.27529,0.443852\C,0,
 1.53028,-0.673246,0.042767\C,0,0.310052,1.391096,0.09977\C,0,-1.816007
 ,0.24713,0.843769\H,0,-0.036503,2.4089,0.047814\H,0,-2.175019,1.233905
 ,1.114544\H,0,-1.981283,-0.450741,1.657975\\Version=ES64L-G16RevC.01\S

 Normal termination of Gaussian 16 at Sat Apr  5 22:43:18 2025.
