 Gaussian 16, Revision C.01,

 ----------------------------------------------------------------------
 #t hf aug-cc-pvdz symm=none int=(grid=ultrafine) guess=(read,tcheck) s
 table=(opt,rrhf)
 ----------------------------------------------------------------------
 -----
 title
 -----
 Symbolic Z-matrix:
 Charge =  0 Multiplicity = 1

 SCF Done:  E(RHF) =  -724.461469617     A.U. after   15 cycles
 Normal termination of Gaussian 16 at Sat Apr  5 22:41:37 2025.
 Gaussian 16:  ES64L-G16RevC.01  3-Jul-2019

 ----------------------------------------------------------------------
 #t hf aug-cc-pvdz iop(5/13=1,5/36=2,99/5=2) pseudo=read geom=check gue
 ss=(read,tcheck) scf=(maxcycle=1)
 ----------------------------------------------------------------------
 -----
 title
 -----
 Structure from the checkpoint file:  "4-chloro-3H-1-2-dioxole.chk"
 Charge =  0 Multiplicity = 1

                         Standard orientation:
 ---------------------------------------------------------------------
 Center     Atomic      Atomic             Coordinates (Angstroms)
 Number     Number       Type             X           Y           Z
 ---------------------------------------------------------------------
      1         17           0        2.035348   -0.011575   -0.003987
      2          8           0       -1.801008   -0.820277    0.011276
      3          8           0       -1.875262    0.660254   -0.028353
      4          6           0        0.315681   -0.055902   -0.001214
      5          6           0       -0.477853   -1.114474    0.001648
      6          6           0       -0.531551    1.179920    0.019645
      7          1           0       -0.253678   -2.168788    0.002003
      8          1           0       -0.374491    1.821150   -0.853262
      9          1           0       -0.400253    1.767328    0.935181
 ---------------------------------------------------------------------

 SCF Done:  E(RHF) =  -724.564494469     A.U. after    2 cycles

 The electronic state is 1-A.
 Alpha  occ. eigenvalues -- -103.69166 -20.67490 -20.66267 -11.33554 -11.32973
 Alpha  occ. eigenvalues --  -11.31467 -10.72393  -8.38147  -8.37817  -8.37799
 Alpha  occ. eigenvalues --   -1.46324  -1.25531  -1.21020  -1.06529  -0.91278
 Alpha  occ. eigenvalues --   -0.82632  -0.74041  -0.72409  -0.64231  -0.61606
 Alpha  occ. eigenvalues --   -0.61027  -0.60328  -0.57076  -0.54907  -0.49206
 Alpha  occ. eigenvalues --   -0.48433  -0.36030
 Alpha virt. eigenvalues --    0.03612   0.04310   0.05406   0.07292   0.09494
 Alpha virt. eigenvalues --    0.09932   0.10411   0.10790   0.14546   0.15045
 Alpha virt. eigenvalues --    0.15511   0.15743   0.16547   0.17125   0.17695

 Mulliken charges:
               1
     1  Cl  -0.242319
     2  O   -0.458994
     3  O   -0.431875
     4  C   -0.652403
     5  C    1.216020
     6  C    0.835721
     7  H   -0.196670
     8  H   -0.038803
     9  H   -0.030677
 Sum of Mulliken charges =  -0.00000

 Dipole moment (field-independent basis, Debye):
    X=              1.4958    Y=              0.0444    Z=              0.0651  Tot=              1.4979

 Test job not archived.
 1\1\GINC-SE169\SP\RHF\Aug-CC-pVDZ\C3H3Cl1O2\OHZDE\05-Apr-2025\0\\#t hf
  aug-cc-pvdz iop(5/13=1,5/36=2,99/5=2) pseudo=read geom=check guess=(r
 ead,tcheck) scf=(maxcycle=1)\\title\\0,1\Cl,0,2.035348,-0.011575,-0.00
 3987\O,0,-1.801008,-0.820277,0.011276\O,0,-1.875262,0.660254,-0.028353
 \C,0,0.315681,-0.055902,-0.001214\C,0,-0.477853,-1.114474,0.001648\C,0
 ,-0.531551,1.17992,0.019645\H,0,-0.253678,-2.168788,0.002003\H,0,-0.37
 4491,1.82115,-0.853262\H,0,-0.400253,1.767328,0.935181\\Version=ES64L-
 G16RevC.01\State=1-A\HF=-724.5644945\RMSD=6.155e-03\Dipole=0.5885097,0

 Normal termination of Gaussian 16 at Sat Apr  5 22:41:41 2025.
