 Gaussian 16, Revision C.01,

 ----------------------------------------------------------------------
 #t hf aug-cc-pvdz symm=none int=(grid=ultrafine) guess=(read,tcheck) s
 table=(opt,rrhf)
 ----------------------------------------------------------------------
 -----
 title
 -----
 Symbolic Z-matrix:
 Charge =  0 Multiplicity = 1

 SCF Done:  E(RHF) =  -683.743916523     A.U. after   15 cycles
 Normal termination of Gaussian 16 at Sat Apr  5 22:41:38 2025.
 Gaussian 16:  ES64L-G16RevC.01  3-Jul-2019

 ----------------------------------------------------------------------
 #t hf aug-cc-pvdz iop(5/13=1,5/36=2,99/5=2) pseudo=read geom=check gue
 ss=(read,tcheck) scf=(maxcycle=1)
 ----------------------------------------------------------------------
 -----
 title
 -----
 Structure from the checkpoint file:  "4-chloro-pyrazole.chk"
 Charge =  0 Multiplicity = 1

                         Standard orientation:
 ---------------------------------------------------------------------
 Center     Atomic      Atomic             Coordinates (Angstroms)
 Number     Number       Type             X           Y           Z
 ---------------------------------------------------------------------
      1         17           0       -2.003064   -0.016547   -0.000005
      2          7           0        1.843891    0.756301    0.000005
      3          7           0        1.813601   -0.586654    0.000004
      4          6           0       -0.275304   -0.001147   -0.000000
      5          6           0        0.569529    1.124682    0.000002
      6          6           0        0.559203   -1.094849    0.000001
      7          1           0        2.680219   -1.094481    0.000006
      8          1           0        0.296397    2.165829    0.000002
      9          1           0        0.352459   -2.149705   -0.000000
 ---------------------------------------------------------------------

 SCF Done:  E(RHF) =  -683.827894009     A.U. after    2 cycles

 The electronic state is 1-A.
 Alpha  occ. eigenvalues -- -103.67480 -15.72195 -15.67110 -11.30642 -11.29922
 Alpha  occ. eigenvalues --  -11.28150 -10.70718  -8.36471  -8.36148  -8.36128
 Alpha  occ. eigenvalues --   -1.35767  -1.18801  -1.09611  -1.03868  -0.83932
 Alpha  occ. eigenvalues --   -0.80667  -0.75472  -0.63488  -0.62975  -0.60400
 Alpha  occ. eigenvalues --   -0.59878  -0.51360  -0.49336  -0.45462  -0.37806
 Alpha  occ. eigenvalues --   -0.35098
 Alpha virt. eigenvalues --    0.02635   0.04512   0.04672   0.08583   0.08806
 Alpha virt. eigenvalues --    0.09963   0.11291   0.11430   0.13158   0.14837
 Alpha virt. eigenvalues --    0.15787   0.16102   0.16476   0.17450   0.17838

 Mulliken charges:
               1
     1  Cl  -0.262497
     2  N   -0.550345
     3  N   -0.235172
     4  C   -0.213398
     5  C    0.844455
     6  C    0.934692
     7  H   -0.002418
     8  H   -0.233731
     9  H   -0.281585
 Sum of Mulliken charges =  -0.00000

 Dipole moment (field-independent basis, Debye):
    X=              1.3431    Y=             -2.2936    Z=              0.0000  Tot=              2.6579

 Test job not archived.
 1\1\GINC-SE171\SP\RHF\Aug-CC-pVDZ\C3H3Cl1N2\OHZDE\05-Apr-2025\0\\#t hf
  aug-cc-pvdz iop(5/13=1,5/36=2,99/5=2) pseudo=read geom=check guess=(r
 ead,tcheck) scf=(maxcycle=1)\\title\\0,1\Cl,0,-2.003064,-0.016547,-0.0
 00005\N,0,1.843891,0.756301,0.000005\N,0,1.813601,-0.586654,0.000004\C
 ,0,-0.275304,-0.001147,0.\C,0,0.569529,1.124682,0.000002\C,0,0.559203,
 -1.094849,0.000001\H,0,2.680219,-1.094481,0.000006\H,0,0.296397,2.1658
 29,0.000002\H,0,0.352459,-2.149705,0.\\Version=ES64L-G16RevC.01\State=
 1-A\HF=-683.827894\RMSD=6.713e-03\Dipole=0.5283968,-0.9023567,0.000000

 Normal termination of Gaussian 16 at Sat Apr  5 22:41:41 2025.
