 Gaussian 16, Revision C.01,

 ----------------------------------------------------------------------
 #t hf aug-cc-pvdz symm=none int=(grid=ultrafine) guess=(read,tcheck) s
 table=(opt,rrhf)
 ----------------------------------------------------------------------
 -----
 title
 -----
 Symbolic Z-matrix:
 Charge =  0 Multiplicity = 1

 SCF Done:  E(RHF) =  -762.431888274     A.U. after   16 cycles
 Normal termination of Gaussian 16 at Sat Apr  5 22:41:40 2025.
 Gaussian 16:  ES64L-G16RevC.01  3-Jul-2019

 ----------------------------------------------------------------------
 #t hf aug-cc-pvdz iop(5/13=1,5/36=2,99/5=2) pseudo=read geom=check gue
 ss=(read,tcheck) scf=(maxcycle=1)
 ----------------------------------------------------------------------
 -----
 title
 -----
 Structure from the checkpoint file:  "4-chloro-2-butynoic_acid.chk"
 Charge =  0 Multiplicity = 1

                         Standard orientation:
 ---------------------------------------------------------------------
 Center     Atomic      Atomic             Coordinates (Angstroms)
 Number     Number       Type             X           Y           Z
 ---------------------------------------------------------------------
      1         17           0        2.873531    0.486714    0.000430
      2          8           0       -2.513569    1.387263   -0.000565
      3          8           0       -3.095526   -0.762540   -0.000395
      4          6           0       -2.179793    0.237520   -0.000377
      5          6           0       -0.799428   -0.203129   -0.000117
      6          6           0        0.356403   -0.534339    0.000095
      7          6           0        1.742195   -0.935325    0.000352
      8          1           0       -2.655104   -1.621927   -0.000224
      9          1           0        1.980933   -1.519238   -0.885367
     10          1           0        1.980645   -1.519107    0.886235
 ---------------------------------------------------------------------

 SCF Done:  E(RHF) =  -762.547023921     A.U. after    2 cycles

 The electronic state is 1-A.
 Alpha  occ. eigenvalues -- -103.67919 -20.64670 -20.58519 -11.44051 -11.36241
 Alpha  occ. eigenvalues --  -11.30945 -11.29122 -10.71138  -8.36860  -8.36548
 Alpha  occ. eigenvalues --   -8.36537  -1.44324  -1.35519  -1.19547  -1.09463
 Alpha  occ. eigenvalues --   -0.99609  -0.90625  -0.83663  -0.71559  -0.69895
 Alpha  occ. eigenvalues --   -0.68207  -0.66650  -0.63836  -0.60459  -0.52587
 Alpha  occ. eigenvalues --   -0.51163  -0.48397  -0.48022  -0.44084  -0.43907
 Alpha virt. eigenvalues --    0.01937   0.04072   0.04285   0.06422   0.07655
 Alpha virt. eigenvalues --    0.08027   0.09270   0.10281   0.11159   0.12203
 Alpha virt. eigenvalues --    0.12462   0.13304   0.14352   0.15377   0.15528

 Mulliken charges:
               1
     1  Cl  -0.060331
     2  O   -0.420485
     3  O   -0.487586
     4  C    0.557457
     5  C   -0.024732
     6  C    0.073983
     7  C   -0.257515
     8  H    0.206512
     9  H    0.206349
    10  H    0.206347
 Sum of Mulliken charges =  -0.00000

 Dipole moment (field-independent basis, Debye):
    X=              2.4474    Y=             -5.4965    Z=              0.0009  Tot=              6.0168

 Test job not archived.
 1\1\GINC-SE168\SP\RHF\Aug-CC-pVDZ\C4H3Cl1O2\OHZDE\05-Apr-2025\0\\#t hf
  aug-cc-pvdz iop(5/13=1,5/36=2,99/5=2) pseudo=read geom=check guess=(r
 ead,tcheck) scf=(maxcycle=1)\\title\\0,1\Cl,0,2.873531,0.486714,0.0004
 3\O,0,-2.513569,1.387263,-0.000565\O,0,-3.095526,-0.76254,-0.000395\C,
 0,-2.179793,0.23752,-0.000377\C,0,-0.799428,-0.203129,-0.000117\C,0,0.
 356403,-0.534339,0.000095\C,0,1.742195,-0.935325,0.000352\H,0,-2.65510
 4,-1.621927,-0.000224\H,0,1.980933,-1.519238,-0.885367\H,0,1.980645,-1
 .519107,0.886235\\Version=ES64L-G16RevC.01\State=1-A\HF=-762.5470239\R

 Normal termination of Gaussian 16 at Sat Apr  5 22:41:44 2025.
