 Gaussian 16, Revision C.01,

 ----------------------------------------------------------------------
 #t hf aug-cc-pvdz symm=none int=(grid=ultrafine) guess=(read,tcheck) s
 table=(opt,rrhf)
 ----------------------------------------------------------------------
 -----
 title
 -----
 Symbolic Z-matrix:
 Charge =  0 Multiplicity = 1

 SCF Done:  E(RHF) =  -764.523303715     A.U. after   15 cycles
 Normal termination of Gaussian 16 at Sat Apr  5 22:42:21 2025.
 Gaussian 16:  ES64L-G16RevC.01  3-Jul-2019

 ----------------------------------------------------------------------
 #t hf aug-cc-pvdz iop(5/13=1,5/36=2,99/5=2) pseudo=read geom=check gue
 ss=(read,tcheck) scf=(maxcycle=1)
 ----------------------------------------------------------------------
 -----
 title
 -----
 Structure from the checkpoint file:  "4-chlorophenol.chk"
 Charge =  0 Multiplicity = 1

                         Standard orientation:
 ---------------------------------------------------------------------
 Center     Atomic      Atomic             Coordinates (Angstroms)
 Number     Number       Type             X           Y           Z
 ---------------------------------------------------------------------
      1          6           0        1.214937   -1.114720    0.000000
      2          6           0       -1.194532   -1.123734    0.000000
      3          6           0        1.208906    0.272121    0.000000
      4          6           0       -1.202251    0.266088    0.000000
      5          6           0        0.012562   -1.816947    0.000000
      6          6           0        0.000000    0.956110    0.000000
      7          8           0        0.080599   -3.181991    0.000000
      8         17           0       -0.005372    2.710582    0.000000
      9          1           0        2.146145   -1.663099    0.000000
     10          1           0       -2.133071   -1.664730    0.000000
     11          1           0        2.139489    0.820428    0.000000
     12          1           0       -2.137764    0.805811    0.000000
     13          1           0       -0.805999   -3.555873    0.000000
 ---------------------------------------------------------------------

 SCF Done:  E(RHF) =  -764.634068980     A.U. after    2 cycles

 The electronic state is 1-A'.
 Alpha  occ. eigenvalues -- -103.66421 -20.61626 -11.32743 -11.30681 -11.26893
 Alpha  occ. eigenvalues --  -11.26711 -11.26019 -11.25454 -10.69692  -8.35430
 Alpha  occ. eigenvalues --   -8.35128  -8.35106  -1.37906  -1.19828  -1.13343
 Alpha  occ. eigenvalues --   -1.03669  -0.99950  -0.87292  -0.83538  -0.76227
 Alpha  occ. eigenvalues --   -0.70058  -0.66799  -0.63473  -0.61904  -0.61597
 Alpha  occ. eigenvalues --   -0.59904  -0.54318  -0.54124  -0.52241  -0.46815
 Alpha  occ. eigenvalues --   -0.46699  -0.36422  -0.32811
 Alpha virt. eigenvalues --    0.02806   0.04108   0.04523   0.05978   0.06614
 Alpha virt. eigenvalues --    0.08932   0.09589   0.09673   0.11021   0.12858
 Alpha virt. eigenvalues --    0.13054   0.13087   0.13682   0.13781   0.14349

 Mulliken charges:
               1
     1  C    0.882637
     2  C    0.832152
     3  C    0.614085
     4  C    0.489137
     5  C    0.239024
     6  C   -0.366995
     7  O   -0.563934
     8  Cl  -0.376556
     9  H   -0.483629
    10  H   -0.563536
    11  H   -0.421786
    12  H   -0.408824
    13  H    0.128225
 Sum of Mulliken charges =  -0.00000

 Dipole moment (field-independent basis, Debye):
    X=             -1.4066    Y=             -1.8889    Z=              0.0000  Tot=              2.3551

 Test job not archived.
 1\1\GINC-SE203\SP\RHF\Aug-CC-pVDZ\C6H5Cl1O1\OHZDE\05-Apr-2025\0\\#t hf
  aug-cc-pvdz iop(5/13=1,5/36=2,99/5=2) pseudo=read geom=check guess=(r
 ead,tcheck) scf=(maxcycle=1)\\title\\0,1\C,0,1.214937,-1.11472,0.\C,0,
 -1.194532,-1.123734,0.\C,0,1.208906,0.272121,0.\C,0,-1.202251,0.266088
 ,0.\C,0,0.012562,-1.816947,0.\C,0,0.,0.95611,0.\O,0,0.0806,-3.181991,0
 .\Cl,0,-0.005372,2.710582,0.\H,0,2.146145,-1.663099,0.\H,0,-2.133071,-
 1.66473,0.\H,0,2.139489,0.820428,0.\H,0,-2.137764,0.805811,0.\H,0,-0.8
 05998,-3.555873,0.\\Version=ES64L-G16RevC.01\State=1-A'\HF=-764.634069

 Normal termination of Gaussian 16 at Sat Apr  5 22:43:17 2025.
