 Gaussian 16, Revision C.01,

 ----------------------------------------------------------------------
 #t hf aug-cc-pvdz symm=none int=(grid=ultrafine) guess=(read,tcheck) s
 table=(opt,rrhf)
 ----------------------------------------------------------------------
 -----
 title
 -----
 Symbolic Z-matrix:
 Charge =  0 Multiplicity = 1

 SCF Done:  E(RHF) =  -758.549548588     A.U. after   15 cycles
 Normal termination of Gaussian 16 at Sat Apr  5 22:41:42 2025.
 Gaussian 16:  ES64L-G16RevC.01  3-Jul-2019

 ----------------------------------------------------------------------
 #t hf aug-cc-pvdz iop(5/13=1,5/36=2,99/5=2) pseudo=read geom=check gue
 ss=(read,tcheck) scf=(maxcycle=1)
 ----------------------------------------------------------------------
 -----
 title
 -----
 Structure from the checkpoint file:  "4-chloro-1-hydroxy-pyrazole.chk"
 Charge =  0 Multiplicity = 1

                         Standard orientation:
 ---------------------------------------------------------------------
 Center     Atomic      Atomic             Coordinates (Angstroms)
 Number     Number       Type             X           Y           Z
 ---------------------------------------------------------------------
      1         17           0        2.401410   -0.258167   -0.000042
      2          8           0       -2.704169   -0.697729    0.000040
      3          7           0       -1.435056   -0.167750    0.000025
      4          7           0       -1.265034    1.139232    0.000023
      5          6           0        0.703455    0.056232   -0.000012
      6          6           0       -0.307179   -0.895635    0.000004
      7          6           0        0.067053    1.299981    0.000002
      8          1           0       -3.268039    0.091657    0.000098
      9          1           0       -0.301932   -1.969154    0.000002
     10          1           0        0.500000    2.284319   -0.000003
 ---------------------------------------------------------------------

 SCF Done:  E(RHF) =  -758.657297854     A.U. after    2 cycles

 The electronic state is 1-A.
 Alpha  occ. eigenvalues -- -103.67776 -20.66792 -15.79101 -15.68191 -11.31168
 Alpha  occ. eigenvalues --  -11.30549 -11.28812 -10.71009  -8.36764  -8.36438
 Alpha  occ. eigenvalues --   -8.36418  -1.46814  -1.32453  -1.18979  -1.09621
 Alpha  occ. eigenvalues --   -1.02866  -0.85901  -0.82069  -0.75983  -0.71137
 Alpha  occ. eigenvalues --   -0.70705  -0.63288  -0.61372  -0.59488  -0.57795
 Alpha  occ. eigenvalues --   -0.50954  -0.50473  -0.46649  -0.37260  -0.35249
 Alpha virt. eigenvalues --    0.03448   0.04126   0.04584   0.08345   0.08579
 Alpha virt. eigenvalues --    0.10429   0.11257   0.11391   0.12622   0.14752
 Alpha virt. eigenvalues --    0.15870   0.16111   0.16887   0.16954   0.17756

 Mulliken charges:
               1
     1  Cl  -0.249886
     2  O   -0.582315
     3  N    0.095231
     4  N   -0.444196
     5  C   -0.146608
     6  C    0.774502
     7  C    0.870274
     8  H    0.222466
     9  H   -0.288042
    10  H   -0.251427
 Sum of Mulliken charges =  -0.00000

 Dipole moment (field-independent basis, Debye):
    X=             -1.4638    Y=             -0.2504    Z=              0.0001  Tot=              1.4851

 Test job not archived.
 1\1\GINC-SE221\SP\RHF\Aug-CC-pVDZ\C3H3Cl1N2O1\OHZDE\05-Apr-2025\0\\#t
 hf aug-cc-pvdz iop(5/13=1,5/36=2,99/5=2) pseudo=read geom=check guess=
 (read,tcheck) scf=(maxcycle=1)\\title\\0,1\Cl,0,2.40141,-0.258167,-0.0
 00042\O,0,-2.704169,-0.697729,0.00004\N,0,-1.435056,-0.16775,0.000025\
 N,0,-1.265034,1.139232,0.000023\C,0,0.703455,0.056232,-0.000012\C,0,-0
 .307179,-0.895635,0.000004\C,0,0.067053,1.299981,0.000002\H,0,-3.26803
 9,0.091657,0.000098\H,0,-0.301932,-1.969154,0.000002\H,0,0.5,2.284319,
 -0.000003\\Version=ES64L-G16RevC.01\State=1-A\HF=-758.6572979\RMSD=6.6

 Normal termination of Gaussian 16 at Sat Apr  5 22:41:47 2025.
