 Gaussian 16, Revision C.01,

 ----------------------------------------------------------------------
 #t hf aug-cc-pvdz symm=none int=(grid=ultrafine) guess=(read,tcheck) s
 table=(opt,rrhf)
 ----------------------------------------------------------------------
 -----
 title
 -----
 Symbolic Z-matrix:
 Charge =  0 Multiplicity = 1

 SCF Done:  E(RHF) =  -1064.38203315     A.U. after   15 cycles
 Normal termination of Gaussian 16 at Sat Apr  5 22:41:38 2025.
 Gaussian 16:  ES64L-G16RevC.01  3-Jul-2019

 ----------------------------------------------------------------------
 #t hf aug-cc-pvdz iop(5/13=1,5/36=2,99/5=2) pseudo=read geom=check gue
 ss=(read,tcheck) scf=(maxcycle=1)
 ----------------------------------------------------------------------
 -----
 title
 -----
 Structure from the checkpoint file:  "4-chloro-1-2-3-oxathiazolidine.chk"
 Charge =  0 Multiplicity = 1

                         Standard orientation:
 ---------------------------------------------------------------------
 Center     Atomic      Atomic             Coordinates (Angstroms)
 Number     Number       Type             X           Y           Z
 ---------------------------------------------------------------------
      1         17           0        2.146887   -0.158355   -0.305057
      2         16           0       -1.585845   -0.628523   -0.400452
      3          8           0       -1.548273    1.014367    0.043950
      4          7           0       -0.277672   -1.009832    0.627787
      5          6           0        0.609969    0.131067    0.637735
      6          6           0       -0.158865    1.344018    0.027468
      7          1           0       -0.595129   -1.227421    1.564642
      8          1           0        0.945527    0.317665    1.652134
      9          1           0        0.182044    1.521159   -0.992647
     10          1           0       -0.032741    2.240381    0.631744
 ---------------------------------------------------------------------

 SCF Done:  E(RHF) =  -1064.49011743     A.U. after    2 cycles

 The electronic state is 1-A.
 Alpha  occ. eigenvalues -- -103.65717 -93.62357 -20.62080 -15.67779 -11.36536
 Alpha  occ. eigenvalues --  -11.32270 -10.69016  -8.91234  -8.34726  -8.34439
 Alpha  occ. eigenvalues --   -8.34434  -6.25386  -6.25175  -6.24644  -1.37434
 Alpha  occ. eigenvalues --   -1.22787  -1.14566  -1.01343  -0.88818  -0.84759
 Alpha  occ. eigenvalues --   -0.73596  -0.69188  -0.66138  -0.63389  -0.59927
 Alpha  occ. eigenvalues --   -0.54236  -0.52398  -0.50569  -0.46331  -0.45555
 Alpha  occ. eigenvalues --   -0.45357  -0.36451
 Alpha virt. eigenvalues --    0.02945   0.04474   0.05292   0.06340   0.07630
 Alpha virt. eigenvalues --    0.08222   0.09615   0.11704   0.11943   0.13056
 Alpha virt. eigenvalues --    0.14045   0.14358   0.15797   0.16673   0.17102

 Mulliken charges:
               1
     1  Cl  -0.111791
     2  S    0.881016
     3  O   -0.869100
     4  N   -0.642553
     5  C    0.001910
     6  C    0.917002
     7  H    0.020248
     8  H    0.018867
     9  H   -0.081557
    10  H   -0.134043
 Sum of Mulliken charges =   0.00000

 Dipole moment (field-independent basis, Debye):
    X=             -0.2472    Y=              0.6117    Z=              2.1479  Tot=              2.2470

 Test job not archived.
 1\1\GINC-SE047\SP\RHF\Aug-CC-pVDZ\C2H4Cl1N1O1S1\OHZDE\05-Apr-2025\0\\#
 t hf aug-cc-pvdz iop(5/13=1,5/36=2,99/5=2) pseudo=read geom=check gues
 s=(read,tcheck) scf=(maxcycle=1)\\title\\0,1\Cl,0,2.146887,-0.158355,-
 0.305057\S,0,-1.585845,-0.628523,-0.400452\O,0,-1.548273,1.014367,0.04
 395\N,0,-0.277672,-1.009832,0.627787\C,0,0.609969,0.131067,0.637735\C,
 0,-0.158865,1.344018,0.027468\H,0,-0.595129,-1.227421,1.564642\H,0,0.9
 45527,0.317665,1.652134\H,0,0.182044,1.521159,-0.992647\H,0,-0.032741,
 2.240381,0.631744\\Version=ES64L-G16RevC.01\State=1-A\HF=-1064.4901174

 Normal termination of Gaussian 16 at Sat Apr  5 22:41:42 2025.
