 Gaussian 16, Revision C.01,

 ----------------------------------------------------------------------
 #t hf aug-cc-pvdz symm=none int=(grid=ultrafine) guess=(read,tcheck) s
 table=(opt,rrhf)
 ----------------------------------------------------------------------
 -----
 title
 -----
 Symbolic Z-matrix:
 Charge =  0 Multiplicity = 1

 SCF Done:  E(RHF) =  -758.586461149     A.U. after   15 cycles
 Normal termination of Gaussian 16 at Sat Apr  5 22:41:40 2025.
 Gaussian 16:  ES64L-G16RevC.01  3-Jul-2019

 ----------------------------------------------------------------------
 #t hf aug-cc-pvdz iop(5/13=1,5/36=2,99/5=2) pseudo=read geom=check gue
 ss=(read,tcheck) scf=(maxcycle=1)
 ----------------------------------------------------------------------
 -----
 title
 -----
 Structure from the checkpoint file:  "4-chloro-1-2-oxazol-3-amine.chk"
 Charge =  0 Multiplicity = 1

                         Standard orientation:
 ---------------------------------------------------------------------
 Center     Atomic      Atomic             Coordinates (Angstroms)
 Number     Number       Type             X           Y           Z
 ---------------------------------------------------------------------
      1         17           0        2.032090   -0.194629   -0.000258
      2          8           0       -1.737574   -1.136233    0.004416
      3          7           0       -1.857611    0.269811    0.007343
      4          7           0       -0.338436    2.066229   -0.073485
      5          6           0        0.315301   -0.344216   -0.003266
      6          6           0       -0.628792    0.728757   -0.004720
      7          6           0       -0.442310   -1.462994    0.002464
      8          1           0        0.555469    2.341498    0.298227
      9          1           0       -1.096227    2.686160    0.162543
     10          1           0       -0.197051   -2.510661    0.004428
 ---------------------------------------------------------------------

 SCF Done:  E(RHF) =  -758.694888559     A.U. after    2 cycles

 The electronic state is 1-A.
 Alpha  occ. eigenvalues -- -103.69450 -20.66451 -15.67843 -15.66010 -11.34787
 Alpha  occ. eigenvalues --  -11.34540 -11.31349 -10.72673  -8.38427  -8.38105
 Alpha  occ. eigenvalues --   -8.38076  -1.45386  -1.24456  -1.20166  -1.11018
 Alpha  occ. eigenvalues --   -1.05346  -0.85079  -0.82464  -0.74626  -0.70600
 Alpha  occ. eigenvalues --   -0.68263  -0.65593  -0.61463  -0.58796  -0.55089
 Alpha  occ. eigenvalues --   -0.51908  -0.50764  -0.46946  -0.37852  -0.36948
 Alpha virt. eigenvalues --    0.03129   0.03657   0.05700   0.07942   0.08498
 Alpha virt. eigenvalues --    0.09897   0.10640   0.10963   0.12652   0.13777
 Alpha virt. eigenvalues --    0.14335   0.15007   0.15409   0.16711   0.17176

 Mulliken charges:
               1
     1  Cl  -0.295948
     2  O   -0.600368
     3  N   -0.269250
     4  N   -0.224621
     5  C    0.218637
     6  C    0.658294
     7  C    0.729424
     8  H    0.010038
     9  H   -0.004423
    10  H   -0.221783
 Sum of Mulliken charges =  -0.00000

 Dipole moment (field-independent basis, Debye):
    X=              2.1465    Y=              0.7020    Z=              0.8845  Tot=              2.4254

 Test job not archived.
 1\1\GINC-SE154\SP\RHF\Aug-CC-pVDZ\C3H3Cl1N2O1\OHZDE\05-Apr-2025\0\\#t
 hf aug-cc-pvdz iop(5/13=1,5/36=2,99/5=2) pseudo=read geom=check guess=
 (read,tcheck) scf=(maxcycle=1)\\title\\0,1\Cl,0,2.03209,-0.194629,-0.0
 00258\O,0,-1.737574,-1.136233,0.004416\N,0,-1.857611,0.269811,0.007343
 \N,0,-0.338436,2.066229,-0.073485\C,0,0.315301,-0.344216,-0.003266\C,0
 ,-0.628792,0.728757,-0.00472\C,0,-0.44231,-1.462994,0.002464\H,0,0.555
 469,2.341498,0.298227\H,0,-1.096227,2.68616,0.162543\H,0,-0.197051,-2.
 510661,0.004428\\Version=ES64L-G16RevC.01\State=1-A\HF=-758.6948886\RM

 Normal termination of Gaussian 16 at Sat Apr  5 22:41:44 2025.
