 Gaussian 16, Revision C.01,

 ----------------------------------------------------------------------
 #t hf aug-cc-pvdz symm=none int=(grid=ultrafine) guess=(read,tcheck) s
 table=(opt,rrhf)
 ----------------------------------------------------------------------
 -----
 title
 -----
 Symbolic Z-matrix:
 Charge =  0 Multiplicity = 1

 SCF Done:  E(RHF) =  -341.427848272     A.U. after   12 cycles
 Normal termination of Gaussian 16 at Sat Apr  5 22:41:40 2025.
 Gaussian 16:  ES64L-G16RevC.01  3-Jul-2019

 ----------------------------------------------------------------------
 #t hf aug-cc-pvdz iop(5/13=1,5/36=2,99/5=2) pseudo=read geom=check gue
 ss=(read,tcheck) scf=(maxcycle=1)
 ----------------------------------------------------------------------
 -----
 title
 -----
 Structure from the checkpoint file:  "4-cyclopentene-1-3-dione.chk"
 Charge =  0 Multiplicity = 1

                         Standard orientation:
 ---------------------------------------------------------------------
 Center     Atomic      Atomic             Coordinates (Angstroms)
 Number     Number       Type             X           Y           Z
 ---------------------------------------------------------------------
      1          6           0        0.000000   -0.000000    1.088734
      2          6           0        0.000000    1.198351    0.149259
      3          6           0       -0.000000   -1.198351    0.149259
      4          6           0        0.000000    0.669044   -1.243983
      5          6           0       -0.000000   -0.669044   -1.243983
      6          8           0        0.000000    2.365037    0.458652
      7          8           0       -0.000000   -2.365037    0.458652
      8          1           0        0.878958   -0.000000    1.734426
      9          1           0       -0.878958    0.000000    1.734426
     10          1           0        0.000000    1.326391   -2.101506
     11          1           0       -0.000000   -1.326391   -2.101506
 ---------------------------------------------------------------------

 SCF Done:  E(RHF) =  -341.530691228     A.U. after    2 cycles

 The electronic state is 1-A1.
 Alpha  occ. eigenvalues --  -20.58913 -20.58913 -11.37199 -11.37194 -11.29868
 Alpha  occ. eigenvalues --  -11.29707 -11.27482  -1.38224  -1.37705  -1.16446
 Alpha  occ. eigenvalues --   -1.02255  -0.91814  -0.79909  -0.77160  -0.71976
 Alpha  occ. eigenvalues --   -0.66206  -0.66006  -0.65550  -0.62421  -0.61208
 Alpha  occ. eigenvalues --   -0.56741  -0.53672  -0.47606  -0.43710  -0.42876
 Alpha virt. eigenvalues --    0.02837   0.03134   0.04297   0.04639   0.05146
 Alpha virt. eigenvalues --    0.08577   0.09196   0.11027   0.11602   0.11879
 Alpha virt. eigenvalues --    0.13073   0.13729   0.14417   0.14618   0.14976

 Mulliken charges:
               1
     1  C    0.009226
     2  C    0.170430
     3  C    0.170430
     4  C    0.497487
     5  C    0.497487
     6  O   -0.478053
     7  O   -0.478053
     8  H    0.096940
     9  H    0.096940
    10  H   -0.291417
    11  H   -0.291417
 Sum of Mulliken charges =  -0.00000

 Dipole moment (field-independent basis, Debye):
    X=              0.0000    Y=              0.0000    Z=             -2.0942  Tot=              2.0942

 Test job not archived.
 1\1\GINC-SE205\SP\RHF\Aug-CC-pVDZ\C5H4O2\OHZDE\05-Apr-2025\0\\#t hf au
 g-cc-pvdz iop(5/13=1,5/36=2,99/5=2) pseudo=read geom=check guess=(read
 ,tcheck) scf=(maxcycle=1)\\title\\0,1\C,0,0.,0.,1.088734\C,0,0.,1.1983
 51,0.149259\C,0,0.,-1.198351,0.149259\C,0,0.,0.669044,-1.243983\C,0,0.
 ,-0.669044,-1.243983\O,0,0.,2.365037,0.458652\O,0,0.,-2.365037,0.45865
 2\H,0,0.878958,0.,1.734426\H,0,-0.878958,0.,1.734426\H,0,0.,1.326391,-
 2.101506\H,0,0.,-1.326391,-2.101506\\Version=ES64L-G16RevC.01\State=1-
 A1\HF=-341.5306912\RMSD=7.398e-03\Dipole=0.,0.,-0.8239368\Quadrupole=3

 Normal termination of Gaussian 16 at Sat Apr  5 22:41:44 2025.
