 Gaussian 16, Revision C.01,

 ----------------------------------------------------------------------
 #t hf aug-cc-pvdz symm=none int=(grid=ultrafine) guess=(read,tcheck) s
 table=(opt,rrhf)
 ----------------------------------------------------------------------
 -----
 title
 -----
 Symbolic Z-matrix:
 Charge =  0 Multiplicity = 1

 SCF Done:  E(RHF) =  -577.358008004     A.U. after   13 cycles
 Normal termination of Gaussian 16 at Sat Apr  5 22:42:33 2025.
 Gaussian 16:  ES64L-G16RevC.01  3-Jul-2019

 ----------------------------------------------------------------------
 #t hf aug-cc-pvdz iop(5/13=1,5/36=2,99/5=2) pseudo=read geom=check gue
 ss=(read,tcheck) scf=(maxcycle=1)
 ----------------------------------------------------------------------
 -----
 title
 -----
 Structure from the checkpoint file:  "4-difluoromethyl-1-3-dioxolan-2-one.chk"
 Charge =  0 Multiplicity = 1

                         Standard orientation:
 ---------------------------------------------------------------------
 Center     Atomic      Atomic             Coordinates (Angstroms)
 Number     Number       Type             X           Y           Z
 ---------------------------------------------------------------------
      1          9           0       -1.348626   -0.049956    1.364939
      2          9           0       -2.375705   -0.844928   -0.412965
      3          8           0        0.433224   -0.723724   -0.682853
      4          8           0        1.618313    0.882499    0.312093
      5          8           0        2.419188   -1.228012    0.268661
      6          6           0       -0.406254    0.422707   -0.759710
      7          6           0        1.578879   -0.436900    0.000770
      8          6           0       -1.668924    0.213355    0.065480
      9          6           0        0.485739    1.562976   -0.229668
     10          1           0       -0.703392    0.567543   -1.797832
     11          1           0       -2.315882    1.094850    0.045598
     12          1           0        0.016202    2.142547    0.562716
     13          1           0        0.819614    2.230086   -1.022680
 ---------------------------------------------------------------------

 SCF Done:  E(RHF) =  -577.550575659     A.U. after    2 cycles

 The electronic state is 1-A.
 Alpha  occ. eigenvalues --  -26.16211 -26.16005 -20.65559 -20.65270 -20.57455
 Alpha  occ. eigenvalues --  -11.46455 -11.45397 -11.36349 -11.35286  -1.72517
 Alpha  occ. eigenvalues --   -1.68005  -1.49788  -1.37659  -1.37106  -1.11394
 Alpha  occ. eigenvalues --   -1.01291  -0.93373  -0.87406  -0.84603  -0.83293
 Alpha  occ. eigenvalues --   -0.82799  -0.76579  -0.74596  -0.74241  -0.72707
 Alpha  occ. eigenvalues --   -0.71775  -0.67656  -0.66168  -0.64861  -0.61403
 Alpha  occ. eigenvalues --   -0.59885  -0.57091  -0.51175  -0.51066  -0.50270
 Alpha virt. eigenvalues --    0.01814   0.03581   0.04018   0.05789   0.06899
 Alpha virt. eigenvalues --    0.09144   0.09730   0.10798   0.10983   0.12883
 Alpha virt. eigenvalues --    0.13336   0.13695   0.13941   0.14291   0.14550

 Mulliken charges:
               1
     1  F   -0.371559
     2  F   -0.346929
     3  O   -0.647116
     4  O   -0.560791
     5  O   -0.365721
     6  C    0.487472
     7  C    0.675908
     8  C    1.029992
     9  C    0.794022
    10  H   -0.148351
    11  H   -0.218680
    12  H   -0.192261
    13  H   -0.135985
 Sum of Mulliken charges =  -0.00000

 Dipole moment (field-independent basis, Debye):
    X=             -3.3750    Y=              5.9172    Z=             -2.5422  Tot=              7.2709

 Test job not archived.
 1\1\GINC-SE206\SP\RHF\Aug-CC-pVDZ\C4H4F2O3\OHZDE\05-Apr-2025\0\\#t hf
 aug-cc-pvdz iop(5/13=1,5/36=2,99/5=2) pseudo=read geom=check guess=(re
 ad,tcheck) scf=(maxcycle=1)\\title\\0,1\F,0,-1.348626,-0.049956,1.3649
 39\F,0,-2.375705,-0.844928,-0.412965\O,0,0.433224,-0.723724,-0.682853\
 O,0,1.618313,0.882499,0.312093\O,0,2.419188,-1.228012,0.268661\C,0,-0.
 406254,0.422707,-0.75971\C,0,1.578879,-0.4369,0.00077\C,0,-1.668924,0.
 213355,0.06548\C,0,0.485739,1.562976,-0.229668\H,0,-0.703392,0.567543,
 -1.797832\H,0,-2.315882,1.09485,0.045598\H,0,0.016202,2.142547,0.56271

 Normal termination of Gaussian 16 at Sat Apr  5 22:43:18 2025.
