 Gaussian 16, Revision C.01,

 ----------------------------------------------------------------------
 #t hf aug-cc-pvdz symm=none int=(grid=ultrafine) guess=(read,tcheck) s
 table=(opt,rrhf)
 ----------------------------------------------------------------------
 -----
 title
 -----
 Symbolic Z-matrix:
 Charge =  0 Multiplicity = 1

 SCF Done:  E(RHF) =  -558.195799165     A.U. after   16 cycles
 Normal termination of Gaussian 16 at Sat Apr  5 22:42:44 2025.
 Gaussian 16:  ES64L-G16RevC.01  3-Jul-2019

 ----------------------------------------------------------------------
 #t hf aug-cc-pvdz iop(5/13=1,5/36=2,99/5=2) pseudo=read geom=check gue
 ss=(read,tcheck) scf=(maxcycle=1)
 ----------------------------------------------------------------------
 -----
 title
 -----
 Structure from the checkpoint file:  "4-difluoromethyl-2-ethynyl-5H-isoxazole.chk"
 Charge =  0 Multiplicity = 1

                         Standard orientation:
 ---------------------------------------------------------------------
 Center     Atomic      Atomic             Coordinates (Angstroms)
 Number     Number       Type             X           Y           Z
 ---------------------------------------------------------------------
      1          9           0       -2.610592   -0.327834    1.201239
      2          9           0       -2.811525   -0.037318   -0.964662
      3          8           0        1.182464    1.333129    0.117243
      4          7           0        1.584817    0.016648   -0.354989
      5          6           0       -0.642997   -0.097857   -0.059740
      6          6           0        0.463626   -0.798090   -0.297934
      7          6           0       -2.016538   -0.627408   -0.004321
      8          6           0       -0.262774    1.356137    0.055783
      9          6           0        2.824717   -0.333007   -0.014553
     10          6           0        3.962621   -0.634351    0.227184
     11          1           0        0.589733   -1.853786   -0.474588
     12          1           0       -2.071144   -1.706782   -0.144639
     13          1           0       -0.624227    1.838730    0.964570
     14          1           0       -0.584651    1.938157   -0.814947
     15          1           0        4.963978   -0.904064    0.448868
 ---------------------------------------------------------------------

 SCF Done:  E(RHF) =  -558.378505950     A.U. after    2 cycles

 The electronic state is 1-A.
 Alpha  occ. eigenvalues --  -26.14051 -26.14040 -20.64157 -15.74261 -11.44170
 Alpha  occ. eigenvalues --  -11.33159 -11.32345 -11.29765 -11.27243 -11.25532
 Alpha  occ. eigenvalues --   -1.70109  -1.65556  -1.41426  -1.20269  -1.13247
 Alpha  occ. eigenvalues --   -1.03354  -0.99765  -0.92027  -0.86245  -0.82395
 Alpha  occ. eigenvalues --   -0.81266  -0.79595  -0.77231  -0.73456  -0.71975
 Alpha  occ. eigenvalues --   -0.70903  -0.69657  -0.66275  -0.65846  -0.61261
 Alpha  occ. eigenvalues --   -0.60011  -0.58965  -0.54364  -0.50327  -0.42814
 Alpha  occ. eigenvalues --   -0.42126  -0.33100
 Alpha virt. eigenvalues --    0.02917   0.03648   0.04396   0.05464   0.05949
 Alpha virt. eigenvalues --    0.08593   0.09148   0.09713   0.10066   0.10445
 Alpha virt. eigenvalues --    0.11154   0.12162   0.12589   0.12929   0.13935

 Mulliken charges:
               1
     1  F   -0.401986
     2  F   -0.405640
     3  O   -0.737240
     4  N   -0.314003
     5  C   -0.602913
     6  C    1.030076
     7  C    1.310703
     8  C    0.652261
     9  C   -0.683227
    10  C    1.379978
    11  H   -0.412336
    12  H   -0.250110
    13  H   -0.058868
    14  H   -0.014205
    15  H   -0.492490
 Sum of Mulliken charges =   0.00000

 Dipole moment (field-independent basis, Debye):
    X=              1.1710    Y=             -2.3717    Z=             -0.4203  Tot=              2.6782

 Test job not archived.
 1\1\GINC-SE036\SP\RHF\Aug-CC-pVDZ\C6H5F2N1O1\OHZDE\05-Apr-2025\0\\#t h
 f aug-cc-pvdz iop(5/13=1,5/36=2,99/5=2) pseudo=read geom=check guess=(
 read,tcheck) scf=(maxcycle=1)\\title\\0,1\F,0,-2.610592,-0.327834,1.20
 1239\F,0,-2.811525,-0.037318,-0.964662\O,0,1.182464,1.333129,0.117243\
 N,0,1.584817,0.016648,-0.354989\C,0,-0.642997,-0.097857,-0.05974\C,0,0
 .463626,-0.79809,-0.297934\C,0,-2.016538,-0.627408,-0.004321\C,0,-0.26
 2774,1.356137,0.055783\C,0,2.824717,-0.333007,-0.014553\C,0,3.962621,-
 0.634351,0.227184\H,0,0.589733,-1.853786,-0.474588\H,0,-2.071144,-1.70

 Normal termination of Gaussian 16 at Sat Apr  5 22:43:19 2025.
