 Gaussian 16, Revision C.01,

 ----------------------------------------------------------------------
 #t hf aug-cc-pvdz symm=none int=(grid=ultrafine) guess=(read,tcheck) s
 table=(opt,rrhf)
 ----------------------------------------------------------------------
 -----
 title
 -----
 Symbolic Z-matrix:
 Charge =  0 Multiplicity = 1

 SCF Done:  E(RHF) =  -383.680008392     A.U. after   15 cycles

 1\1\GINC-SE028\Stability\RHF\Aug-CC-pVDZ\C8H10O1\OHZDE\05-Apr-2025\0\\
 #t hf aug-cc-pvdz symm=none int=(grid=ultrafine) guess=(read,tcheck) s
 table=(opt,rrhf)\\title\\0,1\C,0,0.182296,-1.1946,-0.232278\C,0,0.2009
 46,1.190822,-0.237286\C,0,-1.192318,-1.189355,-0.02335\C,0,-1.17051,1.
 215647,-0.029025\C,0,0.907341,-0.009408,-0.342365\C,0,-1.872642,0.0194
 68,0.080035\C,0,3.186098,0.002643,0.787434\C,0,2.404665,-0.021419,-0.5
 33621\O,0,-3.225765,0.093049,0.281877\H,0,0.695495,-2.144808,-0.315944
 \H,0,0.733105,2.130212,-0.325596\H,0,-1.733693,-2.125233,0.053648\H,0,

 Normal termination of Gaussian 16 at Sat Apr  5 22:43:58 2025.
 Gaussian 16:  ES64L-G16RevC.01  3-Jul-2019

 ----------------------------------------------------------------------
 #t hf aug-cc-pvdz iop(5/13=1,5/36=2,99/5=2) pseudo=read geom=check gue
 ss=(read,tcheck) scf=(maxcycle=1)
 ----------------------------------------------------------------------
 -----
 title
 -----
 Structure from the checkpoint file:  "4-ethylphenol.chk"
 Charge =  0 Multiplicity = 1

                         Standard orientation:
 ---------------------------------------------------------------------
 Center     Atomic      Atomic             Coordinates (Angstroms)
 Number     Number       Type             X           Y           Z
 ---------------------------------------------------------------------
      1          6           0        0.182296   -1.194600   -0.232278
      2          6           0        0.200946    1.190822   -0.237286
      3          6           0       -1.192318   -1.189355   -0.023350
      4          6           0       -1.170510    1.215647   -0.029025
      5          6           0        0.907341   -0.009408   -0.342365
      6          6           0       -1.872642    0.019468    0.080035
      7          6           0        3.186098    0.002643    0.787434
      8          6           0        2.404665   -0.021419   -0.533621
      9          8           0       -3.225765    0.093049    0.281877
     10          1           0        0.695495   -2.144808   -0.315944
     11          1           0        0.733105    2.130212   -0.325596
     12          1           0       -1.733693   -2.125233    0.053648
     13          1           0       -1.708215    2.150587    0.045495
     14          1           0        2.948053    0.896107    1.366309
     15          1           0        4.262069   -0.005627    0.605398
     16          1           0        2.940274   -0.864143    1.402489
     17          1           0        2.689551   -0.909460   -1.102288
     18          1           0        2.698617    0.839070   -1.138965
     19          1           0       -3.594392   -0.793890    0.337165
 ---------------------------------------------------------------------

 SCF Done:  E(RHF) =  -383.797248517     A.U. after    2 cycles

 The electronic state is 1-A.
 Alpha  occ. eigenvalues --  -20.60178 -11.30845 -11.24527 -11.24359 -11.24140
 Alpha  occ. eigenvalues --  -11.23858 -11.23579 -11.23577 -11.22480  -1.36325
 Alpha  occ. eigenvalues --   -1.14410  -1.05144  -1.01375  -0.97429  -0.86605
 Alpha  occ. eigenvalues --   -0.84664  -0.79858  -0.74333  -0.68160  -0.65233
 Alpha  occ. eigenvalues --   -0.61944  -0.60428  -0.60158  -0.59263  -0.57484
 Alpha  occ. eigenvalues --   -0.56468  -0.52799  -0.50216  -0.48483  -0.48155
 Alpha  occ. eigenvalues --   -0.47461  -0.34448  -0.31097
 Alpha virt. eigenvalues --    0.03178   0.03737   0.04253   0.05192   0.05256
 Alpha virt. eigenvalues --    0.06014   0.07401   0.07427   0.07996   0.08683
 Alpha virt. eigenvalues --    0.10495   0.10748   0.11440   0.13180   0.13508

 Mulliken charges:
               1
     1  C    0.316240
     2  C    0.543556
     3  C    0.422705
     4  C    0.482966
     5  C    0.766182
     6  C    0.354186
     7  C    0.324811
     8  C    0.088118
     9  O   -0.580931
    10  H   -0.600230
    11  H   -0.627418
    12  H   -0.572330
    13  H   -0.491847
    14  H   -0.103968
    15  H   -0.077038
    16  H   -0.104558
    17  H   -0.136860
    18  H   -0.129598
    19  H    0.126014
 Sum of Mulliken charges =  -0.00000

 Dipole moment (field-independent basis, Debye):
    X=              0.6939    Y=             -1.4005    Z=             -0.0704  Tot=              1.5646

 Test job not archived.
 1\1\GINC-SE028\SP\RHF\Aug-CC-pVDZ\C8H10O1\OHZDE\05-Apr-2025\0\\#t hf a
 ug-cc-pvdz iop(5/13=1,5/36=2,99/5=2) pseudo=read geom=check guess=(rea
 d,tcheck) scf=(maxcycle=1)\\title\\0,1\C,0,0.182296,-1.1946,-0.232278\
 C,0,0.200946,1.190822,-0.237286\C,0,-1.192318,-1.189355,-0.02335\C,0,-
 1.17051,1.215647,-0.029025\C,0,0.907341,-0.009408,-0.342365\C,0,-1.872
 642,0.019468,0.080035\C,0,3.186098,0.002643,0.787434\C,0,2.404665,-0.0
 21419,-0.533621\O,0,-3.225765,0.093049,0.281877\H,0,0.695495,-2.144808
 ,-0.315944\H,0,0.733105,2.130212,-0.325596\H,0,-1.733693,-2.125233,0.0

 Normal termination of Gaussian 16 at Sat Apr  5 22:44:48 2025.
