 Gaussian 16, Revision C.01,

 ----------------------------------------------------------------------
 #t hf aug-cc-pvdz symm=none int=(grid=ultrafine) guess=(read,tcheck) s
 table=(opt,rrhf)
 ----------------------------------------------------------------------
 -----
 title
 -----
 Symbolic Z-matrix:
 Charge =  0 Multiplicity = 1

 SCF Done:  E(RHF) =  -392.271609771     A.U. after   16 cycles
 Normal termination of Gaussian 16 at Sat Apr  5 22:42:56 2025.
 Gaussian 16:  ES64L-G16RevC.01  3-Jul-2019

 ----------------------------------------------------------------------
 #t hf aug-cc-pvdz iop(5/13=1,5/36=2,99/5=2) pseudo=read geom=check gue
 ss=(read,tcheck) scf=(maxcycle=1)
 ----------------------------------------------------------------------
 -----
 title
 -----
 Structure from the checkpoint file:  "4-ethynyl-1H-imidazole-5-carbonitrile.chk"
 Charge =  0 Multiplicity = 1

                         Standard orientation:
 ---------------------------------------------------------------------
 Center     Atomic      Atomic             Coordinates (Angstroms)
 Number     Number       Type             X           Y           Z
 ---------------------------------------------------------------------
      1          7           0       -0.276322   -1.723967    0.000021
      2          7           0       -1.849466   -0.170596   -0.000023
      3          7           0       -0.289475    2.979967   -0.000049
      4          6           0        0.394581   -0.521917    0.000012
      5          6           0       -0.614933    0.430613   -0.000017
      6          6           0       -1.610732   -1.456201    0.000000
      7          6           0        1.794759   -0.410634    0.000031
      8          6           0       -0.446188    1.838684   -0.000036
      9          6           0        2.991406   -0.303459    0.000049
     10          1           0        0.162004   -2.629700    0.000046
     11          1           0       -2.356541   -2.233190    0.000003
     12          1           0        4.048019   -0.197457    0.000073
 ---------------------------------------------------------------------

 SCF Done:  E(RHF) =  -392.386568130     A.U. after    2 cycles

 The electronic state is 1-A.
 Alpha  occ. eigenvalues --  -15.72854 -15.65458 -15.64233 -11.34989 -11.34312
 Alpha  occ. eigenvalues --  -11.32436 -11.29055 -11.28461 -11.27984  -1.35941
 Alpha  occ. eigenvalues --   -1.20063  -1.18009  -1.10009  -1.03471  -0.91328
 Alpha  occ. eigenvalues --   -0.86610  -0.84549  -0.74621  -0.70044  -0.68534
 Alpha  occ. eigenvalues --   -0.65243  -0.65039  -0.54898  -0.50789  -0.48670
 Alpha  occ. eigenvalues --   -0.47712  -0.46844  -0.43336  -0.42192  -0.33756
 Alpha virt. eigenvalues --    0.01663   0.02885   0.04570   0.06329   0.07124
 Alpha virt. eigenvalues --    0.07719   0.08786   0.09810   0.10678   0.10761
 Alpha virt. eigenvalues --    0.10884   0.13279   0.13551   0.13653   0.14287

 Mulliken charges:
               1
     1  N   -0.471158
     2  N   -0.774049
     3  N   -0.068739
     4  C   -0.001168
     5  C    1.369765
     6  C    0.754962
     7  C    0.881693
     8  C   -1.084909
     9  C    0.222103
    10  H   -0.069325
    11  H   -0.238107
    12  H   -0.521068
 Sum of Mulliken charges =  -0.00000

 Dipole moment (field-independent basis, Debye):
    X=              2.0687    Y=             -7.1852    Z=              0.0002  Tot=              7.4771

 Test job not archived.
 1\1\GINC-SE164\SP\RHF\Aug-CC-pVDZ\C6H3N3\OHZDE\05-Apr-2025\0\\#t hf au
 g-cc-pvdz iop(5/13=1,5/36=2,99/5=2) pseudo=read geom=check guess=(read
 ,tcheck) scf=(maxcycle=1)\\title\\0,1\N,0,-0.276322,-1.723967,0.000021
 \N,0,-1.849466,-0.170596,-0.000023\N,0,-0.289475,2.979967,-0.000049\C,
 0,0.394581,-0.521917,0.000012\C,0,-0.614933,0.430613,-0.000017\C,0,-1.
 610732,-1.456201,0.\C,0,1.794759,-0.410634,0.000031\C,0,-0.446188,1.83
 8684,-0.000036\C,0,2.991406,-0.303459,0.000049\H,0,0.162004,-2.6297,0.
 000046\H,0,-2.356541,-2.23319,0.000003\H,0,4.048019,-0.197456,0.000073

 Normal termination of Gaussian 16 at Sat Apr  5 22:43:19 2025.
