 Gaussian 16, Revision C.01,

 ----------------------------------------------------------------------
 #t hf aug-cc-pvdz symm=none int=(grid=ultrafine) guess=(read,tcheck) s
 table=(opt,rrhf)
 ----------------------------------------------------------------------
 -----
 title
 -----
 Symbolic Z-matrix:
 Charge =  0 Multiplicity = 1

 SCF Done:  E(RHF) =  -324.805767943     A.U. after   14 cycles
 Normal termination of Gaussian 16 at Sat Apr  5 22:44:04 2025.
 Gaussian 16:  ES64L-G16RevC.01  3-Jul-2019

 ----------------------------------------------------------------------
 #t hf aug-cc-pvdz iop(5/13=1,5/36=2,99/5=2) pseudo=read geom=check gue
 ss=(read,tcheck) scf=(maxcycle=1)
 ----------------------------------------------------------------------
 -----
 title
 -----
 Structure from the checkpoint file:  "4-ethylpyridine.chk"
 Charge =  0 Multiplicity = 1

                         Standard orientation:
 ---------------------------------------------------------------------
 Center     Atomic      Atomic             Coordinates (Angstroms)
 Number     Number       Type             X           Y           Z
 ---------------------------------------------------------------------
      1          6           0        0.233751   -0.248858    1.186174
      2          6           0        0.233751   -0.248858   -1.186174
      3          6           0        0.233751   -1.636587    1.135286
      4          6           0        0.233751   -1.636587   -1.135286
      5          6           0        0.232164    0.482399   -0.000000
      6          6           0       -1.236306    2.546240    0.000000
      7          6           0        0.194870    1.988942    0.000000
      8          7           0        0.233121   -2.335890   -0.000000
      9          1           0        0.240621    0.255199    2.144492
     10          1           0        0.240621    0.255199   -2.144492
     11          1           0        0.238122   -2.214612    2.053040
     12          1           0        0.238122   -2.214612   -2.053040
     13          1           0       -1.786360    2.212834   -0.880654
     14          1           0       -1.225706    3.636797    0.000000
     15          1           0       -1.786360    2.212834    0.880654
     16          1           0        0.727349    2.363720    0.876427
     17          1           0        0.727349    2.363720   -0.876427
 ---------------------------------------------------------------------

 SCF Done:  E(RHF) =  -324.902406953     A.U. after    2 cycles

 The electronic state is 1-A'.
 Alpha  occ. eigenvalues --  -15.62326 -11.28110 -11.28098 -11.26929 -11.24938
 Alpha  occ. eigenvalues --  -11.24316 -11.24311 -11.23684  -1.22853  -1.10409
 Alpha  occ. eigenvalues --   -1.02482  -1.01406  -0.88663  -0.85579  -0.81031
 Alpha  occ. eigenvalues --   -0.69755  -0.67932  -0.65005  -0.60753  -0.60212
 Alpha  occ. eigenvalues --   -0.59374  -0.55335  -0.52374  -0.52151  -0.51123
 Alpha  occ. eigenvalues --   -0.49475  -0.40852  -0.36869  -0.34747
 Alpha virt. eigenvalues --    0.03037   0.03757   0.04213   0.04779   0.05820
 Alpha virt. eigenvalues --    0.06027   0.07143   0.07482   0.08441   0.09076
 Alpha virt. eigenvalues --    0.10918   0.11079   0.11611   0.12122   0.12931

 Mulliken charges:
               1
     1  C    0.925534
     2  C    0.925534
     3  C    0.361605
     4  C    0.361605
     5  C   -0.419946
     6  C    0.294975
     7  C    0.242939
     8  N   -0.488092
     9  H   -0.532668
    10  H   -0.532668
    11  H   -0.334783
    12  H   -0.334783
    13  H   -0.087272
    14  H   -0.076294
    15  H   -0.087272
    16  H   -0.109207
    17  H   -0.109207
 Sum of Mulliken charges =  -0.00000

 Dipole moment (field-independent basis, Debye):
    X=             -0.1204    Y=              2.8197    Z=             -0.0000  Tot=              2.8222

 Test job not archived.
 1\1\GINC-SE055\SP\RHF\Aug-CC-pVDZ\C7H9N1\OHZDE\05-Apr-2025\0\\#t hf au
 g-cc-pvdz iop(5/13=1,5/36=2,99/5=2) pseudo=read geom=check guess=(read
 ,tcheck) scf=(maxcycle=1)\\title\\0,1\C,0,0.233751,-0.248858,1.186174\
 C,0,0.233751,-0.248858,-1.186174\C,0,0.233751,-1.636587,1.135286\C,0,0
 .233751,-1.636587,-1.135286\C,0,0.232164,0.482399,0.\C,0,-1.236306,2.5
 4624,0.\C,0,0.19487,1.988942,0.\N,0,0.233121,-2.33589,0.\H,0,0.240621,
 0.255199,2.144492\H,0,0.240621,0.255199,-2.144492\H,0,0.238122,-2.2146
 12,2.05304\H,0,0.238122,-2.214612,-2.05304\H,0,-1.78636,2.212834,-0.88

 Normal termination of Gaussian 16 at Sat Apr  5 22:44:43 2025.
