 Gaussian 16, Revision C.01,

 ----------------------------------------------------------------------
 #t hf aug-cc-pvdz symm=none int=(grid=ultrafine) guess=(read,tcheck) s
 table=(opt,rrhf)
 ----------------------------------------------------------------------
 -----
 title
 -----
 Symbolic Z-matrix:
 Charge =  0 Multiplicity = 1

 SCF Done:  E(RHF) =  -404.463682759     A.U. after   15 cycles
 Normal termination of Gaussian 16 at Sat Apr  5 22:43:48 2025.
 Gaussian 16:  ES64L-G16RevC.01  3-Jul-2019

 ----------------------------------------------------------------------
 #t hf aug-cc-pvdz iop(5/13=1,5/36=2,99/5=2) pseudo=read geom=check gue
 ss=(read,tcheck) scf=(maxcycle=1)
 ----------------------------------------------------------------------
 -----
 title
 -----
 Structure from the checkpoint file:  "4-fluorophenol.chk"
 Charge =  0 Multiplicity = 1

                         Standard orientation:
 ---------------------------------------------------------------------
 Center     Atomic      Atomic             Coordinates (Angstroms)
 Number     Number       Type             X           Y           Z
 ---------------------------------------------------------------------
      1          6           0        1.209009    0.686001   -0.000000
      2          6           0       -1.202025    0.675134   -0.000000
      3          6           0        1.216005   -0.701909    0.000000
      4          6           0       -1.199895   -0.715998    0.000000
      5          6           0       -0.000000    1.377007   -0.000000
      6          6           0        0.010446   -1.381379    0.000000
      7          8           0        0.057288    2.745374   -0.000000
      8          9           0        0.018013   -2.736527    0.000000
      9          1           0        2.134342    1.243985   -0.000000
     10          1           0       -2.143868    1.210090   -0.000000
     11          1           0        2.143774   -1.255723    0.000000
     12          1           0       -2.123419   -1.276673    0.000000
     13          1           0       -0.832492    3.110943   -0.000000
 ---------------------------------------------------------------------

 SCF Done:  E(RHF) =  -404.592136300     A.U. after    2 cycles

 The electronic state is 1-A'.
 Alpha  occ. eigenvalues --  -26.13039 -20.61154 -11.33350 -11.32129 -11.26290
 Alpha  occ. eigenvalues --  -11.26138 -11.26013 -11.25475  -1.66773  -1.37370
 Alpha  occ. eigenvalues --   -1.16008  -1.03640  -1.02042  -0.88210  -0.86327
 Alpha  occ. eigenvalues --   -0.77575  -0.76661  -0.74593  -0.73742  -0.66738
 Alpha  occ. eigenvalues --   -0.63715  -0.61692  -0.61414  -0.59787  -0.57523
 Alpha  occ. eigenvalues --   -0.51677  -0.50307  -0.36297  -0.33032
 Alpha virt. eigenvalues --    0.02895   0.04085   0.04360   0.05875   0.06541
 Alpha virt. eigenvalues --    0.09073   0.10102   0.10662   0.12001   0.13032
 Alpha virt. eigenvalues --    0.13495   0.13643   0.13941   0.14118   0.14594

 Mulliken charges:
               1
     1  C    0.577824
     2  C    0.553161
     3  C    0.491352
     4  C    0.333955
     5  C    0.439997
     6  C    0.238880
     7  O   -0.577598
     8  F   -0.341002
     9  H   -0.459060
    10  H   -0.565833
    11  H   -0.412492
    12  H   -0.408709
    13  H    0.129525
 Sum of Mulliken charges =  -0.00000

 Dipole moment (field-independent basis, Debye):
    X=             -1.4150    Y=              1.7650    Z=             -0.0000  Tot=              2.2621

 Test job not archived.
 1\1\GINC-SE183\SP\RHF\Aug-CC-pVDZ\C6H5F1O1\OHZDE\05-Apr-2025\0\\#t hf
 aug-cc-pvdz iop(5/13=1,5/36=2,99/5=2) pseudo=read geom=check guess=(re
 ad,tcheck) scf=(maxcycle=1)\\title\\0,1\C,0,1.209009,0.686001,0.\C,0,-
 1.202025,0.675134,0.\C,0,1.216005,-0.701909,0.\C,0,-1.199895,-0.715998
 ,0.\C,0,0.,1.377007,0.\C,0,0.010446,-1.381379,0.\O,0,0.057288,2.745374
 ,0.\F,0,0.018013,-2.736527,0.\H,0,2.134342,1.243985,0.\H,0,-2.143868,1
 .21009,0.\H,0,2.143774,-1.255723,0.\H,0,-2.123419,-1.276673,0.\H,0,-0.
 832492,3.110943,0.\\Version=ES64L-G16RevC.01\State=1-A'\HF=-404.592136

 Normal termination of Gaussian 16 at Sat Apr  5 22:44:43 2025.
