 Gaussian 16, Revision C.01,

 ----------------------------------------------------------------------
 #t hf aug-cc-pvdz symm=none int=(grid=ultrafine) guess=(read,tcheck) s
 table=(opt,rrhf)
 ----------------------------------------------------------------------
 -----
 title
 -----
 Symbolic Z-matrix:
 Charge =  0 Multiplicity = 1

 SCF Done:  E(RHF) =  -348.144388815     A.U. after   13 cycles

 1\1\GINC-SE202\Stability\RHF\Aug-CC-pVDZ\C7H14O1\OHZDE\05-Apr-2025\0\\
 #t hf aug-cc-pvdz symm=none int=(grid=ultrafine) guess=(read,tcheck) s
 table=(opt,rrhf)\\title\\0,1\C,0,0.,0.,0.295876\C,0,0.000056,3.828834,
 -0.53029\C,0,-0.000056,-3.828834,-0.53029\C,0,0.,1.290026,-0.509256\C,
 0,0.,-1.290026,-0.509256\C,0,0.000059,2.564624,0.327131\C,0,-0.000059,
 -2.564624,0.327131\O,0,0.,0.,1.506774\H,0,-0.880828,3.873562,-1.174448
 \H,0,0.000099,4.725217,0.090803\H,0,0.880894,3.873522,-1.174514\H,0,0.
 880828,-3.873562,-1.174448\H,0,-0.000099,-4.725217,0.090803\H,0,-0.880

 Normal termination of Gaussian 16 at Sat Apr  5 22:43:47 2025.
 Gaussian 16:  ES64L-G16RevC.01  3-Jul-2019

 ----------------------------------------------------------------------
 #t hf aug-cc-pvdz iop(5/13=1,5/36=2,99/5=2) pseudo=read geom=check gue
 ss=(read,tcheck) scf=(maxcycle=1)
 ----------------------------------------------------------------------
 -----
 title
 -----
 Structure from the checkpoint file:  "4-heptanone.chk"
 Charge =  0 Multiplicity = 1

                         Standard orientation:
 ---------------------------------------------------------------------
 Center     Atomic      Atomic             Coordinates (Angstroms)
 Number     Number       Type             X           Y           Z
 ---------------------------------------------------------------------
      1          6           0        0.000000   -0.000000    0.295876
      2          6           0        0.000056    3.828834   -0.530290
      3          6           0       -0.000056   -3.828834   -0.530290
      4          6           0       -0.000000    1.290026   -0.509256
      5          6           0       -0.000000   -1.290026   -0.509256
      6          6           0        0.000059    2.564624    0.327131
      7          6           0       -0.000059   -2.564624    0.327131
      8          8           0        0.000000   -0.000000    1.506774
      9          1           0       -0.880828    3.873562   -1.174448
     10          1           0        0.000099    4.725217    0.090803
     11          1           0        0.880894    3.873522   -1.174514
     12          1           0        0.880828   -3.873562   -1.174448
     13          1           0       -0.000099   -4.725217    0.090803
     14          1           0       -0.880894   -3.873522   -1.174514
     15          1           0        0.868429    1.265284   -1.177370
     16          1           0       -0.868485    1.265321   -1.177299
     17          1           0        0.868485   -1.265321   -1.177299
     18          1           0       -0.868429   -1.265284   -1.177370
     19          1           0       -0.869532    2.558992    0.986328
     20          1           0        0.869698    2.558953    0.986265
     21          1           0        0.869532   -2.558992    0.986328
     22          1           0       -0.869698   -2.558953    0.986265
 ---------------------------------------------------------------------

 SCF Done:  E(RHF) =  -348.254970992     A.U. after    2 cycles

 The electronic state is 1-A.
 Alpha  occ. eigenvalues --  -20.55710 -11.33637 -11.24373 -11.24366 -11.22989
 Alpha  occ. eigenvalues --  -11.22989 -11.22565 -11.22565  -1.34962  -1.07416
 Alpha  occ. eigenvalues --   -1.05796  -0.98208  -0.93415  -0.83809  -0.80278
 Alpha  occ. eigenvalues --   -0.73513  -0.66466  -0.65967  -0.63708  -0.63382
 Alpha  occ. eigenvalues --   -0.57728  -0.57606  -0.56300  -0.54016  -0.52392
 Alpha  occ. eigenvalues --   -0.50415  -0.50121  -0.48973  -0.48251  -0.48050
 Alpha  occ. eigenvalues --   -0.47308  -0.41361
 Alpha virt. eigenvalues --    0.03185   0.03722   0.04417   0.04566   0.05596
 Alpha virt. eigenvalues --    0.05713   0.05876   0.06986   0.07805   0.08275
 Alpha virt. eigenvalues --    0.08582   0.08691   0.10548   0.10680   0.11589

 Mulliken charges:
               1
     1  C   -0.487432
     2  C    0.666638
     3  C    0.666638
     4  C    0.006551
     5  C    0.006551
     6  C    0.442957
     7  C    0.442957
     8  O   -0.505622
     9  H   -0.098400
    10  H   -0.053262
    11  H   -0.098405
    12  H   -0.098400
    13  H   -0.053262
    14  H   -0.098405
    15  H   -0.037143
    16  H   -0.037137
    17  H   -0.037137
    18  H   -0.037143
    19  H   -0.147634
    20  H   -0.147638
    21  H   -0.147634
    22  H   -0.147638
 Sum of Mulliken charges =  -0.00000

 Dipole moment (field-independent basis, Debye):
    X=             -0.0000    Y=             -0.0000    Z=             -3.0834  Tot=              3.0834

 Test job not archived.
 1\1\GINC-SE202\SP\RHF\Aug-CC-pVDZ\C7H14O1\OHZDE\05-Apr-2025\0\\#t hf a
 ug-cc-pvdz iop(5/13=1,5/36=2,99/5=2) pseudo=read geom=check guess=(rea
 d,tcheck) scf=(maxcycle=1)\\title\\0,1\C,0,0.,0.,0.295876\C,0,0.000056
 ,3.828834,-0.53029\C,0,-0.000056,-3.828834,-0.53029\C,0,0.,1.290026,-0
 .509256\C,0,0.,-1.290026,-0.509256\C,0,0.000059,2.564624,0.327131\C,0,
 -0.000059,-2.564624,0.327131\O,0,0.,0.,1.506774\H,0,-0.880828,3.873562
 ,-1.174448\H,0,0.000099,4.725217,0.090803\H,0,0.880894,3.873522,-1.174
 514\H,0,0.880828,-3.873562,-1.174448\H,0,-0.000099,-4.725217,0.090803\

 Normal termination of Gaussian 16 at Sat Apr  5 22:43:55 2025.
