 Gaussian 16, Revision C.01,

 ----------------------------------------------------------------------
 #t hf aug-cc-pvdz symm=none int=(grid=ultrafine) guess=(read,tcheck) s
 table=(opt,rrhf)
 ----------------------------------------------------------------------
 -----
 title
 -----
 Symbolic Z-matrix:
 Charge =  0 Multiplicity = 1

 SCF Done:  E(RHF) =  -397.347618580     A.U. after   16 cycles
 Normal termination of Gaussian 16 at Sat Apr  5 22:43:48 2025.
 Gaussian 16:  ES64L-G16RevC.01  3-Jul-2019

 ----------------------------------------------------------------------
 #t hf aug-cc-pvdz iop(5/13=1,5/36=2,99/5=2) pseudo=read geom=check gue
 ss=(read,tcheck) scf=(maxcycle=1)
 ----------------------------------------------------------------------
 -----
 title
 -----
 Structure from the checkpoint file:  "4-hydroxybenzonitrile.chk"
 Charge =  0 Multiplicity = 1

                         Standard orientation:
 ---------------------------------------------------------------------
 Center     Atomic      Atomic             Coordinates (Angstroms)
 Number     Number       Type             X           Y           Z
 ---------------------------------------------------------------------
      1          6           0       -0.005988    2.507272   -0.000000
      2          6           0       -1.204001    0.369123   -0.000000
      3          6           0        1.211150    0.375851    0.000000
      4          6           0       -1.197969   -1.015172   -0.000000
      5          6           0        1.219241   -1.005857    0.000000
      6          6           0       -0.000000    1.080084   -0.000000
      7          6           0        0.013220   -1.706493    0.000000
      8          7           0       -0.011295    3.660282   -0.000000
      9          8           0        0.081550   -3.064394    0.000000
     10          1           0       -2.141968    0.905432   -0.000000
     11          1           0        2.144005    0.921085    0.000000
     12          1           0       -2.133901   -1.560076   -0.000000
     13          1           0        2.147877   -1.558073    0.000000
     14          1           0       -0.803266   -3.444050    0.000000
 ---------------------------------------------------------------------

 SCF Done:  E(RHF) =  -397.465618797     A.U. after    2 cycles

 The electronic state is 1-A'.
 Alpha  occ. eigenvalues --  -20.63310 -15.63669 -11.34913 -11.29154 -11.28911
 Alpha  occ. eigenvalues --  -11.28765 -11.28664 -11.27127 -11.26525  -1.39802
 Alpha  occ. eigenvalues --   -1.20085  -1.17023  -1.05219  -1.05046  -0.89816
 Alpha  occ. eigenvalues --   -0.87777  -0.77815  -0.77127  -0.70660  -0.65159
 Alpha  occ. eigenvalues --   -0.63502  -0.63089  -0.61986  -0.58987  -0.54889
 Alpha  occ. eigenvalues --   -0.54202  -0.53381  -0.47329  -0.46521  -0.37860
 Alpha  occ. eigenvalues --   -0.34377
 Alpha virt. eigenvalues --    0.02124   0.03630   0.04175   0.05705   0.06464
 Alpha virt. eigenvalues --    0.07090   0.08061   0.09512   0.09762   0.10431
 Alpha virt. eigenvalues --    0.11685   0.12250   0.12426   0.13081   0.13196

 Mulliken charges:
               1
     1  C   -1.249489
     2  C   -0.052730
     3  C    0.080292
     4  C    0.806162
     5  C    0.927413
     6  C    2.131431
     7  C   -0.017105
     8  N   -0.110070
     9  O   -0.548533
    10  H   -0.544127
    11  H   -0.553376
    12  H   -0.541540
    13  H   -0.466300
    14  H    0.137971
 Sum of Mulliken charges =   0.00000

 Dipole moment (field-independent basis, Debye):
    X=             -1.4113    Y=             -4.8684    Z=              0.0000  Tot=              5.0688

 Test job not archived.
 1\1\GINC-SE187\SP\RHF\Aug-CC-pVDZ\C7H5N1O1\OHZDE\05-Apr-2025\0\\#t hf
 aug-cc-pvdz iop(5/13=1,5/36=2,99/5=2) pseudo=read geom=check guess=(re
 ad,tcheck) scf=(maxcycle=1)\\title\\0,1\C,0,-0.005988,2.507272,0.\C,0,
 -1.204001,0.369123,0.\C,0,1.21115,0.375851,0.\C,0,-1.197969,-1.015172,
 0.\C,0,1.219241,-1.005857,0.\C,0,0.,1.080084,0.\C,0,0.01322,-1.706493,
 0.\N,0,-0.011295,3.660282,0.\O,0,0.081551,-3.064394,0.\H,0,-2.141968,0
 .905432,0.\H,0,2.144005,0.921085,0.\H,0,-2.133901,-1.560076,0.\H,0,2.1
 47877,-1.558073,0.\H,0,-0.803265,-3.44405,0.\\Version=ES64L-G16RevC.01

 Normal termination of Gaussian 16 at Sat Apr  5 22:44:44 2025.
