 Gaussian 16, Revision C.01,

 ----------------------------------------------------------------------
 #t hf aug-cc-pvdz symm=none int=(grid=ultrafine) guess=(read,tcheck) s
 table=(opt,rrhf)
 ----------------------------------------------------------------------
 -----
 title
 -----
 Symbolic Z-matrix:
 Charge =  0 Multiplicity = 1

 SCF Done:  E(RHF) =  -826.906399063     A.U. after   17 cycles
 Normal termination of Gaussian 16 at Sat Apr  5 22:43:47 2025.
 Gaussian 16:  ES64L-G16RevC.01  3-Jul-2019

 ----------------------------------------------------------------------
 #t hf aug-cc-pvdz iop(5/13=1,5/36=2,99/5=2) pseudo=read geom=check gue
 ss=(read,tcheck) scf=(maxcycle=1)
 ----------------------------------------------------------------------
 -----
 title
 -----
 Structure from the checkpoint file:  "4-hydroxy-2-mercaptopyrimidine-5-carbonitrile.chk"
 Charge =  0 Multiplicity = 1

                         Standard orientation:
 ---------------------------------------------------------------------
 Center     Atomic      Atomic             Coordinates (Angstroms)
 Number     Number       Type             X           Y           Z
 ---------------------------------------------------------------------
      1         16           0        3.132710   -0.028210    0.000007
      2          8           0       -1.337989    2.079383   -0.000019
      3          7           0        0.658787    0.991064   -0.000007
      4          7           0        0.797722   -1.297239    0.000012
      5          7           0       -3.917479   -0.575246   -0.000004
      6          6           0       -1.360122   -0.311158   -0.000000
      7          6           0       -0.749660    1.025767   -0.000010
      8          6           0       -0.554818   -1.403788    0.000010
      9          6           0        1.482361   -0.097815    0.000004
     10          6           0       -2.773022   -0.442707   -0.000002
     11          1           0        1.112595    1.894358   -0.000013
     12          1           0       -0.951396   -2.408389    0.000017
     13          1           0        1.377708   -2.121519    0.000020
 ---------------------------------------------------------------------

 SCF Done:  E(RHF) =  -827.051360205     A.U. after    2 cycles

 The electronic state is 1-A.
 Alpha  occ. eigenvalues --  -93.52344 -20.59179 -15.75339 -15.73128 -15.65946
 Alpha  occ. eigenvalues --  -11.44740 -11.43042 -11.39848 -11.32791 -11.31021
 Alpha  occ. eigenvalues --   -8.82283  -6.16545  -6.15968  -6.15892  -1.41365
 Alpha  occ. eigenvalues --   -1.36174  -1.25491  -1.21625  -1.14853  -1.03794
 Alpha  occ. eigenvalues --   -0.96206  -0.90691  -0.87766  -0.80651  -0.75304
 Alpha  occ. eigenvalues --   -0.73013  -0.70755  -0.69205  -0.65407  -0.60424
 Alpha  occ. eigenvalues --   -0.57029  -0.56553  -0.55313  -0.50540  -0.49897
 Alpha  occ. eigenvalues --   -0.48515  -0.41542  -0.37237  -0.35786
 Alpha virt. eigenvalues --    0.01172   0.02433   0.04090   0.04664   0.06105
 Alpha virt. eigenvalues --    0.06791   0.07866   0.07981   0.08803   0.10637
 Alpha virt. eigenvalues --    0.11181   0.11434   0.12075   0.12591   0.13038

 Mulliken charges:
               1
     1  S    0.051463
     2  O   -0.456469
     3  N   -0.522544
     4  N   -0.582620
     5  N   -0.133449
     6  C    1.379441
     7  C    0.217515
     8  C    0.916928
     9  C    0.448292
    10  C   -0.946077
    11  H    0.010397
    12  H   -0.400942
    13  H    0.018065
 Sum of Mulliken charges =  -0.00000

 Dipole moment (field-independent basis, Debye):
    X=              3.1224    Y=             -4.4404    Z=              0.0000  Tot=              5.4283

 Test job not archived.
 1\1\GINC-SE084\SP\RHF\Aug-CC-pVDZ\C5H3N3O1S1\OHZDE\05-Apr-2025\0\\#t h
 f aug-cc-pvdz iop(5/13=1,5/36=2,99/5=2) pseudo=read geom=check guess=(
 read,tcheck) scf=(maxcycle=1)\\title\\0,1\S,0,3.13271,-0.02821,0.00000
 7\O,0,-1.337989,2.079383,-0.000019\N,0,0.658787,0.991064,-0.000007\N,0
 ,0.797722,-1.297239,0.000012\N,0,-3.917479,-0.575246,-0.000004\C,0,-1.
 360122,-0.311158,0.\C,0,-0.74966,1.025767,-0.00001\C,0,-0.554818,-1.40
 3788,0.00001\C,0,1.482361,-0.097815,0.000004\C,0,-2.773022,-0.442707,-
 0.000002\H,0,1.112595,1.894358,-0.000013\H,0,-0.951396,-2.408389,0.000

 Normal termination of Gaussian 16 at Sat Apr  5 22:44:45 2025.
