 Gaussian 16, Revision C.01,

 ----------------------------------------------------------------------
 #t hf aug-cc-pvdz symm=none int=(grid=ultrafine) guess=(read,tcheck) s
 table=(opt,rrhf)
 ----------------------------------------------------------------------
 -----
 title
 -----
 Symbolic Z-matrix:
 Charge =  0 Multiplicity = 1

 SCF Done:  E(RHF) =  -627.362510205     A.U. after   14 cycles
 Normal termination of Gaussian 16 at Sat Apr  5 22:42:34 2025.
 Gaussian 16:  ES64L-G16RevC.01  3-Jul-2019

 ----------------------------------------------------------------------
 #t hf aug-cc-pvdz iop(5/13=1,5/36=2,99/5=2) pseudo=read geom=check gue
 ss=(read,tcheck) scf=(maxcycle=1)
 ----------------------------------------------------------------------
 -----
 title
 -----
 Structure from the checkpoint file:  "4-hydroxy-2-3-dihydrothiophene.chk"
 Charge =  0 Multiplicity = 1

                         Standard orientation:
 ---------------------------------------------------------------------
 Center     Atomic      Atomic             Coordinates (Angstroms)
 Number     Number       Type             X           Y           Z
 ---------------------------------------------------------------------
      1         16           0       -1.557947   -0.547420   -0.078355
      2          6           0        0.113521   -1.121692    0.074303
      3          6           0        1.026808   -0.155065    0.016891
      4          6           0        0.488759    1.236776   -0.190699
      5          6           0       -0.987946    1.187007    0.215046
      6          8           0        2.374694   -0.392412    0.019811
      7          1           0        0.314952   -2.177612    0.152421
      8          1           0        1.028571    1.980024    0.403180
      9          1           0       -1.614058    1.868088   -0.353978
     10          1           0        0.605870    1.517008   -1.244505
     11          1           0       -1.102813    1.398424    1.277082
     12          1           0        2.850231    0.429936    0.167745
 ---------------------------------------------------------------------

 SCF Done:  E(RHF) =  -627.454235791     A.U. after    2 cycles

 The electronic state is 1-A.
 Alpha  occ. eigenvalues --  -93.53101 -20.60970 -11.31068 -11.27782 -11.26440
 Alpha  occ. eigenvalues --  -11.25155  -8.82842  -6.16965  -6.16822  -6.16415
 Alpha  occ. eigenvalues --   -1.36837  -1.12815  -0.99345  -0.95808  -0.82651
 Alpha  occ. eigenvalues --   -0.76272  -0.71814  -0.66918  -0.64439  -0.60116
 Alpha  occ. eigenvalues --   -0.56828  -0.53724  -0.51582  -0.50176  -0.44865
 Alpha  occ. eigenvalues --   -0.41801  -0.29325
 Alpha virt. eigenvalues --    0.02867   0.04340   0.04922   0.05023   0.06619
 Alpha virt. eigenvalues --    0.07012   0.08995   0.10814   0.12321   0.12930
 Alpha virt. eigenvalues --    0.13167   0.13905   0.14309   0.14942   0.15898

 Mulliken charges:
               1
     1  S    0.480818
     2  C    0.198186
     3  C    0.180433
     4  C    0.078023
     5  C    0.078331
     6  O   -0.586540
     7  H   -0.376890
     8  H   -0.032914
     9  H   -0.064631
    10  H   -0.001144
    11  H   -0.068351
    12  H    0.114680
 Sum of Mulliken charges =   0.00000

 Dipole moment (field-independent basis, Debye):
    X=              1.2692    Y=              3.0239    Z=              0.3836  Tot=              3.3018

 Test job not archived.
 1\1\GINC-SE053\SP\RHF\Aug-CC-pVDZ\C4H6O1S1\OHZDE\05-Apr-2025\0\\#t hf
 aug-cc-pvdz iop(5/13=1,5/36=2,99/5=2) pseudo=read geom=check guess=(re
 ad,tcheck) scf=(maxcycle=1)\\title\\0,1\S,0,-1.557947,-0.54742,-0.0783
 55\C,0,0.113521,-1.121692,0.074303\C,0,1.026808,-0.155065,0.016891\C,0
 ,0.488759,1.236776,-0.190699\C,0,-0.987946,1.187007,0.215046\O,0,2.374
 694,-0.392412,0.019811\H,0,0.314952,-2.177612,0.152421\H,0,1.028571,1.
 980024,0.40318\H,0,-1.614058,1.868088,-0.353978\H,0,0.60587,1.517008,-
 1.244505\H,0,-1.102813,1.398424,1.277082\H,0,2.850231,0.429936,0.16774

 Normal termination of Gaussian 16 at Sat Apr  5 22:43:17 2025.
