 Gaussian 16, Revision C.01,

 ----------------------------------------------------------------------
 #t hf aug-cc-pvdz symm=none int=(grid=ultrafine) guess=(read,tcheck) s
 table=(opt,rrhf)
 ----------------------------------------------------------------------
 -----
 title
 -----
 Symbolic Z-matrix:
 Charge =  0 Multiplicity = 1

 SCF Done:  E(RHF) =  -1019.92907162     A.U. after   15 cycles
 Normal termination of Gaussian 16 at Sat Apr  5 22:42:36 2025.
 Gaussian 16:  ES64L-G16RevC.01  3-Jul-2019

 ----------------------------------------------------------------------
 #t hf aug-cc-pvdz iop(5/13=1,5/36=2,99/5=2) pseudo=read geom=check gue
 ss=(read,tcheck) scf=(maxcycle=1)
 ----------------------------------------------------------------------
 -----
 title
 -----
 Structure from the checkpoint file:  "4-imino-1-3-thiazolidine-2-thione.chk"
 Charge =  0 Multiplicity = 1

                         Standard orientation:
 ---------------------------------------------------------------------
 Center     Atomic      Atomic             Coordinates (Angstroms)
 Number     Number       Type             X           Y           Z
 ---------------------------------------------------------------------
      1         16           0        0.212246    1.503595    0.000013
      2         16           0        2.374967   -0.597531   -0.000005
      3          7           0       -0.270384   -1.016336   -0.000009
      4          7           0       -2.558616   -1.309203   -0.000011
      5          6           0        0.793728   -0.164480   -0.000001
      6          6           0       -1.566028   -0.523204   -0.000005
      7          6           0       -1.550107    0.995182    0.000009
      8          1           0       -0.112585   -2.013711   -0.000018
      9          1           0       -3.442358   -0.809316   -0.000007
     10          1           0       -2.051518    1.379900   -0.885946
     11          1           0       -2.051518    1.379884    0.885970
 ---------------------------------------------------------------------

 SCF Done:  E(RHF) =  -1020.03303232     A.U. after    2 cycles

 The electronic state is 1-A.
 Alpha  occ. eigenvalues --  -93.58702 -93.50751 -15.70820 -15.63452 -11.40566
 Alpha  occ. eigenvalues --  -11.37889 -11.32158  -8.88509  -8.80692  -6.22615
 Alpha  occ. eigenvalues --   -6.22450  -6.22052  -6.14936  -6.14398  -6.14269
 Alpha  occ. eigenvalues --   -1.31951  -1.19722  -1.09164  -1.03745  -0.91831
 Alpha  occ. eigenvalues --   -0.85345  -0.82381  -0.69354  -0.67805  -0.64794
 Alpha  occ. eigenvalues --   -0.62258  -0.58591  -0.53334  -0.51979  -0.48267
 Alpha  occ. eigenvalues --   -0.44613  -0.38671  -0.34629  -0.34547
 Alpha virt. eigenvalues --    0.02292   0.04274   0.04708   0.05076   0.06041
 Alpha virt. eigenvalues --    0.07963   0.08640   0.09116   0.10631   0.11233
 Alpha virt. eigenvalues --    0.12643   0.13296   0.13808   0.13939   0.14386

 Mulliken charges:
               1
     1  S    0.690743
     2  S    0.068424
     3  N   -0.450126
     4  N   -0.412288
     5  C   -0.250045
     6  C    0.434502
     7  C   -0.102114
     8  H   -0.072752
     9  H   -0.006051
    10  H    0.049855
    11  H    0.049853
 Sum of Mulliken charges =  -0.00000

 Dipole moment (field-independent basis, Debye):
    X=             -4.1500    Y=              1.9920    Z=              0.0000  Tot=              4.6033

 Test job not archived.
 1\1\GINC-SE188\SP\RHF\Aug-CC-pVDZ\C3H4N2S2\OHZDE\05-Apr-2025\0\\#t hf
 aug-cc-pvdz iop(5/13=1,5/36=2,99/5=2) pseudo=read geom=check guess=(re
 ad,tcheck) scf=(maxcycle=1)\\title\\0,1\S,0,0.212246,1.503595,0.000013
 \S,0,2.374967,-0.597531,-0.000005\N,0,-0.270384,-1.016336,-0.000009\N,
 0,-2.558616,-1.309203,-0.000011\C,0,0.793728,-0.16448,-0.000001\C,0,-1
 .566028,-0.523204,-0.000005\C,0,-1.550107,0.995182,0.000009\H,0,-0.112
 586,-2.013711,-0.000018\H,0,-3.442358,-0.809316,-0.000007\H,0,-2.05151
 8,1.3799,-0.885946\H,0,-2.051518,1.379884,0.88597\\Version=ES64L-G16Re

 Normal termination of Gaussian 16 at Sat Apr  5 22:43:17 2025.
