 Gaussian 16, Revision C.01,

 ----------------------------------------------------------------------
 #t hf aug-cc-pvdz symm=none int=(grid=ultrafine) guess=(read,tcheck) s
 table=(opt,rrhf)
 ----------------------------------------------------------------------
 -----
 title
 -----
 Symbolic Z-matrix:
 Charge =  0 Multiplicity = 1

 SCF Done:  E(RHF) =  -303.528110698     A.U. after   14 cycles
 Normal termination of Gaussian 16 at Sat Apr  5 22:42:29 2025.
 Gaussian 16:  ES64L-G16RevC.01  3-Jul-2019

 ----------------------------------------------------------------------
 #t hf aug-cc-pvdz iop(5/13=1,5/36=2,99/5=2) pseudo=read geom=check gue
 ss=(read,tcheck) scf=(maxcycle=1)
 ----------------------------------------------------------------------
 -----
 title
 -----
 Structure from the checkpoint file:  "4-methylene-2-oxetanone.chk"
 Charge =  0 Multiplicity = 1

                         Standard orientation:
 ---------------------------------------------------------------------
 Center     Atomic      Atomic             Coordinates (Angstroms)
 Number     Number       Type             X           Y           Z
 ---------------------------------------------------------------------
      1          6           0        0.232599    2.252569    0.000000
      2          1           0        1.240702    2.639284    0.000000
      3          1           0       -0.591492    2.949028    0.000000
      4          8           0        0.964439   -0.073898    0.000000
      5          6           0       -0.031516   -1.052379    0.000000
      6          8           0        0.109849   -2.226036    0.000000
      7          6           0       -1.150253   -0.013443    0.000000
      8          1           0       -1.774247   -0.027961    0.891486
      9          1           0       -1.774247   -0.027961   -0.891486
     10          6           0        0.000000    0.957768    0.000000
 ---------------------------------------------------------------------

 SCF Done:  E(RHF) =  -303.624558006     A.U. after    2 cycles

 The electronic state is 1-A'.
 Alpha  occ. eigenvalues --  -20.64052 -20.59185 -11.41971 -11.34051 -11.29318
 Alpha  occ. eigenvalues --  -11.25161  -1.45112  -1.37466  -1.07748  -1.02770
 Alpha  occ. eigenvalues --   -0.83099  -0.77507  -0.72046  -0.70497  -0.70310
 Alpha  occ. eigenvalues --   -0.61939  -0.61257  -0.59280  -0.54596  -0.53982
 Alpha  occ. eigenvalues --   -0.47903  -0.38454
 Alpha virt. eigenvalues --    0.02796   0.04217   0.04722   0.05160   0.08058
 Alpha virt. eigenvalues --    0.09164   0.10365   0.11154   0.11195   0.12998
 Alpha virt. eigenvalues --    0.14006   0.14885   0.14898   0.15050   0.16153

 Mulliken charges:
               1
     1  C    1.050027
     2  H   -0.320214
     3  H   -0.266280
     4  O   -0.712586
     5  C    0.447905
     6  O   -0.373661
     7  C   -0.022137
     8  H    0.053330
     9  H    0.053330
    10  C    0.090286
 Sum of Mulliken charges =   0.00000

 Dipole moment (field-independent basis, Debye):
    X=             -2.7531    Y=              3.3866    Z=             -0.0000  Tot=              4.3645

 Test job not archived.
 1\1\GINC-SE171\SP\RHF\Aug-CC-pVDZ\C4H4O2\OHZDE\05-Apr-2025\0\\#t hf au
 g-cc-pvdz iop(5/13=1,5/36=2,99/5=2) pseudo=read geom=check guess=(read
 ,tcheck) scf=(maxcycle=1)\\title\\0,1\C,0,0.232599,2.252569,0.\H,0,1.2
 40702,2.639284,0.\H,0,-0.591492,2.949028,0.\O,0,0.964439,-0.073898,0.\
 C,0,-0.031516,-1.052379,0.\O,0,0.109849,-2.226036,0.\C,0,-1.150253,-0.
 013443,0.\H,0,-1.774247,-0.027961,0.891486\H,0,-1.774247,-0.027961,-0.
 891486\C,0,0.,0.957768,0.\\Version=ES64L-G16RevC.01\State=1-A'\HF=-303
 .624558\RMSD=6.353e-03\Dipole=-1.0831594,1.3323913,0.\Quadrupole=2.184

 Normal termination of Gaussian 16 at Sat Apr  5 22:43:16 2025.
