 Gaussian 16, Revision C.01,

 ----------------------------------------------------------------------
 #t hf aug-cc-pvdz symm=none int=(grid=ultrafine) guess=(read,tcheck) s
 table=(opt,rrhf)
 ----------------------------------------------------------------------
 -----
 title
 -----
 Symbolic Z-matrix:
 Charge =  0 Multiplicity = 1

 SCF Done:  E(RHF) =  -309.105063369     A.U. after   14 cycles

 1\1\GINC-SE206\Stability\RHF\Aug-CC-pVDZ\C6H12O1\OHZDE\05-Apr-2025\0\\
 #t hf aug-cc-pvdz symm=none int=(grid=ultrafine) guess=(read,tcheck) s
 table=(opt,rrhf)\\title\\0,1\C,0,1.363855,0.030075,-0.170042\C,0,2.606
 929,-0.557824,0.463532\C,0,-1.45528,1.225604,0.713644\C,0,-2.421092,-0
 .889332,-0.272124\C,0,0.061163,-0.705726,0.102479\C,0,-1.21841,0.05772
 2,-0.24833\O,0,1.416645,1.020203,-0.864763\H,0,2.642224,-1.64068,0.332
 842\H,0,3.496393,-0.099039,0.039705\H,0,2.584875,-0.368191,1.539724\H,
 0,-2.352545,1.781025,0.436354\H,0,-1.59422,0.865028,1.736746\H,0,-0.61

 Normal termination of Gaussian 16 at Sat Apr  5 22:43:13 2025.
 Gaussian 16:  ES64L-G16RevC.01  3-Jul-2019

 ----------------------------------------------------------------------
 #t hf aug-cc-pvdz iop(5/13=1,5/36=2,99/5=2) pseudo=read geom=check gue
 ss=(read,tcheck) scf=(maxcycle=1)
 ----------------------------------------------------------------------
 -----
 title
 -----
 Structure from the checkpoint file:  "4-methyl-2-pentanone.chk"
 Charge =  0 Multiplicity = 1

                         Standard orientation:
 ---------------------------------------------------------------------
 Center     Atomic      Atomic             Coordinates (Angstroms)
 Number     Number       Type             X           Y           Z
 ---------------------------------------------------------------------
      1          6           0        1.363855    0.030075   -0.170042
      2          6           0        2.606929   -0.557824    0.463532
      3          6           0       -1.455280    1.225604    0.713644
      4          6           0       -2.421092   -0.889332   -0.272124
      5          6           0        0.061163   -0.705726    0.102479
      6          6           0       -1.218410    0.057722   -0.248330
      7          8           0        1.416645    1.020203   -0.864763
      8          1           0        2.642224   -1.640680    0.332842
      9          1           0        3.496393   -0.099038    0.039705
     10          1           0        2.584875   -0.368191    1.539724
     11          1           0       -2.352545    1.781025    0.436354
     12          1           0       -1.594220    0.865028    1.736746
     13          1           0       -0.618385    1.922898    0.706321
     14          1           0       -3.332967   -0.354650   -0.542235
     15          1           0       -2.584846   -1.345226    0.707862
     16          1           0       -2.281272   -1.695729   -0.994592
     17          1           0        0.119090   -1.634373   -0.479035
     18          1           0        0.049131   -1.027199    1.149683
     19          1           0       -1.083622    0.471398   -1.250224
 ---------------------------------------------------------------------

 SCF Done:  E(RHF) =  -309.203523730     A.U. after    2 cycles

 The electronic state is 1-A.
 Alpha  occ. eigenvalues --  -20.55851 -11.34110 -11.24394 -11.24386 -11.23704
 Alpha  occ. eigenvalues --  -11.22436 -11.21808  -1.35133  -1.08673  -1.01880
 Alpha  occ. eigenvalues --   -0.94696  -0.92713  -0.79133  -0.73673  -0.66886
 Alpha  occ. eigenvalues --   -0.64381  -0.63588  -0.60545  -0.58604  -0.57040
 Alpha  occ. eigenvalues --   -0.55725  -0.54017  -0.52659  -0.50291  -0.48424
 Alpha  occ. eigenvalues --   -0.47060  -0.46742  -0.41811
 Alpha virt. eigenvalues --    0.03105   0.04084   0.04443   0.04893   0.06116
 Alpha virt. eigenvalues --    0.06226   0.06587   0.07337   0.07596   0.08796
 Alpha virt. eigenvalues --    0.09041   0.09238   0.12333   0.13346   0.13609

 Mulliken charges:
               1
     1  C   -0.141844
     2  C    0.394440
     3  C    0.682006
     4  C    0.920192
     5  C    0.441569
     6  C   -1.163317
     7  O   -0.544741
     8  H    0.011240
     9  H   -0.064376
    10  H    0.069432
    11  H   -0.088985
    12  H   -0.031477
    13  H   -0.085289
    14  H   -0.041159
    15  H   -0.007662
    16  H   -0.100331
    17  H   -0.017517
    18  H   -0.089408
    19  H   -0.142775
 Sum of Mulliken charges =  -0.00000

 Dipole moment (field-independent basis, Debye):
    X=             -0.2208    Y=             -2.6661    Z=              1.7800  Tot=              3.2133

 Test job not archived.
 1\1\GINC-SE206\SP\RHF\Aug-CC-pVDZ\C6H12O1\OHZDE\05-Apr-2025\0\\#t hf a
 ug-cc-pvdz iop(5/13=1,5/36=2,99/5=2) pseudo=read geom=check guess=(rea
 d,tcheck) scf=(maxcycle=1)\\title\\0,1\C,0,1.363855,0.030075,-0.170042
 \C,0,2.606929,-0.557824,0.463532\C,0,-1.45528,1.225604,0.713644\C,0,-2
 .421092,-0.889332,-0.272124\C,0,0.061163,-0.705726,0.102479\C,0,-1.218
 41,0.057722,-0.24833\O,0,1.416645,1.020203,-0.864763\H,0,2.642224,-1.6
 4068,0.332842\H,0,3.496393,-0.099039,0.039705\H,0,2.584875,-0.368191,1
 .539724\H,0,-2.352545,1.781025,0.436354\H,0,-1.59422,0.865028,1.736746

 Normal termination of Gaussian 16 at Sat Apr  5 22:43:20 2025.
