 Gaussian 16, Revision C.01,

 ----------------------------------------------------------------------
 #t hf aug-cc-pvdz symm=none int=(grid=ultrafine) guess=(read,tcheck) s
 table=(opt,rrhf)
 ----------------------------------------------------------------------
 -----
 title
 -----
 Symbolic Z-matrix:
 Charge =  0 Multiplicity = 1

 SCF Done:  E(RHF) =  -382.515285680     A.U. after   16 cycles
 Normal termination of Gaussian 16 at Sat Apr  5 22:43:54 2025.
 Gaussian 16:  ES64L-G16RevC.01  3-Jul-2019

 ----------------------------------------------------------------------
 #t hf aug-cc-pvdz iop(5/13=1,5/36=2,99/5=2) pseudo=read geom=check gue
 ss=(read,tcheck) scf=(maxcycle=1)
 ----------------------------------------------------------------------
 -----
 title
 -----
 Structure from the checkpoint file:  "4-methylbenzaldehyde.chk"
 Charge =  0 Multiplicity = 1

                         Standard orientation:
 ---------------------------------------------------------------------
 Center     Atomic      Atomic             Coordinates (Angstroms)
 Number     Number       Type             X           Y           Z
 ---------------------------------------------------------------------
      1          6           0       -0.225569    1.332966   -0.000002
      2          6           0       -0.455485   -1.064735   -0.000006
      3          6           0        1.156764    1.200181   -0.000032
      4          6           0        0.920244   -1.190395   -0.000036
      5          6           0       -1.043674    0.204925    0.000012
      6          6           0        1.751261   -0.060989   -0.000040
      7          6           0       -2.509207    0.366017    0.000015
      8          6           0        3.247030   -0.218201    0.000041
      9          8           0       -3.310674   -0.540952    0.000015
     10          1           0       -0.675329    2.318557   -0.000006
     11          1           0       -1.096676   -1.935469   -0.000014
     12          1           0        1.781369    2.084082   -0.000052
     13          1           0        1.367447   -2.176702   -0.000067
     14          1           0       -2.854814    1.419797    0.000014
     15          1           0        3.582124   -0.775241   -0.877101
     16          1           0        3.750856    0.746927   -0.001219
     17          1           0        3.582235   -0.772949    0.878607
 ---------------------------------------------------------------------

 SCF Done:  E(RHF) =  -382.630650189     A.U. after    2 cycles

 The electronic state is 1-A.
 Alpha  occ. eigenvalues --  -20.56657 -11.34378 -11.27366 -11.26794 -11.26096
 Alpha  occ. eigenvalues --  -11.25461 -11.25352 -11.25220 -11.24790  -1.35335
 Alpha  occ. eigenvalues --   -1.16642  -1.06766  -1.02797  -0.96628  -0.86668
 Alpha  occ. eigenvalues --   -0.84799  -0.79039  -0.71491  -0.68051  -0.65426
 Alpha  occ. eigenvalues --   -0.63303  -0.61466  -0.60655  -0.59452  -0.56052
 Alpha  occ. eigenvalues --   -0.55699  -0.52509  -0.50549  -0.49843  -0.43925
 Alpha  occ. eigenvalues --   -0.35705  -0.34651
 Alpha virt. eigenvalues --    0.02933   0.03537   0.04247   0.05133   0.05336
 Alpha virt. eigenvalues --    0.06225   0.06463   0.07484   0.08285   0.09000
 Alpha virt. eigenvalues --    0.09860   0.10050   0.11780   0.13025   0.13306

 Mulliken charges:
               1
     1  C    0.110664
     2  C    0.026286
     3  C    0.319496
     4  C    0.463048
     5  C    0.835074
     6  C   -0.154339
     7  C    0.965341
     8  C    0.651822
     9  O   -0.536400
    10  H   -0.608953
    11  H   -0.588785
    12  H   -0.582526
    13  H   -0.599792
    14  H   -0.290518
    15  H    0.081072
    16  H   -0.173037
    17  H    0.081547
 Sum of Mulliken charges =   0.00000

 Dipole moment (field-independent basis, Debye):
    X=              4.1190    Y=              1.8104    Z=              0.0001  Tot=              4.4993

 Test job not archived.
 1\1\GINC-SE172\SP\RHF\Aug-CC-pVDZ\C8H8O1\OHZDE\05-Apr-2025\0\\#t hf au
 g-cc-pvdz iop(5/13=1,5/36=2,99/5=2) pseudo=read geom=check guess=(read
 ,tcheck) scf=(maxcycle=1)\\title\\0,1\C,0,-0.225569,1.332966,-0.000002
 \C,0,-0.455485,-1.064735,-0.000006\C,0,1.156764,1.200181,-0.000032\C,0
 ,0.920244,-1.190395,-0.000036\C,0,-1.043674,0.204925,0.000012\C,0,1.75
 1261,-0.060989,-0.00004\C,0,-2.509207,0.366017,0.000015\C,0,3.24703,-0
 .218201,0.000041\O,0,-3.310674,-0.540952,0.000015\H,0,-0.675329,2.3185
 57,-0.000006\H,0,-1.096676,-1.935469,-0.000014\H,0,1.781369,2.084082,-

 Normal termination of Gaussian 16 at Sat Apr  5 22:44:46 2025.
