 Gaussian 16, Revision C.01,

 ----------------------------------------------------------------------
 #t hf aug-cc-pvdz symm=none int=(grid=ultrafine) guess=(read,tcheck) s
 table=(opt,rrhf)
 ----------------------------------------------------------------------
 -----
 title
 -----
 Symbolic Z-matrix:
 Charge =  0 Multiplicity = 1

 SCF Done:  E(RHF) =  -590.490128365     A.U. after   17 cycles
 Normal termination of Gaussian 16 at Sat Apr  5 22:47:45 2025.
 Gaussian 16:  ES64L-G16RevC.01  3-Jul-2019

 ----------------------------------------------------------------------
 #t hf aug-cc-pvdz iop(5/13=1,5/36=2,99/5=2) pseudo=read geom=check gue
 ss=(read,tcheck) scf=(maxcycle=1)
 ----------------------------------------------------------------------
 -----
 title
 -----
 Structure from the checkpoint file:  "4-methoxy-N-N-dimethylbenzamide.chk"
 Charge =  0 Multiplicity = 1

                         Standard orientation:
 ---------------------------------------------------------------------
 Center     Atomic      Atomic             Coordinates (Angstroms)
 Number     Number       Type             X           Y           Z
 ---------------------------------------------------------------------
      1          6           0       -0.490195    1.181024    0.380923
      2          6           0       -0.087273   -0.940362   -0.656437
      3          6           0       -1.855971    0.926677    0.397595
      4          6           0       -1.445482   -1.198966   -0.668128
      5          6           0        0.414573    0.251972   -0.124372
      6          6           0       -2.340707   -0.270667   -0.129777
      7          6           0        1.862691    0.635548   -0.187993
      8          6           0        4.207575    0.027914   -0.102161
      9          6           0        2.582085   -1.485876    0.935530
     10          6           0       -4.617266    0.290682    0.342564
     11          7           0        2.808906   -0.316370    0.101874
     12          8           0        2.178901    1.768129   -0.533865
     13          8           0       -3.654834   -0.618058   -0.172296
     14          1           0       -0.115377    2.122535    0.757231
     15          1           0        0.588383   -1.664528   -1.090945
     16          1           0       -2.526213    1.665397    0.809027
     17          1           0       -1.837104   -2.111604   -1.095000
     18          1           0        4.753810   -0.863416   -0.414276
     19          1           0        4.664605    0.410445    0.816274
     20          1           0        4.282830    0.793784   -0.866477
     21          1           0        3.181135   -1.412773    1.848519
     22          1           0        2.873534   -2.401982    0.415066
     23          1           0        1.539541   -1.562042    1.221072
     24          1           0       -4.602392    1.237341   -0.202758
     25          1           0       -4.455250    0.481757    1.406130
     26          1           0       -5.582559   -0.188564    0.205851
 ---------------------------------------------------------------------

 SCF Done:  E(RHF) =  -590.672944452     A.U. after    2 cycles

 The electronic state is 1-A.
 Alpha  occ. eigenvalues --  -20.60759 -20.52502 -15.64652 -11.35844 -11.32231
 Alpha  occ. eigenvalues --  -11.30239 -11.27506 -11.26063 -11.26042 -11.25696
 Alpha  occ. eigenvalues --  -11.24778 -11.24590 -11.24367  -1.37850  -1.33809
 Alpha  occ. eigenvalues --   -1.20702  -1.15215  -1.03875  -1.02500  -0.97010
 Alpha  occ. eigenvalues --   -0.96014  -0.92652  -0.84679  -0.83340  -0.75704
 Alpha  occ. eigenvalues --   -0.73272  -0.70636  -0.68672  -0.67362  -0.65486
 Alpha  occ. eigenvalues --   -0.64967  -0.63605  -0.60843  -0.60121  -0.59409
 Alpha  occ. eigenvalues --   -0.57040  -0.56298  -0.55272  -0.54497  -0.53676
 Alpha  occ. eigenvalues --   -0.53066  -0.52362  -0.49489  -0.48092  -0.43581
 Alpha  occ. eigenvalues --   -0.37128  -0.35342  -0.32570
 Alpha virt. eigenvalues --    0.02995   0.03416   0.04021   0.04559   0.04872
 Alpha virt. eigenvalues --    0.05480   0.05813   0.06846   0.07110   0.07509
 Alpha virt. eigenvalues --    0.07831   0.08642   0.09259   0.09665   0.10408

 Mulliken charges:
               1
     1  C   -0.227528
     2  C    0.621919
     3  C    0.863494
     4  C    0.636252
     5  C    1.446651
     6  C    0.342851
     7  C   -0.605716
     8  C    0.799097
     9  C    0.893155
    10  C    0.891810
    11  N   -0.377318
    12  O   -0.537458
    13  O   -0.671851
    14  H   -0.620001
    15  H   -0.642859
    16  H   -0.688377
    17  H   -0.610680
    18  H   -0.143836
    19  H   -0.090120
    20  H   -0.215997
    21  H   -0.129797
    22  H   -0.151618
    23  H   -0.276310
    24  H   -0.090421
    25  H   -0.096245
    26  H   -0.319097
 Sum of Mulliken charges =  -0.00000

 Dipole moment (field-independent basis, Debye):
    X=             -1.4586    Y=             -2.5988    Z=              2.0789  Tot=              3.6336

 Test job not archived.
 1\1\GINC-SE190\SP\RHF\Aug-CC-pVDZ\C10H13N1O2\OHZDE\05-Apr-2025\0\\#t h
 f aug-cc-pvdz iop(5/13=1,5/36=2,99/5=2) pseudo=read geom=check guess=(
 read,tcheck) scf=(maxcycle=1)\\title\\0,1\C,0,-0.490195,1.181024,0.380
 923\C,0,-0.087273,-0.940362,-0.656437\C,0,-1.855971,0.926677,0.397595\
 C,0,-1.445482,-1.198966,-0.668128\C,0,0.414573,0.251972,-0.124372\C,0,
 -2.340707,-0.270667,-0.129777\C,0,1.862691,0.635548,-0.187993\C,0,4.20
 7575,0.027914,-0.102161\C,0,2.582085,-1.485876,0.93553\C,0,-4.617266,0
 .290682,0.342564\N,0,2.808906,-0.31637,0.101874\O,0,2.178901,1.768129,

 Normal termination of Gaussian 16 at Sat Apr  5 22:48:18 2025.
