 Gaussian 16, Revision C.01,

 ----------------------------------------------------------------------
 #t hf aug-cc-pvdz symm=none int=(grid=ultrafine) guess=(read,tcheck) s
 table=(opt,rrhf)
 ----------------------------------------------------------------------
 -----
 title
 -----
 Symbolic Z-matrix:
 Charge =  0 Multiplicity = 1

 SCF Done:  E(RHF) =  -325.071034668     A.U. after   12 cycles
 Normal termination of Gaussian 16 at Sat Apr  5 22:43:20 2025.
 Gaussian 16:  ES64L-G16RevC.01  3-Jul-2019

 ----------------------------------------------------------------------
 #t hf aug-cc-pvdz iop(5/13=1,5/36=2,99/5=2) pseudo=read geom=check gue
 ss=(read,tcheck) scf=(maxcycle=1)
 ----------------------------------------------------------------------
 -----
 title
 -----
 Structure from the checkpoint file:  "4-methylmorpholine.chk"
 Charge =  0 Multiplicity = 1

                         Standard orientation:
 ---------------------------------------------------------------------
 Center     Atomic      Atomic             Coordinates (Angstroms)
 Number     Number       Type             X           Y           Z
 ---------------------------------------------------------------------
      1          6           0        0.106519    0.321839    1.198642
      2          6           0        0.106519    0.321839   -1.198642
      3          6           0        0.106519   -1.199020    1.172521
      4          6           0        0.106519   -1.199020   -1.172521
      5          6           0       -0.609708    2.294708   -0.000000
      6          7           0       -0.539239    0.845250   -0.000000
      7          8           0        0.737364   -1.697303    0.000000
      8          1           0       -0.440093    0.670990    2.077415
      9          1           0        1.146930    0.681983    1.286343
     10          1           0        1.146930    0.681983   -1.286343
     11          1           0       -0.440093    0.670990   -2.077415
     12          1           0        0.665003   -1.599068    2.017754
     13          1           0       -0.925754   -1.568194    1.224034
     14          1           0       -0.925754   -1.568194   -1.224034
     15          1           0        0.665003   -1.599068   -2.017754
     16          1           0        0.384828    2.772550   -0.000000
     17          1           0       -1.149724    2.637811    0.883102
     18          1           0       -1.149724    2.637811   -0.883102
 ---------------------------------------------------------------------

 SCF Done:  E(RHF) =  -325.172831918     A.U. after    2 cycles

 The electronic state is 1-A'.
 Alpha  occ. eigenvalues --  -20.56605 -15.61384 -11.28082 -11.28056 -11.25825
 Alpha  occ. eigenvalues --  -11.25822 -11.25554  -1.33364  -1.19855  -1.03167
 Alpha  occ. eigenvalues --   -0.97689  -0.88090  -0.86301  -0.77255  -0.68532
 Alpha  occ. eigenvalues --   -0.64748  -0.64702  -0.63481  -0.63160  -0.57756
 Alpha  occ. eigenvalues --   -0.55977  -0.54225  -0.53012  -0.50381  -0.48603
 Alpha  occ. eigenvalues --   -0.46564  -0.42549  -0.35374
 Alpha virt. eigenvalues --    0.03540   0.04171   0.04495   0.04580   0.06406
 Alpha virt. eigenvalues --    0.06740   0.06982   0.07227   0.08035   0.08815
 Alpha virt. eigenvalues --    0.09519   0.12202   0.12334   0.13820   0.14739

 Mulliken charges:
               1
     1  C    0.605801
     2  C    0.605801
     3  C    0.701484
     4  C    0.701484
     5  C    0.661598
     6  N   -0.884700
     7  O   -0.694733
     8  H   -0.226234
     9  H   -0.109411
    10  H   -0.109411
    11  H   -0.226234
    12  H   -0.210512
    13  H   -0.082183
    14  H   -0.082183
    15  H   -0.210512
    16  H   -0.037850
    17  H   -0.201103
    18  H   -0.201103
 Sum of Mulliken charges =  -0.00000

 Dipole moment (field-independent basis, Debye):
    X=             -0.6047    Y=              1.4502    Z=              0.0000  Tot=              1.5712

 Test job not archived.
 1\1\GINC-SE176\SP\RHF\Aug-CC-pVDZ\C5H11N1O1\OHZDE\05-Apr-2025\0\\#t hf
  aug-cc-pvdz iop(5/13=1,5/36=2,99/5=2) pseudo=read geom=check guess=(r
 ead,tcheck) scf=(maxcycle=1)\\title\\0,1\C,0,0.106519,0.321839,1.19864
 2\C,0,0.106519,0.321839,-1.198642\C,0,0.106519,-1.19902,1.172521\C,0,0
 .106519,-1.19902,-1.172521\C,0,-0.609708,2.294708,0.\N,0,-0.539239,0.8
 4525,0.\O,0,0.737364,-1.697303,0.\H,0,-0.440093,0.67099,2.077415\H,0,1
 .14693,0.681983,1.286343\H,0,1.14693,0.681983,-1.286343\H,0,-0.440093,
 0.67099,-2.077415\H,0,0.665003,-1.599068,2.017754\H,0,-0.925754,-1.568

 Normal termination of Gaussian 16 at Sat Apr  5 22:43:25 2025.
