 Gaussian 16, Revision C.01,

 ----------------------------------------------------------------------
 #t hf aug-cc-pvdz symm=none int=(grid=ultrafine) guess=(read,tcheck) s
 table=(opt,rrhf)
 ----------------------------------------------------------------------
 -----
 title
 -----
 Symbolic Z-matrix:
 Charge =  0 Multiplicity = 1

 SCF Done:  E(RHF) =  -233.038839058     A.U. after   11 cycles
 Normal termination of Gaussian 16 at Sat Apr  5 22:42:47 2025.
 Gaussian 16:  ES64L-G16RevC.01  3-Jul-2019

 ----------------------------------------------------------------------
 #t hf aug-cc-pvdz iop(5/13=1,5/36=2,99/5=2) pseudo=read geom=check gue
 ss=(read,tcheck) scf=(maxcycle=1)
 ----------------------------------------------------------------------
 -----
 title
 -----
 Structure from the checkpoint file:  "4-methylcyclopentene.chk"
 Charge =  0 Multiplicity = 1

                         Standard orientation:
 ---------------------------------------------------------------------
 Center     Atomic      Atomic             Coordinates (Angstroms)
 Number     Number       Type             X           Y           Z
 ---------------------------------------------------------------------
      1          1           0        0.028003   -2.438976    1.284839
      2          6           0       -0.009038   -1.553163    0.664724
      3          1           0        0.028003   -2.438976   -1.284839
      4          6           0       -0.009038   -1.553163   -0.664724
      5          1           0        0.979678    0.096300    1.630209
      6          1           0       -0.717848   -0.020955    2.047210
      7          6           0       -0.009038   -0.154824    1.227012
      8          1           0       -0.717848   -0.020955   -2.047210
      9          1           0        0.979678    0.096300   -1.630209
     10          6           0       -0.009038   -0.154824   -1.227012
     11          1           0       -1.442190    0.863921    0.000000
     12          6           0       -0.357295    0.727796    0.000000
     13          1           0        0.014739    2.680869    0.880857
     14          1           0        0.014739    2.680869   -0.880857
     15          1           0        1.389603    2.014165   -0.000000
     16          6           0        0.300687    2.102752    0.000000
 ---------------------------------------------------------------------

 SCF Done:  E(RHF) =  -233.110544993     A.U. after    2 cycles

 The electronic state is 1-A'.
 Alpha  occ. eigenvalues --  -11.23254 -11.22890 -11.22741 -11.22685 -11.22676
 Alpha  occ. eigenvalues --  -11.22077  -1.12394  -1.00420  -0.95042  -0.89101
 Alpha  occ. eigenvalues --   -0.76527  -0.72671  -0.67275  -0.62948  -0.56591
 Alpha  occ. eigenvalues --   -0.55251  -0.55125  -0.53351  -0.49143  -0.47667
 Alpha  occ. eigenvalues --   -0.46594  -0.45153  -0.34276
 Alpha virt. eigenvalues --    0.03590   0.04359   0.04597   0.04959   0.05979
 Alpha virt. eigenvalues --    0.06617   0.06994   0.07213   0.08093   0.08871
 Alpha virt. eigenvalues --    0.12502   0.12824   0.13993   0.14938   0.15169

 Mulliken charges:
               1
     1  H   -0.313371
     2  C    0.230007
     3  H   -0.313371
     4  C    0.230007
     5  H   -0.047976
     6  H   -0.050221
     7  C    0.360798
     8  H   -0.050221
     9  H   -0.047976
    10  C    0.360798
    11  H   -0.150907
    12  C   -0.723949
    13  H   -0.071356
    14  H   -0.071356
    15  H   -0.021234
    16  C    0.680328
 Sum of Mulliken charges =  -0.00000

 Dipole moment (field-independent basis, Debye):
    X=             -0.0075    Y=              0.2381    Z=              0.0000  Tot=              0.2382

 Test job not archived.
 1\1\GINC-SE171\SP\RHF\Aug-CC-pVDZ\C6H10\OHZDE\05-Apr-2025\0\\#t hf aug
 -cc-pvdz iop(5/13=1,5/36=2,99/5=2) pseudo=read geom=check guess=(read,
 tcheck) scf=(maxcycle=1)\\title\\0,1\H,0,0.028003,-2.438976,1.284839\C
 ,0,-0.009038,-1.553163,0.664724\H,0,0.028003,-2.438976,-1.284839\C,0,-
 0.009038,-1.553163,-0.664724\H,0,0.979678,0.0963,1.630209\H,0,-0.71784
 8,-0.020955,2.04721\C,0,-0.009038,-0.154824,1.227012\H,0,-0.717848,-0.
 020955,-2.04721\H,0,0.979678,0.0963,-1.630209\C,0,-0.009038,-0.154824,
 -1.227012\H,0,-1.44219,0.863921,0.\C,0,-0.357295,0.727796,0.\H,0,0.014

 Normal termination of Gaussian 16 at Sat Apr  5 22:43:16 2025.
