 Gaussian 16, Revision C.01,

 ----------------------------------------------------------------------
 #t hf aug-cc-pvdz symm=none int=(grid=ultrafine) guess=(read,tcheck) s
 table=(opt,rrhf)
 ----------------------------------------------------------------------
 -----
 title
 -----
 Symbolic Z-matrix:
 Charge =  0 Multiplicity = 1

 SCF Done:  E(RHF) =  -285.767298788     A.U. after   14 cycles
 Normal termination of Gaussian 16 at Sat Apr  5 22:42:52 2025.
 Gaussian 16:  ES64L-G16RevC.01  3-Jul-2019

 ----------------------------------------------------------------------
 #t hf aug-cc-pvdz iop(5/13=1,5/36=2,99/5=2) pseudo=read geom=check gue
 ss=(read,tcheck) scf=(maxcycle=1)
 ----------------------------------------------------------------------
 -----
 title
 -----
 Structure from the checkpoint file:  "4-methylpyridine.chk"
 Charge =  0 Multiplicity = 1

                         Standard orientation:
 ---------------------------------------------------------------------
 Center     Atomic      Atomic             Coordinates (Angstroms)
 Number     Number       Type             X           Y           Z
 ---------------------------------------------------------------------
      1          6           0        0.170112    1.186351   -0.008143
      2          6           0        0.170422   -1.186190   -0.008142
      3          6           0       -1.217953    1.135555    0.002250
      4          6           0       -1.217513   -1.135808    0.002253
      5          6           0        0.901466    0.000262   -0.011063
      6          6           0        2.404775    0.000161    0.007281
      7          7           0       -1.916745   -0.000180    0.008110
      8          1           0        0.673396    2.144679   -0.017182
      9          1           0        0.673970   -2.144393   -0.017199
     10          1           0       -1.795666    2.053142    0.003167
     11          1           0       -1.794994   -2.053533    0.003164
     12          1           0        2.808502   -0.876247   -0.498790
     13          1           0        2.808455    0.891635   -0.471579
     14          1           0        2.775701   -0.016004    1.035029
 ---------------------------------------------------------------------

 SCF Done:  E(RHF) =  -285.851919687     A.U. after    2 cycles

 The electronic state is 1-A.
 Alpha  occ. eigenvalues --  -15.62364 -11.28190 -11.28178 -11.27331 -11.24698
 Alpha  occ. eigenvalues --  -11.24374 -11.24369  -1.22891  -1.09727  -1.02543
 Alpha  occ. eigenvalues --   -0.96632  -0.85625  -0.82419  -0.69811  -0.67589
 Alpha  occ. eigenvalues --   -0.64997  -0.59821  -0.59386  -0.56334  -0.55319
 Alpha  occ. eigenvalues --   -0.53021  -0.50982  -0.40946  -0.36926  -0.34820
 Alpha virt. eigenvalues --    0.03135   0.03817   0.04340   0.05312   0.05889
 Alpha virt. eigenvalues --    0.06216   0.08424   0.09439   0.10134   0.10484
 Alpha virt. eigenvalues --    0.11730   0.12021   0.13373   0.14070   0.14124

 Mulliken charges:
               1
     1  C    0.952201
     2  C    0.943547
     3  C    0.365403
     4  C    0.364898
     5  C   -0.926837
     6  C    0.495097
     7  N   -0.479523
     8  H   -0.499944
     9  H   -0.500458
    10  H   -0.337639
    11  H   -0.337792
    12  H   -0.066639
    13  H   -0.075841
    14  H    0.103529
 Sum of Mulliken charges =  -0.00000

 Dipole moment (field-independent basis, Debye):
    X=              2.7602    Y=             -0.0007    Z=              0.0254  Tot=              2.7603

 Test job not archived.
 1\1\GINC-SE177\SP\RHF\Aug-CC-pVDZ\C6H7N1\OHZDE\05-Apr-2025\0\\#t hf au
 g-cc-pvdz iop(5/13=1,5/36=2,99/5=2) pseudo=read geom=check guess=(read
 ,tcheck) scf=(maxcycle=1)\\title\\0,1\C,0,0.170112,1.186351,-0.008143\
 C,0,0.170422,-1.18619,-0.008142\C,0,-1.217953,1.135555,0.00225\C,0,-1.
 217513,-1.135808,0.002253\C,0,0.901466,0.000262,-0.011063\C,0,2.404775
 ,0.000161,0.007281\N,0,-1.916745,-0.00018,0.00811\H,0,0.673396,2.14467
 9,-0.017182\H,0,0.67397,-2.144393,-0.017199\H,0,-1.795666,2.053142,0.0
 03167\H,0,-1.794994,-2.053533,0.003164\H,0,2.808502,-0.876247,-0.49879

 Normal termination of Gaussian 16 at Sat Apr  5 22:43:20 2025.
