 Gaussian 16, Revision C.01,

 ----------------------------------------------------------------------
 #t hf aug-cc-pvdz symm=none int=(grid=ultrafine) guess=(read,tcheck) s
 table=(opt,rrhf)
 ----------------------------------------------------------------------
 -----
 title
 -----
 Symbolic Z-matrix:
 Charge =  0 Multiplicity = 1

 SCF Done:  E(RHF) =  -263.892746974     A.U. after   14 cycles
 Normal termination of Gaussian 16 at Sat Apr  5 22:42:32 2025.
 Gaussian 16:  ES64L-G16RevC.01  3-Jul-2019

 ----------------------------------------------------------------------
 #t hf aug-cc-pvdz iop(5/13=1,5/36=2,99/5=2) pseudo=read geom=check gue
 ss=(read,tcheck) scf=(maxcycle=1)
 ----------------------------------------------------------------------
 -----
 title
 -----
 Structure from the checkpoint file:  "4-methyl-1H-imidazole.chk"
 Charge =  0 Multiplicity = 1

                         Standard orientation:
 ---------------------------------------------------------------------
 Center     Atomic      Atomic             Coordinates (Angstroms)
 Number     Number       Type             X           Y           Z
 ---------------------------------------------------------------------
      1          6           0        1.108723   -0.145442    0.000000
      2          6           0       -0.725124   -1.365652    0.000000
      3          6           0        0.000000    0.658242    0.000000
      4          6           0       -0.075878    2.147531    0.000000
      5          7           0       -1.137354   -0.122450    0.000000
      6          7           0        0.632730   -1.439852    0.000000
      7          1           0        2.160529    0.077190    0.000000
      8          1           0       -1.353102   -2.241108    0.000000
      9          1           0       -0.613019    2.509034    0.878479
     10          1           0        0.918810    2.592122    0.000000
     11          1           0       -0.613019    2.509034   -0.878479
     12          1           0        1.185847   -2.278231    0.000000
 ---------------------------------------------------------------------

 SCF Done:  E(RHF) =  -263.971810668     A.U. after    2 cycles

 The electronic state is 1-A'.
 Alpha  occ. eigenvalues --  -15.68110 -15.60394 -11.30632 -11.26219 -11.25612
 Alpha  occ. eigenvalues --  -11.22547  -1.30671  -1.13330  -1.02648  -0.93556
 Alpha  occ. eigenvalues --   -0.81918  -0.77048  -0.73931  -0.62150  -0.60511
 Alpha  occ. eigenvalues --   -0.59917  -0.55018  -0.54530  -0.52884  -0.42512
 Alpha  occ. eigenvalues --   -0.38695  -0.31294
 Alpha virt. eigenvalues --    0.02632   0.03660   0.04587   0.06169   0.06171
 Alpha virt. eigenvalues --    0.07308   0.09837   0.10844   0.11616   0.12765
 Alpha virt. eigenvalues --    0.12997   0.14482   0.15201   0.15958   0.16716

 Mulliken charges:
               1
     1  C    0.868281
     2  C    0.732786
     3  C   -0.236725
     4  C    0.418006
     5  N   -0.740757
     6  N   -0.477656
     7  H   -0.294988
     8  H   -0.222907
     9  H    0.043829
    10  H   -0.042926
    11  H    0.043829
    12  H   -0.090772
 Sum of Mulliken charges =  -0.00000

 Dipole moment (field-independent basis, Debye):
    X=              2.7375    Y=             -2.1414    Z=              0.0000  Tot=              3.4756

 Test job not archived.
 1\1\GINC-SE196\SP\RHF\Aug-CC-pVDZ\C4H6N2\OHZDE\05-Apr-2025\0\\#t hf au
 g-cc-pvdz iop(5/13=1,5/36=2,99/5=2) pseudo=read geom=check guess=(read
 ,tcheck) scf=(maxcycle=1)\\title\\0,1\C,0,1.108723,-0.145442,0.\C,0,-0
 .725124,-1.365652,0.\C,0,0.,0.658242,0.\C,0,-0.075878,2.147531,0.\N,0,
 -1.137354,-0.12245,0.\N,0,0.63273,-1.439852,0.\H,0,2.160529,0.07719,0.
 \H,0,-1.353102,-2.241108,0.\H,0,-0.613019,2.509034,0.878479\H,0,0.9188
 1,2.592122,0.\H,0,-0.613019,2.509034,-0.878479\H,0,1.185847,-2.278231,
 0.\\Version=ES64L-G16RevC.01\State=1-A'\HF=-263.9718107\RMSD=5.502e-03

 Normal termination of Gaussian 16 at Sat Apr  5 22:43:17 2025.
