 Gaussian 16, Revision C.01,

 ----------------------------------------------------------------------
 #t hf aug-cc-pvdz symm=none int=(grid=ultrafine) guess=(read,tcheck) s
 table=(opt,rrhf)
 ----------------------------------------------------------------------
 -----
 title
 -----
 Symbolic Z-matrix:
 Charge =  0 Multiplicity = 1

 SCF Done:  E(RHF) =  -606.376820227     A.U. after   16 cycles
 Normal termination of Gaussian 16 at Sat Apr  5 22:42:33 2025.
 Gaussian 16:  ES64L-G16RevC.01  3-Jul-2019

 ----------------------------------------------------------------------
 #t hf aug-cc-pvdz iop(5/13=1,5/36=2,99/5=2) pseudo=read geom=check gue
 ss=(read,tcheck) scf=(maxcycle=1)
 ----------------------------------------------------------------------
 -----
 title
 -----
 Structure from the checkpoint file:  "4-methyl-1-3-thiazole.chk"
 Charge =  0 Multiplicity = 1

                         Standard orientation:
 ---------------------------------------------------------------------
 Center     Atomic      Atomic             Coordinates (Angstroms)
 Number     Number       Type             X           Y           Z
 ---------------------------------------------------------------------
      1          1           0        1.956440   -1.637058    0.000000
      2          6           0        0.000000    0.950174    0.000000
      3          6           0        1.120691   -0.954132    0.000000
      4          1           0        0.432261    2.850247    0.878324
      5          1           0       -1.103247    2.790379    0.000000
      6          1           0        0.432261    2.850247   -0.878324
      7          6           0       -0.071430    2.443743    0.000000
      8         16           0       -0.511579   -1.544954    0.000000
      9          7           0        1.234040    0.335533    0.000000
     10          1           0       -2.109532    0.327724    0.000000
     11          6           0       -1.059462    0.091715    0.000000
 ---------------------------------------------------------------------

 SCF Done:  E(RHF) =  -606.461211375     A.U. after    2 cycles

 The electronic state is 1-A'.
 Alpha  occ. eigenvalues --  -93.57364 -15.63561 -11.32153 -11.28582 -11.26922
 Alpha  occ. eigenvalues --  -11.23920  -8.87236  -6.21323  -6.21226  -6.20864
 Alpha  occ. eigenvalues --   -1.25711  -1.05032  -1.03872  -0.92439  -0.80620
 Alpha  occ. eigenvalues --   -0.74641  -0.68411  -0.59737  -0.59084  -0.56626
 Alpha  occ. eigenvalues --   -0.54913  -0.53509  -0.49419  -0.42466  -0.38702
 Alpha  occ. eigenvalues --   -0.33633
 Alpha virt. eigenvalues --    0.03556   0.03935   0.04567   0.06114   0.06753
 Alpha virt. eigenvalues --    0.08480   0.09608   0.10391   0.11651   0.11679
 Alpha virt. eigenvalues --    0.12725   0.12755   0.14483   0.15387   0.16044

 Mulliken charges:
               1
     1  H   -0.284350
     2  C   -0.089734
     3  C    0.238268
     4  H    0.024951
     5  H   -0.078240
     6  H    0.024951
     7  C    0.446451
     8  S    0.520366
     9  N   -0.571276
    10  H   -0.410376
    11  C    0.178988
 Sum of Mulliken charges =  -0.00000

 Dipole moment (field-independent basis, Debye):
    X=             -1.1440    Y=             -0.0663    Z=             -0.0000  Tot=              1.1459

 Test job not archived.
 1\1\GINC-SE196\SP\RHF\Aug-CC-pVDZ\C4H5N1S1\OHZDE\05-Apr-2025\0\\#t hf
 aug-cc-pvdz iop(5/13=1,5/36=2,99/5=2) pseudo=read geom=check guess=(re
 ad,tcheck) scf=(maxcycle=1)\\title\\0,1\H,0,1.95644,-1.637058,0.\C,0,0
 .,0.950174,0.\C,0,1.120691,-0.954132,0.\H,0,0.432261,2.850247,0.878324
 \H,0,-1.103247,2.790379,0.\H,0,0.432261,2.850247,-0.878324\C,0,-0.0714
 3,2.443743,0.\S,0,-0.511579,-1.544954,0.\N,0,1.23404,0.335533,0.\H,0,-
 2.109532,0.327724,0.\C,0,-1.059462,0.091715,0.\\Version=ES64L-G16RevC.
 01\State=1-A'\HF=-606.4612114\RMSD=8.727e-03\Dipole=-0.4500799,-0.0260

 Normal termination of Gaussian 16 at Sat Apr  5 22:43:17 2025.
