 Gaussian 16, Revision C.01,

 ----------------------------------------------------------------------
 #t hf aug-cc-pvdz symm=none int=(grid=ultrafine) guess=(read,tcheck) s
 table=(opt,rrhf)
 ----------------------------------------------------------------------
 -----
 title
 -----
 Symbolic Z-matrix:
 Charge =  0 Multiplicity = 1

 SCF Done:  E(RHF) =  -504.085726373     A.U. after   17 cycles
 Normal termination of Gaussian 16 at Sat Apr  5 22:43:19 2025.
 Gaussian 16:  ES64L-G16RevC.01  3-Jul-2019

 ----------------------------------------------------------------------
 #t hf aug-cc-pvdz iop(5/13=1,5/36=2,99/5=2) pseudo=read geom=check gue
 ss=(read,tcheck) scf=(maxcycle=1)
 ----------------------------------------------------------------------
 -----
 title
 -----
 Structure from the checkpoint file:  "4-nitro-1H-pyrrole-2-carbonitrile.chk"
 Charge =  0 Multiplicity = 1

                         Standard orientation:
 ---------------------------------------------------------------------
 Center     Atomic      Atomic             Coordinates (Angstroms)
 Number     Number       Type             X           Y           Z
 ---------------------------------------------------------------------
      1          8           0        2.409384   -1.476771   -0.000003
      2          8           0        2.963804    0.626484    0.000002
      3          7           0       -1.062861    1.308586    0.000003
      4          7           0        2.141777   -0.283046   -0.000000
      5          7           0       -3.957177   -0.642796   -0.000002
      6          6           0        0.751730    0.081376   -0.000000
      7          6           0       -0.341936   -0.807462   -0.000002
      8          6           0        0.284912    1.380757    0.000003
      9          6           0       -1.469753   -0.017320   -0.000000
     10          6           0       -2.836470   -0.370988   -0.000001
     11          1           0       -0.303559   -1.881146   -0.000005
     12          1           0        0.823963    2.309913    0.000006
     13          1           0       -1.688970    2.096140    0.000005
 ---------------------------------------------------------------------

 SCF Done:  E(RHF) =  -504.234360436     A.U. after    2 cycles

 The electronic state is 1-A.
 Alpha  occ. eigenvalues --  -20.62892 -20.62581 -15.93516 -15.74868 -15.67069
 Alpha  occ. eigenvalues --  -11.35364 -11.35123 -11.32691 -11.31938 -11.30578
 Alpha  occ. eigenvalues --   -1.56183  -1.37627  -1.34733  -1.22140  -1.14290
 Alpha  occ. eigenvalues --   -1.08272  -0.99392  -0.89867  -0.84318  -0.82831
 Alpha  occ. eigenvalues --   -0.75235  -0.74718  -0.74238  -0.70389  -0.66261
 Alpha  occ. eigenvalues --   -0.65022  -0.62717  -0.57553  -0.53116  -0.52675
 Alpha  occ. eigenvalues --   -0.52185  -0.49731  -0.48539  -0.42742  -0.36710
 Alpha virt. eigenvalues --    0.01443   0.03505   0.03899   0.04401   0.06746
 Alpha virt. eigenvalues --    0.07910   0.08132   0.08575   0.10342   0.11776
 Alpha virt. eigenvalues --    0.11781   0.12428   0.13121   0.13155   0.13546

 Mulliken charges:
               1
     1  O   -0.583896
     2  O   -0.597358
     3  N   -0.506072
     4  N    0.184233
     5  N   -0.041819
     6  C    0.716874
     7  C    0.356273
     8  C    0.757772
     9  C    1.391223
    10  C   -0.991285
    11  H   -0.360999
    12  H   -0.254032
    13  H   -0.070913
 Sum of Mulliken charges =  -0.00000

 Dipole moment (field-independent basis, Debye):
    X=             -1.7404    Y=              4.0593    Z=              0.0000  Tot=              4.4167

 Test job not archived.
 1\1\GINC-SE198\SP\RHF\Aug-CC-pVDZ\C5H3N3O2\OHZDE\05-Apr-2025\0\\#t hf
 aug-cc-pvdz iop(5/13=1,5/36=2,99/5=2) pseudo=read geom=check guess=(re
 ad,tcheck) scf=(maxcycle=1)\\title\\0,1\O,0,2.409384,-1.476771,-0.0000
 03\O,0,2.963804,0.626484,0.000002\N,0,-1.062861,1.308586,0.000003\N,0,
 2.141777,-0.283046,0.\N,0,-3.957177,-0.642796,-0.000002\C,0,0.75173,0.
 081376,0.\C,0,-0.341936,-0.807462,-0.000002\C,0,0.284912,1.380757,0.00
 0003\C,0,-1.469753,-0.01732,0.\C,0,-2.83647,-0.370988,-0.000001\H,0,-0
 .303559,-1.881146,-0.000005\H,0,0.823963,2.309913,0.000006\H,0,-1.6889

 Normal termination of Gaussian 16 at Sat Apr  5 22:43:25 2025.
