 Gaussian 16, Revision C.01,

 ----------------------------------------------------------------------
 #t hf aug-cc-pvdz symm=none int=(grid=ultrafine) guess=(read,tcheck) s
 table=(opt,rrhf)
 ----------------------------------------------------------------------
 -----
 title
 -----
 Symbolic Z-matrix:
 Charge =  0 Multiplicity = 1

 SCF Done:  E(RHF) =  -509.109203606     A.U. after   16 cycles
 Normal termination of Gaussian 16 at Sat Apr  5 22:43:47 2025.
 Gaussian 16:  ES64L-G16RevC.01  3-Jul-2019

 ----------------------------------------------------------------------
 #t hf aug-cc-pvdz iop(5/13=1,5/36=2,99/5=2) pseudo=read geom=check gue
 ss=(read,tcheck) scf=(maxcycle=1)
 ----------------------------------------------------------------------
 -----
 title
 -----
 Structure from the checkpoint file:  "4-nitrophenol.chk"
 Charge =  0 Multiplicity = 1

                         Standard orientation:
 ---------------------------------------------------------------------
 Center     Atomic      Atomic             Coordinates (Angstroms)
 Number     Number       Type             X           Y           Z
 ---------------------------------------------------------------------
      1          6           0       -1.206951    0.001465    0.000000
      2          6           0        1.216264    0.012824    0.000000
      3          6           0       -1.196872   -1.382293    0.000000
      4          6           0        1.225228   -1.368685    0.000000
      5          6           0        0.000000    0.687846    0.000000
      6          6           0        0.018081   -2.070366    0.000000
      7          7           0       -0.009275    2.152677    0.000000
      8          8           0       -1.096069    2.717197    0.000000
      9          8           0        1.070131    2.730377    0.000000
     10          8           0        0.088467   -3.425739    0.000000
     11          1           0       -2.133281    0.554066    0.000000
     12          1           0        2.135640    0.576959    0.000000
     13          1           0       -2.130792   -1.930246    0.000000
     14          1           0        2.153866   -1.920498    0.000000
     15          1           0       -0.795242   -3.808449    0.000000
 ---------------------------------------------------------------------

 SCF Done:  E(RHF) =  -509.262451408     A.U. after    2 cycles

 The electronic state is 1-A'.
 Alpha  occ. eigenvalues --  -20.63827 -20.61420 -20.61381 -15.91855 -11.35613
 Alpha  occ. eigenvalues --  -11.31248 -11.29344 -11.29075 -11.27534 -11.26920
 Alpha  occ. eigenvalues --   -1.54770  -1.40395  -1.36203  -1.19181  -1.08188
 Alpha  occ. eigenvalues --   -1.05684  -0.95379  -0.89009  -0.84064  -0.79001
 Alpha  occ. eigenvalues --   -0.78031  -0.73962  -0.72563  -0.70434  -0.66084
 Alpha  occ. eigenvalues --   -0.63946  -0.63799  -0.62700  -0.60139  -0.53685
 Alpha  occ. eigenvalues --   -0.52755  -0.51234  -0.51169  -0.47336  -0.38250
 Alpha  occ. eigenvalues --   -0.36228
 Alpha virt. eigenvalues --    0.02089   0.03663   0.03788   0.04375   0.05960
 Alpha virt. eigenvalues --    0.06534   0.08098   0.09820   0.10557   0.11914
 Alpha virt. eigenvalues --    0.12149   0.12881   0.12995   0.13152   0.13677

 Mulliken charges:
               1
     1  C    0.226241
     2  C    0.430741
     3  C    0.497761
     4  C    0.597406
     5  C    1.170107
     6  C    0.462235
     7  N    0.131444
     8  O   -0.578188
     9  O   -0.576070
    10  O   -0.559412
    11  H   -0.452889
    12  H   -0.465900
    13  H   -0.566713
    14  H   -0.465454
    15  H    0.148691
 Sum of Mulliken charges =  -0.00000

 Dipole moment (field-independent basis, Debye):
    X=             -1.3994    Y=             -5.4680    Z=              0.0000  Tot=              5.6442

 Test job not archived.
 1\1\GINC-SE225\SP\RHF\Aug-CC-pVDZ\C6H5N1O3\OHZDE\05-Apr-2025\0\\#t hf
 aug-cc-pvdz iop(5/13=1,5/36=2,99/5=2) pseudo=read geom=check guess=(re
 ad,tcheck) scf=(maxcycle=1)\\title\\0,1\C,0,-1.206951,0.001465,0.\C,0,
 1.216264,0.012824,0.\C,0,-1.196872,-1.382293,0.\C,0,1.225228,-1.368685
 ,0.\C,0,0.,0.687846,0.\C,0,0.018081,-2.070366,0.\N,0,-0.009275,2.15267
 7,0.\O,0,-1.096069,2.717197,0.\O,0,1.070131,2.730377,0.\O,0,0.088467,-
 3.425739,0.\H,0,-2.133281,0.554066,0.\H,0,2.13564,0.576959,0.\H,0,-2.1
 30792,-1.930246,0.\H,0,2.153866,-1.920498,0.\H,0,-0.795242,-3.808449,0

 Normal termination of Gaussian 16 at Sat Apr  5 22:44:46 2025.
