 Gaussian 16, Revision C.01,

 ----------------------------------------------------------------------
 #t hf aug-cc-pvdz symm=none int=(grid=ultrafine) guess=(read,tcheck) s
 table=(opt,rrhf)
 ----------------------------------------------------------------------
 -----
 title
 -----
 Symbolic Z-matrix:
 Charge =  0 Multiplicity = 1

 SCF Done:  E(RHF) =  -733.946123502     A.U. after   17 cycles
 Normal termination of Gaussian 16 at Sat Apr  5 22:42:37 2025.
 Gaussian 16:  ES64L-G16RevC.01  3-Jul-2019

 ----------------------------------------------------------------------
 #t hf aug-cc-pvdz iop(5/13=1,5/36=2,99/5=2) pseudo=read geom=check gue
 ss=(read,tcheck) scf=(maxcycle=1)
 ----------------------------------------------------------------------
 -----
 title
 -----
 Structure from the checkpoint file:  "4-oxo-4-5-dihydro-1-3-thiazole-2-carbonitrile.chk"
 Charge =  0 Multiplicity = 1

                         Standard orientation:
 ---------------------------------------------------------------------
 Center     Atomic      Atomic             Coordinates (Angstroms)
 Number     Number       Type             X           Y           Z
 ---------------------------------------------------------------------
      1         16           0        0.234585    1.466163    0.000019
      2          8           0       -2.496898   -1.266018   -0.000007
      3          7           0       -0.187033   -1.159171   -0.000015
      4          7           0        3.238743   -0.724713   -0.000024
      5          6           0       -1.499104    0.930285    0.000020
      6          6           0       -1.494441   -0.611498   -0.000002
      7          6           0        0.703863   -0.238954   -0.000007
      8          6           0        2.103888   -0.535976   -0.000017
      9          1           0       -2.012693    1.296805   -0.885980
     10          1           0       -2.012684    1.296780    0.886036
 ---------------------------------------------------------------------

 SCF Done:  E(RHF) =  -734.064492428     A.U. after    2 cycles

 The electronic state is 1-A.
 Alpha  occ. eigenvalues --  -93.61083 -20.60022 -15.69779 -15.69157 -11.42385
 Alpha  occ. eigenvalues --  -11.41391 -11.33479 -11.32847  -8.90903  -6.25018
 Alpha  occ. eigenvalues --   -6.24849  -6.24456  -1.40752  -1.30033  -1.23803
 Alpha  occ. eigenvalues --   -1.10033  -1.03779  -0.90878  -0.82396  -0.75007
 Alpha  occ. eigenvalues --   -0.69440  -0.69065  -0.62671  -0.59840  -0.59512
 Alpha  occ. eigenvalues --   -0.58125  -0.56541  -0.51477  -0.49073  -0.48634
 Alpha  occ. eigenvalues --   -0.46586  -0.40337
 Alpha virt. eigenvalues --    0.01025   0.02467   0.04402   0.05630   0.06502
 Alpha virt. eigenvalues --    0.08238   0.08593   0.09233   0.09657   0.11382
 Alpha virt. eigenvalues --    0.11383   0.12817   0.13509   0.14268   0.14433

 Mulliken charges:
               1
     1  S    0.560602
     2  O   -0.430598
     3  N   -0.486244
     4  N    0.024338
     5  C   -0.236398
     6  C    0.543373
     7  C    0.841639
     8  C   -0.885817
     9  H    0.034552
    10  H    0.034553
 Sum of Mulliken charges =  -0.00000

 Dipole moment (field-independent basis, Debye):
    X=             -1.1036    Y=              4.3383    Z=              0.0001  Tot=              4.4764

 Test job not archived.
 1\1\GINC-SE231\SP\RHF\Aug-CC-pVDZ\C4H2N2O1S1\OHZDE\05-Apr-2025\0\\#t h
 f aug-cc-pvdz iop(5/13=1,5/36=2,99/5=2) pseudo=read geom=check guess=(
 read,tcheck) scf=(maxcycle=1)\\title\\0,1\S,0,0.234585,1.466163,0.0000
 19\O,0,-2.496898,-1.266018,-0.000007\N,0,-0.187033,-1.159171,-0.000015
 \N,0,3.238743,-0.724713,-0.000024\C,0,-1.499104,0.930285,0.00002\C,0,-
 1.494441,-0.611498,-0.000002\C,0,0.703863,-0.238954,-0.000007\C,0,2.10
 3888,-0.535976,-0.000017\H,0,-2.012693,1.296805,-0.88598\H,0,-2.012684
 ,1.29678,0.886036\\Version=ES64L-G16RevC.01\State=1-A\HF=-734.0644924\

 Normal termination of Gaussian 16 at Sat Apr  5 22:43:17 2025.
