 Gaussian 16, Revision C.01,

 ----------------------------------------------------------------------
 #t hf aug-cc-pvdz symm=none int=(grid=ultrafine) guess=(read,tcheck) s
 table=(opt,rrhf)
 ----------------------------------------------------------------------
 -----
 title
 -----
 Symbolic Z-matrix:
 Charge =  0 Multiplicity = 1

 SCF Done:  E(RHF) =  -422.719186372     A.U. after   15 cycles

 1\1\GINC-SE232\Stability\RHF\Aug-CC-pVDZ\C9H12O1\OHZDE\05-Apr-2025\0\\
 #t hf aug-cc-pvdz symm=none int=(grid=ultrafine) guess=(read,tcheck) s
 table=(opt,rrhf)\\title\\0,1\C,0,-0.358008,-1.192497,-0.280254\C,0,-0.
 343198,1.192831,-0.28215\C,0,-1.721958,-1.189747,-0.010477\C,0,-1.7040
 67,1.215219,-0.013027\C,0,0.359997,-0.006025,-0.42022\C,0,-2.398815,0.
 017812,0.125458\C,0,4.192562,-0.004905,0.338317\C,0,1.847021,-0.015398
 ,-0.674427\C,0,2.689971,0.002765,0.610921\O,0,-3.741651,0.0889,0.38808
 8\H,0,0.152278,-2.141809,-0.388206\H,0,0.18303,2.133209,-0.392492\H,0,

 Normal termination of Gaussian 16 at Sat Apr  5 22:45:14 2025.
 Gaussian 16:  ES64L-G16RevC.01  3-Jul-2019

 ----------------------------------------------------------------------
 #t hf aug-cc-pvdz iop(5/13=1,5/36=2,99/5=2) pseudo=read geom=check gue
 ss=(read,tcheck) scf=(maxcycle=1)
 ----------------------------------------------------------------------
 -----
 title
 -----
 Structure from the checkpoint file:  "4-propylphenol.chk"
 Charge =  0 Multiplicity = 1

                         Standard orientation:
 ---------------------------------------------------------------------
 Center     Atomic      Atomic             Coordinates (Angstroms)
 Number     Number       Type             X           Y           Z
 ---------------------------------------------------------------------
      1          6           0       -0.358008   -1.192497   -0.280254
      2          6           0       -0.343198    1.192831   -0.282150
      3          6           0       -1.721958   -1.189747   -0.010477
      4          6           0       -1.704067    1.215219   -0.013027
      5          6           0        0.359997   -0.006025   -0.420220
      6          6           0       -2.398815    0.017812    0.125458
      7          6           0        4.192562   -0.004905    0.338317
      8          6           0        1.847021   -0.015398   -0.674427
      9          6           0        2.689971    0.002765    0.610921
     10          8           0       -3.741651    0.088900    0.388088
     11          1           0        0.152278   -2.141809   -0.388206
     12          1           0        0.183030    2.133209   -0.392492
     13          1           0       -2.257935   -2.126629    0.088883
     14          1           0       -2.239210    2.149244    0.086996
     15          1           0        4.489024   -0.895456   -0.219839
     16          1           0        4.492677    0.865907   -0.248259
     17          1           0        4.763947    0.008939    1.267358
     18          1           0        2.112002   -0.900851   -1.258622
     19          1           0        2.117837    0.849206   -1.286581
     20          1           0        2.424357    0.886004    1.197601
     21          1           0        2.420111   -0.860563    1.224708
     22          1           0       -4.105938   -0.798727    0.458901
 ---------------------------------------------------------------------

 SCF Done:  E(RHF) =  -422.848362146     A.U. after    2 cycles

 The electronic state is 1-A.
 Alpha  occ. eigenvalues --  -20.60159 -11.30822 -11.24501 -11.24332 -11.24112
 Alpha  occ. eigenvalues --  -11.23833 -11.23549 -11.23294 -11.22893 -11.22269
 Alpha  occ. eigenvalues --   -1.36303  -1.14402  -1.06379  -1.01351  -1.00366
 Alpha  occ. eigenvalues --   -0.91930  -0.84993  -0.82496  -0.79282  -0.74311
 Alpha  occ. eigenvalues --   -0.68239  -0.65318  -0.63003  -0.61032  -0.60317
 Alpha  occ. eigenvalues --   -0.59219  -0.58403  -0.57218  -0.54872  -0.52994
 Alpha  occ. eigenvalues --   -0.49692  -0.49361  -0.47898  -0.47117  -0.46664
 Alpha  occ. eigenvalues --   -0.34416  -0.31044
 Alpha virt. eigenvalues --    0.03168   0.03719   0.04192   0.04810   0.05173
 Alpha virt. eigenvalues --    0.05755   0.06736   0.07180   0.07374   0.07804
 Alpha virt. eigenvalues --    0.08139   0.10401   0.10971   0.11072   0.11715

 Mulliken charges:
               1
     1  C    0.160103
     2  C    0.413346
     3  C    0.479958
     4  C    0.520631
     5  C    1.231227
     6  C    0.264273
     7  C    0.407377
     8  C    0.081678
     9  C    0.153757
    10  O   -0.575312
    11  H   -0.622652
    12  H   -0.652042
    13  H   -0.571346
    14  H   -0.496360
    15  H   -0.060555
    16  H   -0.062787
    17  H   -0.062671
    18  H   -0.200283
    19  H   -0.189102
    20  H   -0.171895
    21  H   -0.173108
    22  H    0.125764
 Sum of Mulliken charges =  -0.00000

 Dipole moment (field-independent basis, Debye):
    X=              0.7019    Y=             -1.3965    Z=             -0.0114  Tot=              1.5630

 Test job not archived.
 1\1\GINC-SE232\SP\RHF\Aug-CC-pVDZ\C9H12O1\OHZDE\05-Apr-2025\0\\#t hf a
 ug-cc-pvdz iop(5/13=1,5/36=2,99/5=2) pseudo=read geom=check guess=(rea
 d,tcheck) scf=(maxcycle=1)\\title\\0,1\C,0,-0.358008,-1.192497,-0.2802
 54\C,0,-0.343198,1.192831,-0.28215\C,0,-1.721958,-1.189747,-0.010477\C
 ,0,-1.704067,1.215219,-0.013027\C,0,0.359997,-0.006025,-0.42022\C,0,-2
 .398815,0.017812,0.125458\C,0,4.192562,-0.004905,0.338317\C,0,1.847021
 ,-0.015398,-0.674427\C,0,2.689971,0.002765,0.610921\O,0,-3.741651,0.08
 89,0.388088\H,0,0.152278,-2.141809,-0.388206\H,0,0.18303,2.133209,-0.3

 Normal termination of Gaussian 16 at Sat Apr  5 22:45:46 2025.
