 Gaussian 16, Revision C.01,

 ----------------------------------------------------------------------
 #t hf aug-cc-pvdz symm=none int=(grid=ultrafine) guess=(read,tcheck) s
 table=(opt,rrhf)
 ----------------------------------------------------------------------
 -----
 title
 -----
 Symbolic Z-matrix:
 Charge =  0 Multiplicity = 1

 SCF Done:  E(RHF) =  -321.602293435     A.U. after   14 cycles
 Normal termination of Gaussian 16 at Sat Apr  5 22:43:47 2025.
 Gaussian 16:  ES64L-G16RevC.01  3-Jul-2019

 ----------------------------------------------------------------------
 #t hf aug-cc-pvdz iop(5/13=1,5/36=2,99/5=2) pseudo=read geom=check gue
 ss=(read,tcheck) scf=(maxcycle=1)
 ----------------------------------------------------------------------
 -----
 title
 -----
 Structure from the checkpoint file:  "4-pyridinol.chk"
 Charge =  0 Multiplicity = 1

                         Standard orientation:
 ---------------------------------------------------------------------
 Center     Atomic      Atomic             Coordinates (Angstroms)
 Number     Number       Type             X           Y           Z
 ---------------------------------------------------------------------
      1          7           0        0.022052   -1.868589    0.000000
      2          6           0       -1.118779   -1.180044    0.000000
      3          6           0       -1.190003    0.206824    0.000000
      4          6           0        0.000000    0.928441    0.000000
      5          6           0        1.202363    0.228588    0.000000
      6          6           0        1.152339   -1.156758    0.000000
      7          8           0        0.047471    2.286339    0.000000
      8          1           0       -2.032661   -1.763240    0.000000
      9          1           0       -2.150092    0.708021    0.000000
     10          1           0        2.143131    0.759763    0.000000
     11          1           0        2.074927   -1.725725    0.000000
     12          1           0       -0.844958    2.648295    0.000000
 ---------------------------------------------------------------------

 SCF Done:  E(RHF) =  -321.698496823     A.U. after    2 cycles

 The electronic state is 1-A'.
 Alpha  occ. eigenvalues --  -20.62540 -15.62324 -11.33978 -11.29254 -11.28990
 Alpha  occ. eigenvalues --  -11.25143 -11.24530  -1.38996  -1.23206  -1.07144
 Alpha  occ. eigenvalues --   -1.03597  -0.88188  -0.85988  -0.76980  -0.70921
 Alpha  occ. eigenvalues --   -0.66857  -0.63893  -0.62648  -0.60908  -0.60230
 Alpha  occ. eigenvalues --   -0.53175  -0.52180  -0.41641  -0.36412  -0.35793
 Alpha virt. eigenvalues --    0.02640   0.03950   0.04492   0.06025   0.06571
 Alpha virt. eigenvalues --    0.08973   0.10031   0.10954   0.11927   0.12320
 Alpha virt. eigenvalues --    0.12672   0.13428   0.13667   0.14092   0.14462

 Mulliken charges:
               1
     1  N   -0.410818
     2  C    0.364099
     3  C    1.113742
     4  C   -0.460314
     5  C    1.132656
     6  C    0.286166
     7  O   -0.548814
     8  H   -0.324837
     9  H   -0.517125
    10  H   -0.437257
    11  H   -0.329512
    12  H    0.132015
 Sum of Mulliken charges =  -0.00000

 Dipole moment (field-independent basis, Debye):
    X=             -1.4623    Y=              1.9952    Z=              0.0000  Tot=              2.4737

 Test job not archived.
 1\1\GINC-SE041\SP\RHF\Aug-CC-pVDZ\C5H5N1O1\OHZDE\05-Apr-2025\0\\#t hf
 aug-cc-pvdz iop(5/13=1,5/36=2,99/5=2) pseudo=read geom=check guess=(re
 ad,tcheck) scf=(maxcycle=1)\\title\\0,1\N,0,0.022052,-1.868589,0.\C,0,
 -1.118779,-1.180044,0.\C,0,-1.190003,0.206824,0.\C,0,0.,0.928441,0.\C,
 0,1.202363,0.228588,0.\C,0,1.152339,-1.156758,0.\O,0,0.047471,2.286339
 ,0.\H,0,-2.032661,-1.76324,0.\H,0,-2.150092,0.708021,0.\H,0,2.143131,0
 .759763,0.\H,0,2.074927,-1.725725,0.\H,0,-0.844958,2.648295,0.\\Versio
 n=ES64L-G16RevC.01\State=1-A'\HF=-321.6984968\RMSD=9.195e-03\Dipole=-0

 Normal termination of Gaussian 16 at Sat Apr  5 22:44:44 2025.
