 Gaussian 16, Revision C.01,

 ----------------------------------------------------------------------
 #t hf aug-cc-pvdz symm=none int=(grid=ultrafine) guess=(read,tcheck) s
 table=(opt,rrhf)
 ----------------------------------------------------------------------
 -----
 title
 -----
 Symbolic Z-matrix:
 Charge =  0 Multiplicity = 1

 SCF Done:  E(RHF) =  -1056.60060720     A.U. after   16 cycles
 Normal termination of Gaussian 16 at Sat Apr  5 22:43:48 2025.
 Gaussian 16:  ES64L-G16RevC.01  3-Jul-2019

 ----------------------------------------------------------------------
 #t hf aug-cc-pvdz iop(5/13=1,5/36=2,99/5=2) pseudo=read geom=check gue
 ss=(read,tcheck) scf=(maxcycle=1)
 ----------------------------------------------------------------------
 -----
 title
 -----
 Structure from the checkpoint file:  "4-sulfanyl-1-3-thiazole-5-carbonitrile.chk"
 Charge =  0 Multiplicity = 1

                         Standard orientation:
 ---------------------------------------------------------------------
 Center     Atomic      Atomic             Coordinates (Angstroms)
 Number     Number       Type             X           Y           Z
 ---------------------------------------------------------------------
      1         16           0        1.958243    0.228807    0.000000
      2         16           0       -2.220685   -0.683816   -0.000001
      3          7           0        0.289940   -1.729567   -0.000001
      4          7           0       -0.650712    2.984496    0.000000
      5          6           0        0.252301    0.588485    0.000000
      6          6           0       -0.464268   -0.591163    0.000000
      7          6           0        1.558175   -1.448494    0.000000
      8          6           0       -0.241588    1.904998    0.000000
      9          1           0       -2.237266   -2.028192   -0.000001
     10          1           0        2.334026   -2.199110    0.000000
 ---------------------------------------------------------------------

 SCF Done:  E(RHF) =  -1056.71678062     A.U. after    2 cycles

 The electronic state is 1-A.
 Alpha  occ. eigenvalues --  -93.61686 -93.57931 -15.67791 -15.65598 -11.36767
 Alpha  occ. eigenvalues --  -11.36383 -11.32670 -11.30721  -8.91474  -8.87723
 Alpha  occ. eigenvalues --   -6.25566  -6.25459  -6.25078  -6.21924  -6.21710
 Alpha  occ. eigenvalues --   -6.21293  -1.30631  -1.20919  -1.10470  -1.08398
 Alpha  occ. eigenvalues --   -0.97370  -0.88830  -0.81666  -0.73729  -0.64427
 Alpha  occ. eigenvalues --   -0.63549  -0.62078  -0.56099  -0.55404  -0.51664
 Alpha  occ. eigenvalues --   -0.51590  -0.48313  -0.45810  -0.45338  -0.41153
 Alpha  occ. eigenvalues --   -0.34216
 Alpha virt. eigenvalues --    0.02571   0.04058   0.04238   0.06317   0.07741
 Alpha virt. eigenvalues --    0.08223   0.08256   0.09814   0.10259   0.10917
 Alpha virt. eigenvalues --    0.11660   0.12390   0.12736   0.13880   0.14050

 Mulliken charges:
               1
     1  S    0.504914
     2  S    0.465036
     3  N   -0.604554
     4  N   -0.037786
     5  C    0.837932
     6  C    0.001961
     7  C    0.223547
     8  C   -1.217777
     9  H    0.086086
    10  H   -0.259359
 Sum of Mulliken charges =  -0.00000

 Dipole moment (field-independent basis, Debye):
    X=              2.4681    Y=             -4.0534    Z=              0.0000  Tot=              4.7457

 Test job not archived.
 1\1\GINC-SE040\SP\RHF\Aug-CC-pVDZ\C4H2N2S2\OHZDE\05-Apr-2025\0\\#t hf
 aug-cc-pvdz iop(5/13=1,5/36=2,99/5=2) pseudo=read geom=check guess=(re
 ad,tcheck) scf=(maxcycle=1)\\title\\0,1\S,0,-1.958243,0.228807,0.\S,0,
 2.220685,-0.683816,0.000001\N,0,-0.28994,-1.729567,0.000001\N,0,0.6507
 12,2.984496,0.\C,0,-0.252301,0.588485,0.\C,0,0.464268,-0.591163,0.\C,0
 ,-1.558175,-1.448494,0.\C,0,0.241588,1.904998,0.\H,0,2.237266,-2.02819
 2,0.000001\H,0,-2.334026,-2.19911,0.\\Version=ES64L-G16RevC.01\State=1
 -A\HF=-1056.7167806\RMSD=1.882e-02\Dipole=-0.9710076,-1.5947334,-0.000

 Normal termination of Gaussian 16 at Sat Apr  5 22:44:44 2025.
