 Gaussian 16, Revision C.01,

 ----------------------------------------------------------------------
 #t hf aug-cc-pvdz symm=none int=(grid=ultrafine) guess=(read,tcheck) s
 table=(opt,rrhf)
 ----------------------------------------------------------------------
 -----
 title
 -----
 Symbolic Z-matrix:
 Charge =  0 Multiplicity = 1

 SCF Done:  E(RHF) =  -1039.78222416     A.U. after   15 cycles
 Normal termination of Gaussian 16 at Sat Apr  5 22:42:34 2025.
 Gaussian 16:  ES64L-G16RevC.01  3-Jul-2019

 ----------------------------------------------------------------------
 #t hf aug-cc-pvdz iop(5/13=1,5/36=2,99/5=2) pseudo=read geom=check gue
 ss=(read,tcheck) scf=(maxcycle=1)
 ----------------------------------------------------------------------
 -----
 title
 -----
 Structure from the checkpoint file:  "4-thioxo-1-3-thiazolidin-2-one.chk"
 Charge =  0 Multiplicity = 1

                         Standard orientation:
 ---------------------------------------------------------------------
 Center     Atomic      Atomic             Coordinates (Angstroms)
 Number     Number       Type             X           Y           Z
 ---------------------------------------------------------------------
      1         16           0        1.535241    1.076974    0.000006
      2         16           0       -2.578025   -0.232305    0.000005
      3          8           0        2.214634   -1.515497   -0.000019
      4          7           0       -0.028314   -1.003049   -0.000009
      5          6           0       -0.279530    1.342985    0.000012
      6          6           0       -0.953928   -0.011648    0.000002
      7          6           0        1.338317   -0.698704   -0.000010
      8          1           0       -0.577310    1.904471   -0.882290
      9          1           0       -0.577306    1.904457    0.882325
     10          1           0       -0.308867   -1.974111   -0.000017
 ---------------------------------------------------------------------

 SCF Done:  E(RHF) =  -1039.89432408     A.U. after    2 cycles

 The electronic state is 1-A.
 Alpha  occ. eigenvalues --  -93.58920 -93.52180 -20.59806 -15.72543 -11.44016
 Alpha  occ. eigenvalues --  -11.40418 -11.32662  -8.88769  -8.82108  -6.22863
 Alpha  occ. eigenvalues --   -6.22722  -6.22321  -6.16350  -6.15837  -6.15688
 Alpha  occ. eigenvalues --   -1.41440  -1.30220  -1.10235  -1.05937  -0.92960
 Alpha  occ. eigenvalues --   -0.86072  -0.83863  -0.72005  -0.68701  -0.65243
 Alpha  occ. eigenvalues --   -0.64157  -0.62681  -0.57120  -0.52986  -0.51026
 Alpha  occ. eigenvalues --   -0.47893  -0.41329  -0.36855  -0.35814
 Alpha virt. eigenvalues --    0.03115   0.04105   0.04655   0.05705   0.06625
 Alpha virt. eigenvalues --    0.07924   0.08683   0.10120   0.10170   0.11680
 Alpha virt. eigenvalues --    0.12906   0.12944   0.14053   0.14063   0.14551

 Mulliken charges:
               1
     1  S    0.677927
     2  S    0.025535
     3  O   -0.408697
     4  N   -0.409865
     5  C   -0.365046
     6  C    0.189095
     7  C    0.184108
     8  H    0.080334
     9  H    0.080335
    10  H   -0.053726
 Sum of Mulliken charges =  -0.00000

 Dipole moment (field-independent basis, Debye):
    X=             -0.5006    Y=              2.0472    Z=              0.0000  Tot=              2.1075

 Test job not archived.
 1\1\GINC-SE040\SP\RHF\Aug-CC-pVDZ\C3H3N1O1S2\OHZDE\05-Apr-2025\0\\#t h
 f aug-cc-pvdz iop(5/13=1,5/36=2,99/5=2) pseudo=read geom=check guess=(
 read,tcheck) scf=(maxcycle=1)\\title\\0,1\S,0,1.535241,1.076974,0.0000
 06\S,0,-2.578025,-0.232305,0.000005\O,0,2.214634,-1.515497,-0.000019\N
 ,0,-0.028314,-1.003049,-0.000009\C,0,-0.27953,1.342985,0.000012\C,0,-0
 .953928,-0.011648,0.000002\C,0,1.338317,-0.698704,-0.00001\H,0,-0.5773
 1,1.904471,-0.88229\H,0,-0.577306,1.904457,0.882325\H,0,-0.308867,-1.9
 74111,-0.000017\\Version=ES64L-G16RevC.01\State=1-A\HF=-1039.8943241\R

 Normal termination of Gaussian 16 at Sat Apr  5 22:43:17 2025.
