 Gaussian 16, Revision C.01,

 ----------------------------------------------------------------------
 #t hf aug-cc-pvdz symm=none int=(grid=ultrafine) guess=(read,tcheck) s
 table=(opt,rrhf)
 ----------------------------------------------------------------------
 -----
 title
 -----
 Symbolic Z-matrix:
 Charge =  0 Multiplicity = 1

 SCF Done:  E(RHF) =  -754.935562499     A.U. after   16 cycles
 Normal termination of Gaussian 16 at Sat Apr  5 22:42:44 2025.
 Gaussian 16:  ES64L-G16RevC.01  3-Jul-2019

 ----------------------------------------------------------------------
 #t hf aug-cc-pvdz iop(5/13=1,5/36=2,99/5=2) pseudo=read geom=check gue
 ss=(read,tcheck) scf=(maxcycle=1)
 ----------------------------------------------------------------------
 -----
 title
 -----
 Structure from the checkpoint file:  "4-thioxomethylene-1-3-oxazolidin-2-one.chk"
 Charge =  0 Multiplicity = 1

                         Standard orientation:
 ---------------------------------------------------------------------
 Center     Atomic      Atomic             Coordinates (Angstroms)
 Number     Number       Type             X           Y           Z
 ---------------------------------------------------------------------
      1         16           0       -3.117372   -0.219151   -0.000042
      2          8           0        1.880210    1.021564   -0.000017
      3          8           0        3.047958   -0.924185    0.000000
      4          7           0        0.735994   -0.877231    0.000067
      5          6           0       -0.262689    0.101627    0.000020
      6          6           0        2.003640   -0.340666    0.000015
      7          6           0        0.502611    1.419673    0.000015
      8          6           0       -1.560452   -0.063026   -0.000009
      9          1           0        0.587091   -1.870027    0.000039
     10          1           0        0.307433    2.016200   -0.890818
     11          1           0        0.307471    2.016180    0.890870
 ---------------------------------------------------------------------

 SCF Done:  E(RHF) =  -755.065949258     A.U. after    2 cycles

 The electronic state is 1-A.
 Alpha  occ. eigenvalues --  -93.57404 -20.64394 -20.56748 -15.70240 -11.44552
 Alpha  occ. eigenvalues --  -11.35362 -11.34991 -11.34214  -8.87162  -6.21392
 Alpha  occ. eigenvalues --   -6.20963  -6.20655  -1.45653  -1.35796  -1.25694
 Alpha  occ. eigenvalues --   -1.11540  -1.03802  -0.95064  -0.87637  -0.80466
 Alpha  occ. eigenvalues --   -0.74293  -0.73546  -0.67424  -0.63964  -0.61782
 Alpha  occ. eigenvalues --   -0.61508  -0.58966  -0.57132  -0.50092  -0.49767
 Alpha  occ. eigenvalues --   -0.46798  -0.44351  -0.31678
 Alpha virt. eigenvalues --    0.02130   0.02901   0.04045   0.04644   0.06037
 Alpha virt. eigenvalues --    0.08152   0.08920   0.10076   0.10467   0.10667
 Alpha virt. eigenvalues --    0.11674   0.13849   0.13919   0.14046   0.14682

 Mulliken charges:
               1
     1  S    0.134363
     2  O   -0.578266
     3  O   -0.418163
     4  N   -0.539258
     5  C    0.480113
     6  C    0.632791
     7  C    0.779496
     8  C   -0.271309
     9  H   -0.103142
    10  H   -0.058321
    11  H   -0.058304
 Sum of Mulliken charges =  -0.00000

 Dipole moment (field-independent basis, Debye):
    X=             -3.3885    Y=              0.8888    Z=              0.0001  Tot=              3.5031

 Test job not archived.
 1\1\GINC-SE145\SP\RHF\Aug-CC-pVDZ\C4H3N1O2S1\OHZDE\05-Apr-2025\0\\#t h
 f aug-cc-pvdz iop(5/13=1,5/36=2,99/5=2) pseudo=read geom=check guess=(
 read,tcheck) scf=(maxcycle=1)\\title\\0,1\S,0,-3.117372,-0.219151,-0.0
 00042\O,0,1.88021,1.021564,-0.000017\O,0,3.047958,-0.924185,0.\N,0,0.7
 35994,-0.877231,0.000067\C,0,-0.262689,0.101627,0.00002\C,0,2.00364,-0
 .340666,0.000015\C,0,0.502611,1.419673,0.000015\C,0,-1.560452,-0.06302
 6,-0.000009\H,0,0.587091,-1.870027,0.000039\H,0,0.307433,2.0162,-0.890
 818\H,0,0.307471,2.01618,0.89087\\Version=ES64L-G16RevC.01\State=1-A\H

 Normal termination of Gaussian 16 at Sat Apr  5 22:43:17 2025.
