 Gaussian 16, Revision C.01,

 ----------------------------------------------------------------------
 #t hf aug-cc-pvdz symm=none int=(grid=ultrafine) guess=(read,tcheck) s
 table=(opt,rrhf)
 ----------------------------------------------------------------------
 -----
 title
 -----
 Symbolic Z-matrix:
 Charge =  0 Multiplicity = 1

 SCF Done:  E(RHF) =  -321.596200421     A.U. after   15 cycles
 Normal termination of Gaussian 16 at Sat Apr  5 22:42:35 2025.
 Gaussian 16:  ES64L-G16RevC.01  3-Jul-2019

 ----------------------------------------------------------------------
 #t hf aug-cc-pvdz iop(5/13=1,5/36=2,99/5=2) pseudo=read geom=check gue
 ss=(read,tcheck) scf=(maxcycle=1)
 ----------------------------------------------------------------------
 -----
 title
 -----
 Structure from the checkpoint file:  "41H-pyridinone.chk"
 Charge =  0 Multiplicity = 1

                         Standard orientation:
 ---------------------------------------------------------------------
 Center     Atomic      Atomic             Coordinates (Angstroms)
 Number     Number       Type             X           Y           Z
 ---------------------------------------------------------------------
      1          6           0        0.000000    1.224565    0.305825
      2          6           0       -0.000000   -1.224565    0.305825
      3          6           0        0.000000    1.188942   -1.044134
      4          6           0       -0.000000   -1.188942   -1.044134
      5          6           0        0.000000   -0.000000    1.104808
      6          7           0        0.000000    0.000000   -1.722199
      7          8           0        0.000000   -0.000000    2.335063
      8          1           0        0.000000    2.171811    0.824427
      9          1           0       -0.000000   -2.171811    0.824427
     10          1           0        0.000000    2.077841   -1.658455
     11          1           0       -0.000000   -2.077841   -1.658455
     12          1           0        0.000000    0.000000   -2.726202
 ---------------------------------------------------------------------

 SCF Done:  E(RHF) =  -321.693307441     A.U. after    2 cycles

 The electronic state is 1-A1.
 Alpha  occ. eigenvalues --  -20.51595 -15.70246 -11.32424 -11.32094 -11.32083
 Alpha  occ. eigenvalues --  -11.24288 -11.24286  -1.30942  -1.28173  -1.06119
 Alpha  occ. eigenvalues --   -1.05985  -0.87834  -0.85431  -0.78664  -0.70155
 Alpha  occ. eigenvalues --   -0.67663  -0.63716  -0.62646  -0.60178  -0.57411
 Alpha  occ. eigenvalues --   -0.55093  -0.52093  -0.41220  -0.39195  -0.33060
 Alpha virt. eigenvalues --    0.01556   0.03055   0.04523   0.06161   0.06937
 Alpha virt. eigenvalues --    0.07477   0.10283   0.10865   0.11441   0.11768
 Alpha virt. eigenvalues --    0.11900   0.12211   0.13535   0.13865   0.14335

 Mulliken charges:
               1
     1  C    0.919184
     2  C    0.919184
     3  C    0.675760
     4  C    0.675760
     5  C   -0.537716
     6  N   -0.379758
     7  O   -0.558796
     8  H   -0.455225
     9  H   -0.455225
    10  H   -0.379519
    11  H   -0.379519
    12  H   -0.044132
 Sum of Mulliken charges =  -0.00000

 Dipole moment (field-independent basis, Debye):
    X=              0.0000    Y=              0.0000    Z=             -7.7508  Tot=              7.7508

 Test job not archived.
 1\1\GINC-SE146\SP\RHF\Aug-CC-pVDZ\C5H5N1O1\OHZDE\05-Apr-2025\0\\#t hf
 aug-cc-pvdz iop(5/13=1,5/36=2,99/5=2) pseudo=read geom=check guess=(re
 ad,tcheck) scf=(maxcycle=1)\\title\\0,1\C,0,0.,1.224565,0.305825\C,0,0
 .,-1.224565,0.305825\C,0,0.,1.188942,-1.044134\C,0,0.,-1.188942,-1.044
 134\C,0,0.,0.,1.104808\N,0,0.,0.,-1.722199\O,0,0.,0.,2.335063\H,0,0.,2
 .171811,0.824427\H,0,0.,-2.171811,0.824427\H,0,0.,2.077841,-1.658455\H
 ,0,0.,-2.077841,-1.658455\H,0,0.,0.,-2.726202\\Version=ES64L-G16RevC.0
 1\State=1-A1\HF=-321.6933074\RMSD=7.796e-03\Dipole=0.,0.,-3.0493924\Qu

 Normal termination of Gaussian 16 at Sat Apr  5 22:43:16 2025.
