 Gaussian 16, Revision C.01,

 ----------------------------------------------------------------------
 #t hf aug-cc-pvdz symm=none int=(grid=ultrafine) guess=(read,tcheck) s
 table=(opt,rrhf)
 ----------------------------------------------------------------------
 -----
 title
 -----
 Symbolic Z-matrix:
 Charge =  0 Multiplicity = 1

 SCF Done:  E(RHF) =  -321.574842578     A.U. after   15 cycles
 Normal termination of Gaussian 16 at Sat Apr  5 22:42:35 2025.
 Gaussian 16:  ES64L-G16RevC.01  3-Jul-2019

 ----------------------------------------------------------------------
 #t hf aug-cc-pvdz iop(5/13=1,5/36=2,99/5=2) pseudo=read geom=check gue
 ss=(read,tcheck) scf=(maxcycle=1)
 ----------------------------------------------------------------------
 -----
 title
 -----
 Structure from the checkpoint file:  "43H-pyridinone.chk"
 Charge =  0 Multiplicity = 1

                         Standard orientation:
 ---------------------------------------------------------------------
 Center     Atomic      Atomic             Coordinates (Angstroms)
 Number     Number       Type             X           Y           Z
 ---------------------------------------------------------------------
      1          7           0        1.836314    0.047911   -0.000037
      2          6           0        1.226255   -1.073102   -0.000001
      3          6           0       -0.257423   -1.256683    0.000068
      4          6           0       -1.075456    0.025969   -0.000044
      5          6           0       -0.291026    1.257772    0.000051
      6          6           0        1.053818    1.213993   -0.000020
      7          8           0       -2.292236    0.003283   -0.000067
      8          1           0        1.839628   -1.972339   -0.000073
      9          1           0       -0.551220   -1.860885    0.865345
     10          1           0       -0.825378    2.197611    0.000125
     11          1           0        1.634483    2.127729    0.000039
     12          1           0       -0.550829   -1.861455   -0.864964
 ---------------------------------------------------------------------

 SCF Done:  E(RHF) =  -321.669862330     A.U. after    2 cycles

 The electronic state is 1-A.
 Alpha  occ. eigenvalues --  -20.56195 -15.65038 -11.35425 -11.32991 -11.31297
 Alpha  occ. eigenvalues --  -11.27544 -11.25467  -1.35371  -1.25005  -1.06350
 Alpha  occ. eigenvalues --   -1.05223  -0.88956  -0.83717  -0.71311  -0.70134
 Alpha  occ. eigenvalues --   -0.68462  -0.64588  -0.62441  -0.61215  -0.57073
 Alpha  occ. eigenvalues --   -0.53443  -0.51006  -0.44064  -0.43095  -0.36574
 Alpha virt. eigenvalues --    0.02887   0.03647   0.04322   0.04795   0.04953
 Alpha virt. eigenvalues --    0.06197   0.08897   0.10260   0.11228   0.12225
 Alpha virt. eigenvalues --    0.12696   0.13052   0.13808   0.14038   0.14939

 Mulliken charges:
               1
     1  N   -0.453202
     2  C    0.568635
     3  C   -0.020505
     4  C   -0.465332
     5  C    1.066255
     6  C    0.636981
     7  O   -0.539107
     8  H   -0.300923
     9  H    0.132900
    10  H   -0.426522
    11  H   -0.332056
    12  H    0.132875
 Sum of Mulliken charges =  -0.00000

 Dipole moment (field-independent basis, Debye):
    X=              2.4632    Y=             -1.1247    Z=              0.0004  Tot=              2.7079

 Test job not archived.
 1\1\GINC-SE173\SP\RHF\Aug-CC-pVDZ\C5H5N1O1\OHZDE\05-Apr-2025\0\\#t hf
 aug-cc-pvdz iop(5/13=1,5/36=2,99/5=2) pseudo=read geom=check guess=(re
 ad,tcheck) scf=(maxcycle=1)\\title\\0,1\N,0,1.836314,0.047911,-0.00003
 7\C,0,1.226255,-1.073102,-0.000001\C,0,-0.257423,-1.256683,0.000068\C,
 0,-1.075456,0.025969,-0.000044\C,0,-0.291026,1.257772,0.000051\C,0,1.0
 53818,1.213993,-0.00002\O,0,-2.292236,0.003283,-0.000067\H,0,1.839628,
 -1.972339,-0.000073\H,0,-0.55122,-1.860885,0.865345\H,0,-0.825378,2.19
 7611,0.000125\H,0,1.634483,2.127729,0.000039\H,0,-0.550829,-1.861455,-

 Normal termination of Gaussian 16 at Sat Apr  5 22:43:17 2025.
