 Gaussian 16, Revision C.01,

 ----------------------------------------------------------------------
 #t hf aug-cc-pvdz symm=none int=(grid=ultrafine) guess=(read,tcheck) s
 table=(opt,rrhf)
 ----------------------------------------------------------------------
 -----
 title
 -----
 Symbolic Z-matrix:
 Charge =  0 Multiplicity = 1

 SCF Done:  E(RHF) =  -337.618373176     A.U. after   15 cycles
 Normal termination of Gaussian 16 at Sat Apr  5 22:43:48 2025.
 Gaussian 16:  ES64L-G16RevC.01  3-Jul-2019

 ----------------------------------------------------------------------
 #t hf aug-cc-pvdz iop(5/13=1,5/36=2,99/5=2) pseudo=read geom=check gue
 ss=(read,tcheck) scf=(maxcycle=1)
 ----------------------------------------------------------------------
 -----
 title
 -----
 Structure from the checkpoint file:  "43H-pyrimidinone.chk"
 Charge =  0 Multiplicity = 1

                         Standard orientation:
 ---------------------------------------------------------------------
 Center     Atomic      Atomic             Coordinates (Angstroms)
 Number     Number       Type             X           Y           Z
 ---------------------------------------------------------------------
      1          6           0        1.232892    0.302834   -0.000000
      2          6           0        1.206555   -1.054025   -0.000000
      3          6           0       -1.049356   -1.149467   -0.000000
      4          6           0       -0.000000    1.055988    0.000000
      5          7           0        0.061359   -1.812046   -0.000000
      6          7           0       -1.126414    0.202125    0.000000
      7          8           0       -0.144293    2.264784    0.000000
      8          1           0        2.159160    0.856946   -0.000000
      9          1           0        2.129679   -1.620129   -0.000000
     10          1           0       -1.994198   -1.680952    0.000000
     11          1           0       -2.025462    0.663333    0.000000
 ---------------------------------------------------------------------

 SCF Done:  E(RHF) =  -337.719005477     A.U. after    2 cycles

 The electronic state is 1-A'.
 Alpha  occ. eigenvalues --  -20.54679 -15.70632 -15.64183 -11.38459 -11.37205
 Alpha  occ. eigenvalues --  -11.31635 -11.25577  -1.36632  -1.29766  -1.18866
 Alpha  occ. eigenvalues --   -1.07105  -0.91827  -0.89284  -0.77897  -0.73042
 Alpha  occ. eigenvalues --   -0.71154  -0.65022  -0.63595  -0.63478  -0.57843
 Alpha  occ. eigenvalues --   -0.53410  -0.45848  -0.45471  -0.45200  -0.35546
 Alpha virt. eigenvalues --    0.02425   0.03564   0.04778   0.06231   0.06503
 Alpha virt. eigenvalues --    0.07699   0.09798   0.11080   0.12114   0.12413
 Alpha virt. eigenvalues --    0.12707   0.13485   0.13735   0.14260   0.15630

 Mulliken charges:
               1
     1  C    0.862373
     2  C    0.482995
     3  C    0.743202
     4  C    0.325606
     5  N   -0.580326
     6  N   -0.370064
     7  O   -0.513509
     8  H   -0.390484
     9  H   -0.283635
    10  H   -0.244499
    11  H   -0.031660
 Sum of Mulliken charges =  -0.00000

 Dipole moment (field-independent basis, Debye):
    X=             -1.5124    Y=             -2.6999    Z=             -0.0000  Tot=              3.0946

 Test job not archived.
 1\1\GINC-SE183\SP\RHF\Aug-CC-pVDZ\C4H4N2O1\OHZDE\05-Apr-2025\0\\#t hf
 aug-cc-pvdz iop(5/13=1,5/36=2,99/5=2) pseudo=read geom=check guess=(re
 ad,tcheck) scf=(maxcycle=1)\\title\\0,1\C,0,1.232892,0.302834,0.\C,0,1
 .206555,-1.054025,0.\C,0,-1.049356,-1.149467,0.\C,0,0.,1.055988,0.\N,0
 ,0.061359,-1.812046,0.\N,0,-1.126414,0.202125,0.\O,0,-0.144293,2.26478
 4,0.\H,0,2.15916,0.856946,0.\H,0,2.129679,-1.620129,0.\H,0,-1.994198,-
 1.680952,0.\H,0,-2.025462,0.663333,0.\\Version=ES64L-G16RevC.01\State=
 1-A'\HF=-337.7190055\RMSD=5.429e-03\Dipole=-0.5950399,-1.0622101,0.\Qu

 Normal termination of Gaussian 16 at Sat Apr  5 22:44:44 2025.
