 Gaussian 16, Revision C.01,

 ----------------------------------------------------------------------
 #t hf aug-cc-pvdz symm=none int=(grid=ultrafine) guess=(read,tcheck) s
 table=(opt,rrhf)
 ----------------------------------------------------------------------
 -----
 title
 -----
 Symbolic Z-matrix:
 Charge =  0 Multiplicity = 1

 SCF Done:  E(RHF) =  -224.829231011     A.U. after   14 cycles
 Normal termination of Gaussian 16 at Sat Apr  5 22:43:47 2025.
 Gaussian 16:  ES64L-G16RevC.01  3-Jul-2019

 ----------------------------------------------------------------------
 #t hf aug-cc-pvdz iop(5/13=1,5/36=2,99/5=2) pseudo=read geom=check gue
 ss=(read,tcheck) scf=(maxcycle=1)
 ----------------------------------------------------------------------
 -----
 title
 -----
 Structure from the checkpoint file:  "4H-imidazole.chk"
 Charge =  0 Multiplicity = 1

                         Standard orientation:
 ---------------------------------------------------------------------
 Center     Atomic      Atomic             Coordinates (Angstroms)
 Number     Number       Type             X           Y           Z
 ---------------------------------------------------------------------
      1          7           0       -1.193024    0.354700    0.000000
      2          6           0        0.000000    1.136486    0.000000
      3          7           0        1.111424    0.505412    0.000000
      4          6           0        0.730867   -0.899567    0.000000
      5          6           0       -0.764372   -0.854862    0.000000
      6          1           0       -0.075334    2.215149    0.000000
      7          1           0        1.139796   -1.410552    0.877155
      8          1           0        1.139796   -1.410552   -0.877155
      9          1           0       -1.432029   -1.707173    0.000000
 ---------------------------------------------------------------------

 SCF Done:  E(RHF) =  -224.894063419     A.U. after    2 cycles

 The electronic state is 1-A'.
 Alpha  occ. eigenvalues --  -15.64343 -15.62970 -11.31809 -11.31357 -11.28550
 Alpha  occ. eigenvalues --   -1.30023  -1.13458  -1.00611  -0.82515  -0.78334
 Alpha  occ. eigenvalues --   -0.69717  -0.64598  -0.60751  -0.56881  -0.48812
 Alpha  occ. eigenvalues --   -0.46170  -0.43206  -0.39407
 Alpha virt. eigenvalues --    0.02951   0.04423   0.04781   0.04914   0.08229
 Alpha virt. eigenvalues --    0.09769   0.10354   0.10968   0.11669   0.13552
 Alpha virt. eigenvalues --    0.14519   0.14990   0.15482   0.17070   0.17824

 Mulliken charges:
               1
     1  N   -0.606253
     2  C    0.703138
     3  N   -0.532283
     4  C    0.616578
     5  C    0.311826
     6  H   -0.162772
     7  H   -0.069720
     8  H   -0.069720
     9  H   -0.190794
 Sum of Mulliken charges =  -0.00000

 Dipole moment (field-independent basis, Debye):
    X=             -0.1810    Y=             -2.1543    Z=             -0.0000  Tot=              2.1619

 Test job not archived.
 1\1\GINC-SE042\SP\RHF\Aug-CC-pVDZ\C3H4N2\OHZDE\05-Apr-2025\0\\#t hf au
 g-cc-pvdz iop(5/13=1,5/36=2,99/5=2) pseudo=read geom=check guess=(read
 ,tcheck) scf=(maxcycle=1)\\title\\0,1\N,0,-1.193024,0.3547,0.\C,0,0.,1
 .136486,0.\N,0,1.111424,0.505412,0.\C,0,0.730867,-0.899567,0.\C,0,-0.7
 64372,-0.854862,0.\H,0,-0.075334,2.215149,0.\H,0,1.139796,-1.410552,0.
 877155\H,0,1.139796,-1.410552,-0.877155\H,0,-1.432029,-1.707173,0.\\Ve
 rsion=ES64L-G16RevC.01\State=1-A'\HF=-224.8940634\RMSD=3.674e-03\Dipol
 e=-0.071224,-0.8475575,0.\Quadrupole=-4.7034124,4.515481,0.1879314,-0.

 Normal termination of Gaussian 16 at Sat Apr  5 22:44:42 2025.
