 Gaussian 16, Revision C.01,

 ----------------------------------------------------------------------
 #t hf aug-cc-pvdz symm=none int=(grid=ultrafine) guess=(read,tcheck) s
 table=(opt,rrhf)
 ----------------------------------------------------------------------
 -----
 title
 -----
 Symbolic Z-matrix:
 Charge =  0 Multiplicity = 1

 SCF Done:  E(RHF) =  -1568.29314987     A.U. after   14 cycles

 1\1\GINC-SE115\Stability\RHF\Aug-CC-pVDZ\C5H1Cl3\OHZDE\05-Apr-2025\0\\
 #t hf aug-cc-pvdz symm=none int=(grid=ultrafine) guess=(read,tcheck) s
 table=(opt,rrhf)\\title\\0,1\C,0,1.977238,-0.001331,0.\C,0,0.770993,0.
 001118,0.\C,0,3.336251,-0.004812,0.\C,0,-0.659885,0.00164,0.\C,0,4.540
 805,-0.008521,0.\H,0,5.602698,-0.011921,0.\Cl,0,-1.282257,-0.846315,1.
 468789\Cl,0,-1.282257,-0.846315,-1.468789\Cl,0,-1.282257,1.697533,0.\\
 Version=ES64L-G16RevC.01\HF=-1568.2931499\RMSD=8.993e-09\Dipole=0.8852
 106,-0.0021514,0.\Quadrupole=8.113875,-4.0567057,-4.0571693,-0.0332959

 Normal termination of Gaussian 16 at Sat Apr  5 22:43:56 2025.
 Gaussian 16:  ES64L-G16RevC.01  3-Jul-2019

 ----------------------------------------------------------------------
 #t hf aug-cc-pvdz iop(5/13=1,5/36=2,99/5=2) pseudo=read geom=check gue
 ss=(read,tcheck) scf=(maxcycle=1)
 ----------------------------------------------------------------------
 -----
 title
 -----
 Structure from the checkpoint file:  "5-5-5-trichloro-1-3-pentadiyne.chk"
 Charge =  0 Multiplicity = 1

                         Standard orientation:
 ---------------------------------------------------------------------
 Center     Atomic      Atomic             Coordinates (Angstroms)
 Number     Number       Type             X           Y           Z
 ---------------------------------------------------------------------
      1          6           0        1.977238   -0.001331   -0.000000
      2          6           0        0.770993    0.001118   -0.000000
      3          6           0        3.336251   -0.004812   -0.000000
      4          6           0       -0.659885    0.001640    0.000000
      5          6           0        4.540805   -0.008521   -0.000000
      6          1           0        5.602698   -0.011921   -0.000000
      7         17           0       -1.282257   -0.846315    1.468789
      8         17           0       -1.282257   -0.846315   -1.468789
      9         17           0       -1.282257    1.697533    0.000000
 ---------------------------------------------------------------------

 SCF Done:  E(RHF) =  -1568.40792382     A.U. after    2 cycles

 The electronic state is 1-A'.
 Alpha  occ. eigenvalues -- -103.69798-103.69796-103.69796 -11.48079 -11.30961
 Alpha  occ. eigenvalues --  -11.29998 -11.29465 -11.28987 -10.73035 -10.73034
 Alpha  occ. eigenvalues --  -10.73013  -8.38750  -8.38748  -8.38739  -8.38406
 Alpha  occ. eigenvalues --   -8.38404  -8.38403  -8.38399  -8.38396  -8.38396
 Alpha  occ. eigenvalues --   -1.27472  -1.16241  -1.16239  -1.11280  -1.05220
 Alpha  occ. eigenvalues --   -0.95051  -0.85228  -0.74062  -0.71652  -0.65422
 Alpha  occ. eigenvalues --   -0.65421  -0.53367  -0.53364  -0.50728  -0.50726
 Alpha  occ. eigenvalues --   -0.50368  -0.48176  -0.48176  -0.46967  -0.38986
 Alpha  occ. eigenvalues --   -0.38984
 Alpha virt. eigenvalues --    0.03043   0.05337   0.05337   0.05791   0.07520
 Alpha virt. eigenvalues --    0.08972   0.09152   0.09152   0.09927   0.09928
 Alpha virt. eigenvalues --    0.12406   0.14106   0.14114   0.14605   0.15040

 Mulliken charges:
               1
     1  C    0.885592
     2  C    0.469116
     3  C    0.755741
     4  C   -1.770151
     5  C   -0.089318
     6  H   -0.541445
     7  Cl   0.096665
     8  Cl   0.096665
     9  Cl   0.097135
 Sum of Mulliken charges =  -0.00000

 Dipole moment (field-independent basis, Debye):
    X=              2.3722    Y=             -0.0056    Z=              0.0000  Tot=              2.3722

 Test job not archived.
 1\1\GINC-SE115\SP\RHF\Aug-CC-pVDZ\C5H1Cl3\OHZDE\05-Apr-2025\0\\#t hf a
 ug-cc-pvdz iop(5/13=1,5/36=2,99/5=2) pseudo=read geom=check guess=(rea
 d,tcheck) scf=(maxcycle=1)\\title\\0,1\C,0,1.977238,-0.001331,0.\C,0,0
 .770993,0.001118,0.\C,0,3.336251,-0.004812,0.\C,0,-0.659885,0.00164,0.
 \C,0,4.540805,-0.008521,0.\H,0,5.602698,-0.011921,0.\Cl,0,-1.282257,-0
 .846315,1.468789\Cl,0,-1.282257,-0.846315,-1.468789\Cl,0,-1.282257,1.6
 97533,0.\\Version=ES64L-G16RevC.01\State=1-A'\HF=-1568.4079238\RMSD=2.
 139e-02\Dipole=0.9333006,-0.0021926,0.\Quadrupole=8.16854,-4.0840247,-

 Normal termination of Gaussian 16 at Sat Apr  5 22:44:57 2025.
