 Gaussian 16, Revision C.01,

 ----------------------------------------------------------------------
 #t hf aug-cc-pvdz symm=none int=(grid=ultrafine) guess=(read,tcheck) s
 table=(opt,rrhf)
 ----------------------------------------------------------------------
 -----
 title
 -----
 Symbolic Z-matrix:
 Charge =  0 Multiplicity = 1

 SCF Done:  E(RHF) =  -488.162222307     A.U. after   13 cycles
 Normal termination of Gaussian 16 at Sat Apr  5 22:43:47 2025.
 Gaussian 16:  ES64L-G16RevC.01  3-Jul-2019

 ----------------------------------------------------------------------
 #t hf aug-cc-pvdz iop(5/13=1,5/36=2,99/5=2) pseudo=read geom=check gue
 ss=(read,tcheck) scf=(maxcycle=1)
 ----------------------------------------------------------------------
 -----
 title
 -----
 Structure from the checkpoint file:  "5-5-5-trifluoro-1-3-pentadiyne.chk"
 Charge =  0 Multiplicity = 1

                         Standard orientation:
 ---------------------------------------------------------------------
 Center     Atomic      Atomic             Coordinates (Angstroms)
 Number     Number       Type             X           Y           Z
 ---------------------------------------------------------------------
      1          6           0        0.151624    1.390687    0.000000
      2          6           0        0.020289    0.194427    0.000000
      3          6           0        0.300477    2.743694    0.000000
      4          6           0       -0.137549   -1.254142    0.000000
      5          6           0        0.432336    3.940048    0.000000
      6          1           0        0.548834    4.995753    0.000000
      7          9           0        0.432336   -1.811612    1.085585
      8          9           0        0.432336   -1.811612   -1.085585
      9          9           0       -1.437103   -1.608337    0.000000
 ---------------------------------------------------------------------

 SCF Done:  E(RHF) =  -488.334007340     A.U. after    2 cycles

 The electronic state is 1-A'.
 Alpha  occ. eigenvalues --  -26.17929 -26.17929 -26.17914 -11.56736 -11.32041
 Alpha  occ. eigenvalues --  -11.30116 -11.30066 -11.29688  -1.77564  -1.70370
 Alpha  occ. eigenvalues --   -1.70368  -1.13182  -1.08454  -1.02877  -0.92515
 Alpha  occ. eigenvalues --   -0.89380  -0.89379  -0.85812  -0.78489  -0.78489
 Alpha  occ. eigenvalues --   -0.74608  -0.74009  -0.74009  -0.72877  -0.69017
 Alpha  occ. eigenvalues --   -0.52756  -0.52756  -0.40473  -0.40473
 Alpha virt. eigenvalues --    0.02736   0.06153   0.06153   0.06529   0.07430
 Alpha virt. eigenvalues --    0.10100   0.10100   0.10713   0.10713   0.11355
 Alpha virt. eigenvalues --    0.14019   0.14020   0.14443   0.16573   0.20459

 Mulliken charges:
               1
     1  C    1.226486
     2  C   -0.958879
     3  C    0.306032
     4  C    0.790577
     5  C    0.087743
     6  H   -0.571167
     7  F   -0.293578
     8  F   -0.293578
     9  F   -0.293638
 Sum of Mulliken charges =  -0.00000

 Dipole moment (field-independent basis, Debye):
    X=              0.3913    Y=              3.5660    Z=              0.0000  Tot=              3.5874

 Test job not archived.
 1\1\GINC-SE173\SP\RHF\Aug-CC-pVDZ\C5H1F3\OHZDE\05-Apr-2025\0\\#t hf au
 g-cc-pvdz iop(5/13=1,5/36=2,99/5=2) pseudo=read geom=check guess=(read
 ,tcheck) scf=(maxcycle=1)\\title\\0,1\C,0,0.151624,1.390687,0.\C,0,0.0
 20289,0.194427,0.\C,0,0.300477,2.743694,0.\C,0,-0.137549,-1.254142,0.\
 C,0,0.432336,3.940048,0.\H,0,0.548834,4.995753,0.\F,0,0.432336,-1.8116
 12,1.085585\F,0,0.432336,-1.811612,-1.085585\F,0,-1.437103,-1.608337,0
 .\\Version=ES64L-G16RevC.01\State=1-A'\HF=-488.3340073\RMSD=2.206e-02\
 Dipole=0.1539385,1.4029834,0.\Quadrupole=-3.5942555,7.3217323,-3.72747

 Normal termination of Gaussian 16 at Sat Apr  5 22:44:42 2025.
