 Gaussian 16, Revision C.01,

 ----------------------------------------------------------------------
 #t hf aug-cc-pvdz symm=none int=(grid=ultrafine) guess=(read,tcheck) s
 table=(opt,rrhf)
 ----------------------------------------------------------------------
 -----
 title
 -----
 Symbolic Z-matrix:
 Charge =  0 Multiplicity = 1

 SCF Done:  E(RHF) =  -344.596843562     A.U. after   13 cycles
 Normal termination of Gaussian 16 at Sat Apr  5 22:44:22 2025.
 Gaussian 16:  ES64L-G16RevC.01  3-Jul-2019

 ----------------------------------------------------------------------
 #t hf aug-cc-pvdz iop(5/13=1,5/36=2,99/5=2) pseudo=read geom=check gue
 ss=(read,tcheck) scf=(maxcycle=1)
 ----------------------------------------------------------------------
 -----
 title
 -----
 Structure from the checkpoint file:  "5-6-dihydro-4H-cyclopentacfuran.chk"
 Charge =  0 Multiplicity = 1

                         Standard orientation:
 ---------------------------------------------------------------------
 Center     Atomic      Atomic             Coordinates (Angstroms)
 Number     Number       Type             X           Y           Z
 ---------------------------------------------------------------------
      1          6           0        0.056743   -1.403063    1.105281
      2          6           0        0.056743   -1.403063   -1.105281
      3          6           0        0.056743   -0.108428    0.714480
      4          6           0        0.056743   -0.108428   -0.714480
      5          6           0        0.061614    1.293990    1.248837
      6          6           0        0.061614    1.293990   -1.248837
      7          6           0       -0.362168    2.121493   -0.000000
      8          8           0        0.055843   -2.213536    0.000000
      9          1           0        0.050540   -1.910773    2.052548
     10          1           0        0.050540   -1.910773   -2.052548
     11          1           0       -0.610306    1.450561    2.092349
     12          1           0        1.064430    1.578481    1.579793
     13          1           0        1.064430    1.578481   -1.579793
     14          1           0       -0.610306    1.450561   -2.092349
     15          1           0       -1.447985    2.228635   -0.000000
     16          1           0        0.063723    3.124156   -0.000000
 ---------------------------------------------------------------------

 SCF Done:  E(RHF) =  -344.701864701     A.U. after    2 cycles

 The electronic state is 1-A'.
 Alpha  occ. eigenvalues --  -20.62314 -11.28797 -11.28772 -11.24329 -11.24326
 Alpha  occ. eigenvalues --  -11.23911 -11.22986 -11.22896  -1.40121  -1.13275
 Alpha  occ. eigenvalues --   -1.01129  -1.00776  -0.94011  -0.82813  -0.77525
 Alpha  occ. eigenvalues --   -0.76029  -0.70774  -0.65411  -0.62548  -0.60443
 Alpha  occ. eigenvalues --   -0.59372  -0.56879  -0.55265  -0.49963  -0.49680
 Alpha  occ. eigenvalues --   -0.49071  -0.49006  -0.37404  -0.31157
 Alpha virt. eigenvalues --    0.03522   0.04174   0.04219   0.04785   0.05523
 Alpha virt. eigenvalues --    0.06675   0.06872   0.07208   0.09672   0.11022
 Alpha virt. eigenvalues --    0.11370   0.12039   0.13574   0.13764   0.13978

 Mulliken charges:
               1
     1  C    0.997322
     2  C    0.997322
     3  C   -0.832653
     4  C   -0.832653
     5  C    0.274830
     6  C    0.274830
     7  C    0.565174
     8  O   -0.618391
     9  H   -0.358925
    10  H   -0.358925
    11  H    0.015842
    12  H    0.049259
    13  H    0.049259
    14  H    0.015842
    15  H   -0.129705
    16  H   -0.108426
 Sum of Mulliken charges =   0.00000

 Dipole moment (field-independent basis, Debye):
    X=             -0.0070    Y=              1.8434    Z=              0.0000  Tot=              1.8434

 Test job not archived.
 1\1\GINC-SE190\SP\RHF\Aug-CC-pVDZ\C7H8O1\OHZDE\05-Apr-2025\0\\#t hf au
 g-cc-pvdz iop(5/13=1,5/36=2,99/5=2) pseudo=read geom=check guess=(read
 ,tcheck) scf=(maxcycle=1)\\title\\0,1\C,0,0.056743,-1.403063,1.105281\
 C,0,0.056743,-1.403063,-1.105281\C,0,0.056743,-0.108428,0.71448\C,0,0.
 056743,-0.108428,-0.71448\C,0,0.061614,1.29399,1.248837\C,0,0.061614,1
 .29399,-1.248837\C,0,-0.362168,2.121493,0.\O,0,0.055843,-2.213536,0.\H
 ,0,0.05054,-1.910773,2.052548\H,0,0.05054,-1.910773,-2.052548\H,0,-0.6
 10306,1.450561,2.092349\H,0,1.06443,1.578481,1.579793\H,0,1.06443,1.57

 Normal termination of Gaussian 16 at Sat Apr  5 22:44:43 2025.
