 Gaussian 16, Revision C.01,

 ----------------------------------------------------------------------
 #t hf aug-cc-pvdz symm=none int=(grid=ultrafine) guess=(read,tcheck) s
 table=(opt,rrhf)
 ----------------------------------------------------------------------
 -----
 title
 -----
 Symbolic Z-matrix:
 Charge =  0 Multiplicity = 1

 SCF Done:  E(RHF) =  -1019.91019528     A.U. after   15 cycles
 Normal termination of Gaussian 16 at Sat Apr  5 22:43:48 2025.
 Gaussian 16:  ES64L-G16RevC.01  3-Jul-2019

 ----------------------------------------------------------------------
 #t hf aug-cc-pvdz iop(5/13=1,5/36=2,99/5=2) pseudo=read geom=check gue
 ss=(read,tcheck) scf=(maxcycle=1)
 ----------------------------------------------------------------------
 -----
 title
 -----
 Structure from the checkpoint file:  "5-amino-1-3-thiazole-23H-thione.chk"
 Charge =  0 Multiplicity = 1

                         Standard orientation:
 ---------------------------------------------------------------------
 Center     Atomic      Atomic             Coordinates (Angstroms)
 Number     Number       Type             X           Y           Z
 ---------------------------------------------------------------------
      1          7           0        2.935965   -0.304877   -0.073828
      2          6           0        1.606186    0.090118    0.012997
      3         16           0        0.316726   -1.115816   -0.018860
      4          6           0       -0.949684    0.127458   -0.004415
      5         16           0       -2.581806   -0.148817    0.010440
      6          6           0        1.075661    1.327803    0.016693
      7          7           0       -0.317561    1.323933   -0.009342
      8          1           0        3.193890   -1.060264    0.544728
      9          1           0        3.594248    0.457458   -0.006269
     10          1           0        1.603851    2.266439    0.028808
     11          1           0       -0.872523    2.164827   -0.002006
 ---------------------------------------------------------------------

 SCF Done:  E(RHF) =  -1020.01595331     A.U. after    2 cycles

 The electronic state is 1-A.
 Alpha  occ. eigenvalues --  -93.58700 -93.48278 -15.70503 -15.66596 -11.38602
 Alpha  occ. eigenvalues --  -11.33862 -11.30139  -8.88540  -8.78191  -6.22637
 Alpha  occ. eigenvalues --   -6.22495  -6.22103  -6.12456  -6.11867  -6.11790
 Alpha  occ. eigenvalues --   -1.30140  -1.21620  -1.06071  -1.05096  -0.92332
 Alpha  occ. eigenvalues --   -0.82019  -0.81425  -0.73076  -0.68846  -0.66992
 Alpha  occ. eigenvalues --   -0.61572  -0.59919  -0.52652  -0.50871  -0.49876
 Alpha  occ. eigenvalues --   -0.41926  -0.38434  -0.32586  -0.28817
 Alpha virt. eigenvalues --    0.01925   0.03122   0.04690   0.06587   0.07591
 Alpha virt. eigenvalues --    0.08505   0.09246   0.10349   0.10413   0.11009
 Alpha virt. eigenvalues --    0.12556   0.13423   0.14065   0.14832   0.15387

 Mulliken charges:
               1
     1  N   -0.403280
     2  C    0.006202
     3  S    0.572193
     4  C   -0.296696
     5  S   -0.061029
     6  C    0.995343
     7  N   -0.427576
     8  H   -0.014601
     9  H    0.018559
    10  H   -0.326069
    11  H   -0.063045
 Sum of Mulliken charges =  -0.00000

 Dipole moment (field-independent basis, Debye):
    X=              6.1546    Y=              2.8046    Z=              0.9759  Tot=              6.8335

 Test job not archived.
 1\1\GINC-SE194\SP\RHF\Aug-CC-pVDZ\C3H4N2S2\OHZDE\05-Apr-2025\0\\#t hf
 aug-cc-pvdz iop(5/13=1,5/36=2,99/5=2) pseudo=read geom=check guess=(re
 ad,tcheck) scf=(maxcycle=1)\\title\\0,1\N,0,2.935965,-0.304877,-0.0738
 28\C,0,1.606186,0.090118,0.012997\S,0,0.316726,-1.115816,-0.01886\C,0,
 -0.949684,0.127458,-0.004415\S,0,-2.581806,-0.148817,0.01044\C,0,1.075
 661,1.327803,0.016693\N,0,-0.317561,1.323933,-0.009342\H,0,3.19389,-1.
 060264,0.544728\H,0,3.594248,0.457458,-0.006269\H,0,1.603851,2.266439,
 0.028808\H,0,-0.872523,2.164827,-0.002006\\Version=ES64L-G16RevC.01\St

 Normal termination of Gaussian 16 at Sat Apr  5 22:44:44 2025.
