 Gaussian 16, Revision C.01,

 ----------------------------------------------------------------------
 #t hf aug-cc-pvdz symm=none int=(grid=ultrafine) guess=(read,tcheck) s
 table=(opt,rrhf)
 ----------------------------------------------------------------------
 -----
 title
 -----
 Symbolic Z-matrix:
 Charge =  0 Multiplicity = 1

 SCF Done:  E(RHF) =  -854.076791118     A.U. after   16 cycles
 Normal termination of Gaussian 16 at Sat Apr  5 22:44:01 2025.
 Gaussian 16:  ES64L-G16RevC.01  3-Jul-2019

 ----------------------------------------------------------------------
 #t hf aug-cc-pvdz iop(5/13=1,5/36=2,99/5=2) pseudo=read geom=check gue
 ss=(read,tcheck) scf=(maxcycle=1)
 ----------------------------------------------------------------------
 -----
 title
 -----
 Structure from the checkpoint file:  "5-chloro-2-furylmethylidyneazane_oxide.chk"
 Charge =  0 Multiplicity = 1

                         Standard orientation:
 ---------------------------------------------------------------------
 Center     Atomic      Atomic             Coordinates (Angstroms)
 Number     Number       Type             X           Y           Z
 ---------------------------------------------------------------------
      1         17           0       -2.933937   -0.850434   -0.000044
      2          8           0       -0.346846   -0.549858   -0.000006
      3          8           0        4.235353   -0.675671   -0.000125
      4          7           0        3.080676   -0.335472   -0.000056
      5          6           0        0.058308    1.657615    0.000110
      6          6           0        0.637991    0.420462    0.000047
      7          6           0       -1.349070    1.455584    0.000089
      8          6           0       -1.524517    0.108140    0.000020
      9          6           0        1.968174   -0.006252    0.000050
     10          1           0        0.583129    2.596701    0.000164
     11          1           0       -2.124310    2.199912    0.000120
 ---------------------------------------------------------------------

 SCF Done:  E(RHF) =  -854.219993695     A.U. after    2 cycles

 The electronic state is 1-A.
 Alpha  occ. eigenvalues -- -103.71275 -20.68979 -20.59875 -15.82307 -11.40235
 Alpha  occ. eigenvalues --  -11.37005 -11.33829 -11.30110 -11.28464 -10.74532
 Alpha  occ. eigenvalues --   -8.40288  -8.39938  -8.39928  -1.47748  -1.45587
 Alpha  occ. eigenvalues --   -1.22858  -1.21524  -1.13511  -1.05633  -0.89122
 Alpha  occ. eigenvalues --   -0.85099  -0.80940  -0.74333  -0.71704  -0.69098
 Alpha  occ. eigenvalues --   -0.68364  -0.68281  -0.63658  -0.62900  -0.61048
 Alpha  occ. eigenvalues --   -0.54340  -0.51400  -0.47337  -0.43402  -0.41745
 Alpha  occ. eigenvalues --   -0.33821
 Alpha virt. eigenvalues --    0.02390   0.04011   0.05556   0.06266   0.07701
 Alpha virt. eigenvalues --    0.07855   0.08731   0.09374   0.10520   0.11867
 Alpha virt. eigenvalues --    0.12796   0.13190   0.13483   0.13912   0.14116

 Mulliken charges:
               1
     1  Cl  -0.189979
     2  O   -0.614906
     3  O   -0.635871
     4  N    0.563108
     5  C    0.052573
     6  C    1.763706
     7  C    0.953415
     8  C   -0.034240
     9  C   -1.264127
    10  H   -0.350503
    11  H   -0.243175
 Sum of Mulliken charges =  -0.00000

 Dipole moment (field-independent basis, Debye):
    X=             -4.5350    Y=              3.4449    Z=              0.0003  Tot=              5.6951

 Test job not archived.
 1\1\GINC-SE052\SP\RHF\Aug-CC-pVDZ\C5H2Cl1N1O2\OHZDE\05-Apr-2025\0\\#t
 hf aug-cc-pvdz iop(5/13=1,5/36=2,99/5=2) pseudo=read geom=check guess=
 (read,tcheck) scf=(maxcycle=1)\\title\\0,1\Cl,0,-2.933937,-0.850434,-0
 .000044\O,0,-0.346846,-0.549858,-0.000006\O,0,4.235353,-0.675671,-0.00
 0125\N,0,3.080676,-0.335472,-0.000056\C,0,0.058308,1.657615,0.00011\C,
 0,0.637991,0.420462,0.000047\C,0,-1.34907,1.455584,0.000089\C,0,-1.524
 517,0.10814,0.00002\C,0,1.968174,-0.006252,0.00005\H,0,0.583129,2.5967
 01,0.000164\H,0,-2.12431,2.199912,0.00012\\Version=ES64L-G16RevC.01\St

 Normal termination of Gaussian 16 at Sat Apr  5 22:44:44 2025.
