 Gaussian 16, Revision C.01,

 ----------------------------------------------------------------------
 #t hf aug-cc-pvdz symm=none int=(grid=ultrafine) guess=(read,tcheck) s
 table=(opt,rrhf)
 ----------------------------------------------------------------------
 -----
 title
 -----
 Symbolic Z-matrix:
 Charge =  0 Multiplicity = 1

 SCF Done:  E(RHF) =  -814.470888217     A.U. after   16 cycles
 Normal termination of Gaussian 16 at Sat Apr  5 22:44:11 2025.
 Gaussian 16:  ES64L-G16RevC.01  3-Jul-2019

 ----------------------------------------------------------------------
 #t hf aug-cc-pvdz iop(5/13=1,5/36=2,99/5=2) pseudo=read geom=check gue
 ss=(read,tcheck) scf=(maxcycle=1)
 ----------------------------------------------------------------------
 -----
 title
 -----
 Structure from the checkpoint file:  "5-chloro-3-ethynyl-1-methyl-1H-1-2-4-triazole.chk"
 Charge =  0 Multiplicity = 1

                         Standard orientation:
 ---------------------------------------------------------------------
 Center     Atomic      Atomic             Coordinates (Angstroms)
 Number     Number       Type             X           Y           Z
 ---------------------------------------------------------------------
      1         17           0       -2.273721   -1.145016    0.000007
      2          7           0       -0.545925    0.931210   -0.000361
      3          7           0        0.780358    1.189764   -0.000206
      4          7           0        0.415924   -1.046068    0.000109
      5          6           0       -1.507346    2.016770    0.000250
      6          6           0       -0.725032   -0.407416   -0.000057
      7          6           0        1.323326   -0.022938    0.000027
      8          6           0        2.726873   -0.228945    0.000057
      9          6           0        3.911599   -0.413981    0.000075
     10          1           0       -1.359292    2.633377   -0.883814
     11          1           0       -2.508410    1.598147   -0.006840
     12          1           0       -1.368588    2.625200    0.891548
     13          1           0        4.960520   -0.576746    0.000087
 ---------------------------------------------------------------------

 SCF Done:  E(RHF) =  -814.594520317     A.U. after    2 cycles

 The electronic state is 1-A.
 Alpha  occ. eigenvalues -- -103.70912 -15.74184 -15.68169 -15.64578 -11.39920
 Alpha  occ. eigenvalues --  -11.34134 -11.30690 -11.26170 -11.25723 -10.74174
 Alpha  occ. eigenvalues --   -8.39926  -8.39587  -8.39574  -1.40813  -1.23008
 Alpha  occ. eigenvalues --   -1.20501  -1.11085  -1.04498  -0.98649  -0.88624
 Alpha  occ. eigenvalues --   -0.81846  -0.76413  -0.71883  -0.69771  -0.65760
 Alpha  occ. eigenvalues --   -0.63535  -0.60127  -0.60104  -0.53458  -0.53153
 Alpha  occ. eigenvalues --   -0.50266  -0.46083  -0.45904  -0.41726  -0.41202
 Alpha  occ. eigenvalues --   -0.35213
 Alpha virt. eigenvalues --    0.02896   0.03713   0.04948   0.05313   0.07598
 Alpha virt. eigenvalues --    0.09318   0.09372   0.10005   0.10578   0.10604
 Alpha virt. eigenvalues --    0.11764   0.12819   0.13529   0.14041   0.14280

 Mulliken charges:
               1
     1  Cl  -0.069930
     2  N   -0.273183
     3  N   -0.439405
     4  N   -0.533931
     5  C    0.997036
     6  C    0.184122
     7  C    0.038041
     8  C    0.208901
     9  C    0.764371
    10  H   -0.071756
    11  H   -0.214787
    12  H   -0.070571
    13  H   -0.518907
 Sum of Mulliken charges =   0.00000

 Dipole moment (field-independent basis, Debye):
    X=             -1.9547    Y=              2.1219    Z=             -0.0001  Tot=              2.8850

 Test job not archived.
 1\1\GINC-SE185\SP\RHF\Aug-CC-pVDZ\C5H4Cl1N3\OHZDE\05-Apr-2025\0\\#t hf
  aug-cc-pvdz iop(5/13=1,5/36=2,99/5=2) pseudo=read geom=check guess=(r
 ead,tcheck) scf=(maxcycle=1)\\title\\0,1\Cl,0,-2.273721,-1.145016,0.00
 0007\N,0,-0.545925,0.93121,-0.000361\N,0,0.780358,1.189764,-0.000206\N
 ,0,0.415924,-1.046068,0.000109\C,0,-1.507346,2.01677,0.00025\C,0,-0.72
 5032,-0.407416,-0.000057\C,0,1.323326,-0.022938,0.000027\C,0,2.726873,
 -0.228945,0.000057\C,0,3.911599,-0.413981,0.000075\H,0,-1.359292,2.633
 377,-0.883814\H,0,-2.50841,1.598147,-0.00684\H,0,-1.368588,2.6252,0.89

 Normal termination of Gaussian 16 at Sat Apr  5 22:44:45 2025.
