 Gaussian 16, Revision C.01,

 ----------------------------------------------------------------------
 #t hf aug-cc-pvdz symm=none int=(grid=ultrafine) guess=(read,tcheck) s
 table=(opt,rrhf)
 ----------------------------------------------------------------------
 -----
 title
 -----
 Symbolic Z-matrix:
 Charge =  0 Multiplicity = 1

 SCF Done:  E(RHF) =  -820.518021039     A.U. after   14 cycles
 Normal termination of Gaussian 16 at Sat Apr  5 22:43:52 2025.
 Gaussian 16:  ES64L-G16RevC.01  3-Jul-2019

 ----------------------------------------------------------------------
 #t hf aug-cc-pvdz iop(5/13=1,5/36=2,99/5=2) pseudo=read geom=check gue
 ss=(read,tcheck) scf=(maxcycle=1)
 ----------------------------------------------------------------------
 -----
 title
 -----
 Structure from the checkpoint file:  "5-chloro-2-fluoropyrimidine.chk"
 Charge =  0 Multiplicity = 1

                         Standard orientation:
 ---------------------------------------------------------------------
 Center     Atomic      Atomic             Coordinates (Angstroms)
 Number     Number       Type             X           Y           Z
 ---------------------------------------------------------------------
      1         17           0        0.000000    0.000000    2.639630
      2          9           0        0.000000    0.000000   -3.046511
      3          7           0        0.000000    1.187688   -1.149552
      4          7           0       -0.000000   -1.187688   -1.149552
      5          6           0        0.000000    0.000000   -1.718678
      6          6           0        0.000000    0.000000    0.901715
      7          6           0        0.000000    1.186904    0.181469
      8          6           0       -0.000000   -1.186904    0.181469
      9          1           0        0.000000    2.147124    0.681378
     10          1           0       -0.000000   -2.147124    0.681378
 ---------------------------------------------------------------------

 SCF Done:  E(RHF) =  -820.648552282     A.U. after    2 cycles

 The electronic state is 1-A1.
 Alpha  occ. eigenvalues -- -103.69699 -26.16211 -15.67216 -15.67210 -11.43857
 Alpha  occ. eigenvalues --  -11.34765 -11.34764 -11.33673 -10.72968  -8.38712
 Alpha  occ. eigenvalues --   -8.38392  -8.38369  -1.71154  -1.33009  -1.21569
 Alpha  occ. eigenvalues --   -1.21198  -1.07178  -0.95206  -0.92596  -0.82956
 Alpha  occ. eigenvalues --   -0.80205  -0.78232  -0.70834  -0.69789  -0.63832
 Alpha  occ. eigenvalues --   -0.63126  -0.61741  -0.53198  -0.52644  -0.50877
 Alpha  occ. eigenvalues --   -0.45922  -0.44218  -0.38759
 Alpha virt. eigenvalues --    0.03364   0.03817   0.05265   0.06764   0.06848
 Alpha virt. eigenvalues --    0.08680   0.09344   0.10119   0.10248   0.12716
 Alpha virt. eigenvalues --    0.13284   0.13580   0.13827   0.14953   0.15277

 Mulliken charges:
               1
     1  Cl  -0.304427
     2  F   -0.278329
     3  N   -0.592542
     4  N   -0.592542
     5  C    0.435427
     6  C   -0.065242
     7  C    0.962965
     8  C    0.962965
     9  H   -0.264137
    10  H   -0.264137
 Sum of Mulliken charges =  -0.00000

 Dipole moment (field-independent basis, Debye):
    X=              0.0000    Y=              0.0000    Z=              2.7152  Tot=              2.7152

 Test job not archived.
 1\1\GINC-SE226\SP\RHF\Aug-CC-pVDZ\C4H2Cl1F1N2\OHZDE\05-Apr-2025\0\\#t
 hf aug-cc-pvdz iop(5/13=1,5/36=2,99/5=2) pseudo=read geom=check guess=
 (read,tcheck) scf=(maxcycle=1)\\title\\0,1\Cl,0,0.,0.,2.63963\F,0,0.,0
 .,-3.046511\N,0,0.,1.187688,-1.149552\N,0,0.,-1.187688,-1.149552\C,0,0
 .,0.,-1.718678\C,0,0.,0.,0.901715\C,0,0.,1.186904,0.181469\C,0,0.,-1.1
 86904,0.181469\H,0,0.,2.147124,0.681378\H,0,0.,-2.147124,0.681378\\Ver
 sion=ES64L-G16RevC.01\State=1-A1\HF=-820.6485523\RMSD=6.920e-03\Dipole
 =0.,0.,1.0682235\Quadrupole=2.0596354,3.0651908,-5.1248262,0.,0.,0.\PG

 Normal termination of Gaussian 16 at Sat Apr  5 22:44:43 2025.
