 Gaussian 16, Revision C.01,

 ----------------------------------------------------------------------
 #t hf aug-cc-pvdz symm=none int=(grid=ultrafine) guess=(read,tcheck) s
 table=(opt,rrhf)
 ----------------------------------------------------------------------
 -----
 title
 -----
 Symbolic Z-matrix:
 Charge =  0 Multiplicity = 1

 SCF Done:  E(RHF) =  -1081.29678915     A.U. after   15 cycles
 Normal termination of Gaussian 16 at Sat Apr  5 22:45:07 2025.
 Gaussian 16:  ES64L-G16RevC.01  3-Jul-2019

 ----------------------------------------------------------------------
 #t hf aug-cc-pvdz iop(5/13=1,5/36=2,99/5=2) pseudo=read geom=check gue
 ss=(read,tcheck) scf=(maxcycle=1)
 ----------------------------------------------------------------------
 -----
 title
 -----
 Structure from the checkpoint file:  "5-chloromethyl-1-2-4-thiadiazole.chk"
 Charge =  0 Multiplicity = 1

                         Standard orientation:
 ---------------------------------------------------------------------
 Center     Atomic      Atomic             Coordinates (Angstroms)
 Number     Number       Type             X           Y           Z
 ---------------------------------------------------------------------
      1         17           0       -2.472282   -0.267612   -0.000030
      2         16           0        0.639929   -1.110653    0.000024
      3          7           0        1.179481    1.352505   -0.000015
      4          7           0        2.252013   -0.695943   -0.000013
      5          6           0        0.152322    0.548818    0.000016
      6          6           0        2.324073    0.610198   -0.000029
      7          6           0       -1.251803    1.057260    0.000047
      8          1           0        3.286720    1.101720   -0.000055
      9          1           0       -1.432399    1.662317   -0.884472
     10          1           0       -1.432404    1.662208    0.884642
 ---------------------------------------------------------------------

 SCF Done:  E(RHF) =  -1081.40402760     A.U. after    2 cycles

 The electronic state is 1-A.
 Alpha  occ. eigenvalues -- -103.67946 -93.61273 -15.66717 -15.65571 -11.36018
 Alpha  occ. eigenvalues --  -11.34546 -11.33610 -10.71218  -8.90806  -8.36941
 Alpha  occ. eigenvalues --   -8.36647  -8.36625  -6.24921  -6.24751  -6.24368
 Alpha  occ. eigenvalues --   -1.32143  -1.19809  -1.15798  -1.04921  -0.96640
 Alpha  occ. eigenvalues --   -0.82575  -0.78581  -0.69761  -0.67669  -0.63838
 Alpha  occ. eigenvalues --   -0.59350  -0.57978  -0.54246  -0.48436  -0.47841
 Alpha  occ. eigenvalues --   -0.47411  -0.44711  -0.42099  -0.38199
 Alpha virt. eigenvalues --    0.03475   0.04071   0.04671   0.06629   0.07836
 Alpha virt. eigenvalues --    0.08513   0.09257   0.10049   0.10341   0.12394
 Alpha virt. eigenvalues --    0.13054   0.13823   0.14362   0.15037   0.15881

 Mulliken charges:
               1
     1  Cl  -0.031967
     2  S    0.880156
     3  N   -0.601472
     4  N   -0.889708
     5  C   -0.336982
     6  C    0.939358
     7  C   -0.038653
     8  H   -0.214465
     9  H    0.146861
    10  H    0.146871
 Sum of Mulliken charges =   0.00000

 Dipole moment (field-independent basis, Debye):
    X=             -0.6498    Y=              1.6999    Z=              0.0001  Tot=              1.8199

 Test job not archived.
 1\1\GINC-SE115\SP\RHF\Aug-CC-pVDZ\C3H3Cl1N2S1\OHZDE\05-Apr-2025\0\\#t
 hf aug-cc-pvdz iop(5/13=1,5/36=2,99/5=2) pseudo=read geom=check guess=
 (read,tcheck) scf=(maxcycle=1)\\title\\0,1\Cl,0,-2.472282,-0.267612,-0
 .00003\S,0,0.639929,-1.110653,0.000024\N,0,1.179481,1.352505,-0.000015
 \N,0,2.252013,-0.695943,-0.000013\C,0,0.152322,0.548818,0.000016\C,0,2
 .324073,0.610198,-0.000029\C,0,-1.251803,1.05726,0.000047\H,0,3.28672,
 1.10172,-0.000055\H,0,-1.432399,1.662317,-0.884472\H,0,-1.432404,1.662
 208,0.884642\\Version=ES64L-G16RevC.01\State=1-A\HF=-1081.4040276\RMSD

 Normal termination of Gaussian 16 at Sat Apr  5 22:45:38 2025.
