 Gaussian 16, Revision C.01,

 ----------------------------------------------------------------------
 #t hf aug-cc-pvdz symm=none int=(grid=ultrafine) guess=(read,tcheck) s
 table=(opt,rrhf)
 ----------------------------------------------------------------------
 -----
 title
 -----
 Symbolic Z-matrix:
 Charge =  0 Multiplicity = 1

 SCF Done:  E(RHF) =  -1081.24637528     A.U. after   16 cycles
 Normal termination of Gaussian 16 at Sat Apr  5 22:45:09 2025.
 Gaussian 16:  ES64L-G16RevC.01  3-Jul-2019

 ----------------------------------------------------------------------
 #t hf aug-cc-pvdz iop(5/13=1,5/36=2,99/5=2) pseudo=read geom=check gue
 ss=(read,tcheck) scf=(maxcycle=1)
 ----------------------------------------------------------------------
 -----
 title
 -----
 Structure from the checkpoint file:  "5-chloro-4-methyl-1-2-3-thiadiazole.chk"
 Charge =  0 Multiplicity = 1

                         Standard orientation:
 ---------------------------------------------------------------------
 Center     Atomic      Atomic             Coordinates (Angstroms)
 Number     Number       Type             X           Y           Z
 ---------------------------------------------------------------------
      1         17           0       -2.008971   -0.645634   -0.000016
      2         16           0        0.916996   -1.382670    0.000044
      3          7           0        1.562136    1.012519   -0.000064
      4          7           0        2.104548   -0.138902    0.000000
      5          6           0       -0.342527   -0.225321   -0.000029
      6          6           0        0.192585    1.037355   -0.000081
      7          6           0       -0.528303    2.343259    0.000042
      8          1           0       -0.251763    2.929510   -0.876767
      9          1           0       -1.605450    2.196555   -0.004895
     10          1           0       -0.259522    2.925361    0.882074
 ---------------------------------------------------------------------

 SCF Done:  E(RHF) =  -1081.35324496     A.U. after    2 cycles

 The electronic state is 1-A.
 Alpha  occ. eigenvalues -- -103.70859 -93.61693 -15.73123 -15.70716 -11.35956
 Alpha  occ. eigenvalues --  -11.30916 -11.25828 -10.74101  -8.91321  -8.39852
 Alpha  occ. eigenvalues --   -8.39512  -8.39495  -6.25400  -6.25265  -6.24858
 Alpha  occ. eigenvalues --   -1.35919  -1.22635  -1.09710  -1.06723  -0.96212
 Alpha  occ. eigenvalues --   -0.83865  -0.77436  -0.67634  -0.63900  -0.62239
 Alpha  occ. eigenvalues --   -0.58702  -0.57583  -0.55146  -0.54007  -0.53590
 Alpha  occ. eigenvalues --   -0.49545  -0.41353  -0.41102  -0.36702
 Alpha virt. eigenvalues --    0.03455   0.05527   0.05539   0.06238   0.06414
 Alpha virt. eigenvalues --    0.07727   0.09173   0.09890   0.11764   0.11907
 Alpha virt. eigenvalues --    0.13337   0.13737   0.15010   0.15577   0.16074

 Mulliken charges:
               1
     1  Cl  -0.326700
     2  S    0.802509
     3  N   -0.541049
     4  N   -0.654714
     5  C   -0.427400
     6  C    0.620312
     7  C    0.444175
     8  H    0.051245
     9  H   -0.020545
    10  H    0.052167
 Sum of Mulliken charges =   0.00000

 Dipole moment (field-independent basis, Debye):
    X=             -2.2230    Y=              0.3489    Z=              0.0003  Tot=              2.2502

 Test job not archived.
 1\1\GINC-SE036\SP\RHF\Aug-CC-pVDZ\C3H3Cl1N2S1\OHZDE\05-Apr-2025\0\\#t
 hf aug-cc-pvdz iop(5/13=1,5/36=2,99/5=2) pseudo=read geom=check guess=
 (read,tcheck) scf=(maxcycle=1)\\title\\0,1\Cl,0,-2.008972,-0.645633,-0
 .000016\S,0,0.916995,-1.38267,0.000044\N,0,1.562136,1.012518,-0.000064
 \N,0,2.104548,-0.138903,0.\C,0,-0.342527,-0.225321,-0.000029\C,0,0.192
 585,1.037355,-0.000081\C,0,-0.528302,2.343259,0.000042\H,0,-0.251761,2
 .92951,-0.876767\H,0,-1.605449,2.196556,-0.004895\H,0,-0.25952,2.92536
 1,0.882074\\Version=ES64L-G16RevC.01\State=1-A\HF=-1081.353245\RMSD=1.

 Normal termination of Gaussian 16 at Sat Apr  5 22:45:38 2025.
