 Gaussian 16, Revision C.01,

 ----------------------------------------------------------------------
 #t hf aug-cc-pvdz symm=none int=(grid=ultrafine) guess=(read,tcheck) s
 table=(opt,rrhf)
 ----------------------------------------------------------------------
 -----
 title
 -----
 Symbolic Z-matrix:
 Charge =  0 Multiplicity = 1

 SCF Done:  E(RHF) =  -1201.49899422     A.U. after   14 cycles
 Normal termination of Gaussian 16 at Sat Apr  5 22:44:09 2025.
 Gaussian 16:  ES64L-G16RevC.01  3-Jul-2019

 ----------------------------------------------------------------------
 #t hf aug-cc-pvdz iop(5/13=1,5/36=2,99/5=2) pseudo=read geom=check gue
 ss=(read,tcheck) scf=(maxcycle=1)
 ----------------------------------------------------------------------
 -----
 title
 -----
 Structure from the checkpoint file:  "5-dichloromethyl-1-2-oxazole.chk"
 Charge =  0 Multiplicity = 1

                         Standard orientation:
 ---------------------------------------------------------------------
 Center     Atomic      Atomic             Coordinates (Angstroms)
 Number     Number       Type             X           Y           Z
 ---------------------------------------------------------------------
      1         17           0       -1.769018   -1.402538    0.178117
      2         17           0       -1.547273    1.487912   -0.423243
      3          8           0        1.460798    0.667411    0.845353
      4          7           0        2.756231    0.418539    0.391564
      5          6           0        0.598785   -0.083649    0.134479
      6          6           0       -0.831962    0.092960    0.483695
      7          6           0        1.270958   -0.829507   -0.776098
      8          6           0        2.623928   -0.463831   -0.561859
      9          1           0       -0.948218    0.336127    1.532441
     10          1           0        0.868419   -1.532812   -1.480568
     11          1           0        3.506494   -0.819577   -1.069811
 ---------------------------------------------------------------------

 SCF Done:  E(RHF) =  -1201.61871936     A.U. after    2 cycles

 The electronic state is 1-A.
 Alpha  occ. eigenvalues -- -103.69232-103.68621 -20.68076 -15.70963 -11.40879
 Alpha  occ. eigenvalues --  -11.35751 -11.30965 -11.27139 -10.72502 -10.71862
 Alpha  occ. eigenvalues --   -8.38225  -8.37905  -8.37896  -8.37581  -8.37260
 Alpha  occ. eigenvalues --   -8.37251  -1.47281  -1.24005  -1.16920  -1.15328
 Alpha  occ. eigenvalues --   -1.09326  -0.95575  -0.85245  -0.82023  -0.75417
 Alpha  occ. eigenvalues --   -0.69781  -0.66518  -0.63147  -0.62248  -0.60510
 Alpha  occ. eigenvalues --   -0.60204  -0.51018  -0.50096  -0.48893  -0.47726
 Alpha  occ. eigenvalues --   -0.47236  -0.45274  -0.38325
 Alpha virt. eigenvalues --    0.03120   0.04140   0.04927   0.06318   0.07973
 Alpha virt. eigenvalues --    0.08195   0.09261   0.10747   0.11280   0.12051
 Alpha virt. eigenvalues --    0.12960   0.13424   0.13826   0.14526   0.15017

 Mulliken charges:
               1
     1  Cl  -0.022159
     2  Cl  -0.015256
     3  O   -0.672490
     4  N   -0.171882
     5  C    0.545652
     6  C   -0.423568
     7  C    0.797774
     8  C    0.412544
     9  H    0.035851
    10  H   -0.300154
    11  H   -0.186312
 Sum of Mulliken charges =  -0.00000

 Dipole moment (field-independent basis, Debye):
    X=              0.0909    Y=             -2.0857    Z=             -1.1272  Tot=              2.3726

 Test job not archived.
 1\1\GINC-SE206\SP\RHF\Aug-CC-pVDZ\C4H3Cl2N1O1\OHZDE\05-Apr-2025\0\\#t
 hf aug-cc-pvdz iop(5/13=1,5/36=2,99/5=2) pseudo=read geom=check guess=
 (read,tcheck) scf=(maxcycle=1)\\title\\0,1\Cl,0,-1.769018,-1.402538,0.
 178117\Cl,0,-1.547273,1.487912,-0.423243\O,0,1.460798,0.667411,0.84535
 3\N,0,2.756231,0.418539,0.391564\C,0,0.598785,-0.083649,0.134479\C,0,-
 0.831962,0.09296,0.483695\C,0,1.270958,-0.829507,-0.776098\C,0,2.62392
 8,-0.463831,-0.561859\H,0,-0.948218,0.336127,1.532441\H,0,0.868419,-1.
 532812,-1.480568\H,0,3.506494,-0.819577,-1.069811\\Version=ES64L-G16Re

 Normal termination of Gaussian 16 at Sat Apr  5 22:44:44 2025.
