 Gaussian 16, Revision C.01,

 ----------------------------------------------------------------------
 #t hf aug-cc-pvdz symm=none int=(grid=ultrafine) guess=(read,tcheck) s
 table=(opt,rrhf)
 ----------------------------------------------------------------------
 -----
 title
 -----
 Symbolic Z-matrix:
 Charge =  0 Multiplicity = 1

 SCF Done:  E(RHF) =  -587.436563465     A.U. after   14 cycles
 Normal termination of Gaussian 16 at Sat Apr  5 22:44:52 2025.
 Gaussian 16:  ES64L-G16RevC.01  3-Jul-2019

 ----------------------------------------------------------------------
 #t hf aug-cc-pvdz iop(5/13=1,5/36=2,99/5=2) pseudo=read geom=check gue
 ss=(read,tcheck) scf=(maxcycle=1)
 ----------------------------------------------------------------------
 -----
 title
 -----
 Structure from the checkpoint file:  "5-fluoro-6-hydroxydihydro-2-41H-3H-pyrimidinedione.chk"
 Charge =  0 Multiplicity = 1

                         Standard orientation:
 ---------------------------------------------------------------------
 Center     Atomic      Atomic             Coordinates (Angstroms)
 Number     Number       Type             X           Y           Z
 ---------------------------------------------------------------------
      1          9           0        2.375832    0.341649   -0.121397
      2          8           0        1.124163   -2.287866    0.174880
      3          8           0        0.695969    2.490935   -0.051098
      4          8           0       -2.942224   -0.245940    0.022644
      5          7           0       -0.875008   -1.207874    0.004582
      6          7           0       -1.112015    1.111674   -0.020101
      7          6           0        1.090406    0.142282    0.334810
      8          6           0        0.527478   -1.113100   -0.322479
      9          6           0        0.238552    1.381307    0.053108
     10          6           0       -1.735828   -0.146180    0.002266
     11          1           0        1.129546   -0.014071    1.416546
     12          1           0        0.692280   -1.042947   -1.407061
     13          1           0        2.004927   -2.374716   -0.205212
     14          1           0       -1.307982   -2.113080   -0.090426
     15          1           0       -1.739008    1.900491   -0.090282
 ---------------------------------------------------------------------

 SCF Done:  E(RHF) =  -587.621358828     A.U. after    2 cycles

 The electronic state is 1-A.
 Alpha  occ. eigenvalues --  -26.14940 -20.62626 -20.58685 -20.56679 -15.70195
 Alpha  occ. eigenvalues --  -15.68597 -11.43720 -11.41382 -11.38912 -11.37510
 Alpha  occ. eigenvalues --   -1.68427  -1.41116  -1.39297  -1.38691  -1.26555
 Alpha  occ. eigenvalues --   -1.21031  -1.07824  -0.94774  -0.90803  -0.85053
 Alpha  occ. eigenvalues --   -0.81736  -0.80505  -0.75362  -0.74489  -0.72417
 Alpha  occ. eigenvalues --   -0.71908  -0.69694  -0.66531  -0.65643  -0.64576
 Alpha  occ. eigenvalues --   -0.62097  -0.59070  -0.58225  -0.52781  -0.50722
 Alpha  occ. eigenvalues --   -0.47520  -0.45610  -0.43919
 Alpha virt. eigenvalues --    0.02511   0.03739   0.04198   0.04800   0.06099
 Alpha virt. eigenvalues --    0.09119   0.09700   0.10054   0.10824   0.11209
 Alpha virt. eigenvalues --    0.11755   0.12866   0.13486   0.14072   0.14258

 Mulliken charges:
               1
     1  F   -0.399388
     2  O   -0.607592
     3  O   -0.445769
     4  O   -0.434743
     5  N   -0.436852
     6  N   -0.362028
     7  C    0.327598
     8  C    1.340629
     9  C    0.447136
    10  C    0.635649
    11  H   -0.000554
    12  H   -0.139365
    13  H    0.192820
    14  H   -0.069910
    15  H   -0.047631
 Sum of Mulliken charges =  -0.00000

 Dipole moment (field-independent basis, Debye):
    X=              1.2840    Y=             -2.8581    Z=             -0.7018  Tot=              3.2109

 Test job not archived.
 1\1\GINC-SE198\SP\RHF\Aug-CC-pVDZ\C4H5F1N2O3\OHZDE\05-Apr-2025\0\\#t h
 f aug-cc-pvdz iop(5/13=1,5/36=2,99/5=2) pseudo=read geom=check guess=(
 read,tcheck) scf=(maxcycle=1)\\title\\0,1\F,0,2.375832,0.341649,-0.121
 397\O,0,1.124163,-2.287866,0.17488\O,0,0.695969,2.490935,-0.051098\O,0
 ,-2.942224,-0.24594,0.022644\N,0,-0.875008,-1.207874,0.004582\N,0,-1.1
 12015,1.111674,-0.020101\C,0,1.090406,0.142282,0.33481\C,0,0.527478,-1
 .1131,-0.322479\C,0,0.238552,1.381307,0.053108\C,0,-1.735828,-0.14618,
 0.002266\H,0,1.129546,-0.014071,1.416546\H,0,0.69228,-1.042947,-1.4070

 Normal termination of Gaussian 16 at Sat Apr  5 22:44:59 2025.
