 Gaussian 16, Revision C.01,

 ----------------------------------------------------------------------
 #t hf aug-cc-pvdz symm=none int=(grid=ultrafine) guess=(read,tcheck) s
 table=(opt,rrhf)
 ----------------------------------------------------------------------
 -----
 title
 -----
 Symbolic Z-matrix:
 Charge =  0 Multiplicity = 1

 SCF Done:  E(RHF) =  -741.921895171     A.U. after   16 cycles
 Normal termination of Gaussian 16 at Sat Apr  5 22:45:12 2025.
 Gaussian 16:  ES64L-G16RevC.01  3-Jul-2019

 ----------------------------------------------------------------------
 #t hf aug-cc-pvdz iop(5/13=1,5/36=2,99/5=2) pseudo=read geom=check gue
 ss=(read,tcheck) scf=(maxcycle=1)
 ----------------------------------------------------------------------
 -----
 title
 -----
 Structure from the checkpoint file:  "5-fluoro-3-thiophenecarbonitrile.chk"
 Charge =  0 Multiplicity = 1

                         Standard orientation:
 ---------------------------------------------------------------------
 Center     Atomic      Atomic             Coordinates (Angstroms)
 Number     Number       Type             X           Y           Z
 ---------------------------------------------------------------------
      1         16           0        1.303707    1.137937   -0.000005
      2          9           0        2.339801   -1.305984    0.000004
      3          7           0       -3.545099   -0.372952    0.000002
      4          6           0       -0.996543   -0.005333    0.000000
      5          6           0       -0.047454   -1.079338    0.000004
      6          6           0       -0.415563    1.234811   -0.000005
      7          6           0        1.215353   -0.596779    0.000002
      8          6           0       -2.404958   -0.204569    0.000001
      9          1           0       -0.299796   -2.127042    0.000008
     10          1           0       -0.907038    2.191826   -0.000008
 ---------------------------------------------------------------------

 SCF Done:  E(RHF) =  -742.052197070     A.U. after    2 cycles

 The electronic state is 1-A.
 Alpha  occ. eigenvalues --  -93.61264 -26.18237 -15.65426 -11.39800 -11.32359
 Alpha  occ. eigenvalues --  -11.31801 -11.30372 -11.28800  -8.91087  -6.25181
 Alpha  occ. eigenvalues --   -6.25075  -6.24685  -1.72384  -1.22536  -1.19709
 Alpha  occ. eigenvalues --   -1.04907  -1.03841  -0.89242  -0.86518  -0.79682
 Alpha  occ. eigenvalues --   -0.79110  -0.76096  -0.71004  -0.62470  -0.59215
 Alpha  occ. eigenvalues --   -0.58299  -0.55891  -0.52942  -0.49995  -0.47905
 Alpha  occ. eigenvalues --   -0.39045  -0.36550
 Alpha virt. eigenvalues --    0.03188   0.03863   0.05759   0.06199   0.07772
 Alpha virt. eigenvalues --    0.08018   0.08794   0.09956   0.11762   0.12086
 Alpha virt. eigenvalues --    0.12507   0.12711   0.13021   0.14084   0.14935

 Mulliken charges:
               1
     1  S    0.794661
     2  F   -0.286370
     3  N   -0.107830
     4  C    1.501662
     5  C    0.144117
     6  C   -0.168860
     7  C   -0.072015
     8  C   -0.989284
     9  H   -0.389853
    10  H   -0.426227
 Sum of Mulliken charges =  -0.00000

 Dipole moment (field-independent basis, Debye):
    X=              2.5187    Y=              1.4907    Z=             -0.0000  Tot=              2.9267

 Test job not archived.
 1\1\GINC-SE196\SP\RHF\Aug-CC-pVDZ\C5H2F1N1S1\OHZDE\05-Apr-2025\0\\#t h
 f aug-cc-pvdz iop(5/13=1,5/36=2,99/5=2) pseudo=read geom=check guess=(
 read,tcheck) scf=(maxcycle=1)\\title\\0,1\S,0,1.303707,1.137937,-0.000
 005\F,0,2.339801,-1.305984,0.000004\N,0,-3.545099,-0.372952,0.000002\C
 ,0,-0.996543,-0.005333,0.\C,0,-0.047454,-1.079338,0.000004\C,0,-0.4155
 63,1.234811,-0.000005\C,0,1.215353,-0.596779,0.000002\C,0,-2.404958,-0
 .204569,0.000001\H,0,-0.299796,-2.127042,0.000008\H,0,-0.907038,2.1918
 26,-0.000008\\Version=ES64L-G16RevC.01\State=1-A\HF=-742.0521971\RMSD=

 Normal termination of Gaussian 16 at Sat Apr  5 22:45:38 2025.
