 Gaussian 16, Revision C.01,

 ----------------------------------------------------------------------
 #t hf aug-cc-pvdz symm=none int=(grid=ultrafine) guess=(read,tcheck) s
 table=(opt,rrhf)
 ----------------------------------------------------------------------
 -----
 title
 -----
 Symbolic Z-matrix:
 Charge =  0 Multiplicity = 1

 SCF Done:  E(RHF) =  -627.363821413     A.U. after   14 cycles
 Normal termination of Gaussian 16 at Sat Apr  5 22:45:06 2025.
 Gaussian 16:  ES64L-G16RevC.01  3-Jul-2019

 ----------------------------------------------------------------------
 #t hf aug-cc-pvdz iop(5/13=1,5/36=2,99/5=2) pseudo=read geom=check gue
 ss=(read,tcheck) scf=(maxcycle=1)
 ----------------------------------------------------------------------
 -----
 title
 -----
 Structure from the checkpoint file:  "5-hydroxy-2-3-dihydrothiophene.chk"
 Charge =  0 Multiplicity = 1

                         Standard orientation:
 ---------------------------------------------------------------------
 Center     Atomic      Atomic             Coordinates (Angstroms)
 Number     Number       Type             X           Y           Z
 ---------------------------------------------------------------------
      1         16           0        0.063989   -1.268775   -0.106157
      2          6           0       -0.855000    0.245265    0.022198
      3          6           0       -0.124232    1.361916    0.026050
      4          6           0        1.350841    1.127767   -0.161767
      5          6           0        1.614187   -0.331939    0.244577
      6          8           0       -2.200117    0.086741    0.072454
      7          1           0       -0.557766    2.351675    0.076223
      8          1           0        1.963153    1.798750    0.443646
      9          1           0        1.811188   -0.410906    1.312550
     10          1           0        1.639154    1.290532   -1.207061
     11          1           0        2.432239   -0.791139   -0.303764
     12          1           0       -2.625644    0.949514    0.010935
 ---------------------------------------------------------------------

 SCF Done:  E(RHF) =  -627.455651998     A.U. after    2 cycles

 The electronic state is 1-A.
 Alpha  occ. eigenvalues --  -93.53701 -20.61723 -11.33664 -11.27424 -11.25154
 Alpha  occ. eigenvalues --  -11.22989  -8.83502  -6.17628  -6.17473  -6.17075
 Alpha  occ. eigenvalues --   -1.38009  -1.12517  -0.97896  -0.96644  -0.82113
 Alpha  occ. eigenvalues --   -0.79465  -0.68968  -0.66100  -0.63775  -0.60979
 Alpha  occ. eigenvalues --   -0.57118  -0.53503  -0.51420  -0.50087  -0.44877
 Alpha  occ. eigenvalues --   -0.40389  -0.30566
 Alpha virt. eigenvalues --    0.03128   0.04055   0.05133   0.05190   0.06782
 Alpha virt. eigenvalues --    0.07052   0.08987   0.11334   0.12118   0.12618
 Alpha virt. eigenvalues --    0.13909   0.14286   0.14524   0.14878   0.16084

 Mulliken charges:
               1
     1  S    0.450166
     2  C    0.031205
     3  C    0.368055
     4  C    0.148835
     5  C    0.054980
     6  O   -0.584882
     7  H   -0.415330
     8  H   -0.017012
     9  H   -0.078358
    10  H   -0.044025
    11  H   -0.057790
    12  H    0.144156
 Sum of Mulliken charges =  -0.00000

 Dipole moment (field-independent basis, Debye):
    X=              1.0833    Y=              2.6338    Z=              0.0798  Tot=              2.8490

 Test job not archived.
 1\1\GINC-SE199\SP\RHF\Aug-CC-pVDZ\C4H6O1S1\OHZDE\05-Apr-2025\0\\#t hf
 aug-cc-pvdz iop(5/13=1,5/36=2,99/5=2) pseudo=read geom=check guess=(re
 ad,tcheck) scf=(maxcycle=1)\\title\\0,1\S,0,0.063989,-1.268775,-0.1061
 57\C,0,-0.855,0.245265,0.022198\C,0,-0.124231,1.361916,0.02605\C,0,1.3
 50842,1.127767,-0.161767\C,0,1.614187,-0.33194,0.244577\O,0,-2.200117,
 0.086742,0.072454\H,0,-0.557765,2.351675,0.076223\H,0,1.963154,1.79874
 9,0.443646\H,0,1.811188,-0.410907,1.31255\H,0,1.639155,1.290531,-1.207
 061\H,0,2.432239,-0.79114,-0.303764\H,0,-2.625644,0.949515,0.010935\\V

 Normal termination of Gaussian 16 at Sat Apr  5 22:45:38 2025.
