 Gaussian 16, Revision C.01,

 ----------------------------------------------------------------------
 #t hf aug-cc-pvdz symm=none int=(grid=ultrafine) guess=(read,tcheck) s
 table=(opt,rrhf)
 ----------------------------------------------------------------------
 -----
 title
 -----
 Symbolic Z-matrix:
 Charge =  0 Multiplicity = 1

 SCF Done:  E(RHF) =  -411.248828412     A.U. after   15 cycles
 Normal termination of Gaussian 16 at Sat Apr  5 22:45:11 2025.
 Gaussian 16:  ES64L-G16RevC.01  3-Jul-2019

 ----------------------------------------------------------------------
 #t hf aug-cc-pvdz iop(5/13=1,5/36=2,99/5=2) pseudo=read geom=check gue
 ss=(read,tcheck) scf=(maxcycle=1)
 ----------------------------------------------------------------------
 -----
 title
 -----
 Structure from the checkpoint file:  "5-isocyanato-1-2-oxazole.chk"
 Charge =  0 Multiplicity = 1

                         Standard orientation:
 ---------------------------------------------------------------------
 Center     Atomic      Atomic             Coordinates (Angstroms)
 Number     Number       Type             X           Y           Z
 ---------------------------------------------------------------------
      1          8           0        0.546539   -0.953762   -0.000000
      2          8           0       -3.228086   -0.349170   -0.000000
      3          7           0       -1.101796    0.691502   -0.000000
      4          7           0        1.947764   -1.059792   -0.000000
      5          6           0        0.218242    0.351741   -0.000000
      6          6           0        1.335896    1.124727   -0.000000
      7          6           0        2.382875    0.171585   -0.000000
      8          6           0       -2.155264    0.095523   -0.000000
      9          1           0        1.392435    2.196850   -0.000000
     10          1           0        3.447671    0.343180    0.000001
 ---------------------------------------------------------------------

 SCF Done:  E(RHF) =  -411.374500367     A.U. after    2 cycles

 The electronic state is 1-A.
 Alpha  occ. eigenvalues --  -20.67611 -20.66662 -15.70214 -15.69744 -11.46448
 Alpha  occ. eigenvalues --  -11.40085 -11.30893 -11.26352  -1.47313  -1.46846
 Alpha  occ. eigenvalues --   -1.29238  -1.16306  -1.08843  -0.91837  -0.85571
 Alpha  occ. eigenvalues --   -0.80045  -0.77564  -0.71482  -0.69189  -0.68013
 Alpha  occ. eigenvalues --   -0.66514  -0.62684  -0.60060  -0.52597  -0.52173
 Alpha  occ. eigenvalues --   -0.47635  -0.45403  -0.35967
 Alpha virt. eigenvalues --    0.02676   0.04298   0.05659   0.07191   0.08497
 Alpha virt. eigenvalues --    0.08538   0.09176   0.10578   0.11202   0.12898
 Alpha virt. eigenvalues --    0.13183   0.13606   0.14037   0.14915   0.15540

 Mulliken charges:
               1
     1  O   -0.614783
     2  O   -0.111381
     3  N   -0.151522
     4  N   -0.139143
     5  C    0.440615
     6  C    1.003057
     7  C    0.417273
     8  C   -0.322623
     9  H   -0.323278
    10  H   -0.198217
 Sum of Mulliken charges =  -0.00000

 Dipole moment (field-independent basis, Debye):
    X=              1.5599    Y=              3.1596    Z=              0.0000  Tot=              3.5237

 Test job not archived.
 1\1\GINC-SE188\SP\RHF\Aug-CC-pVDZ\C4H2N2O2\OHZDE\05-Apr-2025\0\\#t hf
 aug-cc-pvdz iop(5/13=1,5/36=2,99/5=2) pseudo=read geom=check guess=(re
 ad,tcheck) scf=(maxcycle=1)\\title\\0,1\O,0,0.546539,-0.953762,0.\O,0,
 -3.228086,-0.34917,0.\N,0,-1.101796,0.691502,0.\N,0,1.947764,-1.059792
 ,0.\C,0,0.218242,0.351741,0.\C,0,1.335896,1.124727,0.\C,0,2.382875,0.1
 71585,0.\C,0,-2.155264,0.095523,0.\H,0,1.392435,2.19685,0.\H,0,3.44767
 1,0.34318,0.000001\\Version=ES64L-G16RevC.01\State=1-A\HF=-411.3745004
 \RMSD=6.412e-03\Dipole=0.6136991,1.2430907,0.0000003\Quadrupole=-0.101

 Normal termination of Gaussian 16 at Sat Apr  5 22:45:37 2025.
