 Gaussian 16, Revision C.01,

 ----------------------------------------------------------------------
 #t hf aug-cc-pvdz symm=none int=(grid=ultrafine) guess=(read,tcheck) s
 table=(opt,rrhf)
 ----------------------------------------------------------------------
 -----
 title
 -----
 Symbolic Z-matrix:
 Charge =  0 Multiplicity = 1

 SCF Done:  E(RHF) =  -283.670032628     A.U. after   15 cycles
 Normal termination of Gaussian 16 at Sat Apr  5 22:45:53 2025.
 Gaussian 16:  ES64L-G16RevC.01  3-Jul-2019

 ----------------------------------------------------------------------
 #t hf aug-cc-pvdz iop(5/13=1,5/36=2,99/5=2) pseudo=read geom=check gue
 ss=(read,tcheck) scf=(maxcycle=1)
 ----------------------------------------------------------------------
 -----
 title
 -----
 Structure from the checkpoint file:  "5-methyl-1-2-oxazole.chk"
 Charge =  0 Multiplicity = 1

                         Standard orientation:
 ---------------------------------------------------------------------
 Center     Atomic      Atomic             Coordinates (Angstroms)
 Number     Number       Type             X           Y           Z
 ---------------------------------------------------------------------
      1          6           0       -0.346200    2.073702    0.000000
      2          1           0       -0.936846    2.330581    0.880543
      3          1           0        0.558932    2.676627    0.000000
      4          1           0       -0.936846    2.330581   -0.880543
      5          6           0        0.000000    0.630252    0.000000
      6          8           0       -1.025177   -0.242897    0.000000
      7          7           0       -0.522613   -1.551143    0.000000
      8          6           0        0.774494   -1.414513    0.000000
      9          1           0        1.390657   -2.299799    0.000000
     10          6           0        1.173944   -0.053727    0.000000
     11          1           0        2.170386    0.348899    0.000000
 ---------------------------------------------------------------------

 SCF Done:  E(RHF) =  -283.756268476     A.U. after    2 cycles

 The electronic state is 1-A'.
 Alpha  occ. eigenvalues --  -20.65380 -15.68435 -11.33173 -11.28995 -11.26095
 Alpha  occ. eigenvalues --  -11.24327  -1.44462  -1.14809  -1.08342  -0.97742
 Alpha  occ. eigenvalues --   -0.83121  -0.79829  -0.70855  -0.67327  -0.62688
 Alpha  occ. eigenvalues --   -0.58896  -0.58456  -0.57609  -0.55830  -0.47153
 Alpha  occ. eigenvalues --   -0.43360  -0.35712
 Alpha virt. eigenvalues --    0.02947   0.03631   0.05006   0.05776   0.06556
 Alpha virt. eigenvalues --    0.09119   0.10309   0.11342   0.11835   0.12942
 Alpha virt. eigenvalues --    0.13096   0.14278   0.14332   0.15180   0.16678

 Mulliken charges:
               1
     1  C    0.441342
     2  H    0.048986
     3  H   -0.025488
     4  H    0.048986
     5  C   -0.319651
     6  O   -0.671775
     7  N   -0.261437
     8  C    0.641289
     9  H   -0.220984
    10  C    0.651535
    11  H   -0.332803
 Sum of Mulliken charges =   0.00000

 Dipole moment (field-independent basis, Debye):
    X=              2.7096    Y=              2.4052    Z=              0.0000  Tot=              3.6231

 Test job not archived.
 1\1\GINC-SE231\SP\RHF\Aug-CC-pVDZ\C4H5N1O1\OHZDE\05-Apr-2025\0\\#t hf
 aug-cc-pvdz iop(5/13=1,5/36=2,99/5=2) pseudo=read geom=check guess=(re
 ad,tcheck) scf=(maxcycle=1)\\title\\0,1\C,0,-0.3462,2.073702,0.\H,0,-0
 .936846,2.330581,0.880543\H,0,0.558932,2.676627,0.\H,0,-0.936846,2.330
 581,-0.880543\C,0,0.,0.630252,0.\O,0,-1.025177,-0.242897,0.\N,0,-0.522
 613,-1.551143,0.\C,0,0.774494,-1.414513,0.\H,0,1.390658,-2.299799,0.\C
 ,0,1.173944,-0.053727,0.\H,0,2.170386,0.348899,0.\\Version=ES64L-G16Re
 vC.01\State=1-A'\HF=-283.7562685\RMSD=7.112e-03\Dipole=1.0660462,0.946

 Normal termination of Gaussian 16 at Sat Apr  5 22:47:05 2025.
