 Gaussian 16, Revision C.01,

 ----------------------------------------------------------------------
 #t hf aug-cc-pvdz symm=none int=(grid=ultrafine) guess=(read,tcheck) s
 table=(opt,rrhf)
 ----------------------------------------------------------------------
 -----
 title
 -----
 Symbolic Z-matrix:
 Charge =  0 Multiplicity = 1

 SCF Done:  E(RHF) =  -985.820266954     A.U. after   16 cycles
 Normal termination of Gaussian 16 at Sat Apr  5 22:45:04 2025.
 Gaussian 16:  ES64L-G16RevC.01  3-Jul-2019

 ----------------------------------------------------------------------
 #t hf aug-cc-pvdz iop(5/13=1,5/36=2,99/5=2) pseudo=read geom=check gue
 ss=(read,tcheck) scf=(maxcycle=1)
 ----------------------------------------------------------------------
 -----
 title
 -----
 Structure from the checkpoint file:  "5-methyl-1-2-3-oxadithiole.chk"
 Charge =  0 Multiplicity = 1

                         Standard orientation:
 ---------------------------------------------------------------------
 Center     Atomic      Atomic             Coordinates (Angstroms)
 Number     Number       Type             X           Y           Z
 ---------------------------------------------------------------------
      1         16           0       -1.381222    0.952357    0.131158
      2         16           0       -1.060922   -1.105763   -0.180184
      3          8           0        0.561045   -1.063545    0.339172
      4          6           0        1.148044    0.146398   -0.006454
      5          6           0        2.633844    0.082759   -0.038161
      6          6           0        0.357752    1.202401   -0.188373
      7          1           0        2.975948   -0.613159   -0.805738
      8          1           0        3.010492   -0.275655    0.922250
      9          1           0        3.055424    1.065713   -0.234875
     10          1           0        0.706232    2.196611   -0.412681
 ---------------------------------------------------------------------

 SCF Done:  E(RHF) =  -985.924355912     A.U. after    2 cycles

 The electronic state is 1-A.
 Alpha  occ. eigenvalues --  -93.61751 -93.57383 -20.63466 -11.33402 -11.27625
 Alpha  occ. eigenvalues --  -11.25790  -8.90739  -8.87033  -6.24861  -6.24596
 Alpha  occ. eigenvalues --   -6.24085  -6.21093  -6.20967  -6.20495  -1.38362
 Alpha  occ. eigenvalues --   -1.08894  -1.05194  -0.94753  -0.84813  -0.78066
 Alpha  occ. eigenvalues --   -0.67805  -0.65823  -0.62697  -0.57933  -0.57787
 Alpha  occ. eigenvalues --   -0.54877  -0.51256  -0.48101  -0.44696  -0.38774
 Alpha  occ. eigenvalues --   -0.30933
 Alpha virt. eigenvalues --    0.03286   0.04322   0.05687   0.05971   0.06515
 Alpha virt. eigenvalues --    0.06783   0.09276   0.10554   0.11343   0.12015
 Alpha virt. eigenvalues --    0.13091   0.13582   0.15256   0.15624   0.15809

 Mulliken charges:
               1
     1  S    0.063068
     2  S    0.438739
     3  O   -0.823664
     4  C    0.236542
     5  C    0.247653
     6  C    0.224837
     7  H    0.051044
     8  H    0.037240
     9  H   -0.062826
    10  H   -0.412633
 Sum of Mulliken charges =  -0.00000

 Dipole moment (field-independent basis, Debye):
    X=              1.8011    Y=              1.3115    Z=             -0.5480  Tot=              2.2944

 Test job not archived.
 1\1\GINC-SE232\SP\RHF\Aug-CC-pVDZ\C3H4O1S2\OHZDE\05-Apr-2025\0\\#t hf
 aug-cc-pvdz iop(5/13=1,5/36=2,99/5=2) pseudo=read geom=check guess=(re
 ad,tcheck) scf=(maxcycle=1)\\title\\0,1\S,0,-1.381222,0.952356,0.13115
 8\S,0,-1.060922,-1.105763,-0.180184\O,0,0.561045,-1.063545,0.339172\C,
 0,1.148044,0.146398,-0.006454\C,0,2.633844,0.082759,-0.038161\C,0,0.35
 7752,1.202401,-0.188373\H,0,2.975948,-0.613159,-0.805738\H,0,3.010492,
 -0.275655,0.92225\H,0,3.055424,1.065713,-0.234875\H,0,0.706231,2.19661
 1,-0.412681\\Version=ES64L-G16RevC.01\State=1-A\HF=-985.9243559\RMSD=7

 Normal termination of Gaussian 16 at Sat Apr  5 22:45:37 2025.
