 Gaussian 16, Revision C.01,

 ----------------------------------------------------------------------
 #t hf aug-cc-pvdz symm=none int=(grid=ultrafine) guess=(read,tcheck) s
 table=(opt,rrhf)
 ----------------------------------------------------------------------
 -----
 title
 -----
 Symbolic Z-matrix:
 Charge =  0 Multiplicity = 1

 SCF Done:  E(RHF) =  -295.844758025     A.U. after   16 cycles
 Normal termination of Gaussian 16 at Sat Apr  5 22:45:37 2025.
 Gaussian 16:  ES64L-G16RevC.01  3-Jul-2019

 ----------------------------------------------------------------------
 #t hf aug-cc-pvdz iop(5/13=1,5/36=2,99/5=2) pseudo=read geom=check gue
 ss=(read,tcheck) scf=(maxcycle=1)
 ----------------------------------------------------------------------
 -----
 title
 -----
 Structure from the checkpoint file:  "5-methyl-2H-tetrazole.chk"
 Charge =  0 Multiplicity = 1

                         Standard orientation:
 ---------------------------------------------------------------------
 Center     Atomic      Atomic             Coordinates (Angstroms)
 Number     Number       Type             X           Y           Z
 ---------------------------------------------------------------------
      1          7           0       -1.139760   -0.058016    0.000000
      2          6           0        0.000000    0.597494    0.000000
      3          6           0        0.176443    2.072182    0.000000
      4          1           0        0.723233    2.405707    0.882916
      5          1           0        0.723233    2.405707   -0.882916
      6          1           0       -0.803151    2.542233    0.000000
      7          7           0        0.988808   -0.317104    0.000000
      8          7           0        0.447343   -1.553756    0.000000
      9          7           0       -0.823573   -1.381071    0.000000
     10          1           0        1.988304   -0.202077    0.000000
 ---------------------------------------------------------------------

 SCF Done:  E(RHF) =  -295.928362021     A.U. after    2 cycles

 The electronic state is 1-A'.
 Alpha  occ. eigenvalues --  -15.73481 -15.72185 -15.70753 -15.65837 -11.34858
 Alpha  occ. eigenvalues --  -11.27746  -1.44367  -1.20749  -1.17296  -1.01354
 Alpha  occ. eigenvalues --   -0.88160  -0.85584  -0.75897  -0.67832  -0.63583
 Alpha  occ. eigenvalues --   -0.60176  -0.59930  -0.55100  -0.46219  -0.45307
 Alpha  occ. eigenvalues --   -0.44221  -0.39863
 Alpha virt. eigenvalues --    0.01779   0.03735   0.04394   0.06489   0.09101
 Alpha virt. eigenvalues --    0.10900   0.11075   0.11839   0.13465   0.13903
 Alpha virt. eigenvalues --    0.14746   0.15058   0.15762   0.17182   0.18203

 Mulliken charges:
               1
     1  N   -0.436908
     2  C    0.624144
     3  C    0.369951
     4  H    0.020321
     5  H    0.020321
     6  H   -0.030194
     7  N   -0.179086
     8  N   -0.158514
     9  N   -0.198817
    10  H   -0.031218
 Sum of Mulliken charges =  -0.00000

 Dipole moment (field-independent basis, Debye):
    X=              4.2537    Y=              4.1761    Z=             -0.0000  Tot=              5.9610

 Test job not archived.
 1\1\GINC-SE231\SP\RHF\Aug-CC-pVDZ\C2H4N4\OHZDE\05-Apr-2025\0\\#t hf au
 g-cc-pvdz iop(5/13=1,5/36=2,99/5=2) pseudo=read geom=check guess=(read
 ,tcheck) scf=(maxcycle=1)\\title\\0,1\N,0,-1.13976,-0.058016,0.\C,0,0.
 ,0.597494,0.\C,0,0.176443,2.072182,0.\H,0,0.723233,2.405707,0.882916\H
 ,0,0.723233,2.405707,-0.882916\H,0,-0.803151,2.542233,0.\N,0,0.988808,
 -0.317104,0.\N,0,0.447343,-1.553756,0.\N,0,-0.823573,-1.381071,0.\H,0,
 1.988304,-0.202077,0.\\Version=ES64L-G16RevC.01\State=1-A'\HF=-295.928
 362\RMSD=3.939e-03\Dipole=1.6735428,1.643008,0.\Quadrupole=0.7236006,-

 Normal termination of Gaussian 16 at Sat Apr  5 22:45:41 2025.
