 Gaussian 16, Revision C.01,

 ----------------------------------------------------------------------
 #t hf aug-cc-pvdz symm=none int=(grid=ultrafine) guess=(read,tcheck) s
 table=(opt,rrhf)
 ----------------------------------------------------------------------
 -----
 title
 -----
 Symbolic Z-matrix:
 Charge =  0 Multiplicity = 1

 SCF Done:  E(RHF) =  -492.299101319     A.U. after   16 cycles

 1\1\GINC-SE202\Stability\RHF\Aug-CC-pVDZ\C10H8N2\OHZDE\05-Apr-2025\0\\
 #t hf aug-cc-pvdz symm=none int=(grid=ultrafine) guess=(read,tcheck) s
 table=(opt,rrhf)\\title\\0,1\C,0,0.,0.,-0.75843\C,0,-0.75412,0.903797,
 -1.510292\C,0,0.75412,-0.903797,-1.510292\N,0,-0.757576,0.915186,-2.84
 0582\C,0,0.,0.,-3.441454\N,0,0.757576,-0.915186,-2.840582\C,0,0.,0.,0.
 718089\C,0,0.,1.201904,1.434398\C,0,-0.000714,1.201397,2.82281\C,0,0.,
 0.,3.522386\C,0,0.000714,-1.201397,2.82281\C,0,0.,-1.201904,1.434398\H
 ,0,0.,0.,-4.524887\H,0,-1.389638,1.632242,-1.018874\H,0,1.389638,-1.63

 Normal termination of Gaussian 16 at Sat Apr  5 22:47:18 2025.
 Gaussian 16:  ES64L-G16RevC.01  3-Jul-2019

 ----------------------------------------------------------------------
 #t hf aug-cc-pvdz iop(5/13=1,5/36=2,99/5=2) pseudo=read geom=check gue
 ss=(read,tcheck) scf=(maxcycle=1)
 ----------------------------------------------------------------------
 -----
 title
 -----
 Structure from the checkpoint file:  "5-phenylpyrimidine.chk"
 Charge =  0 Multiplicity = 1

                         Standard orientation:
 ---------------------------------------------------------------------
 Center     Atomic      Atomic             Coordinates (Angstroms)
 Number     Number       Type             X           Y           Z
 ---------------------------------------------------------------------
      1          6           0       -0.000000    0.000000   -0.758430
      2          6           0       -0.754120    0.903797   -1.510292
      3          6           0        0.754120   -0.903797   -1.510292
      4          7           0       -0.757576    0.915186   -2.840582
      5          6           0       -0.000000    0.000000   -3.441454
      6          7           0        0.757576   -0.915186   -2.840582
      7          6           0        0.000000   -0.000000    0.718089
      8          6           0        0.000000    1.201904    1.434398
      9          6           0       -0.000714    1.201397    2.822810
     10          6           0        0.000000   -0.000000    3.522386
     11          6           0        0.000714   -1.201397    2.822810
     12          6           0       -0.000000   -1.201904    1.434398
     13          1           0       -0.000000    0.000000   -4.524887
     14          1           0       -1.389638    1.632242   -1.018874
     15          1           0        1.389638   -1.632242   -1.018874
     16          1           0       -0.006602   -2.140956    3.358639
     17          1           0        0.000000   -0.000000    4.603795
     18          1           0        0.006602    2.140956    3.358639
     19          1           0        0.024377    2.142989    0.901579
     20          1           0       -0.024377   -2.142989    0.901579
 ---------------------------------------------------------------------

 SCF Done:  E(RHF) =  -492.439318232     A.U. after    2 cycles

 The electronic state is 1-A.
 Alpha  occ. eigenvalues --  -15.64075 -15.64071 -11.32504 -11.30892 -11.30889
 Alpha  occ. eigenvalues --  -11.27034 -11.26819 -11.25746 -11.25745 -11.25646
 Alpha  occ. eigenvalues --  -11.25619 -11.25463  -1.28729  -1.16630  -1.16543
 Alpha  occ. eigenvalues --   -1.09151  -1.02542  -1.01073  -0.89907  -0.89881
 Alpha  occ. eigenvalues --   -0.83979  -0.82469  -0.74577  -0.71772  -0.71241
 Alpha  occ. eigenvalues --   -0.66641  -0.64211  -0.61566  -0.60765  -0.59460
 Alpha  occ. eigenvalues --   -0.58834  -0.58029  -0.52868  -0.52295  -0.51108
 Alpha  occ. eigenvalues --   -0.46703  -0.42198  -0.41256  -0.40074  -0.35484
 Alpha  occ. eigenvalues --   -0.32587
 Alpha virt. eigenvalues --    0.02887   0.03635   0.04154   0.04787   0.04877
 Alpha virt. eigenvalues --    0.05647   0.06185   0.07167   0.07388   0.08275
 Alpha virt. eigenvalues --    0.09439   0.09759   0.10425   0.10694   0.11408

 Mulliken charges:
               1
     1  C   -0.178541
     2  C    0.952968
     3  C    0.952968
     4  N   -0.647082
     5  C    0.533960
     6  N   -0.647082
     7  C    0.827182
     8  C    0.262183
     9  C    0.364570
    10  C    0.527523
    11  C    0.364570
    12  C    0.262183
    13  H   -0.276808
    14  H   -0.406376
    15  H   -0.406376
    16  H   -0.453562
    17  H   -0.436971
    18  H   -0.453562
    19  H   -0.570874
    20  H   -0.570874
 Sum of Mulliken charges =  -0.00000

 Dipole moment (field-independent basis, Debye):
    X=             -0.0000    Y=             -0.0000    Z=              2.7443  Tot=              2.7443

 Test job not archived.
 1\1\GINC-SE202\SP\RHF\Aug-CC-pVDZ\C10H8N2\OHZDE\05-Apr-2025\0\\#t hf a
 ug-cc-pvdz iop(5/13=1,5/36=2,99/5=2) pseudo=read geom=check guess=(rea
 d,tcheck) scf=(maxcycle=1)\\title\\0,1\C,0,0.,0.,-0.75843\C,0,-0.75412
 ,0.903797,-1.510292\C,0,0.75412,-0.903797,-1.510292\N,0,-0.757576,0.91
 5186,-2.840582\C,0,0.,0.,-3.441454\N,0,0.757576,-0.915186,-2.840582\C,
 0,0.,0.,0.718089\C,0,0.,1.201904,1.434398\C,0,-0.000714,1.201397,2.822
 81\C,0,0.,0.,3.522386\C,0,0.000714,-1.201397,2.82281\C,0,0.,-1.201904,
 1.434398\H,0,0.,0.,-4.524887\H,0,-1.389638,1.632242,-1.018874\H,0,1.38

 Normal termination of Gaussian 16 at Sat Apr  5 22:47:27 2025.
