 Gaussian 16, Revision C.01,

 ----------------------------------------------------------------------
 #t hf aug-cc-pvdz symm=none int=(grid=ultrafine) guess=(read,tcheck) s
 table=(opt,rrhf)
 ----------------------------------------------------------------------
 -----
 title
 -----
 Symbolic Z-matrix:
 Charge =  0 Multiplicity = 1

 SCF Done:  E(RHF) =  -604.221839823     A.U. after   16 cycles
 Normal termination of Gaussian 16 at Sat Apr  5 22:44:59 2025.
 Gaussian 16:  ES64L-G16RevC.01  3-Jul-2019

 ----------------------------------------------------------------------
 #t hf aug-cc-pvdz iop(5/13=1,5/36=2,99/5=2) pseudo=read geom=check gue
 ss=(read,tcheck) scf=(maxcycle=1)
 ----------------------------------------------------------------------
 -----
 title
 -----
 Structure from the checkpoint file:  "5H-1-2-5-oxathiazole.chk"
 Charge =  0 Multiplicity = 1

                         Standard orientation:
 ---------------------------------------------------------------------
 Center     Atomic      Atomic             Coordinates (Angstroms)
 Number     Number       Type             X           Y           Z
 ---------------------------------------------------------------------
      1         16           0       -1.220858    0.001998    0.091689
      2          8           0       -0.018734   -1.194169   -0.271412
      3          7           0        1.276449   -0.701292    0.081978
      4          6           0        0.008231    1.252585   -0.070218
      5          6           0        1.225589    0.721438   -0.045189
      6          1           0        1.431922   -0.961286    1.061342
      7          1           0       -0.249835    2.295344   -0.144943
      8          1           0        2.163454    1.252241   -0.093527
 ---------------------------------------------------------------------

 SCF Done:  E(RHF) =  -604.307941614     A.U. after    2 cycles

 The electronic state is 1-A.
 Alpha  occ. eigenvalues --  -93.59935 -20.63901 -15.70409 -11.29852 -11.28740
 Alpha  occ. eigenvalues --   -8.89138  -6.23272  -6.23059  -6.22575  -1.38641
 Alpha  occ. eigenvalues --   -1.13390  -1.06970  -0.88339  -0.80487  -0.73225
 Alpha  occ. eigenvalues --   -0.68619  -0.61634  -0.58644  -0.54800  -0.51638
 Alpha  occ. eigenvalues --   -0.47178  -0.42517  -0.31816
 Alpha virt. eigenvalues --    0.03151   0.04231   0.04943   0.07440   0.08307
 Alpha virt. eigenvalues --    0.10109   0.10847   0.12429   0.13135   0.14081
 Alpha virt. eigenvalues --    0.14640   0.16178   0.16374   0.16782   0.17595

 Mulliken charges:
               1
     1  S    0.658048
     2  O   -0.838355
     3  N   -0.142011
     4  C    0.009359
     5  C    0.726033
     6  H    0.134374
     7  H   -0.361947
     8  H   -0.185501
 Sum of Mulliken charges =  -0.00000

 Dipole moment (field-independent basis, Debye):
    X=              0.9436    Y=              2.6325    Z=              1.5599  Tot=              3.2021

 Test job not archived.
 1\1\GINC-SE203\SP\RHF\Aug-CC-pVDZ\C2H3N1O1S1\OHZDE\05-Apr-2025\0\\#t h
 f aug-cc-pvdz iop(5/13=1,5/36=2,99/5=2) pseudo=read geom=check guess=(
 read,tcheck) scf=(maxcycle=1)\\title\\0,1\S,0,-1.220858,0.001998,0.091
 689\O,0,-0.018734,-1.194169,-0.271412\N,0,1.276449,-0.701292,0.081978\
 C,0,0.008231,1.252585,-0.070218\C,0,1.225589,0.721438,-0.045189\H,0,1.
 431922,-0.961286,1.061342\H,0,-0.249835,2.295344,-0.144943\H,0,2.16345
 4,1.252241,-0.093527\\Version=ES64L-G16RevC.01\State=1-A\HF=-604.30794
 16\RMSD=6.753e-03\Dipole=0.3712468,1.0357022,0.6136953\Quadrupole=1.16

 Normal termination of Gaussian 16 at Sat Apr  5 22:45:36 2025.
