 Gaussian 16, Revision C.01,

 ----------------------------------------------------------------------
 #t hf aug-cc-pvdz symm=none int=(grid=ultrafine) guess=(read,tcheck) s
 table=(opt,rrhf)
 ----------------------------------------------------------------------
 -----
 title
 -----
 Symbolic Z-matrix:
 Charge =  0 Multiplicity = 1

 SCF Done:  E(RHF) =  -851.463840756     A.U. after   16 cycles
 Normal termination of Gaussian 16 at Sat Apr  5 22:45:39 2025.
 Gaussian 16:  ES64L-G16RevC.01  3-Jul-2019

 ----------------------------------------------------------------------
 #t hf aug-cc-pvdz iop(5/13=1,5/36=2,99/5=2) pseudo=read geom=check gue
 ss=(read,tcheck) scf=(maxcycle=1)
 ----------------------------------------------------------------------
 -----
 title
 -----
 Structure from the checkpoint file:  "6-chloro-N-hydroxy-3-pyridazinamine.chk"
 Charge =  0 Multiplicity = 1

                         Standard orientation:
 ---------------------------------------------------------------------
 Center     Atomic      Atomic             Coordinates (Angstroms)
 Number     Number       Type             X           Y           Z
 ---------------------------------------------------------------------
      1         17           0       -3.081143    0.085415    0.053858
      2          8           0        3.477026    0.490747    0.348644
      3          7           0        0.521246   -1.313680   -0.003582
      4          7           0       -0.801147   -1.191495    0.027950
      5          7           0        2.647107   -0.500843   -0.241609
      6          6           0        1.286485   -0.231016   -0.098672
      7          6           0       -1.337020    0.006725   -0.003734
      8          6           0        0.766362    1.071813   -0.120508
      9          6           0       -0.597170    1.192029   -0.066717
     10          1           0        4.072324    0.747301   -0.364548
     11          1           0        2.880061   -1.402555    0.159613
     12          1           0        1.418677    1.929694   -0.168056
     13          1           0       -1.090219    2.152346   -0.073288
 ---------------------------------------------------------------------

 SCF Done:  E(RHF) =  -851.595892040     A.U. after    2 cycles

 The electronic state is 1-A.
 Alpha  occ. eigenvalues -- -103.67610 -20.64207 -15.71072 -15.69407 -15.68314
 Alpha  occ. eigenvalues --  -11.35416 -11.34885 -11.29909 -11.29031 -10.70898
 Alpha  occ. eigenvalues --   -8.36639  -8.36316  -8.36305  -1.40235  -1.33516
 Alpha  occ. eigenvalues --   -1.20874  -1.16229  -1.10802  -1.04211  -0.92344
 Alpha  occ. eigenvalues --   -0.87097  -0.76927  -0.75152  -0.72527  -0.68131
 Alpha  occ. eigenvalues --   -0.66178  -0.63124  -0.61571  -0.60500  -0.54664
 Alpha  occ. eigenvalues --   -0.52757  -0.50741  -0.48083  -0.46694  -0.42131
 Alpha  occ. eigenvalues --   -0.41490  -0.35012
 Alpha virt. eigenvalues --    0.02349   0.03552   0.05002   0.06163   0.06322
 Alpha virt. eigenvalues --    0.08559   0.09056   0.10053   0.10913   0.12110
 Alpha virt. eigenvalues --    0.12613   0.13295   0.13454   0.14197   0.14766

 Mulliken charges:
               1
     1  Cl  -0.254101
     2  O   -0.510767
     3  N   -0.339403
     4  N   -0.524509
     5  N   -0.177250
     6  C    0.497971
     7  C    0.151091
     8  C    0.882703
     9  C    0.773773
    10  H    0.219051
    11  H    0.082085
    12  H   -0.458180
    13  H   -0.342466
 Sum of Mulliken charges =  -0.00000

 Dipole moment (field-independent basis, Debye):
    X=              3.1574    Y=              3.3750    Z=             -0.8677  Tot=              4.7025

 Test job not archived.
 1\1\GINC-SE009\SP\RHF\Aug-CC-pVDZ\C4H4Cl1N3O1\OHZDE\05-Apr-2025\0\\#t
 hf aug-cc-pvdz iop(5/13=1,5/36=2,99/5=2) pseudo=read geom=check guess=
 (read,tcheck) scf=(maxcycle=1)\\title\\0,1\Cl,0,-3.081143,0.085415,0.0
 53858\O,0,3.477026,0.490747,0.348644\N,0,0.521246,-1.31368,-0.003582\N
 ,0,-0.801147,-1.191495,0.02795\N,0,2.647107,-0.500843,-0.241609\C,0,1.
 286485,-0.231016,-0.098672\C,0,-1.33702,0.006725,-0.003734\C,0,0.76636
 2,1.071813,-0.120508\C,0,-0.59717,1.192029,-0.066717\H,0,4.072324,0.74
 7301,-0.364548\H,0,2.880061,-1.402555,0.159613\H,0,1.418677,1.929694,-

 Normal termination of Gaussian 16 at Sat Apr  5 22:45:45 2025.
