 Gaussian 16, Revision C.01,

 ----------------------------------------------------------------------
 #t hf aug-cc-pvdz symm=none int=(grid=ultrafine) guess=(read,tcheck) s
 table=(opt,rrhf)
 ----------------------------------------------------------------------
 -----
 title
 -----
 Symbolic Z-matrix:
 Charge =  0 Multiplicity = 1

 SCF Done:  E(RHF) =  -813.337777787     A.U. after   17 cycles
 Normal termination of Gaussian 16 at Sat Apr  5 22:45:21 2025.
 Gaussian 16:  ES64L-G16RevC.01  3-Jul-2019

 ----------------------------------------------------------------------
 #t hf aug-cc-pvdz iop(5/13=1,5/36=2,99/5=2) pseudo=read geom=check gue
 ss=(read,tcheck) scf=(maxcycle=1)
 ----------------------------------------------------------------------
 -----
 title
 -----
 Structure from the checkpoint file:  "6-chloro-3-pyridazinecarbonitrile.chk"
 Charge =  0 Multiplicity = 1

                         Standard orientation:
 ---------------------------------------------------------------------
 Center     Atomic      Atomic             Coordinates (Angstroms)
 Number     Number       Type             X           Y           Z
 ---------------------------------------------------------------------
      1         17           0        2.930400   -0.091791    0.000009
      2          7           0       -0.768407   -1.166317   -0.000008
      3          7           0        0.553379   -1.155933   -0.000004
      4          7           0       -4.016345   -0.114795   -0.000012
      5          6           0       -0.799758    1.241089    0.000003
      6          6           0        0.573371    1.246721    0.000007
      7          6           0       -1.433356   -0.007434   -0.000005
      8          6           0        1.197294   -0.000622    0.000004
      9          6           0       -2.865884   -0.095394   -0.000009
     10          1           0       -1.376813    2.154336    0.000005
     11          1           0        1.149618    2.159260    0.000013
 ---------------------------------------------------------------------

 SCF Done:  E(RHF) =  -813.456228166     A.U. after    2 cycles

 The electronic state is 1-A.
 Alpha  occ. eigenvalues -- -103.70327 -15.73207 -15.72047 -15.66886 -11.39394
 Alpha  occ. eigenvalues --  -11.36439 -11.32994 -11.32349 -11.31275 -10.73624
 Alpha  occ. eigenvalues --   -8.39365  -8.39028  -8.39024  -1.36903  -1.23701
 Alpha  occ. eigenvalues --   -1.21710  -1.15615  -1.11867  -0.96466  -0.93247
 Alpha  occ. eigenvalues --   -0.81529  -0.76899  -0.71463  -0.66067  -0.64680
 Alpha  occ. eigenvalues --   -0.63555  -0.57627  -0.55343  -0.53919  -0.50912
 Alpha  occ. eigenvalues --   -0.50420  -0.49526  -0.44907  -0.44377  -0.40070
 Alpha virt. eigenvalues --    0.01915   0.03386   0.04003   0.04190   0.07204
 Alpha virt. eigenvalues --    0.07930   0.08505   0.08866   0.10288   0.10885
 Alpha virt. eigenvalues --    0.12072   0.12141   0.12434   0.13198   0.14198

 Mulliken charges:
               1
     1  Cl  -0.212267
     2  N   -0.670228
     3  N   -0.318098
     4  N   -0.025404
     5  C    0.404692
     6  C    1.248316
     7  C    1.582196
     8  C   -0.017030
     9  C   -1.183131
    10  H   -0.479322
    11  H   -0.329725
 Sum of Mulliken charges =  -0.00000

 Dipole moment (field-independent basis, Debye):
    X=              2.6831    Y=              4.4189    Z=              0.0000  Tot=              5.1697

 Test job not archived.
 1\1\GINC-SE203\SP\RHF\Aug-CC-pVDZ\C5H2Cl1N3\OHZDE\05-Apr-2025\0\\#t hf
  aug-cc-pvdz iop(5/13=1,5/36=2,99/5=2) pseudo=read geom=check guess=(r
 ead,tcheck) scf=(maxcycle=1)\\title\\0,1\Cl,0,2.9304,-0.091791,0.00000
 9\N,0,-0.768407,-1.166317,-0.000008\N,0,0.553379,-1.155933,-0.000004\N
 ,0,-4.016345,-0.114795,-0.000012\C,0,-0.799758,1.241089,0.000003\C,0,0
 .573371,1.246721,0.000007\C,0,-1.433356,-0.007434,-0.000005\C,0,1.1972
 94,-0.000622,0.000004\C,0,-2.865884,-0.095394,-0.000009\H,0,-1.376813,
 2.154336,0.000005\H,0,1.149618,2.15926,0.000013\\Version=ES64L-G16RevC

 Normal termination of Gaussian 16 at Sat Apr  5 22:45:39 2025.
