 Gaussian 16, Revision C.01,

 ----------------------------------------------------------------------
 #t hf aug-cc-pvdz symm=none int=(grid=ultrafine) guess=(read,tcheck) s
 table=(opt,rrhf)
 ----------------------------------------------------------------------
 -----
 title
 -----
 Symbolic Z-matrix:
 Charge =  0 Multiplicity = 1

 SCF Done:  E(RHF) =  -409.517900529     A.U. after   15 cycles
 Normal termination of Gaussian 16 at Sat Apr  5 22:44:39 2025.
 Gaussian 16:  ES64L-G16RevC.01  3-Jul-2019

 ----------------------------------------------------------------------
 #t hf aug-cc-pvdz iop(5/13=1,5/36=2,99/5=2) pseudo=read geom=check gue
 ss=(read,tcheck) scf=(maxcycle=1)
 ----------------------------------------------------------------------
 -----
 title
 -----
 Structure from the checkpoint file:  "7H-purine.chk"
 Charge =  0 Multiplicity = 1

                         Standard orientation:
 ---------------------------------------------------------------------
 Center     Atomic      Atomic             Coordinates (Angstroms)
 Number     Number       Type             X           Y           Z
 ---------------------------------------------------------------------
      1          6           0       -1.358848    0.996788    0.000000
      2          6           0       -1.701599   -1.270252    0.000000
      3          6           0        2.192531    0.578405    0.000000
      4          6           0        0.000000    0.735121    0.000000
      5          6           0        0.431371   -0.608939    0.000000
      6          7           0       -2.209140   -0.025435    0.000000
      7          7           0       -0.422841   -1.629439    0.000000
      8          7           0        1.809446   -0.668802    0.000000
      9          7           0        1.159397    1.480474    0.000000
     10          1           0       -1.773845    1.998833    0.000000
     11          1           0       -2.428333   -2.073138    0.000000
     12          1           0        3.219520    0.908175    0.000000
     13          1           0        1.243895    2.481808    0.000000
 ---------------------------------------------------------------------

 SCF Done:  E(RHF) =  -409.633516178     A.U. after    2 cycles

 The electronic state is 1-A'.
 Alpha  occ. eigenvalues --  -15.70941 -15.63605 -15.63470 -15.63434 -11.35672
 Alpha  occ. eigenvalues --  -11.32441 -11.31852 -11.31587 -11.29892  -1.34816
 Alpha  occ. eigenvalues --   -1.27032  -1.19001  -1.14026  -1.05298  -0.91483
 Alpha  occ. eigenvalues --   -0.88243  -0.84911  -0.78121  -0.72281  -0.70394
 Alpha  occ. eigenvalues --   -0.65499  -0.64421  -0.62112  -0.58964  -0.54524
 Alpha  occ. eigenvalues --   -0.48388  -0.46828  -0.45170  -0.40657  -0.37399
 Alpha  occ. eigenvalues --   -0.34469
 Alpha virt. eigenvalues --    0.01432   0.03081   0.04800   0.05731   0.05929
 Alpha virt. eigenvalues --    0.08555   0.08858   0.10107   0.10350   0.11219
 Alpha virt. eigenvalues --    0.12023   0.12083   0.12611   0.13096   0.13872

 Mulliken charges:
               1
     1  C    1.124201
     2  C    0.686896
     3  C    0.998615
     4  C    0.286721
     5  C    0.300530
     6  N   -0.654163
     7  N   -0.528623
     8  N   -0.655604
     9  N   -0.627583
    10  H   -0.307632
    11  H   -0.297767
    12  H   -0.219801
    13  H   -0.105791
 Sum of Mulliken charges =   0.00000

 Dipole moment (field-independent basis, Debye):
    X=              1.7648    Y=              5.7387    Z=              0.0000  Tot=              6.0039

 Test job not archived.
 1\1\GINC-SE011\SP\RHF\Aug-CC-pVDZ\C5H4N4\OHZDE\05-Apr-2025\0\\#t hf au
 g-cc-pvdz iop(5/13=1,5/36=2,99/5=2) pseudo=read geom=check guess=(read
 ,tcheck) scf=(maxcycle=1)\\title\\0,1\C,0,-1.358848,0.996788,0.\C,0,-1
 .701599,-1.270252,0.\C,0,2.192531,0.578405,0.\C,0,0.,0.735121,0.\C,0,0
 .431371,-0.608939,0.\N,0,-2.20914,-0.025435,0.\N,0,-0.422841,-1.629439
 ,0.\N,0,1.809446,-0.668802,0.\N,0,1.159397,1.480474,0.\H,0,-1.773845,1
 .998833,0.\H,0,-2.428333,-2.073138,0.\H,0,3.21952,0.908175,0.\H,0,1.24
 3895,2.481808,0.\\Version=ES64L-G16RevC.01\State=1-A'\HF=-409.6335162\

 Normal termination of Gaussian 16 at Sat Apr  5 22:44:58 2025.
