 Gaussian 16, Revision C.01,

 ----------------------------------------------------------------------
 #t hf aug-cc-pvdz symm=none int=(grid=ultrafine) guess=(read,tcheck) s
 table=(opt,rrhf)
 ----------------------------------------------------------------------
 -----
 title
 -----
 Symbolic Z-matrix:
 Charge =  0 Multiplicity = 1

 SCF Done:  E(RHF) =  -409.525258736     A.U. after   15 cycles
 Normal termination of Gaussian 16 at Sat Apr  5 22:44:39 2025.
 Gaussian 16:  ES64L-G16RevC.01  3-Jul-2019

 ----------------------------------------------------------------------
 #t hf aug-cc-pvdz iop(5/13=1,5/36=2,99/5=2) pseudo=read geom=check gue
 ss=(read,tcheck) scf=(maxcycle=1)
 ----------------------------------------------------------------------
 -----
 title
 -----
 Structure from the checkpoint file:  "9H-purine.chk"
 Charge =  0 Multiplicity = 1

                         Standard orientation:
 ---------------------------------------------------------------------
 Center     Atomic      Atomic             Coordinates (Angstroms)
 Number     Number       Type             X           Y           Z
 ---------------------------------------------------------------------
      1          6           0       -2.118438    0.068567   -0.000000
      2          7           0       -1.263191    1.092745   -0.000000
      3          6           0       -0.000000    0.698379   -0.000000
      4          6           0        0.447803   -0.635313    0.000000
      5          7           0        1.831505   -0.681693    0.000000
      6          6           0        2.197462    0.568529    0.000000
      7          7           0        1.143662    1.456527   -0.000000
      8          7           0       -1.827298   -1.239681   -0.000000
      9          6           0       -0.545581   -1.604990    0.000000
     10          1           0       -3.170670    0.323513   -0.000000
     11          1           0        3.218998    0.914021    0.000000
     12          1           0        1.191504    2.461120   -0.000000
     13          1           0       -0.320055   -2.664970    0.000000
 ---------------------------------------------------------------------

 SCF Done:  E(RHF) =  -409.640961226     A.U. after    2 cycles

 The electronic state is 1-A'.
 Alpha  occ. eigenvalues --  -15.70410 -15.64462 -15.64051 -15.63348 -11.34833
 Alpha  occ. eigenvalues --  -11.34103 -11.32674 -11.30952 -11.27947  -1.34887
 Alpha  occ. eigenvalues --   -1.27240  -1.18972  -1.14371  -1.04849  -0.91508
 Alpha  occ. eigenvalues --   -0.87921  -0.85117  -0.78279  -0.72690  -0.69376
 Alpha  occ. eigenvalues --   -0.64537  -0.64176  -0.61950  -0.59407  -0.54383
 Alpha  occ. eigenvalues --   -0.49848  -0.46812  -0.45300  -0.40790  -0.38531
 Alpha  occ. eigenvalues --   -0.33722
 Alpha virt. eigenvalues --    0.02112   0.03866   0.04287   0.05508   0.06291
 Alpha virt. eigenvalues --    0.08288   0.09046   0.10507   0.10632   0.11493
 Alpha virt. eigenvalues --    0.11619   0.12918   0.13093   0.14036   0.14546

 Mulliken charges:
               1
     1  C    0.668065
     2  N   -0.530661
     3  C    0.431411
     4  C    0.149341
     5  N   -0.871353
     6  C    0.977535
     7  N   -0.419523
     8  N   -0.639044
     9  C    1.133969
    10  H   -0.295361
    11  H   -0.222990
    12  H   -0.100654
    13  H   -0.280737
 Sum of Mulliken charges =  -0.00000

 Dipole moment (field-independent basis, Debye):
    X=              2.2562    Y=              2.9410    Z=              0.0000  Tot=              3.7067

 Test job not archived.
 1\1\GINC-SE014\SP\RHF\Aug-CC-pVDZ\C5H4N4\OHZDE\05-Apr-2025\0\\#t hf au
 g-cc-pvdz iop(5/13=1,5/36=2,99/5=2) pseudo=read geom=check guess=(read
 ,tcheck) scf=(maxcycle=1)\\title\\0,1\C,0,-2.118438,0.068567,0.\N,0,-1
 .263191,1.092745,0.\C,0,0.,0.698379,0.\C,0,0.447803,-0.635313,0.\N,0,1
 .831505,-0.681693,0.\C,0,2.197462,0.568529,0.\N,0,1.143662,1.456527,0.
 \N,0,-1.827298,-1.239681,0.\C,0,-0.545581,-1.60499,0.\H,0,-3.17067,0.3
 23513,0.\H,0,3.218998,0.914021,0.\H,0,1.191504,2.46112,0.\H,0,-0.32005
 5,-2.66497,0.\\Version=ES64L-G16RevC.01\State=1-A'\HF=-409.6409612\RMS

 Normal termination of Gaussian 16 at Sat Apr  5 22:45:00 2025.
