 Gaussian 16, Revision C.01,

 ----------------------------------------------------------------------
 #t hf aug-cc-pvdz symm=none int=(grid=ultrafine) guess=(read,tcheck) s
 table=(opt,rrhf)
 ----------------------------------------------------------------------
 -----
 title
 -----
 Symbolic Z-matrix:
 Charge =  0 Multiplicity = 1

 SCF Done:  E(RHF) =  -634.219537960     A.U. after   16 cycles
 Normal termination of Gaussian 16 at Sat Apr  5 22:45:36 2025.
 Gaussian 16:  ES64L-G16RevC.01  3-Jul-2019

 ----------------------------------------------------------------------
 #t hf aug-cc-pvdz iop(5/13=1,5/36=2,99/5=2) pseudo=read geom=check gue
 ss=(read,tcheck) scf=(maxcycle=1)
 ----------------------------------------------------------------------
 -----
 title
 -----
 Structure from the checkpoint file:  "9H-purine-2-6-8-trione.chk"
 Charge =  0 Multiplicity = 1

                         Standard orientation:
 ---------------------------------------------------------------------
 Center     Atomic      Atomic             Coordinates (Angstroms)
 Number     Number       Type             X           Y           Z
 ---------------------------------------------------------------------
      1          6           0        0.000000    0.690260    0.000000
      2          6           0        0.612433   -0.524322    0.000000
      3          6           0       -1.421181    0.815858    0.000000
      4          6           0        2.250868    1.064696    0.000000
      5          6           0       -1.472895   -1.715075    0.000000
      6          7           0        1.008530    1.656063    0.000000
      7          7           0        1.963364   -0.327181    0.000000
      8          7           0       -0.075505   -1.702376    0.000000
      9          7           0       -2.045569   -0.457319    0.000000
     10          8           0       -2.078366    1.839915    0.000000
     11          8           0        3.351110    1.564725    0.000000
     12          8           0       -2.104133   -2.748954    0.000000
     13          1           0        0.868938    2.650817    0.000000
     14          1           0        2.693788   -1.017316    0.000000
     15          1           0        0.372696   -2.603452    0.000000
     16          1           0       -3.055399   -0.448350    0.000000
 ---------------------------------------------------------------------

 SCF Done:  E(RHF) =  -634.411494885     A.U. after    2 cycles

 The electronic state is 1-A'.
 Alpha  occ. eigenvalues --  -20.57547 -20.56876 -20.56243 -15.72902 -15.72413
 Alpha  occ. eigenvalues --  -15.70282 -15.69743 -11.45000 -11.43325 -11.41096
 Alpha  occ. eigenvalues --  -11.39983 -11.30356  -1.41779  -1.40385  -1.37858
 Alpha  occ. eigenvalues --   -1.33619  -1.27710  -1.23007  -1.19981  -1.06551
 Alpha  occ. eigenvalues --   -0.93889  -0.92577  -0.89217  -0.84001  -0.79713
 Alpha  occ. eigenvalues --   -0.76354  -0.71687  -0.71117  -0.70546  -0.69842
 Alpha  occ. eigenvalues --   -0.67081  -0.65949  -0.65861  -0.63945  -0.60020
 Alpha  occ. eigenvalues --   -0.56375  -0.51990  -0.49738  -0.48939  -0.47921
 Alpha  occ. eigenvalues --   -0.47516  -0.45616  -0.32969
 Alpha virt. eigenvalues --    0.01313   0.04034   0.04268   0.05260   0.05830
 Alpha virt. eigenvalues --    0.08359   0.08623   0.09237   0.09980   0.10393
 Alpha virt. eigenvalues --    0.10722   0.12051   0.12609   0.13273   0.13700

 Mulliken charges:
               1
     1  C    0.745584
     2  C    0.781654
     3  C    0.829665
     4  C    0.663768
     5  C    0.710344
     6  N   -0.620334
     7  N   -0.488878
     8  N   -0.490725
     9  N   -0.470568
    10  O   -0.528739
    11  O   -0.431875
    12  O   -0.443809
    13  H   -0.081483
    14  H   -0.094483
    15  H   -0.078975
    16  H   -0.001148
 Sum of Mulliken charges =  -0.00000

 Dipole moment (field-independent basis, Debye):
    X=              1.6976    Y=             -3.1057    Z=              0.0000  Tot=              3.5394

 Test job not archived.
 1\1\GINC-SE013\SP\RHF\Aug-CC-pVDZ\C5H4N4O3\OHZDE\05-Apr-2025\0\\#t hf
 aug-cc-pvdz iop(5/13=1,5/36=2,99/5=2) pseudo=read geom=check guess=(re
 ad,tcheck) scf=(maxcycle=1)\\title\\0,1\C,0,0.,0.69026,0.\C,0,0.612433
 ,-0.524322,0.\C,0,-1.421181,0.815858,0.\C,0,2.250868,1.064696,0.\C,0,-
 1.472895,-1.715075,0.\N,0,1.00853,1.656063,0.\N,0,1.963364,-0.327181,0
 .\N,0,-0.075505,-1.702376,0.\N,0,-2.045569,-0.457319,0.\O,0,-2.078366,
 1.839915,0.\O,0,3.35111,1.564725,0.\O,0,-2.104133,-2.748954,0.\H,0,0.8
 68938,2.650817,0.\H,0,2.693788,-1.017316,0.\H,0,0.372696,-2.603452,0.\

 Normal termination of Gaussian 16 at Sat Apr  5 22:45:46 2025.
