 Gaussian 16, Revision C.01,

 ----------------------------------------------------------------------
 #t hf aug-cc-pvdz symm=none int=(grid=ultrafine) guess=(read,tcheck) s
 table=(opt,rrhf)
 ----------------------------------------------------------------------
 -----
 title
 -----
 Symbolic Z-matrix:
 Charge =  0 Multiplicity = 1

 SCF Done:  E(RHF) =  -460.305851129     A.U. after   16 cycles
 Normal termination of Gaussian 16 at Sat Apr  5 22:53:31 2025.
 Gaussian 16:  ES64L-G16RevC.01  3-Jul-2019

 ----------------------------------------------------------------------
 #t hf aug-cc-pvdz iop(5/13=1,5/36=2,99/5=2) pseudo=read geom=check gue
 ss=(read,tcheck) scf=(maxcycle=1)
 ----------------------------------------------------------------------
 -----
 title
 -----
 Structure from the checkpoint file:  "acenaphthene.chk"
 Charge =  0 Multiplicity = 1

                         Standard orientation:
 ---------------------------------------------------------------------
 Center     Atomic      Atomic             Coordinates (Angstroms)
 Number     Number       Type             X           Y           Z
 ---------------------------------------------------------------------
      1          6           0        0.000000    2.417403    1.181934
      2          6           0       -0.000000   -2.417403    1.181934
      3          6           0        0.000000    1.271044    1.944423
      4          6           0       -0.000000   -1.271044    1.944423
      5          6           0        0.000000    2.386884   -0.235954
      6          6           0       -0.000000   -2.386884   -0.235954
      7          6           0       -0.000000   -0.000000    1.317592
      8          6           0        0.000000    0.000000   -0.091156
      9          6           0        0.000000    1.171139   -0.870305
     10          6           0       -0.000000   -1.171139   -0.870305
     11          6           0        0.000000    0.782271   -2.334961
     12          6           0       -0.000000   -0.782271   -2.334961
     13          1           0        0.000000    3.379258    1.678463
     14          1           0       -0.000000   -3.379258    1.678463
     15          1           0        0.000000    1.338083    3.024941
     16          1           0       -0.000000   -1.338083    3.024941
     17          1           0        0.000000    3.317350   -0.789309
     18          1           0       -0.000000   -3.317350   -0.789309
     19          1           0       -0.874591    1.180702   -2.852112
     20          1           0        0.874591    1.180702   -2.852112
     21          1           0        0.874591   -1.180702   -2.852112
     22          1           0       -0.874591   -1.180702   -2.852112
 ---------------------------------------------------------------------

 SCF Done:  E(RHF) =  -460.437528735     A.U. after    2 cycles

 The electronic state is 1-A1.
 Alpha  occ. eigenvalues --  -11.24804 -11.24763 -11.24759 -11.24539 -11.24537
 Alpha  occ. eigenvalues --  -11.24537 -11.24497 -11.23845 -11.23836 -11.23753
 Alpha  occ. eigenvalues --  -11.23752 -11.23113  -1.18128  -1.10019  -1.09269
 Alpha  occ. eigenvalues --   -1.00274  -0.98789  -0.97410  -0.88335  -0.84224
 Alpha  occ. eigenvalues --   -0.81364  -0.78647  -0.70597  -0.68766  -0.66638
 Alpha  occ. eigenvalues --   -0.63653  -0.62303  -0.60281  -0.58474  -0.57294
 Alpha  occ. eigenvalues --   -0.55684  -0.52723  -0.52599  -0.50546  -0.50486
 Alpha  occ. eigenvalues --   -0.47957  -0.47470  -0.43941  -0.37872  -0.32061
 Alpha  occ. eigenvalues --   -0.28007
 Alpha virt. eigenvalues --    0.03478   0.03706   0.03830   0.05008   0.05122
 Alpha virt. eigenvalues --    0.05266   0.06828   0.06993   0.07023   0.08832
 Alpha virt. eigenvalues --    0.09032   0.09034   0.09907   0.11167   0.12142

 Mulliken charges:
               1
     1  C    0.029952
     2  C    0.029952
     3  C    0.971307
     4  C    0.971307
     5  C    1.259667
     6  C    1.259667
     7  C    0.254269
     8  C   -1.375345
     9  C   -0.968975
    10  C   -0.968975
    11  C    0.603305
    12  C    0.603305
    13  H   -0.497132
    14  H   -0.497132
    15  H   -0.542121
    16  H   -0.542121
    17  H   -0.535109
    18  H   -0.535109
    19  H    0.119823
    20  H    0.119823
    21  H    0.119823
    22  H    0.119823
 Sum of Mulliken charges =  -0.00000

 Dipole moment (field-independent basis, Debye):
    X=              0.0000    Y=             -0.0000    Z=             -1.0154  Tot=              1.0154

 Test job not archived.
 1\1\GINC-SE152\SP\RHF\Aug-CC-pVDZ\C12H10\OHZDE\05-Apr-2025\0\\#t hf au
 g-cc-pvdz iop(5/13=1,5/36=2,99/5=2) pseudo=read geom=check guess=(read
 ,tcheck) scf=(maxcycle=1)\\title\\0,1\C,0,0.,2.417403,1.181934\C,0,0.,
 -2.417403,1.181934\C,0,0.,1.271044,1.944423\C,0,0.,-1.271044,1.944423\
 C,0,0.,2.386884,-0.235954\C,0,0.,-2.386884,-0.235954\C,0,0.,0.,1.31759
 2\C,0,0.,0.,-0.091156\C,0,0.,1.171139,-0.870305\C,0,0.,-1.171139,-0.87
 0305\C,0,0.,0.782271,-2.334961\C,0,0.,-0.782271,-2.334961\H,0,0.,3.379
 258,1.678463\H,0,0.,-3.379258,1.678463\H,0,0.,1.338083,3.024941\H,0,0.

 Normal termination of Gaussian 16 at Sat Apr  5 22:53:50 2025.
