 Gaussian 16, Revision C.01,

 ----------------------------------------------------------------------
 #t hf aug-cc-pvdz symm=none int=(grid=ultrafine) guess=(read,tcheck) s
 table=(opt,rrhf)
 ----------------------------------------------------------------------
 -----
 title
 -----
 Symbolic Z-matrix:
 Charge =  0 Multiplicity = 1

 SCF Done:  E(RHF) =  -459.119552830     A.U. after   16 cycles
 Normal termination of Gaussian 16 at Sat Apr  5 22:52:34 2025.
 Gaussian 16:  ES64L-G16RevC.01  3-Jul-2019

 ----------------------------------------------------------------------
 #t hf aug-cc-pvdz iop(5/13=1,5/36=2,99/5=2) pseudo=read geom=check gue
 ss=(read,tcheck) scf=(maxcycle=1)
 ----------------------------------------------------------------------
 -----
 title
 -----
 Structure from the checkpoint file:  "acenaphthylene.chk"
 Charge =  0 Multiplicity = 1

                         Standard orientation:
 ---------------------------------------------------------------------
 Center     Atomic      Atomic             Coordinates (Angstroms)
 Number     Number       Type             X           Y           Z
 ---------------------------------------------------------------------
      1          6           0       -0.000000    0.000000   -0.139949
      2          6           0        0.000000   -0.000000    1.250982
      3          6           0        0.000000    1.278325    1.873143
      4          6           0       -0.000000   -1.278325    1.873143
      5          6           0        0.000000    1.157671   -0.947530
      6          6           0       -0.000000   -1.157671   -0.947530
      7          6           0        0.000000    2.419948    1.100100
      8          6           0       -0.000000   -2.419948    1.100100
      9          6           0        0.000000    2.381426   -0.319988
     10          6           0       -0.000000   -2.381426   -0.319988
     11          6           0        0.000000    0.679125   -2.336932
     12          6           0       -0.000000   -0.679125   -2.336932
     13          1           0        0.000000    3.385258    1.589050
     14          1           0       -0.000000   -3.385258    1.589050
     15          1           0        0.000000    1.356296    2.952947
     16          1           0       -0.000000   -1.356296    2.952947
     17          1           0        0.000000    3.310213   -0.876427
     18          1           0       -0.000000   -3.310213   -0.876427
     19          1           0        0.000000    1.311632   -3.211425
     20          1           0       -0.000000   -1.311632   -3.211425
 ---------------------------------------------------------------------

 SCF Done:  E(RHF) =  -459.249974214     A.U. after    2 cycles

 The electronic state is 1-A1.
 Alpha  occ. eigenvalues --  -11.25724 -11.25723 -11.25362 -11.25353 -11.24976
 Alpha  occ. eigenvalues --  -11.24948 -11.24916 -11.24914 -11.24808 -11.24576
 Alpha  occ. eigenvalues --  -11.24574 -11.22348  -1.19179  -1.10774  -1.10617
 Alpha  occ. eigenvalues --   -1.01150  -0.98931  -0.97462  -0.87556  -0.84617
 Alpha  occ. eigenvalues --   -0.79696  -0.78701  -0.71330  -0.70106  -0.66491
 Alpha  occ. eigenvalues --   -0.63910  -0.62067  -0.59365  -0.59085  -0.56571
 Alpha  occ. eigenvalues --   -0.55766  -0.55390  -0.51971  -0.48950  -0.48051
 Alpha  occ. eigenvalues --   -0.45647  -0.45014  -0.32682  -0.30677  -0.30590
 Alpha virt. eigenvalues --    0.03437   0.03565   0.03713   0.03751   0.04903
 Alpha virt. eigenvalues --    0.05017   0.06766   0.06842   0.08877   0.09464
 Alpha virt. eigenvalues --    0.10268   0.10415   0.11002   0.11774   0.12157

 Mulliken charges:
               1
     1  C   -1.617133
     2  C    0.725155
     3  C    0.681461
     4  C    0.681461
     5  C    0.182121
     6  C    0.182121
     7  C    0.024570
     8  C    0.024570
     9  C    0.905684
    10  C    0.905684
    11  C    0.650654
    12  C    0.650654
    13  H   -0.496921
    14  H   -0.496921
    15  H   -0.539157
    16  H   -0.539157
    17  H   -0.458214
    18  H   -0.458214
    19  H   -0.504210
    20  H   -0.504210
 Sum of Mulliken charges =  -0.00000

 Dipole moment (field-independent basis, Debye):
    X=              0.0000    Y=             -0.0000    Z=              0.1903  Tot=              0.1903

 Test job not archived.
 1\1\GINC-SE153\SP\RHF\Aug-CC-pVDZ\C12H8\OHZDE\05-Apr-2025\0\\#t hf aug
 -cc-pvdz iop(5/13=1,5/36=2,99/5=2) pseudo=read geom=check guess=(read,
 tcheck) scf=(maxcycle=1)\\title\\0,1\C,0,0.,0.,-0.139949\C,0,0.,0.,1.2
 50982\C,0,0.,1.278325,1.873143\C,0,0.,-1.278325,1.873143\C,0,0.,1.1576
 71,-0.94753\C,0,0.,-1.157671,-0.94753\C,0,0.,2.419948,1.1001\C,0,0.,-2
 .419948,1.1001\C,0,0.,2.381426,-0.319988\C,0,0.,-2.381426,-0.319988\C,
 0,0.,0.679125,-2.336932\C,0,0.,-0.679125,-2.336932\H,0,0.,3.385258,1.5
 8905\H,0,0.,-3.385258,1.58905\H,0,0.,1.356296,2.952947\H,0,0.,-1.35629

 Normal termination of Gaussian 16 at Sat Apr  5 22:52:53 2025.
