 Gaussian 16, Revision C.01,

 ----------------------------------------------------------------------
 #t hf aug-cc-pvdz symm=none int=(grid=ultrafine) guess=(read,tcheck) s
 table=(opt,rrhf)
 ----------------------------------------------------------------------
 -----
 title
 -----
 Symbolic Z-matrix:
 Charge =  0 Multiplicity = 1

 SCF Done:  E(RHF) =  -207.921413437     A.U. after   13 cycles
 Normal termination of Gaussian 16 at Sat Apr  5 22:50:05 2025.
 Gaussian 16:  ES64L-G16RevC.01  3-Jul-2019

 ----------------------------------------------------------------------
 #t hf aug-cc-pvdz iop(5/13=1,5/36=2,99/5=2) pseudo=read geom=check gue
 ss=(read,tcheck) scf=(maxcycle=1)
 ----------------------------------------------------------------------
 -----
 title
 -----
 Structure from the checkpoint file:  "acetaldoxime.chk"
 Charge =  0 Multiplicity = 1

                         Standard orientation:
 ---------------------------------------------------------------------
 Center     Atomic      Atomic             Coordinates (Angstroms)
 Number     Number       Type             X           Y           Z
 ---------------------------------------------------------------------
      1          6           0       -1.285321    1.316376    0.000000
      2          6           0        0.000000    0.560718    0.000000
      3          7           0       -0.003088   -0.706431    0.000000
      4          8           0        1.307613   -1.225774    0.000000
      5          1           0        1.160285   -2.176767    0.000000
      6          1           0       -2.132483    0.633899    0.000000
      7          1           0       -1.349609    1.963012    0.878124
      8          1           0       -1.349609    1.963012   -0.878124
      9          1           0        0.944054    1.105492    0.000000
 ---------------------------------------------------------------------

 SCF Done:  E(RHF) =  -207.986318183     A.U. after    2 cycles

 The electronic state is 1-A'.
 Alpha  occ. eigenvalues --  -20.60725 -15.68642 -11.28849 -11.24649  -1.37234
 Alpha  occ. eigenvalues --   -1.14753  -0.97876  -0.77714  -0.72563  -0.65907
 Alpha  occ. eigenvalues --   -0.61172  -0.57357  -0.57097  -0.55018  -0.44071
 Alpha  occ. eigenvalues --   -0.39530
 Alpha virt. eigenvalues --    0.03613   0.04587   0.04997   0.05669   0.07497
 Alpha virt. eigenvalues --    0.11327   0.11428   0.13501   0.14632   0.15625
 Alpha virt. eigenvalues --    0.15973   0.16997   0.17696   0.18784   0.19705

 Mulliken charges:
               1
     1  C    0.117507
     2  C    0.609572
     3  N   -0.207266
     4  O   -0.472594
     5  H    0.181437
     6  H   -0.047863
     7  H    0.015087
     8  H    0.015087
     9  H   -0.210966
 Sum of Mulliken charges =  -0.00000

 Dipole moment (field-independent basis, Debye):
    X=             -0.6677    Y=              1.0066    Z=              0.0000  Tot=              1.2080

 Test job not archived.
 1\1\GINC-SE165\SP\RHF\Aug-CC-pVDZ\C2H5N1O1\OHZDE\05-Apr-2025\0\\#t hf
 aug-cc-pvdz iop(5/13=1,5/36=2,99/5=2) pseudo=read geom=check guess=(re
 ad,tcheck) scf=(maxcycle=1)\\title\\0,1\C,0,-1.285321,1.316376,0.\C,0,
 0.,0.560718,0.\N,0,-0.003088,-0.706431,0.\O,0,1.307613,-1.225774,0.\H,
 0,1.160285,-2.176767,0.\H,0,-2.132483,0.633899,0.\H,0,-1.349609,1.9630
 12,0.878124\H,0,-1.349609,1.963012,-0.878124\H,0,0.944054,1.105492,0.\
 \Version=ES64L-G16RevC.01\State=1-A'\HF=-207.9863182\RMSD=3.203e-03\Di
 pole=-0.262688,0.3960458,0.\Quadrupole=-1.931016,3.467172,-1.536156,-1

 Normal termination of Gaussian 16 at Sat Apr  5 22:50:07 2025.
