 Gaussian 16, Revision C.01,

 ----------------------------------------------------------------------
 #t hf aug-cc-pvdz symm=none int=(grid=ultrafine) guess=(read,tcheck) s
 table=(opt,rrhf)
 ----------------------------------------------------------------------
 -----
 title
 -----
 Symbolic Z-matrix:
 Charge =  0 Multiplicity = 1

 SCF Done:  E(RHF) =  -152.938907546     A.U. after   12 cycles
 Normal termination of Gaussian 16 at Sat Apr  5 22:50:01 2025.
 Gaussian 16:  ES64L-G16RevC.01  3-Jul-2019

 ----------------------------------------------------------------------
 #t hf aug-cc-pvdz iop(5/13=1,5/36=2,99/5=2) pseudo=read geom=check gue
 ss=(read,tcheck) scf=(maxcycle=1)
 ----------------------------------------------------------------------
 -----
 title
 -----
 Structure from the checkpoint file:  "acetaldehyde.chk"
 Charge =  0 Multiplicity = 1

                         Standard orientation:
 ---------------------------------------------------------------------
 Center     Atomic      Atomic             Coordinates (Angstroms)
 Number     Number       Type             X           Y           Z
 ---------------------------------------------------------------------
      1          6           0       -0.000000    0.459417    0.000000
      2          6           0        0.930230   -0.717881    0.000000
      3          8           0       -1.202256    0.385590    0.000000
      4          1           0        0.496537    1.452118    0.000000
      5          1           0        1.581866   -0.666235    0.876217
      6          1           0        0.376395   -1.653588    0.000000
      7          1           0        1.581866   -0.666235   -0.876217
 ---------------------------------------------------------------------

 SCF Done:  E(RHF) =  -152.989638328     A.U. after    2 cycles

 The electronic state is 1-A'.
 Alpha  occ. eigenvalues --  -20.57551 -11.34921 -11.25322  -1.36322  -1.01818
 Alpha  occ. eigenvalues --   -0.80483  -0.68757  -0.63884  -0.61120  -0.56733
 Alpha  occ. eigenvalues --   -0.51944  -0.44013
 Alpha virt. eigenvalues --    0.03177   0.04700   0.05293   0.06536   0.10094
 Alpha virt. eigenvalues --    0.10517   0.11812   0.14401   0.15282   0.15415
 Alpha virt. eigenvalues --    0.15486   0.16298   0.20289   0.25290   0.25386

 Mulliken charges:
               1
     1  C    0.447683
     2  C    0.135028
     3  O   -0.438683
     4  H   -0.097823
     5  H    0.002180
     6  H   -0.050564
     7  H    0.002180
 Sum of Mulliken charges =  -0.00000

 Dipole moment (field-independent basis, Debye):
    X=              3.4359    Y=             -0.2653    Z=              0.0000  Tot=              3.4461

 Test job not archived.
 1\1\GINC-SE154\SP\RHF\Aug-CC-pVDZ\C2H4O1\OHZDE\05-Apr-2025\0\\#t hf au
 g-cc-pvdz iop(5/13=1,5/36=2,99/5=2) pseudo=read geom=check guess=(read
 ,tcheck) scf=(maxcycle=1)\\title\\0,1\C,0,0.,0.459417,0.\C,0,0.930231,
 -0.71788,0.\O,0,-1.202256,0.38559,0.\H,0,0.496537,1.452118,0.\H,0,1.58
 1867,-0.666234,0.876217\H,0,0.376396,-1.653588,0.\H,0,1.581867,-0.6662
 34,-0.876217\\Version=ES64L-G16RevC.01\State=1-A'\HF=-152.9896383\RMSD
 =3.462e-03\Dipole=1.3517906,-0.104394,0.\Quadrupole=-1.9828739,1.11673
 19,0.866142,0.7985875,0.,0.\PG=CS [SG(C2H2O1),X(H2)]\\@

 Normal termination of Gaussian 16 at Sat Apr  5 22:50:03 2025.
