 Gaussian 16, Revision C.01,

 ----------------------------------------------------------------------
 #t hf aug-cc-pvdz symm=none int=(grid=ultrafine) guess=(read,tcheck) s
 table=(opt,rrhf)
 ----------------------------------------------------------------------
 -----
 title
 -----
 Symbolic Z-matrix:
 Charge =  0 Multiplicity = 1

 SCF Done:  E(RHF) =  -208.012593552     A.U. after   13 cycles
 Normal termination of Gaussian 16 at Sat Apr  5 22:50:25 2025.
 Gaussian 16:  ES64L-G16RevC.01  3-Jul-2019

 ----------------------------------------------------------------------
 #t hf aug-cc-pvdz iop(5/13=1,5/36=2,99/5=2) pseudo=read geom=check gue
 ss=(read,tcheck) scf=(maxcycle=1)
 ----------------------------------------------------------------------
 -----
 title
 -----
 Structure from the checkpoint file:  "acetamide.chk"
 Charge =  0 Multiplicity = 1

                         Standard orientation:
 ---------------------------------------------------------------------
 Center     Atomic      Atomic             Coordinates (Angstroms)
 Number     Number       Type             X           Y           Z
 ---------------------------------------------------------------------
      1          6           0       -0.074379    0.144688   -0.000004
      2          6           0        1.359129   -0.348133   -0.000001
      3          7           0       -1.037040   -0.821835    0.000088
      4          8           0       -0.350668    1.329673   -0.000014
      5          1           0        1.862975    0.053388   -0.878184
      6          1           0        1.862897    0.053118    0.878352
      7          1           0        1.450574   -1.433311   -0.000159
      8          1           0       -2.001439   -0.536726   -0.000165
      9          1           0       -0.818879   -1.800341   -0.000316
 ---------------------------------------------------------------------

 SCF Done:  E(RHF) =  -208.080238273     A.U. after    2 cycles

 The electronic state is 1-A.
 Alpha  occ. eigenvalues --  -20.53134 -15.65198 -11.36776 -11.24965  -1.34506
 Alpha  occ. eigenvalues --   -1.17923  -1.00002  -0.80075  -0.72785  -0.67373
 Alpha  occ. eigenvalues --   -0.62021  -0.59793  -0.56542  -0.53037  -0.43945
 Alpha  occ. eigenvalues --   -0.41919
 Alpha virt. eigenvalues --    0.02752   0.04188   0.05244   0.06087   0.07437
 Alpha virt. eigenvalues --    0.10303   0.12502   0.12982   0.14524   0.14864
 Alpha virt. eigenvalues --    0.16197   0.17310   0.17445   0.18131   0.19275

 Mulliken charges:
               1
     1  C    0.450485
     2  C    0.337789
     3  N   -0.133958
     4  O   -0.552604
     5  H    0.029914
     6  H    0.029950
     7  H   -0.127394
     8  H   -0.026334
     9  H   -0.007848
 Sum of Mulliken charges =  -0.00000

 Dipole moment (field-independent basis, Debye):
    X=              0.3807    Y=             -4.4145    Z=             -0.0010  Tot=              4.4309

 Test job not archived.
 1\1\GINC-SE050\SP\RHF\Aug-CC-pVDZ\C2H5N1O1\OHZDE\05-Apr-2025\0\\#t hf
 aug-cc-pvdz iop(5/13=1,5/36=2,99/5=2) pseudo=read geom=check guess=(re
 ad,tcheck) scf=(maxcycle=1)\\title\\0,1\C,0,-0.074379,0.144688,-0.0000
 04\C,0,1.359129,-0.348132,-0.000001\N,0,-1.03704,-0.821835,0.000088\O,
 0,-0.350669,1.329673,-0.000014\H,0,1.862975,0.053389,-0.878184\H,0,1.8
 62897,0.053119,0.878352\H,0,1.450574,-1.43331,-0.000159\H,0,-2.001439,
 -0.536727,-0.000165\H,0,-0.818878,-1.800341,-0.000316\\Version=ES64L-G
 16RevC.01\State=1-A\HF=-208.0802383\RMSD=3.289e-03\Dipole=0.1497982,-1

 Normal termination of Gaussian 16 at Sat Apr  5 22:50:29 2025.
