 Gaussian 16, Revision C.01,

 ----------------------------------------------------------------------
 #t hf aug-cc-pvdz symm=none int=(grid=ultrafine) guess=(read,tcheck) s
 table=(opt,rrhf)
 ----------------------------------------------------------------------
 -----
 title
 -----
 Symbolic Z-matrix:
 Charge =  0 Multiplicity = 1

 SCF Done:  E(RHF) =  -474.362011413     A.U. after   13 cycles
 Normal termination of Gaussian 16 at Sat Apr  5 22:50:28 2025.
 Gaussian 16:  ES64L-G16RevC.01  3-Jul-2019

 ----------------------------------------------------------------------
 #t hf aug-cc-pvdz iop(5/13=1,5/36=2,99/5=2) pseudo=read geom=check gue
 ss=(read,tcheck) scf=(maxcycle=1)
 ----------------------------------------------------------------------
 -----
 title
 -----
 Structure from the checkpoint file:  "acetylenethiol.chk"
 Charge =  0 Multiplicity = 1

                         Standard orientation:
 ---------------------------------------------------------------------
 Center     Atomic      Atomic             Coordinates (Angstroms)
 Number     Number       Type             X           Y           Z
 ---------------------------------------------------------------------
      1         16           0        1.039913   -0.088153   -0.000004
      2          6           0       -0.650468    0.025724    0.000041
      3          6           0       -1.852794    0.003642   -0.000042
      4          1           0        1.294484    1.236611   -0.000009
      5          1           0       -2.913523   -0.002355    0.000079
 ---------------------------------------------------------------------

 SCF Done:  E(RHF) =  -474.409797689     A.U. after    2 cycles

 The electronic state is 1-A.
 Alpha  occ. eigenvalues --  -93.58295 -11.27746 -11.25514  -8.87929  -6.22153
 Alpha  occ. eigenvalues --   -6.21900  -6.21501  -1.07424  -0.97589  -0.73711
 Alpha  occ. eigenvalues --   -0.64759  -0.54079  -0.48312  -0.40915  -0.35367
 Alpha virt. eigenvalues --    0.03509   0.04454   0.07874   0.09291   0.10021
 Alpha virt. eigenvalues --    0.10914   0.14000   0.14116   0.15254   0.16096
 Alpha virt. eigenvalues --    0.16610   0.16960   0.18705   0.22901   0.22986

 Mulliken charges:
               1
     1  S    0.265849
     2  C   -0.312297
     3  C    0.344677
     4  H    0.074196
     5  H   -0.372425
 Sum of Mulliken charges =   0.00000

 Dipole moment (field-independent basis, Debye):
    X=             -0.2223    Y=              0.8459    Z=              0.0001  Tot=              0.8746

 Test job not archived.
 1\1\GINC-SE190\SP\RHF\Aug-CC-pVDZ\C2H2S1\OHZDE\05-Apr-2025\0\\#t hf au
 g-cc-pvdz iop(5/13=1,5/36=2,99/5=2) pseudo=read geom=check guess=(read
 ,tcheck) scf=(maxcycle=1)\\title\\0,1\S,0,1.039913,-0.088153,-0.000004
 \C,0,-0.650468,0.025724,0.000041\C,0,-1.852794,0.003642,-0.000042\H,0,
 1.294484,1.236611,-0.000009\H,0,-2.913523,-0.002355,0.000079\\Version=
 ES64L-G16RevC.01\State=1-A\HF=-474.4097977\RMSD=1.460e-02\Dipole=-0.08
 74517,0.3327906,0.0000447\Quadrupole=3.5838204,-0.4616532,-3.1221672,1
 .304732,-0.0003209,-0.0000167\PG=C01 [X(C2H2S1)]\\@

 Normal termination of Gaussian 16 at Sat Apr  5 22:50:30 2025.
