 Gaussian 16, Revision C.01,

 ----------------------------------------------------------------------
 #t hf aug-cc-pvdz symm=none int=(grid=ultrafine) guess=(read,tcheck) s
 table=(opt,rrhf)
 ----------------------------------------------------------------------
 -----
 title
 -----
 Symbolic Z-matrix:
 Charge =  0 Multiplicity = 1

 SCF Done:  E(RHF) =  -382.520362625     A.U. after   15 cycles
 Normal termination of Gaussian 16 at Sat Apr  5 22:51:44 2025.
 Gaussian 16:  ES64L-G16RevC.01  3-Jul-2019

 ----------------------------------------------------------------------
 #t hf aug-cc-pvdz iop(5/13=1,5/36=2,99/5=2) pseudo=read geom=check gue
 ss=(read,tcheck) scf=(maxcycle=1)
 ----------------------------------------------------------------------
 -----
 title
 -----
 Structure from the checkpoint file:  "acetophenone.chk"
 Charge =  0 Multiplicity = 1

                         Standard orientation:
 ---------------------------------------------------------------------
 Center     Atomic      Atomic             Coordinates (Angstroms)
 Number     Number       Type             X           Y           Z
 ---------------------------------------------------------------------
      1          6           0        0.597275   -2.517032    0.000000
      2          6           0       -0.727050   -2.095954    0.000000
      3          6           0        1.625448   -1.577546    0.000000
      4          6           0       -1.024386   -0.738517    0.000000
      5          6           0        1.328876   -0.224101    0.000000
      6          6           0        0.000000    0.211798    0.000000
      7          6           0       -0.267977    1.685966    0.000000
      8          6           0       -1.703332    2.168927    0.000000
      9          8           0        0.649583    2.482840    0.000000
     10          1           0        0.828859   -3.573768    0.000000
     11          1           0       -1.527757   -2.822995    0.000000
     12          1           0        2.656503   -1.904436    0.000000
     13          1           0       -2.058803   -0.426121    0.000000
     14          1           0        2.113187    0.519224    0.000000
     15          1           0       -2.237541    1.804545    0.879154
     16          1           0       -2.237541    1.804545   -0.879154
     17          1           0       -1.706693    3.255036    0.000000
 ---------------------------------------------------------------------

 SCF Done:  E(RHF) =  -382.635562096     A.U. after    2 cycles

 The electronic state is 1-A'.
 Alpha  occ. eigenvalues --  -20.55944 -11.34705 -11.26391 -11.26172 -11.25762
 Alpha  occ. eigenvalues --  -11.25546 -11.25538 -11.25299 -11.24533  -1.35189
 Alpha  occ. eigenvalues --   -1.15985  -1.04816  -1.02538  -0.99455  -0.86793
 Alpha  occ. eigenvalues --   -0.84069  -0.76827  -0.71857  -0.66393  -0.65929
 Alpha  occ. eigenvalues --   -0.63325  -0.61166  -0.60933  -0.60652  -0.55840
 Alpha  occ. eigenvalues --   -0.53187  -0.52940  -0.50824  -0.50258  -0.43289
 Alpha  occ. eigenvalues --   -0.35584  -0.35155
 Alpha virt. eigenvalues --    0.02968   0.03608   0.04254   0.05276   0.05380
 Alpha virt. eigenvalues --    0.06214   0.06754   0.07264   0.08947   0.09311
 Alpha virt. eigenvalues --    0.10016   0.11280   0.11683   0.13459   0.13719

 Mulliken charges:
               1
     1  C    0.543973
     2  C    0.362313
     3  C    0.523329
     4  C    0.342221
     5  C   -0.076312
     6  C    1.333964
     7  C   -0.459097
     8  C    0.474935
     9  O   -0.523474
    10  H   -0.442546
    11  H   -0.440368
    12  H   -0.429443
    13  H   -0.662382
    14  H   -0.602926
    15  H    0.106657
    16  H    0.106657
    17  H   -0.157500
 Sum of Mulliken charges =  -0.00000

 Dipole moment (field-independent basis, Debye):
    X=             -2.2831    Y=             -2.8583    Z=              0.0000  Tot=              3.6582

 Test job not archived.
 1\1\GINC-SE183\SP\RHF\Aug-CC-pVDZ\C8H8O1\OHZDE\05-Apr-2025\0\\#t hf au
 g-cc-pvdz iop(5/13=1,5/36=2,99/5=2) pseudo=read geom=check guess=(read
 ,tcheck) scf=(maxcycle=1)\\title\\0,1\C,0,0.597274,-2.517032,0.\C,0,-0
 .727051,-2.095954,0.\C,0,1.625447,-1.577546,0.\C,0,-1.024386,-0.738517
 ,0.\C,0,1.328876,-0.224101,0.\C,0,0.,0.211798,0.\C,0,-0.267977,1.68596
 6,0.\C,0,-1.703331,2.168928,0.\O,0,0.649584,2.48284,0.\H,0,0.828858,-3
 .573768,0.\H,0,-1.527758,-2.822994,0.\H,0,2.656502,-1.904437,0.\H,0,-2
 .058803,-0.42612,0.\H,0,2.113187,0.519223,0.\H,0,-2.237541,1.804546,0.

 Normal termination of Gaussian 16 at Sat Apr  5 22:52:51 2025.
