 Gaussian 16, Revision C.01,

 ----------------------------------------------------------------------
 #t hf aug-cc-pvdz symm=none int=(grid=ultrafine) guess=(read,tcheck) s
 table=(opt,rrhf)
 ----------------------------------------------------------------------
 -----
 title
 -----
 Symbolic Z-matrix:
 Charge =  0 Multiplicity = 1

 SCF Done:  E(RHF) =  -131.870647955     A.U. after   13 cycles
 Normal termination of Gaussian 16 at Sat Apr  5 22:50:29 2025.
 Gaussian 16:  ES64L-G16RevC.01  3-Jul-2019

 ----------------------------------------------------------------------
 #t hf aug-cc-pvdz iop(5/13=1,5/36=2,99/5=2) pseudo=read geom=check gue
 ss=(read,tcheck) scf=(maxcycle=1)
 ----------------------------------------------------------------------
 -----
 title
 -----
 Structure from the checkpoint file:  "acetylenamine.chk"
 Charge =  0 Multiplicity = 1

                         Standard orientation:
 ---------------------------------------------------------------------
 Center     Atomic      Atomic             Coordinates (Angstroms)
 Number     Number       Type             X           Y           Z
 ---------------------------------------------------------------------
      1          7           0        0.090626   -1.183995   -0.000000
      2          6           0        0.000000    0.161705    0.000000
      3          6           0       -0.019053    1.362621    0.000000
      4          1           0       -0.239895   -1.640016    0.837356
      5          1           0       -0.239895   -1.640016   -0.837356
      6          1           0       -0.040274    2.422038    0.000000
 ---------------------------------------------------------------------

 SCF Done:  E(RHF) =  -131.914377565     A.U. after    2 cycles

 The electronic state is 1-A'.
 Alpha  occ. eigenvalues --  -15.65966 -11.27759 -11.22412  -1.19866  -0.99653
 Alpha  occ. eigenvalues --   -0.75665  -0.70527  -0.68349  -0.52451  -0.39428
 Alpha  occ. eigenvalues --   -0.34610
 Alpha virt. eigenvalues --    0.03002   0.04333   0.05163   0.11221   0.11564
 Alpha virt. eigenvalues --    0.12348   0.13261   0.14377   0.16652   0.17282
 Alpha virt. eigenvalues --    0.18427   0.19644   0.20514   0.23799   0.27151

 Mulliken charges:
               1
     1  N   -0.192344
     2  C   -0.331608
     3  C    0.798828
     4  H    0.032364
     5  H    0.032364
     6  H   -0.339603
 Sum of Mulliken charges =  -0.00000

 Dipole moment (field-independent basis, Debye):
    X=             -1.0245    Y=             -1.4031    Z=              0.0000  Tot=              1.7373

 Test job not archived.
 1\1\GINC-SE187\SP\RHF\Aug-CC-pVDZ\C2H3N1\OHZDE\05-Apr-2025\0\\#t hf au
 g-cc-pvdz iop(5/13=1,5/36=2,99/5=2) pseudo=read geom=check guess=(read
 ,tcheck) scf=(maxcycle=1)\\title\\0,1\N,0,0.090626,-1.183995,0.\C,0,0.
 ,0.161705,0.\C,0,-0.019053,1.362621,0.\H,0,-0.239895,-1.640016,0.83735
 6\H,0,-0.239895,-1.640016,-0.837356\H,0,-0.040274,2.422038,0.\\Version
 =ES64L-G16RevC.01\State=1-A'\HF=-131.9143776\RMSD=5.464e-03\Dipole=-0.
 4030662,-0.55201,0.\Quadrupole=-3.0339204,3.4506727,-0.4167523,1.41380
 58,0.,0.\PG=CS [SG(C2H1N1),X(H2)]\\@

 Normal termination of Gaussian 16 at Sat Apr  5 22:50:31 2025.
