 Gaussian 16, Revision C.01,

 ----------------------------------------------------------------------
 #t hf aug-cc-pvdz symm=none int=(grid=ultrafine) guess=(read,tcheck) s
 table=(opt,rrhf)
 ----------------------------------------------------------------------
 -----
 title
 -----
 Symbolic Z-matrix:
 Charge =  0 Multiplicity = 1

 SCF Done:  E(RHF) =  -379.633785340     A.U. after   13 cycles
 Normal termination of Gaussian 16 at Sat Apr  5 22:50:48 2025.
 Gaussian 16:  ES64L-G16RevC.01  3-Jul-2019

 ----------------------------------------------------------------------
 #t hf aug-cc-pvdz iop(5/13=1,5/36=2,99/5=2) pseudo=read geom=check gue
 ss=(read,tcheck) scf=(maxcycle=1)
 ----------------------------------------------------------------------
 -----
 title
 -----
 Structure from the checkpoint file:  "acetic_anhydride.chk"
 Charge =  0 Multiplicity = 1

                         Standard orientation:
 ---------------------------------------------------------------------
 Center     Atomic      Atomic             Coordinates (Angstroms)
 Number     Number       Type             X           Y           Z
 ---------------------------------------------------------------------
      1          6           0        0.000000    2.369460    0.740351
      2          6           0       -0.343853    1.165080   -0.083876
      3          8           0       -0.878029    1.154247   -1.148636
      4          1           0       -0.405130    3.260516    0.271345
      5          1           0       -0.391201    2.260041    1.751197
      6          1           0        1.085006    2.452696    0.818365
      7          8           0       -0.000000   -0.000000    0.602333
      8          6           0        0.343853   -1.165080   -0.083876
      9          6           0       -0.000000   -2.369460    0.740351
     10          8           0        0.878029   -1.154247   -1.148636
     11          1           0        0.391201   -2.260041    1.751197
     12          1           0        0.405130   -3.260516    0.271345
     13          1           0       -1.085006   -2.452696    0.818365
 ---------------------------------------------------------------------

 SCF Done:  E(RHF) =  -379.757358560     A.U. after    2 cycles

 The electronic state is 1-A.
 Alpha  occ. eigenvalues --  -20.63777 -20.58122 -20.58122 -11.41534 -11.41503
 Alpha  occ. eigenvalues --  -11.26432 -11.26431  -1.45213  -1.38554  -1.33737
 Alpha  occ. eigenvalues --   -1.05561  -1.01699  -0.88488  -0.75218  -0.71853
 Alpha  occ. eigenvalues --   -0.71596  -0.70203  -0.64204  -0.63478  -0.60518
 Alpha  occ. eigenvalues --   -0.59520  -0.58566  -0.56556  -0.53942  -0.50414
 Alpha  occ. eigenvalues --   -0.49801  -0.46632
 Alpha virt. eigenvalues --    0.02882   0.04055   0.05104   0.05330   0.06266
 Alpha virt. eigenvalues --    0.06705   0.08097   0.11463   0.12202   0.12342
 Alpha virt. eigenvalues --    0.13003   0.13137   0.14132   0.14978   0.15522

 Mulliken charges:
               1
     1  C    0.292605
     2  C    0.359894
     3  O   -0.387656
     4  H   -0.012025
     5  H    0.014860
     6  H    0.039893
     7  O   -0.615142
     8  C    0.359894
     9  C    0.292605
    10  O   -0.387656
    11  H    0.014860
    12  H   -0.012025
    13  H    0.039893
 Sum of Mulliken charges =  -0.00000

 Dipole moment (field-independent basis, Debye):
    X=              0.0000    Y=             -0.0000    Z=              4.6523  Tot=              4.6523

 Test job not archived.
 1\1\GINC-SE194\SP\RHF\Aug-CC-pVDZ\C4H6O3\OHZDE\05-Apr-2025\0\\#t hf au
 g-cc-pvdz iop(5/13=1,5/36=2,99/5=2) pseudo=read geom=check guess=(read
 ,tcheck) scf=(maxcycle=1)\\title\\0,1\C,0,0.,2.36946,0.740351\C,0,-0.3
 43853,1.16508,-0.083876\O,0,-0.878029,1.154247,-1.148636\H,0,-0.40513,
 3.260516,0.271345\H,0,-0.391201,2.260041,1.751197\H,0,1.085006,2.45269
 6,0.818365\O,0,0.,0.,0.602333\C,0,0.343853,-1.16508,-0.083876\C,0,0.,-
 2.36946,0.740351\O,0,0.878029,-1.154247,-1.148636\H,0,0.391201,-2.2600
 41,1.751197\H,0,0.40513,-3.260516,0.271345\H,0,-1.085006,-2.452696,0.8

 Normal termination of Gaussian 16 at Sat Apr  5 22:50:51 2025.
