 Gaussian 16, Revision C.01,

 ----------------------------------------------------------------------
 #t hf aug-cc-pvdz symm=none int=(grid=ultrafine) guess=(read,tcheck) s
 table=(opt,rrhf)
 ----------------------------------------------------------------------
 -----
 title
 -----
 Symbolic Z-matrix:
 Charge =  0 Multiplicity = 1

 SCF Done:  E(RHF) =  -131.943651182     A.U. after   11 cycles
 Normal termination of Gaussian 16 at Sat Apr  5 22:50:28 2025.
 Gaussian 16:  ES64L-G16RevC.01  3-Jul-2019

 ----------------------------------------------------------------------
 #t hf aug-cc-pvdz iop(5/13=1,5/36=2,99/5=2) pseudo=read geom=check gue
 ss=(read,tcheck) scf=(maxcycle=1)
 ----------------------------------------------------------------------
 -----
 title
 -----
 Structure from the checkpoint file:  "acetonitrile.chk"
 Charge =  0 Multiplicity = 1

                         Standard orientation:
 ---------------------------------------------------------------------
 Center     Atomic      Atomic             Coordinates (Angstroms)
 Number     Number       Type             X           Y           Z
 ---------------------------------------------------------------------
      1          6           0        0.000000    0.280675    0.000000
      2          6           0        0.000000   -1.174129    0.000000
      3          7           0        0.000000    1.430070    0.000000
      4          1           0       -1.022452   -1.549923    0.000000
      5          1           0        0.511226   -1.549923    0.885470
      6          1           0        0.511226   -1.549923   -0.885470
 ---------------------------------------------------------------------

 SCF Done:  E(RHF) =  -131.985248332     A.U. after    2 cycles

 The electronic state is 1-A'.
 Alpha  occ. eigenvalues --  -15.63838 -11.29660 -11.29121  -1.19666  -1.03710
 Alpha  occ. eigenvalues --   -0.70024  -0.63356  -0.63356  -0.54632  -0.46233
 Alpha  occ. eigenvalues --   -0.46233
 Alpha virt. eigenvalues --    0.02573   0.05126   0.05126   0.07555   0.11627
 Alpha virt. eigenvalues --    0.12463   0.12463   0.14361   0.14361   0.15119
 Alpha virt. eigenvalues --    0.18193   0.18193   0.21302   0.24354   0.25399

 Mulliken charges:
               1
     1  C   -0.320361
     2  C    0.383528
     3  N   -0.194717
     4  H    0.043849
     5  H    0.043850
     6  H    0.043850
 Sum of Mulliken charges =  -0.00000

 Dipole moment (field-independent basis, Debye):
    X=             -0.0000    Y=             -4.1471    Z=              0.0000  Tot=              4.1471

 Test job not archived.
 1\1\GINC-SE115\SP\RHF\Aug-CC-pVDZ\C2H3N1\OHZDE\05-Apr-2025\0\\#t hf au
 g-cc-pvdz iop(5/13=1,5/36=2,99/5=2) pseudo=read geom=check guess=(read
 ,tcheck) scf=(maxcycle=1)\\title\\0,1\C,0,0.,0.,0.280675\C,0,0.,0.,-1.
 174129\N,0,0.,0.,1.43007\H,0,0.,1.022452,-1.549923\H,0,-0.88547,-0.511
 226,-1.549923\H,0,0.88547,-0.511226,-1.549923\\Version=ES64L-G16RevC.0
 1\State=1-A'\HF=-131.9852483\RMSD=3.352e-03\Dipole=0.,0.0000001,-1.631
 5783\Quadrupole=0.7965074,0.7965054,-1.5930128,0.,0.,-0.0000006\PG=CS
 [SG(C2H1N1),X(H2)]\\@

 Normal termination of Gaussian 16 at Sat Apr  5 22:50:31 2025.
