 Gaussian 16, Revision C.01,

 ----------------------------------------------------------------------
 #t hf aug-cc-pvdz symm=none int=(grid=ultrafine) guess=(read,tcheck) s
 table=(opt,rrhf)
 ----------------------------------------------------------------------
 -----
 title
 -----
 Symbolic Z-matrix:
 Charge =  0 Multiplicity = 1

 SCF Done:  E(RHF) =  -611.878206649     A.U. after   13 cycles
 Normal termination of Gaussian 16 at Sat Apr  5 22:50:29 2025.
 Gaussian 16:  ES64L-G16RevC.01  3-Jul-2019

 ----------------------------------------------------------------------
 #t hf aug-cc-pvdz iop(5/13=1,5/36=2,99/5=2) pseudo=read geom=check gue
 ss=(read,tcheck) scf=(maxcycle=1)
 ----------------------------------------------------------------------
 -----
 title
 -----
 Structure from the checkpoint file:  "acetyl_chloride.chk"
 Charge =  0 Multiplicity = 1

                         Standard orientation:
 ---------------------------------------------------------------------
 Center     Atomic      Atomic             Coordinates (Angstroms)
 Number     Number       Type             X           Y           Z
 ---------------------------------------------------------------------
      1          6           0        0.000000    0.543632    0.000000
      2          6           0        1.484355    0.734756    0.000000
      3          8           0       -0.843840    1.368109    0.000000
      4         17           0       -0.452456   -1.230552    0.000000
      5          1           0        1.710473    1.798078    0.000000
      6          1           0        1.912935    0.253054    0.877971
      7          1           0        1.912935    0.253054   -0.877971
 ---------------------------------------------------------------------

 SCF Done:  E(RHF) =  -611.946237616     A.U. after    2 cycles

 The electronic state is 1-A'.
 Alpha  occ. eigenvalues -- -103.66979 -20.61709 -11.42926 -11.28183 -10.70322
 Alpha  occ. eigenvalues --   -8.36019  -8.35735  -8.35724  -1.42490  -1.16405
 Alpha  occ. eigenvalues --   -1.03814  -0.78973  -0.69734  -0.68615  -0.65524
 Alpha  occ. eigenvalues --   -0.59450  -0.56707  -0.48013  -0.47936  -0.46984
 Alpha virt. eigenvalues --    0.03077   0.05302   0.05548   0.07864   0.09735
 Alpha virt. eigenvalues --    0.10665   0.12241   0.13385   0.13623   0.14164
 Alpha virt. eigenvalues --    0.14530   0.16441   0.18315   0.18452   0.19758

 Mulliken charges:
               1
     1  C   -0.050857
     2  C    0.471177
     3  O   -0.338034
     4  Cl  -0.168909
     5  H   -0.025313
     6  H    0.055968
     7  H    0.055968
 Sum of Mulliken charges =  -0.00000

 Dipole moment (field-independent basis, Debye):
    X=              3.3205    Y=              0.1179    Z=             -0.0000  Tot=              3.3226

 Test job not archived.
 1\1\GINC-SE185\SP\RHF\Aug-CC-pVDZ\C2H3Cl1O1\OHZDE\05-Apr-2025\0\\#t hf
  aug-cc-pvdz iop(5/13=1,5/36=2,99/5=2) pseudo=read geom=check guess=(r
 ead,tcheck) scf=(maxcycle=1)\\title\\0,1\C,0,0.,0.543632,0.\C,0,1.4843
 55,0.734756,0.\O,0,-0.84384,1.368109,0.\Cl,0,-0.452456,-1.230552,0.\H,
 0,1.710473,1.798078,0.\H,0,1.912935,0.253054,0.877971\H,0,1.912935,0.2
 53054,-0.877971\\Version=ES64L-G16RevC.01\State=1-A'\HF=-611.9462376\R
 MSD=3.459e-03\Dipole=1.3063986,0.0463852,0.\Quadrupole=0.8844149,-1.76
 09562,0.8765413,2.4604382,0.,0.\PG=CS [SG(C2H1Cl1O1),X(H2)]\\@

 Normal termination of Gaussian 16 at Sat Apr  5 22:50:32 2025.
