 Gaussian 16, Revision C.01,

 ----------------------------------------------------------------------
 #t hf aug-cc-pvdz symm=none int=(grid=ultrafine) guess=(read,tcheck) s
 table=(opt,rrhf)
 ----------------------------------------------------------------------
 -----
 title
 -----
 Symbolic Z-matrix:
 Charge =  0 Multiplicity = 1

 SCF Done:  E(RHF) =  -227.849661643     A.U. after   13 cycles
 Normal termination of Gaussian 16 at Sat Apr  5 22:50:24 2025.
 Gaussian 16:  ES64L-G16RevC.01  3-Jul-2019

 ----------------------------------------------------------------------
 #t hf aug-cc-pvdz iop(5/13=1,5/36=2,99/5=2) pseudo=read geom=check gue
 ss=(read,tcheck) scf=(maxcycle=1)
 ----------------------------------------------------------------------
 -----
 title
 -----
 Structure from the checkpoint file:  "acetic_acid.chk"
 Charge =  0 Multiplicity = 1

                         Standard orientation:
 ---------------------------------------------------------------------
 Center     Atomic      Atomic             Coordinates (Angstroms)
 Number     Number       Type             X           Y           Z
 ---------------------------------------------------------------------
      1          6           0       -0.000000    0.155267    0.000000
      2          6           0        1.069205   -0.899340    0.000000
      3          8           0        0.178355    1.345599    0.000000
      4          8           0       -1.241854   -0.392585    0.000000
      5          1           0        0.960615   -1.536193    0.877879
      6          1           0        0.960615   -1.536193   -0.877879
      7          1           0        2.046305   -0.427879    0.000000
      8          1           0       -1.874777    0.340589    0.000000
 ---------------------------------------------------------------------

 SCF Done:  E(RHF) =  -227.924662046     A.U. after    2 cycles

 The electronic state is 1-A'.
 Alpha  occ. eigenvalues --  -20.62730 -20.56808 -11.40484 -11.25803  -1.42780
 Alpha  occ. eigenvalues --   -1.32996  -1.02632  -0.83689  -0.72138  -0.69549
 Alpha  occ. eigenvalues --   -0.66411  -0.60026  -0.58004  -0.57029  -0.50464
 Alpha  occ. eigenvalues --   -0.47486
 Alpha virt. eigenvalues --    0.03272   0.04740   0.05594   0.06214   0.09784
 Alpha virt. eigenvalues --    0.11691   0.11804   0.14153   0.15069   0.15475
 Alpha virt. eigenvalues --    0.16341   0.16412   0.19542   0.21231   0.23212

 Mulliken charges:
               1
     1  C    0.398459
     2  C    0.308457
     3  O   -0.461116
     4  O   -0.473120
     5  H    0.037199
     6  H    0.037199
     7  H   -0.014578
     8  H    0.167499
 Sum of Mulliken charges =  -0.00000

 Dipole moment (field-independent basis, Debye):
    X=             -0.1819    Y=             -2.0662    Z=             -0.0000  Tot=              2.0742

 Test job not archived.
 1\1\GINC-SE165\SP\RHF\Aug-CC-pVDZ\C2H4O2\OHZDE\05-Apr-2025\0\\#t hf au
 g-cc-pvdz iop(5/13=1,5/36=2,99/5=2) pseudo=read geom=check guess=(read
 ,tcheck) scf=(maxcycle=1)\\title\\0,1\C,0,0.,0.155267,0.\C,0,1.069204,
 -0.899341,0.\O,0,0.178356,1.345599,0.\O,0,-1.241854,-0.392584,0.\H,0,0
 .960614,-1.536194,0.877879\H,0,0.960614,-1.536194,-0.877879\H,0,2.0463
 05,-0.427881,0.\H,0,-1.874777,0.34059,0.\\Version=ES64L-G16RevC.01\Sta
 te=1-A'\HF=-227.924662\RMSD=3.505e-03\Dipole=-0.0715771,-0.8128974,0.\
 Quadrupole=2.7827673,-3.2224638,0.4396966,-3.1053442,0.,0.\PG=CS [SG(C

 Normal termination of Gaussian 16 at Sat Apr  5 22:50:27 2025.
