 Gaussian 16, Revision C.01,

 ----------------------------------------------------------------------
 #t hf aug-cc-pvdz symm=none int=(grid=ultrafine) guess=(read,tcheck) s
 table=(opt,rrhf)
 ----------------------------------------------------------------------
 -----
 title
 -----
 Symbolic Z-matrix:
 Charge =  0 Multiplicity = 1

 SCF Done:  E(RHF) =  -188.154762373     A.U. after   13 cycles
 Normal termination of Gaussian 16 at Sat Apr  5 22:50:26 2025.
 Gaussian 16:  ES64L-G16RevC.01  3-Jul-2019

 ----------------------------------------------------------------------
 #t hf aug-cc-pvdz iop(5/13=1,5/36=2,99/5=2) pseudo=read geom=check gue
 ss=(read,tcheck) scf=(maxcycle=1)
 ----------------------------------------------------------------------
 -----
 title
 -----
 Structure from the checkpoint file:  "acetamidine.chk"
 Charge =  0 Multiplicity = 1

                         Standard orientation:
 ---------------------------------------------------------------------
 Center     Atomic      Atomic             Coordinates (Angstroms)
 Number     Number       Type             X           Y           Z
 ---------------------------------------------------------------------
      1          6           0       -0.078977    0.122141    0.000466
      2          6           0        1.411558   -0.089218    0.001120
      3          7           0       -0.551943    1.306982    0.008721
      4          7           0       -0.819018   -1.045939   -0.060148
      5          1           0        1.910930    0.874019    0.006173
      6          1           0        1.722529   -0.656815    0.881242
      7          1           0        1.720668   -0.651511   -0.881909
      8          1           0       -1.571786    1.312846    0.003132
      9          1           0       -1.803736   -0.993261    0.139354
     10          1           0       -0.377363   -1.910115    0.202483
 ---------------------------------------------------------------------

 SCF Done:  E(RHF) =  -188.213577529     A.U. after    2 cycles

 The electronic state is 1-A.
 Alpha  occ. eigenvalues --  -15.64203 -15.58422 -11.32739 -11.23831  -1.22908
 Alpha  occ. eigenvalues --   -1.10575  -0.98309  -0.77694  -0.70257  -0.69081
 Alpha  occ. eigenvalues --   -0.59833  -0.55383  -0.54906  -0.49453  -0.41188
 Alpha  occ. eigenvalues --   -0.36287
 Alpha virt. eigenvalues --    0.02737   0.04116   0.05048   0.05525   0.07555
 Alpha virt. eigenvalues --    0.07977   0.11330   0.12588   0.14188   0.15423
 Alpha virt. eigenvalues --    0.16048   0.16368   0.17210   0.17542   0.18521

 Mulliken charges:
               1
     1  C    0.509758
     2  C    0.353712
     3  N   -0.413114
     4  N   -0.258605
     5  H   -0.059346
     6  H   -0.027579
     7  H    0.022546
     8  H   -0.055639
     9  H   -0.055149
    10  H   -0.016585
 Sum of Mulliken charges =  -0.00000

 Dipole moment (field-independent basis, Debye):
    X=             -0.4583    Y=             -3.3581    Z=              0.6780  Tot=              3.4564

 Test job not archived.
 1\1\GINC-SE104\SP\RHF\Aug-CC-pVDZ\C2H6N2\OHZDE\05-Apr-2025\0\\#t hf au
 g-cc-pvdz iop(5/13=1,5/36=2,99/5=2) pseudo=read geom=check guess=(read
 ,tcheck) scf=(maxcycle=1)\\title\\0,1\C,0,-0.078977,0.122141,0.000466\
 C,0,1.411558,-0.08922,0.00112\N,0,-0.551941,1.306983,0.008721\N,0,-0.8
 1902,-1.045938,-0.060148\H,0,1.910931,0.874016,0.006173\H,0,1.722528,-
 0.656817,0.881242\H,0,1.720667,-0.651513,-0.881909\H,0,-1.571784,1.312
 848,0.003132\H,0,-1.803738,-0.993258,0.139354\H,0,-0.377366,-1.910114,
 0.202483\\Version=ES64L-G16RevC.01\State=1-A\HF=-188.2135775\RMSD=2.96

 Normal termination of Gaussian 16 at Sat Apr  5 22:50:29 2025.
