 Gaussian 16, Revision C.01,

 ----------------------------------------------------------------------
 #t hf aug-cc-pvdz symm=none int=(grid=ultrafine) guess=(read,tcheck) s
 table=(opt,rrhf)
 ----------------------------------------------------------------------
 -----
 title
 -----
 Symbolic Z-matrix:
 Charge =  0 Multiplicity = 1

 SCF Done:  E(RHF) =  -190.790135202     A.U. after   13 cycles
 Normal termination of Gaussian 16 at Sat Apr  5 22:50:29 2025.
 Gaussian 16:  ES64L-G16RevC.01  3-Jul-2019

 ----------------------------------------------------------------------
 #t hf aug-cc-pvdz iop(5/13=1,5/36=2,99/5=2) pseudo=read geom=check gue
 ss=(read,tcheck) scf=(maxcycle=1)
 ----------------------------------------------------------------------
 -----
 title
 -----
 Structure from the checkpoint file:  "acrolein.chk"
 Charge =  0 Multiplicity = 1

                         Standard orientation:
 ---------------------------------------------------------------------
 Center     Atomic      Atomic             Coordinates (Angstroms)
 Number     Number       Type             X           Y           Z
 ---------------------------------------------------------------------
      1          6           0       -0.146975   -0.745307    0.000000
      2          6           0       -0.000000    0.717816   -0.000000
      3          6           0        1.203301    1.287661    0.000000
      4          8           0       -1.208534   -1.324424   -0.000000
      5          1           0        0.808295   -1.308935    0.000000
      6          1           0       -0.915368    1.296860   -0.000000
      7          1           0        1.332889    2.360924    0.000000
      8          1           0        2.104499    0.685522    0.000000
 ---------------------------------------------------------------------

 SCF Done:  E(RHF) =  -190.851327172     A.U. after    2 cycles

 The electronic state is 1-A'.
 Alpha  occ. eigenvalues --  -20.57497 -11.34924 -11.28198 -11.26689  -1.36048
 Alpha  occ. eigenvalues --   -1.08522  -0.88840  -0.79219  -0.68507  -0.67772
 Alpha  occ. eigenvalues --   -0.61680  -0.56499  -0.55920  -0.44635  -0.40827
 Alpha virt. eigenvalues --    0.03029   0.04244   0.05053   0.06208   0.06825
 Alpha virt. eigenvalues --    0.09454   0.10734   0.12831   0.12944   0.14562
 Alpha virt. eigenvalues --    0.15247   0.15486   0.16025   0.16947   0.18562

 Mulliken charges:
               1
     1  C    0.450641
     2  C    0.535225
     3  C    0.516622
     4  O   -0.463622
     5  H   -0.150015
     6  H   -0.362458
     7  H   -0.266142
     8  H   -0.260250
 Sum of Mulliken charges =  -0.00000

 Dipole moment (field-independent basis, Debye):
    X=              3.2007    Y=              2.4731    Z=              0.0000  Tot=              4.0448

 Test job not archived.
 1\1\GINC-SE190\SP\RHF\Aug-CC-pVDZ\C3H4O1\OHZDE\05-Apr-2025\0\\#t hf au
 g-cc-pvdz iop(5/13=1,5/36=2,99/5=2) pseudo=read geom=check guess=(read
 ,tcheck) scf=(maxcycle=1)\\title\\0,1\C,0,-0.146975,-0.745307,0.\C,0,0
 .,0.717816,0.\C,0,1.203301,1.287661,0.\O,0,-1.208534,-1.324424,0.\H,0,
 0.808295,-1.308935,0.\H,0,-0.915368,1.29686,0.\H,0,1.332889,2.360924,0
 .\H,0,2.104499,0.685522,0.\\Version=ES64L-G16RevC.01\State=1-A'\HF=-19
 0.8513272\RMSD=5.611e-03\Dipole=1.2592406,0.9729842,0.\Quadrupole=-0.0
 293886,0.3847456,-0.355357,-2.5334759,0.,0.\PG=CS [SG(C3H4O1)]\\@

 Normal termination of Gaussian 16 at Sat Apr  5 22:50:32 2025.
