 Gaussian 16, Revision C.01,

 ----------------------------------------------------------------------
 #t hf aug-cc-pvdz symm=none int=(grid=ultrafine) guess=(read,tcheck) s
 table=(opt,rrhf)
 ----------------------------------------------------------------------
 -----
 title
 -----
 Symbolic Z-matrix:
 Charge =  0 Multiplicity = 1

 SCF Done:  E(RHF) =  -245.861059887     A.U. after   14 cycles
 Normal termination of Gaussian 16 at Sat Apr  5 22:50:34 2025.
 Gaussian 16:  ES64L-G16RevC.01  3-Jul-2019

 ----------------------------------------------------------------------
 #t hf aug-cc-pvdz iop(5/13=1,5/36=2,99/5=2) pseudo=read geom=check gue
 ss=(read,tcheck) scf=(maxcycle=1)
 ----------------------------------------------------------------------
 -----
 title
 -----
 Structure from the checkpoint file:  "acrylamide.chk"
 Charge =  0 Multiplicity = 1

                         Standard orientation:
 ---------------------------------------------------------------------
 Center     Atomic      Atomic             Coordinates (Angstroms)
 Number     Number       Type             X           Y           Z
 ---------------------------------------------------------------------
      1          6           0       -0.802490   -0.641917   -0.000049
      2          6           0        0.476208    0.129519   -0.000019
      3          7           0        1.603597   -0.640957   -0.000091
      4          8           0        0.524695    1.347317   -0.000004
      5          6           0       -1.976832   -0.024715    0.000041
      6          1           0       -0.744777   -1.724573   -0.000141
      7          1           0        2.497946   -0.182204    0.000312
      8          1           0        1.570738   -1.643448    0.000506
      9          1           0       -2.020997    1.056447    0.000120
     10          1           0       -2.906961   -0.575387    0.000032
 ---------------------------------------------------------------------

 SCF Done:  E(RHF) =  -245.939167409     A.U. after    2 cycles

 The electronic state is 1-A.
 Alpha  occ. eigenvalues --  -20.53198 -15.65240 -11.36919 -11.26376 -11.25746
 Alpha  occ. eigenvalues --   -1.34509  -1.18042  -1.06256  -0.87715  -0.77314
 Alpha  occ. eigenvalues --   -0.72141  -0.69928  -0.62753  -0.60459  -0.58523
 Alpha  occ. eigenvalues --   -0.54615  -0.44487  -0.41963  -0.39599
 Alpha virt. eigenvalues --    0.02661   0.03783   0.05025   0.06712   0.07254
 Alpha virt. eigenvalues --    0.07995   0.11273   0.12184   0.12864   0.13687
 Alpha virt. eigenvalues --    0.14123   0.14384   0.15085   0.16543   0.17101

 Mulliken charges:
               1
     1  C    0.811018
     2  C    0.445568
     3  N   -0.135587
     4  O   -0.521445
     5  C    0.410324
     6  H   -0.516338
     7  H   -0.000229
     8  H   -0.026432
     9  H   -0.214801
    10  H   -0.252078
 Sum of Mulliken charges =  -0.00000

 Dipole moment (field-independent basis, Debye):
    X=              0.0037    Y=             -4.0918    Z=              0.0015  Tot=              4.0918

 Test job not archived.
 1\1\GINC-SE232\SP\RHF\Aug-CC-pVDZ\C3H5N1O1\OHZDE\05-Apr-2025\0\\#t hf
 aug-cc-pvdz iop(5/13=1,5/36=2,99/5=2) pseudo=read geom=check guess=(re
 ad,tcheck) scf=(maxcycle=1)\\title\\0,1\C,0,-0.80249,-0.641917,-0.0000
 49\C,0,0.476208,0.129519,-0.000019\N,0,1.603597,-0.640957,-0.000091\O,
 0,0.524695,1.347317,-0.000004\C,0,-1.976832,-0.024715,0.000041\H,0,-0.
 744777,-1.724573,-0.000141\H,0,2.497946,-0.182204,0.000312\H,0,1.57073
 8,-1.643448,0.000506\H,0,-2.020997,1.056447,0.00012\H,0,-2.906961,-0.5
 75387,0.000032\\Version=ES64L-G16RevC.01\State=1-A\HF=-245.9391674\RMS

 Normal termination of Gaussian 16 at Sat Apr  5 22:50:37 2025.
