 Gaussian 16, Revision C.01,

 ----------------------------------------------------------------------
 #t hf aug-cc-pvdz symm=none int=(grid=ultrafine) guess=(read,tcheck) s
 table=(opt,rrhf)
 ----------------------------------------------------------------------
 -----
 title
 -----
 Symbolic Z-matrix:
 Charge =  0 Multiplicity = 1

 SCF Done:  E(RHF) =  -169.788507401     A.U. after   14 cycles
 Normal termination of Gaussian 16 at Sat Apr  5 22:50:31 2025.
 Gaussian 16:  ES64L-G16RevC.01  3-Jul-2019

 ----------------------------------------------------------------------
 #t hf aug-cc-pvdz iop(5/13=1,5/36=2,99/5=2) pseudo=read geom=check gue
 ss=(read,tcheck) scf=(maxcycle=1)
 ----------------------------------------------------------------------
 -----
 title
 -----
 Structure from the checkpoint file:  "acrylonitrile.chk"
 Charge =  0 Multiplicity = 1

                         Standard orientation:
 ---------------------------------------------------------------------
 Center     Atomic      Atomic             Coordinates (Angstroms)
 Number     Number       Type             X           Y           Z
 ---------------------------------------------------------------------
      1          6           0       -0.574872   -0.536672   -0.000000
      2          7           0       -1.065007   -1.579735   -0.000000
      3          6           0        0.000000    0.768522   -0.000000
      4          1           0       -0.704356    1.590862   -0.000000
      5          6           0        1.313391    0.985354    0.000000
      6          1           0        2.024361    0.171397    0.000000
      7          1           0        1.703931    1.992659    0.000000
 ---------------------------------------------------------------------

 SCF Done:  E(RHF) =  -169.840762547     A.U. after    2 cycles

 The electronic state is 1-A'.
 Alpha  occ. eigenvalues --  -15.64593 -11.30345 -11.29451 -11.29389  -1.20141
 Alpha  occ. eigenvalues --   -1.09556  -0.88833  -0.73317  -0.66768  -0.58685
 Alpha  occ. eigenvalues --   -0.54849  -0.52318  -0.47182  -0.40046
 Alpha virt. eigenvalues --    0.02626   0.04215   0.05232   0.06233   0.09513
 Alpha virt. eigenvalues --    0.10705   0.10765   0.13218   0.13412   0.14503
 Alpha virt. eigenvalues --    0.14879   0.15032   0.15893   0.17198   0.19003

 Mulliken charges:
               1
     1  C   -0.611635
     2  N   -0.138099
     3  C    1.007944
     4  H   -0.313234
     5  C    0.528107
     6  H   -0.252837
     7  H   -0.220247
 Sum of Mulliken charges =  -0.00000

 Dipole moment (field-independent basis, Debye):
    X=              2.2186    Y=              3.6430    Z=              0.0000  Tot=              4.2654

 Test job not archived.
 1\1\GINC-SE040\SP\RHF\Aug-CC-pVDZ\C3H3N1\OHZDE\05-Apr-2025\0\\#t hf au
 g-cc-pvdz iop(5/13=1,5/36=2,99/5=2) pseudo=read geom=check guess=(read
 ,tcheck) scf=(maxcycle=1)\\title\\0,1\C,0,-0.574872,-0.536672,0.\N,0,-
 1.065007,-1.579735,0.\C,0,0.,0.768522,0.\H,0,-0.704356,1.590862,0.\C,0
 ,1.313391,0.985354,0.\H,0,2.024361,0.171397,0.\H,0,1.703931,1.992659,0
 .\\Version=ES64L-G16RevC.01\State=1-A'\HF=-169.8407625\RMSD=5.064e-03\
 Dipole=0.8728516,1.4332657,0.\Quadrupole=1.6586204,-1.1085854,-0.55003
 5,-2.0721305,0.,0.\PG=CS [SG(C3H3N1)]\\@

 Normal termination of Gaussian 16 at Sat Apr  5 22:50:34 2025.
