 Gaussian 16, Revision C.01,

 ----------------------------------------------------------------------
 #t hf aug-cc-pvdz symm=none int=(grid=ultrafine) guess=(read,tcheck) s
 table=(opt,rrhf)
 ----------------------------------------------------------------------
 -----
 title
 -----
 Symbolic Z-matrix:
 Charge =  0 Multiplicity = 1

 SCF Done:  E(RHF) =  -265.697307115     A.U. after   14 cycles
 Normal termination of Gaussian 16 at Sat Apr  5 22:50:33 2025.
 Gaussian 16:  ES64L-G16RevC.01  3-Jul-2019

 ----------------------------------------------------------------------
 #t hf aug-cc-pvdz iop(5/13=1,5/36=2,99/5=2) pseudo=read geom=check gue
 ss=(read,tcheck) scf=(maxcycle=1)
 ----------------------------------------------------------------------
 -----
 title
 -----
 Structure from the checkpoint file:  "acrylic_acid.chk"
 Charge =  0 Multiplicity = 1

                         Standard orientation:
 ---------------------------------------------------------------------
 Center     Atomic      Atomic             Coordinates (Angstroms)
 Number     Number       Type             X           Y           Z
 ---------------------------------------------------------------------
      1          6           0        0.434679   -1.920126    0.000000
      2          6           0       -0.444755   -0.925478    0.000000
      3          6           0        0.000000    0.486809    0.000000
      4          8           0        1.141969    0.875860    0.000000
      5          8           0       -1.059533    1.335003    0.000000
      6          1           0        1.497057   -1.715390    0.000000
      7          1           0        0.116438   -2.953067    0.000000
      8          1           0       -1.511645   -1.100215    0.000000
      9          1           0       -0.700884    2.234531    0.000000
 ---------------------------------------------------------------------

 SCF Done:  E(RHF) =  -265.782767502     A.U. after    2 cycles

 The electronic state is 1-A'.
 Alpha  occ. eigenvalues --  -20.62852 -20.56504 -11.40542 -11.27560 -11.26536
 Alpha  occ. eigenvalues --   -1.42713  -1.32868  -1.07936  -0.91403  -0.78382
 Alpha  occ. eigenvalues --   -0.72760  -0.71351  -0.64951  -0.63660  -0.61121
 Alpha  occ. eigenvalues --   -0.55754  -0.51115  -0.47702  -0.40741
 Alpha virt. eigenvalues --    0.03332   0.04135   0.05231   0.06498   0.06759
 Alpha virt. eigenvalues --    0.10673   0.11024   0.12807   0.13156   0.13333
 Alpha virt. eigenvalues --    0.15234   0.15442   0.15931   0.16315   0.19137

 Mulliken charges:
               1
     1  C    0.471372
     2  C    0.770470
     3  C    0.364609
     4  O   -0.469853
     5  O   -0.507123
     6  H   -0.223683
     7  H   -0.261364
     8  H   -0.353978
     9  H    0.209552
 Sum of Mulliken charges =   0.00000

 Dipole moment (field-independent basis, Debye):
    X=             -1.4282    Y=             -1.3206    Z=              0.0000  Tot=              1.9452

 Test job not archived.
 1\1\GINC-SE232\SP\RHF\Aug-CC-pVDZ\C3H4O2\OHZDE\05-Apr-2025\0\\#t hf au
 g-cc-pvdz iop(5/13=1,5/36=2,99/5=2) pseudo=read geom=check guess=(read
 ,tcheck) scf=(maxcycle=1)\\title\\0,1\C,0,0.434679,-1.920126,0.\C,0,-0
 .444755,-0.925478,0.\C,0,0.,0.486809,0.\O,0,1.141969,0.87586,0.\O,0,-1
 .059533,1.335003,0.\H,0,1.497057,-1.71539,0.\H,0,0.116437,-2.953067,0.
 \H,0,-1.511645,-1.100215,0.\H,0,-0.700884,2.234531,0.\\Version=ES64L-G
 16RevC.01\State=1-A'\HF=-265.7827675\RMSD=5.450e-03\Dipole=-0.5619106,
 -0.5195719,0.\Quadrupole=-3.4623445,5.2247678,-1.7624233,-1.982957,0.,

 Normal termination of Gaussian 16 at Sat Apr  5 22:50:36 2025.
