 Gaussian 16, Revision C.01,

 ----------------------------------------------------------------------
 #t hf aug-cc-pvdz symm=none int=(grid=ultrafine) guess=(read,tcheck) s
 table=(opt,rrhf)
 ----------------------------------------------------------------------
 -----
 title
 -----
 Symbolic Z-matrix:
 Charge =  0 Multiplicity = 1

 SCF Done:  E(RHF) =  -388.065171971     A.U. after   11 cycles
 Normal termination of Gaussian 16 at Sat Apr  5 22:55:37 2025.
 Gaussian 16:  ES64L-G16RevC.01  3-Jul-2019

 ----------------------------------------------------------------------
 #t hf aug-cc-pvdz iop(5/13=1,5/36=2,99/5=2) pseudo=read geom=check gue
 ss=(read,tcheck) scf=(maxcycle=1)
 ----------------------------------------------------------------------
 -----
 title
 -----
 Structure from the checkpoint file:  "adamantane.chk"
 Charge =  0 Multiplicity = 1

                         Standard orientation:
 ---------------------------------------------------------------------
 Center     Atomic      Atomic             Coordinates (Angstroms)
 Number     Number       Type             X           Y           Z
 ---------------------------------------------------------------------
      1          6           0       -0.889735    0.889735    0.889735
      2          6           0        0.000000    0.000000    1.775473
      3          6           0        0.000000    1.775473   -0.000000
      4          6           0        0.889735   -0.889735    0.889735
      5          6           0       -1.775473    0.000000   -0.000000
      6          6           0       -0.889735   -0.889735   -0.889735
      7          6           0       -0.000000   -1.775473    0.000000
      8          6           0        0.889735    0.889735   -0.889735
      9          6           0        0.000000   -0.000000   -1.775473
     10          6           0        1.775473   -0.000000    0.000000
     11          1           0        1.520690   -1.520690    1.520690
     12          1           0       -1.520690   -1.520690   -1.520690
     13          1           0       -1.520690    1.520690    1.520690
     14          1           0        2.427208   -0.621055   -0.621055
     15          1           0        1.520690    1.520690   -1.520690
     16          1           0       -2.427208    0.621055   -0.621055
     17          1           0        0.621055   -0.621055   -2.427208
     18          1           0        2.427208    0.621055    0.621055
     19          1           0        0.621055   -2.427208   -0.621055
     20          1           0        0.621055    2.427208    0.621055
     21          1           0       -0.621055   -2.427208    0.621055
     22          1           0        0.621055    0.621055    2.427208
     23          1           0       -0.621055    0.621055   -2.427208
     24          1           0       -0.621055    2.427208   -0.621055
     25          1           0       -2.427208   -0.621055    0.621055
     26          1           0       -0.621055   -0.621055    2.427208
 ---------------------------------------------------------------------

 SCF Done:  E(RHF) =  -388.175832784     A.U. after    2 cycles

 The electronic state is 1-A1.
 Alpha  occ. eigenvalues --  -11.22349 -11.22349 -11.22349 -11.22337 -11.21665
 Alpha  occ. eigenvalues --  -11.21665 -11.21662 -11.21662 -11.21662 -11.21635
 Alpha  occ. eigenvalues --   -1.14784  -1.02440  -1.02440  -1.02440  -0.90028
 Alpha  occ. eigenvalues --   -0.90028  -0.79131  -0.79131  -0.79131  -0.70416
 Alpha  occ. eigenvalues --   -0.63408  -0.61358  -0.61358  -0.61358  -0.55720
 Alpha  occ. eigenvalues --   -0.55720  -0.55720  -0.54067  -0.54067  -0.54067
 Alpha  occ. eigenvalues --   -0.46217  -0.46217  -0.45837  -0.45837  -0.45837
 Alpha  occ. eigenvalues --   -0.40316  -0.40316  -0.40316
 Alpha virt. eigenvalues --    0.03245   0.04191   0.04191   0.04191   0.05943
 Alpha virt. eigenvalues --    0.05943   0.05943   0.06012   0.06012   0.08609
 Alpha virt. eigenvalues --    0.08721   0.08721   0.08721   0.08963   0.08963

 Mulliken charges:
               1
     1  C   -0.673866
     2  C    0.869207
     3  C    0.869207
     4  C   -0.673866
     5  C    0.869207
     6  C   -0.673866
     7  C    0.869207
     8  C   -0.673866
     9  C    0.869207
    10  C    0.869207
    11  H   -0.206030
    12  H   -0.206030
    13  H   -0.206030
    14  H   -0.141305
    15  H   -0.206030
    16  H   -0.141305
    17  H   -0.141305
    18  H   -0.141305
    19  H   -0.141305
    20  H   -0.141305
    21  H   -0.141305
    22  H   -0.141305
    23  H   -0.141305
    24  H   -0.141305
    25  H   -0.141305
    26  H   -0.141305
 Sum of Mulliken charges =  -0.00000

 Dipole moment (field-independent basis, Debye):
    X=             -0.0000    Y=             -0.0000    Z=              0.0000  Tot=              0.0000

 Test job not archived.
 1\1\GINC-SE175\SP\RHF\Aug-CC-pVDZ\C10H16\OHZDE\05-Apr-2025\0\\#t hf au
 g-cc-pvdz iop(5/13=1,5/36=2,99/5=2) pseudo=read geom=check guess=(read
 ,tcheck) scf=(maxcycle=1)\\title\\0,1\C,0,-0.889735,0.889735,0.889735\
 C,0,0.,0.,1.775473\C,0,0.,1.775473,0.\C,0,0.889735,-0.889735,0.889735\
 C,0,-1.775473,0.,0.\C,0,-0.889735,-0.889735,-0.889735\C,0,0.,-1.775473
 ,0.\C,0,0.889735,0.889735,-0.889735\C,0,0.,0.,-1.775473\C,0,1.775473,0
 .,0.\H,0,1.52069,-1.52069,1.52069\H,0,-1.52069,-1.52069,-1.52069\H,0,-
 1.52069,1.52069,1.52069\H,0,2.427208,-0.621055,-0.621055\H,0,1.52069,1

 Normal termination of Gaussian 16 at Sat Apr  5 22:55:58 2025.
