 Gaussian 16, Revision C.01,

 ----------------------------------------------------------------------
 #t hf aug-cc-pvdz symm=none int=(grid=ultrafine) guess=(read,tcheck) s
 table=(opt,rrhf)
 ----------------------------------------------------------------------
 -----
 title
 -----
 Symbolic Z-matrix:
 Charge =  0 Multiplicity = 1

 SCF Done:  E(RHF) =  -321.912949170     A.U. after   14 cycles
 Normal termination of Gaussian 16 at Sat Apr  5 22:50:48 2025.
 Gaussian 16:  ES64L-G16RevC.01  3-Jul-2019

 ----------------------------------------------------------------------
 #t hf aug-cc-pvdz iop(5/13=1,5/36=2,99/5=2) pseudo=read geom=check gue
 ss=(read,tcheck) scf=(maxcycle=1)
 ----------------------------------------------------------------------
 -----
 title
 -----
 Structure from the checkpoint file:  "alanine.chk"
 Charge =  0 Multiplicity = 1

                         Standard orientation:
 ---------------------------------------------------------------------
 Center     Atomic      Atomic             Coordinates (Angstroms)
 Number     Number       Type             X           Y           Z
 ---------------------------------------------------------------------
      1          1           0       -2.372022    1.258779   -0.041328
      2          8           0        1.579853    0.982519    0.090040
      3          1           0        1.029092    1.754950    0.261797
      4          6           0        0.826544   -0.141556    0.027243
      5          8           0        1.341664   -1.193160   -0.229770
      6          6           0       -0.660281    0.015379    0.360045
      7          1           0       -0.675584    0.146310    1.454547
      8          6           0       -1.307277    1.254476   -0.272188
      9          1           0       -0.900543    2.193255    0.114105
     10          1           0       -1.199468    1.234270   -1.355735
     11          1           0       -2.167312   -1.374487    0.506707
     12          1           0       -0.734896   -1.985047   -0.035084
     13          7           0       -1.357902   -1.187528   -0.068252
 ---------------------------------------------------------------------

 SCF Done:  E(RHF) =  -322.014741246     A.U. after    2 cycles

 The electronic state is 1-A.
 Alpha  occ. eigenvalues --  -20.63126 -20.56604 -15.61667 -11.40255 -11.30499
 Alpha  occ. eigenvalues --  -11.25648  -1.42725  -1.33818  -1.17568  -1.01918
 Alpha  occ. eigenvalues --   -0.90776  -0.83787  -0.74262  -0.69357  -0.67759
 Alpha  occ. eigenvalues --   -0.65807  -0.62650  -0.58697  -0.57145  -0.55346
 Alpha  occ. eigenvalues --   -0.54469  -0.50231  -0.46633  -0.40150
 Alpha virt. eigenvalues --    0.02489   0.03864   0.04359   0.05282   0.06642
 Alpha virt. eigenvalues --    0.07260   0.08264   0.11119   0.11451   0.12299
 Alpha virt. eigenvalues --    0.14066   0.14166   0.14685   0.15390   0.16394

 Mulliken charges:
               1
     1  H   -0.072898
     2  O   -0.502986
     3  H    0.178655
     4  C    0.727628
     5  O   -0.450030
     6  C   -0.224004
     7  H    0.045624
     8  C    0.638167
     9  H   -0.076303
    10  H   -0.026321
    11  H    0.001833
    12  H    0.041930
    13  N   -0.281296
 Sum of Mulliken charges =  -0.00000

 Dipole moment (field-independent basis, Debye):
    X=             -3.4147    Y=              2.9084    Z=              2.1615  Tot=              4.9791

 Test job not archived.
 1\1\GINC-SE176\SP\RHF\Aug-CC-pVDZ\C3H7N1O2\OHZDE\05-Apr-2025\0\\#t hf
 aug-cc-pvdz iop(5/13=1,5/36=2,99/5=2) pseudo=read geom=check guess=(re
 ad,tcheck) scf=(maxcycle=1)\\title\\0,1\H,0,-2.372022,1.258779,-0.0413
 28\O,0,1.579853,0.982519,0.09004\H,0,1.029092,1.75495,0.261797\C,0,0.8
 26544,-0.141556,0.027243\O,0,1.341664,-1.19316,-0.22977\C,0,-0.660281,
 0.015379,0.360045\H,0,-0.675584,0.14631,1.454547\C,0,-1.307277,1.25447
 6,-0.272188\H,0,-0.900542,2.193255,0.114105\H,0,-1.199468,1.23427,-1.3
 55735\H,0,-2.167312,-1.374487,0.506707\H,0,-0.734896,-1.985047,-0.0350

 Normal termination of Gaussian 16 at Sat Apr  5 22:50:51 2025.
