 Gaussian 16, Revision C.01,

 ----------------------------------------------------------------------
 #t hf aug-cc-pvdz symm=none int=(grid=ultrafine) guess=(read,tcheck) s
 table=(opt,rrhf)
 ----------------------------------------------------------------------
 -----
 title
 -----
 Symbolic Z-matrix:
 Charge =  0 Multiplicity = 1

 SCF Done:  E(RHF) =  -115.876845096     A.U. after   11 cycles
 Normal termination of Gaussian 16 at Sat Apr  5 22:50:30 2025.
 Gaussian 16:  ES64L-G16RevC.01  3-Jul-2019

 ----------------------------------------------------------------------
 #t hf aug-cc-pvdz iop(5/13=1,5/36=2,99/5=2) pseudo=read geom=check gue
 ss=(read,tcheck) scf=(maxcycle=1)
 ----------------------------------------------------------------------
 -----
 title
 -----
 Structure from the checkpoint file:  "allene.chk"
 Charge =  0 Multiplicity = 1

                         Standard orientation:
 ---------------------------------------------------------------------
 Center     Atomic      Atomic             Coordinates (Angstroms)
 Number     Number       Type             X           Y           Z
 ---------------------------------------------------------------------
      1          6           0        0.000000    0.000000    0.000000
      2          6           0        0.000000    0.000000    1.299944
      3          6           0        0.000000    0.000000   -1.299944
      4          1           0        0.000000    0.925401    1.862995
      5          1           0       -0.000000   -0.925401    1.862995
      6          1           0        0.925401   -0.000000   -1.862995
      7          1           0       -0.925401    0.000000   -1.862995
 ---------------------------------------------------------------------

 SCF Done:  E(RHF) =  -115.915890478     A.U. after    2 cycles

 The electronic state is 1-A1.
 Alpha  occ. eigenvalues --  -11.27345 -11.24825 -11.24766  -1.07028  -0.95923
 Alpha  occ. eigenvalues --   -0.71896  -0.63522  -0.61211  -0.61211  -0.38257
 Alpha  occ. eigenvalues --   -0.38257
 Alpha virt. eigenvalues --    0.03677   0.04729   0.05440   0.05440   0.09504
 Alpha virt. eigenvalues --    0.11092   0.11092   0.11698   0.16176   0.16176
 Alpha virt. eigenvalues --    0.16220   0.17132   0.18517   0.18517   0.21391

 Mulliken charges:
               1
     1  C   -0.633287
     2  C    0.723508
     3  C    0.723508
     4  H   -0.203432
     5  H   -0.203432
     6  H   -0.203432
     7  H   -0.203432
 Sum of Mulliken charges =  -0.00000

 Dipole moment (field-independent basis, Debye):
    X=              0.0000    Y=             -0.0000    Z=              0.0000  Tot=              0.0000

 Test job not archived.
 1\1\GINC-SE176\SP\RHF\Aug-CC-pVDZ\C3H4\OHZDE\05-Apr-2025\0\\#t hf aug-
 cc-pvdz iop(5/13=1,5/36=2,99/5=2) pseudo=read geom=check guess=(read,t
 check) scf=(maxcycle=1)\\title\\0,1\C,0,0.,0.,0.\C,0,0.,0.,1.299944\C,
 0,0.,0.,-1.299944\H,0,0.,0.925401,1.862995\H,0,0.,-0.925401,1.862995\H
 ,0,0.925401,0.,-1.862995\H,0,-0.925401,0.,-1.862995\\Version=ES64L-G16
 RevC.01\State=1-A1\HF=-115.9158905\RMSD=7.145e-03\Dipole=0.,0.,0.\Quad
 rupole=-1.0794427,-1.0794427,2.1588854,0.,0.,0.\PG=D02D [O(C1),C2(C1.C
 1),2SGD(H2)]\\@

 Normal termination of Gaussian 16 at Sat Apr  5 22:50:32 2025.
