 Gaussian 16, Revision C.01,

 ----------------------------------------------------------------------
 #t hf aug-cc-pvdz symm=none int=(grid=ultrafine) guess=(read,tcheck) s
 table=(opt,rrhf)
 ----------------------------------------------------------------------
 -----
 title
 -----
 Symbolic Z-matrix:
 Charge =  0 Multiplicity = 1

 SCF Done:  E(RHF) =  -569.545676700     A.U. after   12 cycles

 1\1\GINC-SE198\Stability\RHF\Aug-CC-pVDZ\C5H10O5\OHZDE\05-Apr-2025\0\\
 #t hf aug-cc-pvdz symm=none int=(grid=ultrafine) guess=(read,tcheck) s
 table=(opt,rrhf)\\title\\0,1\C,0,-0.379463,-0.952795,0.667838\C,0,-1.2
 16504,-0.612725,-0.585325\C,0,0.778841,0.063866,0.600579\C,0,-0.988784
 ,0.890637,-0.69343\C,0,2.095188,-0.498544,0.089983\O,0,0.349765,1.1013
 51,-0.325741\O,0,-1.140863,-0.858323,1.860672\O,0,-0.69921,-1.200894,-
 1.77128\O,0,-1.886143,1.504898,0.226296\O,0,3.091379,0.506028,-0.02303
 8\H,0,-0.014736,-1.978871,0.624883\H,0,-2.268903,-0.855465,-0.435326\H

 Normal termination of Gaussian 16 at Sat Apr  5 22:52:09 2025.
 Gaussian 16:  ES64L-G16RevC.01  3-Jul-2019

 ----------------------------------------------------------------------
 #t hf aug-cc-pvdz iop(5/13=1,5/36=2,99/5=2) pseudo=read geom=check gue
 ss=(read,tcheck) scf=(maxcycle=1)
 ----------------------------------------------------------------------
 -----
 title
 -----
 Structure from the checkpoint file:  "alpha-l-arabinofuranose.chk"
 Charge =  0 Multiplicity = 1

                         Standard orientation:
 ---------------------------------------------------------------------
 Center     Atomic      Atomic             Coordinates (Angstroms)
 Number     Number       Type             X           Y           Z
 ---------------------------------------------------------------------
      1          6           0       -0.379463   -0.952795    0.667838
      2          6           0       -1.216504   -0.612725   -0.585325
      3          6           0        0.778841    0.063866    0.600579
      4          6           0       -0.988784    0.890637   -0.693430
      5          6           0        2.095188   -0.498544    0.089983
      6          8           0        0.349765    1.101351   -0.325741
      7          8           0       -1.140863   -0.858323    1.860672
      8          8           0       -0.699210   -1.200894   -1.771280
      9          8           0       -1.886143    1.504898    0.226296
     10          8           0        3.091379    0.506028   -0.023038
     11          1           0       -0.014736   -1.978871    0.624883
     12          1           0       -2.268903   -0.855465   -0.435326
     13          1           0        0.930469    0.517790    1.580985
     14          1           0       -1.123910    1.287185   -1.699521
     15          1           0        1.930774   -0.998818   -0.869860
     16          1           0        2.475020   -1.231156    0.803418
     17          1           0       -1.576805    0.003890    1.866101
     18          1           0       -0.895993   -2.142073   -1.764060
     19          1           0       -1.658150    2.439069    0.286412
     20          1           0        2.747131    1.191335   -0.606172
 ---------------------------------------------------------------------

 SCF Done:  E(RHF) =  -569.720717119     A.U. after    2 cycles

 The electronic state is 1-A.
 Alpha  occ. eigenvalues --  -20.60161 -20.59778 -20.59154 -20.58052 -20.56926
 Alpha  occ. eigenvalues --  -11.36137 -11.31005 -11.30818 -11.29905 -11.28852
 Alpha  occ. eigenvalues --   -1.40019  -1.34699  -1.33185  -1.32786  -1.30987
 Alpha  occ. eigenvalues --   -1.04866  -1.02495  -0.91498  -0.84638  -0.82567
 Alpha  occ. eigenvalues --   -0.76977  -0.74895  -0.72216  -0.70333  -0.66961
 Alpha  occ. eigenvalues --   -0.65857  -0.63880  -0.63201  -0.62435  -0.59965
 Alpha  occ. eigenvalues --   -0.58436  -0.57376  -0.54952  -0.53161  -0.53133
 Alpha  occ. eigenvalues --   -0.50120  -0.48975  -0.48042  -0.44923  -0.43729
 Alpha virt. eigenvalues --    0.03114   0.03574   0.04650   0.04886   0.05889
 Alpha virt. eigenvalues --    0.05920   0.06639   0.06937   0.07231   0.09083
 Alpha virt. eigenvalues --    0.11772   0.12102   0.12468   0.12887   0.13965

 Mulliken charges:
               1
     1  C    0.269286
     2  C    0.527765
     3  C    0.470987
     4  C    1.094669
     5  C    0.983202
     6  O   -0.847068
     7  O   -0.564875
     8  O   -0.626662
     9  O   -0.560759
    10  O   -0.566414
    11  H   -0.207097
    12  H   -0.090853
    13  H   -0.225730
    14  H   -0.196943
    15  H   -0.051790
    16  H   -0.076276
    17  H    0.166577
    18  H    0.176894
    19  H    0.160612
    20  H    0.164474
 Sum of Mulliken charges =  -0.00000

 Dipole moment (field-independent basis, Debye):
    X=             -2.1424    Y=             -0.1814    Z=             -1.1949  Tot=              2.4598

 Test job not archived.
 1\1\GINC-SE198\SP\RHF\Aug-CC-pVDZ\C5H10O5\OHZDE\05-Apr-2025\0\\#t hf a
 ug-cc-pvdz iop(5/13=1,5/36=2,99/5=2) pseudo=read geom=check guess=(rea
 d,tcheck) scf=(maxcycle=1)\\title\\0,1\C,0,-0.379463,-0.952795,0.66783
 8\C,0,-1.216504,-0.612725,-0.585325\C,0,0.778841,0.063866,0.600579\C,0
 ,-0.988784,0.890637,-0.69343\C,0,2.095188,-0.498544,0.089983\O,0,0.349
 765,1.101351,-0.325741\O,0,-1.140863,-0.858323,1.860672\O,0,-0.69921,-
 1.200894,-1.77128\O,0,-1.886143,1.504898,0.226296\O,0,3.091379,0.50602
 8,-0.023038\H,0,-0.014736,-1.978871,0.624883\H,0,-2.268903,-0.855465,-

 Normal termination of Gaussian 16 at Sat Apr  5 22:52:55 2025.
