 Gaussian 16, Revision C.01,

 ----------------------------------------------------------------------
 #t hf aug-cc-pvdz symm=none int=(grid=ultrafine) guess=(read,tcheck) s
 table=(opt,rrhf)
 ----------------------------------------------------------------------
 -----
 title
 -----
 Symbolic Z-matrix:
 Charge =  0 Multiplicity = 1

 SCF Done:  E(RHF) =  -584.497484942     A.U. after   14 cycles
 Normal termination of Gaussian 16 at Sat Apr  5 22:50:33 2025.
 Gaussian 16:  ES64L-G16RevC.01  3-Jul-2019

 ----------------------------------------------------------------------
 #t hf aug-cc-pvdz iop(5/13=1,5/36=2,99/5=2) pseudo=read geom=check gue
 ss=(read,tcheck) scf=(maxcycle=1)
 ----------------------------------------------------------------------
 -----
 title
 -----
 Structure from the checkpoint file:  "aminoethylthiocyanate.chk"
 Charge =  0 Multiplicity = 1

                         Standard orientation:
 ---------------------------------------------------------------------
 Center     Atomic      Atomic             Coordinates (Angstroms)
 Number     Number       Type             X           Y           Z
 ---------------------------------------------------------------------
      1         16           0       -0.154598    0.797920   -0.000126
      2          7           0       -2.619333   -0.626920    0.000187
      3          7           0        2.422422   -0.270399    0.000050
      4          6           0       -1.619108   -0.044584    0.000062
      5          6           0        1.077109   -0.690019   -0.000032
      6          1           0        2.715554    0.220385    0.831850
      7          1           0        2.715654    0.220307   -0.831658
      8          1           0        0.836423   -1.259219   -0.891167
      9          1           0        0.836311   -1.259342    0.891152
 ---------------------------------------------------------------------

 SCF Done:  E(RHF) =  -584.574496859     A.U. after    2 cycles

 The electronic state is 1-A.
 Alpha  occ. eigenvalues --  -93.58447 -15.65800 -15.64586 -11.34673 -11.30689
 Alpha  occ. eigenvalues --   -8.88196  -6.22409  -6.22056  -6.21739  -1.21214
 Alpha  occ. eigenvalues --   -1.19614  -1.03737  -0.90929  -0.73638  -0.67599
 Alpha  occ. eigenvalues --   -0.65704  -0.59464  -0.56196  -0.53158  -0.51485
 Alpha  occ. eigenvalues --   -0.47995  -0.39989  -0.37715
 Alpha virt. eigenvalues --    0.02586   0.03998   0.04344   0.07035   0.07596
 Alpha virt. eigenvalues --    0.08810   0.10396   0.11518   0.12468   0.13090
 Alpha virt. eigenvalues --    0.14011   0.14933   0.16324   0.16586   0.16701

 Mulliken charges:
               1
     1  S    0.602118
     2  N   -0.183484
     3  N   -0.255414
     4  C   -0.429022
     5  C    0.485690
     6  H    0.019076
     7  H    0.018923
     8  H   -0.129092
     9  H   -0.128795
 Sum of Mulliken charges =  -0.00000

 Dipole moment (field-independent basis, Debye):
    X=              4.7781    Y=              0.8098    Z=             -0.0003  Tot=              4.8462

 Test job not archived.
 1\1\GINC-SE225\SP\RHF\Aug-CC-pVDZ\C2H4N2S1\OHZDE\05-Apr-2025\0\\#t hf
 aug-cc-pvdz iop(5/13=1,5/36=2,99/5=2) pseudo=read geom=check guess=(re
 ad,tcheck) scf=(maxcycle=1)\\title\\0,1\S,0,-0.154598,0.79792,-0.00012
 6\N,0,-2.619333,-0.62692,0.000187\N,0,2.422422,-0.270399,0.00005\C,0,-
 1.619108,-0.044584,0.000062\C,0,1.077109,-0.690019,-0.000032\H,0,2.715
 554,0.220385,0.83185\H,0,2.715654,0.220307,-0.831658\H,0,0.836423,-1.2
 59219,-0.891167\H,0,0.836311,-1.259342,0.891152\\Version=ES64L-G16RevC
 .01\State=1-A\HF=-584.5744969\RMSD=3.995e-03\Dipole=1.8798416,0.318581

 Normal termination of Gaussian 16 at Sat Apr  5 22:50:36 2025.
