 Gaussian 16, Revision C.01,

 ----------------------------------------------------------------------
 #t hf aug-cc-pvdz symm=none int=(grid=ultrafine) guess=(read,tcheck) s
 table=(opt,rrhf)
 ----------------------------------------------------------------------
 -----
 title
 -----
 Symbolic Z-matrix:
 Charge =  0 Multiplicity = 1

 SCF Done:  E(RHF) =  -206.726900337     A.U. after   13 cycles
 Normal termination of Gaussian 16 at Sat Apr  5 22:50:29 2025.
 Gaussian 16:  ES64L-G16RevC.01  3-Jul-2019

 ----------------------------------------------------------------------
 #t hf aug-cc-pvdz iop(5/13=1,5/36=2,99/5=2) pseudo=read geom=check gue
 ss=(read,tcheck) scf=(maxcycle=1)
 ----------------------------------------------------------------------
 -----
 title
 -----
 Structure from the checkpoint file:  "aminoethynol.chk"
 Charge =  0 Multiplicity = 1

                         Standard orientation:
 ---------------------------------------------------------------------
 Center     Atomic      Atomic             Coordinates (Angstroms)
 Number     Number       Type             X           Y           Z
 ---------------------------------------------------------------------
      1          8           0       -1.938443    0.000039   -0.123358
      2          7           0        1.923699    0.000027    0.086116
      3          6           0        0.571151   -0.000066   -0.003646
      4          6           0       -0.628026   -0.000043    0.028755
      5          1           0        2.378420    0.835039   -0.252203
      6          1           0        2.378550   -0.834876   -0.252294
      7          1           0       -2.374067   -0.000010    0.737900
 ---------------------------------------------------------------------

 SCF Done:  E(RHF) =  -206.795352745     A.U. after    2 cycles

 The electronic state is 1-A.
 Alpha  occ. eigenvalues --  -20.63414 -15.64968 -11.28349 -11.26107  -1.38843
 Alpha  occ. eigenvalues --   -1.18389  -0.99320  -0.81356  -0.71918  -0.69403
 Alpha  occ. eigenvalues --   -0.66816  -0.61849  -0.51123  -0.36767  -0.33634
 Alpha virt. eigenvalues --    0.03113   0.03731   0.05390   0.10711   0.12306
 Alpha virt. eigenvalues --    0.12440   0.12604   0.13435   0.15342   0.17207
 Alpha virt. eigenvalues --    0.18517   0.20332   0.21117   0.24025   0.25517

 Mulliken charges:
               1
     1  O   -0.294811
     2  N   -0.123563
     3  C    0.187691
     4  C   -0.007870
     5  H    0.033628
     6  H    0.033660
     7  H    0.171265
 Sum of Mulliken charges =  -0.00000

 Dipole moment (field-independent basis, Debye):
    X=              0.8330    Y=              0.0001    Z=              0.4754  Tot=              0.9591

 Test job not archived.
 1\1\GINC-SE225\SP\RHF\Aug-CC-pVDZ\C2H3N1O1\OHZDE\05-Apr-2025\0\\#t hf
 aug-cc-pvdz iop(5/13=1,5/36=2,99/5=2) pseudo=read geom=check guess=(re
 ad,tcheck) scf=(maxcycle=1)\\title\\0,1\O,0,-1.938443,0.000039,-0.1233
 58\N,0,1.923699,0.000027,0.086116\C,0,0.571151,-0.000066,-0.003646\C,0
 ,-0.628026,-0.000043,0.028755\H,0,2.37842,0.835039,-0.252203\H,0,2.378
 55,-0.834876,-0.252294\H,0,-2.374067,-0.00001,0.7379\\Version=ES64L-G1
 6RevC.01\State=1-A\HF=-206.7953527\RMSD=6.169e-03\Dipole=0.327717,0.00
 00547,0.187037\Quadrupole=3.8301039,-1.2826257,-2.5474782,0.0003507,-5

 Normal termination of Gaussian 16 at Sat Apr  5 22:50:32 2025.
