 Gaussian 16, Revision C.01,

 ----------------------------------------------------------------------
 #t hf aug-cc-pvdz symm=none int=(grid=ultrafine) guess=(read,tcheck) s
 table=(opt,rrhf)
 ----------------------------------------------------------------------
 -----
 title
 -----
 Symbolic Z-matrix:
 Charge =  0 Multiplicity = 1

 SCF Done:  E(RHF) =  -285.770885018     A.U. after   15 cycles
 Normal termination of Gaussian 16 at Sat Apr  5 22:50:55 2025.
 Gaussian 16:  ES64L-G16RevC.01  3-Jul-2019

 ----------------------------------------------------------------------
 #t hf aug-cc-pvdz iop(5/13=1,5/36=2,99/5=2) pseudo=read geom=check gue
 ss=(read,tcheck) scf=(maxcycle=1)
 ----------------------------------------------------------------------
 -----
 title
 -----
 Structure from the checkpoint file:  "aniline.chk"
 Charge =  0 Multiplicity = 1

                         Standard orientation:
 ---------------------------------------------------------------------
 Center     Atomic      Atomic             Coordinates (Angstroms)
 Number     Number       Type             X           Y           Z
 ---------------------------------------------------------------------
      1          6           0       -0.003357   -1.874982   -0.000000
      2          6           0       -0.003231   -1.167816    1.197776
      3          6           0       -0.003231   -1.167816   -1.197776
      4          6           0       -0.003231    0.219824    1.202965
      5          6           0       -0.003231    0.219824   -1.202965
      6          6           0       -0.002373    0.934694    0.000000
      7          7           0       -0.059398    2.328540    0.000000
      8          1           0       -0.002994   -2.955765   -0.000000
      9          1           0       -0.002518   -1.699840    2.140057
     10          1           0       -0.002518   -1.699840   -2.140057
     11          1           0       -0.008370    0.757854    2.143040
     12          1           0       -0.008370    0.757854   -2.143040
     13          1           0        0.276236    2.778796   -0.835682
     14          1           0        0.276236    2.778796    0.835682
 ---------------------------------------------------------------------

 SCF Done:  E(RHF) =  -285.856650623     A.U. after    2 cycles

 The electronic state is 1-A'.
 Alpha  occ. eigenvalues --  -15.63009 -11.28808 -11.24327 -11.24322 -11.23173
 Alpha  occ. eigenvalues --  -11.23173 -11.22697  -1.19718  -1.11526  -1.00741
 Alpha  occ. eigenvalues --   -0.98001  -0.83404  -0.81502  -0.71016  -0.68810
 Alpha  occ. eigenvalues --   -0.65762  -0.60251  -0.59789  -0.58631  -0.53551
 Alpha  occ. eigenvalues --   -0.51077  -0.49190  -0.44718  -0.34004  -0.29498
 Alpha virt. eigenvalues --    0.03245   0.03888   0.04044   0.05671   0.05759
 Alpha virt. eigenvalues --    0.07620   0.08935   0.10885   0.11064   0.12553
 Alpha virt. eigenvalues --    0.13238   0.13922   0.14061   0.14545   0.14707

 Mulliken charges:
               1
     1  C    0.385075
     2  C    0.491209
     3  C    0.491209
     4  C    0.576447
     5  C    0.576447
     6  C    0.318372
     7  N   -0.293822
     8  H   -0.456300
     9  H   -0.437753
    10  H   -0.437753
    11  H   -0.560063
    12  H   -0.560063
    13  H   -0.046503
    14  H   -0.046503
 Sum of Mulliken charges =   0.00000

 Dipole moment (field-independent basis, Debye):
    X=              0.9627    Y=              1.1369    Z=              0.0000  Tot=              1.4898

 Test job not archived.
 1\1\GINC-SE046\SP\RHF\Aug-CC-pVDZ\C6H7N1\OHZDE\05-Apr-2025\0\\#t hf au
 g-cc-pvdz iop(5/13=1,5/36=2,99/5=2) pseudo=read geom=check guess=(read
 ,tcheck) scf=(maxcycle=1)\\title\\0,1\C,0,-0.003357,-1.874982,0.\C,0,-
 0.003231,-1.167816,1.197776\C,0,-0.003231,-1.167816,-1.197776\C,0,-0.0
 03231,0.219824,1.202965\C,0,-0.003231,0.219824,-1.202965\C,0,-0.002373
 ,0.934694,0.\N,0,-0.059398,2.32854,0.\H,0,-0.002994,-2.955765,0.\H,0,-
 0.002518,-1.69984,2.140057\H,0,-0.002518,-1.69984,-2.140057\H,0,-0.008
 37,0.757854,2.14304\H,0,-0.00837,0.757854,-2.14304\H,0,0.276236,2.7787

 Normal termination of Gaussian 16 at Sat Apr  5 22:51:30 2025.
