 Gaussian 16, Revision C.01,

 ----------------------------------------------------------------------
 #t hf aug-cc-pvdz symm=none int=(grid=ultrafine) guess=(read,tcheck) s
 table=(opt,rrhf)
 ----------------------------------------------------------------------
 -----
 title
 -----
 Symbolic Z-matrix:
 Charge =  0 Multiplicity = 1

 SCF Done:  E(RHF) =  -344.623736527     A.U. after   15 cycles
 Normal termination of Gaussian 16 at Sat Apr  5 22:51:14 2025.
 Gaussian 16:  ES64L-G16RevC.01  3-Jul-2019

 ----------------------------------------------------------------------
 #t hf aug-cc-pvdz iop(5/13=1,5/36=2,99/5=2) pseudo=read geom=check gue
 ss=(read,tcheck) scf=(maxcycle=1)
 ----------------------------------------------------------------------
 -----
 title
 -----
 Structure from the checkpoint file:  "anisole.chk"
 Charge =  0 Multiplicity = 1

                         Standard orientation:
 ---------------------------------------------------------------------
 Center     Atomic      Atomic             Coordinates (Angstroms)
 Number     Number       Type             X           Y           Z
 ---------------------------------------------------------------------
      1          6           0        0.893738   -2.119560    0.000000
      2          6           0       -0.463564   -1.836161    0.000000
      3          6           0        1.807314   -1.066569    0.000000
      4          6           0       -0.921006   -0.519558    0.000000
      5          6           0        1.369118    0.246605    0.000000
      6          6           0        0.000000    0.526996    0.000000
      7          6           0       -1.709890    2.199611    0.000000
      8          8           0       -0.335558    1.848902    0.000000
      9          1           0        1.239334   -3.143772    0.000000
     10          1           0       -1.185110   -2.642410    0.000000
     11          1           0        2.869659   -1.271259    0.000000
     12          1           0       -1.982692   -0.326351    0.000000
     13          1           0        2.067189    1.072124    0.000000
     14          1           0       -2.218233    1.823281    0.891490
     15          1           0       -2.218233    1.823281   -0.891490
     16          1           0       -1.741707    3.285711    0.000000
 ---------------------------------------------------------------------

 SCF Done:  E(RHF) =  -344.730882470     A.U. after    2 cycles

 The electronic state is 1-A'.
 Alpha  occ. eigenvalues --  -20.59824 -11.31003 -11.29612 -11.24767 -11.24629
 Alpha  occ. eigenvalues --  -11.23895 -11.23487 -11.23379  -1.36867  -1.13965
 Alpha  occ. eigenvalues --   -1.02033  -1.01094  -0.94196  -0.83598  -0.81119
 Alpha  occ. eigenvalues --   -0.73026  -0.67245  -0.67031  -0.66591  -0.62376
 Alpha  occ. eigenvalues --   -0.59549  -0.58456  -0.53230  -0.53181  -0.51862
 Alpha  occ. eigenvalues --   -0.48787  -0.47638  -0.34374  -0.31733
 Alpha virt. eigenvalues --    0.03362   0.03990   0.04226   0.05537   0.05864
 Alpha virt. eigenvalues --    0.05872   0.07270   0.08946   0.10134   0.10656
 Alpha virt. eigenvalues --    0.12057   0.13182   0.13396   0.13735   0.14147

 Mulliken charges:
               1
     1  C    0.380674
     2  C    0.591824
     3  C    0.714112
     4  C    0.287685
     5  C    0.288660
     6  C    0.675697
     7  C    0.842091
     8  O   -0.701208
     9  H   -0.447992
    10  H   -0.448063
    11  H   -0.436200
    12  H   -0.730542
    13  H   -0.523670
    14  H   -0.091684
    15  H   -0.091684
    16  H   -0.309699
 Sum of Mulliken charges =  -0.00000

 Dipole moment (field-independent basis, Debye):
    X=             -1.4035    Y=             -0.1303    Z=             -0.0000  Tot=              1.4095

 Test job not archived.
 1\1\GINC-SE047\SP\RHF\Aug-CC-pVDZ\C7H8O1\OHZDE\05-Apr-2025\0\\#t hf au
 g-cc-pvdz iop(5/13=1,5/36=2,99/5=2) pseudo=read geom=check guess=(read
 ,tcheck) scf=(maxcycle=1)\\title\\0,1\C,0,0.893738,-2.11956,0.\C,0,-0.
 463564,-1.836161,0.\C,0,1.807314,-1.066569,0.\C,0,-0.921006,-0.519558,
 0.\C,0,1.369118,0.246605,0.\C,0,0.,0.526996,0.\C,0,-1.70989,2.199611,0
 .\O,0,-0.335558,1.848902,0.\H,0,1.239334,-3.143772,0.\H,0,-1.18511,-2.
 64241,0.\H,0,2.869659,-1.271259,0.\H,0,-1.982692,-0.326351,0.\H,0,2.06
 7189,1.072124,0.\H,0,-2.218233,1.823281,0.89149\H,0,-2.218233,1.823281

 Normal termination of Gaussian 16 at Sat Apr  5 22:51:32 2025.
