 Gaussian 16, Revision C.01,

 ----------------------------------------------------------------------
 #t hf aug-cc-pvdz symm=none int=(grid=ultrafine) guess=(read,tcheck) s
 table=(opt,rrhf)
 ----------------------------------------------------------------------
 -----
 title
 -----
 Symbolic Z-matrix:
 Charge =  0 Multiplicity = 1

 SCF Done:  E(RHF) =  -536.051751064     A.U. after   14 cycles
 Normal termination of Gaussian 16 at Sat Apr  5 22:55:18 2025.
 Gaussian 16:  ES64L-G16RevC.01  3-Jul-2019

 ----------------------------------------------------------------------
 #t hf aug-cc-pvdz iop(5/13=1,5/36=2,99/5=2) pseudo=read geom=check gue
 ss=(read,tcheck) scf=(maxcycle=1)
 ----------------------------------------------------------------------
 -----
 title
 -----
 Structure from the checkpoint file:  "anthracene.chk"
 Charge =  0 Multiplicity = 1

                         Standard orientation:
 ---------------------------------------------------------------------
 Center     Atomic      Atomic             Coordinates (Angstroms)
 Number     Number       Type             X           Y           Z
 ---------------------------------------------------------------------
      1          6           0        0.000000    1.218890    0.719869
      2          6           0        0.000000    1.218890   -0.719869
      3          6           0        0.000000    0.000000    1.398321
      4          6           0        0.000000    2.470807    1.401530
      5          6           0        0.000000   -0.000000   -1.398321
      6          6           0        0.000000    2.470807   -1.401530
      7          6           0       -0.000000   -1.218890    0.719869
      8          6           0        0.000000    3.646151    0.710698
      9          6           0       -0.000000   -1.218890   -0.719869
     10          6           0        0.000000    3.646151   -0.710698
     11          6           0       -0.000000   -2.470807    1.401530
     12          6           0       -0.000000   -2.470807   -1.401530
     13          6           0       -0.000000   -3.646151    0.710698
     14          6           0       -0.000000   -3.646151   -0.710698
     15          1           0        0.000000    0.000000    2.481982
     16          1           0        0.000000    2.470066    2.484308
     17          1           0        0.000000   -0.000000   -2.481982
     18          1           0        0.000000    2.470066   -2.484308
     19          1           0        0.000000    4.588686    1.241764
     20          1           0        0.000000    4.588686   -1.241764
     21          1           0       -0.000000   -2.470066    2.484308
     22          1           0       -0.000000   -2.470066   -2.484308
     23          1           0       -0.000000   -4.588686    1.241764
     24          1           0       -0.000000   -4.588686   -1.241764
 ---------------------------------------------------------------------

 SCF Done:  E(RHF) =  -536.204701589     A.U. after    2 cycles

 The electronic state is 1-AG.
 Alpha  occ. eigenvalues --  -11.25489 -11.25487 -11.25404 -11.25393 -11.24780
 Alpha  occ. eigenvalues --  -11.24779 -11.24773 -11.24758 -11.24754 -11.24749
 Alpha  occ. eigenvalues --  -11.24642 -11.24641 -11.24581 -11.24581  -1.17880
 Alpha  occ. eigenvalues --   -1.14069  -1.08114  -1.06023  -1.02083  -1.00374
 Alpha  occ. eigenvalues --   -0.96185  -0.88240  -0.84836  -0.82104  -0.81426
 Alpha  occ. eigenvalues --   -0.74993  -0.71824  -0.69563  -0.65404  -0.64908
 Alpha  occ. eigenvalues --   -0.63254  -0.62587  -0.59869  -0.58683  -0.58181
 Alpha  occ. eigenvalues --   -0.55448  -0.55170  -0.54396  -0.50213  -0.49934
 Alpha  occ. eigenvalues --   -0.49295  -0.47622  -0.41891  -0.41190  -0.35240
 Alpha  occ. eigenvalues --   -0.31491  -0.26326
 Alpha virt. eigenvalues --    0.03394   0.03450   0.03463   0.04573   0.04736
 Alpha virt. eigenvalues --    0.04779   0.06132   0.06519   0.08225   0.08757
 Alpha virt. eigenvalues --    0.09360   0.09372   0.10572   0.10614   0.10670

 Mulliken charges:
               1
     1  C    0.156557
     2  C    0.156557
     3  C    0.344165
     4  C    0.669834
     5  C    0.344165
     6  C    0.669834
     7  C    0.156557
     8  C    0.334251
     9  C    0.156557
    10  C    0.334251
    11  C    0.669834
    12  C    0.669834
    13  C    0.334251
    14  C    0.334251
    15  H   -0.637295
    16  H   -0.548652
    17  H   -0.637295
    18  H   -0.548652
    19  H   -0.465425
    20  H   -0.465425
    21  H   -0.548652
    22  H   -0.548652
    23  H   -0.465425
    24  H   -0.465425
 Sum of Mulliken charges =  -0.00000

 Dipole moment (field-independent basis, Debye):
    X=             -0.0000    Y=              0.0000    Z=              0.0000  Tot=              0.0000

 Test job not archived.
 1\1\GINC-SE106\SP\RHF\Aug-CC-pVDZ\C14H10\OHZDE\05-Apr-2025\0\\#t hf au
 g-cc-pvdz iop(5/13=1,5/36=2,99/5=2) pseudo=read geom=check guess=(read
 ,tcheck) scf=(maxcycle=1)\\title\\0,1\C,0,0.,0.719869,1.21889\C,0,0.,-
 0.719869,1.21889\C,0,0.,1.398321,0.\C,0,0.,1.40153,2.470807\C,0,0.,-1.
 398321,0.\C,0,0.,-1.40153,2.470807\C,0,0.,0.719869,-1.21889\C,0,0.,0.7
 10698,3.646151\C,0,0.,-0.719869,-1.21889\C,0,0.,-0.710698,3.646151\C,0
 ,0.,1.40153,-2.470807\C,0,0.,-1.40153,-2.470807\C,0,0.,0.710698,-3.646
 151\C,0,0.,-0.710698,-3.646151\H,0,0.,2.481982,0.\H,0,0.,2.484308,2.47

 Normal termination of Gaussian 16 at Sat Apr  5 22:55:53 2025.
