 Gaussian 16, Revision C.01,

 ----------------------------------------------------------------------
 #t hf aug-cc-pvdz symm=none int=(grid=ultrafine) guess=(read,tcheck) s
 table=(opt,rrhf)
 ----------------------------------------------------------------------
 -----
 title
 -----
 Symbolic Z-matrix:
 Charge =  0 Multiplicity = 1

 SCF Done:  E(RHF) =  -309.869486483     A.U. after   11 cycles
 Normal termination of Gaussian 16 at Sat Apr  5 22:51:34 2025.
 Gaussian 16:  ES64L-G16RevC.01  3-Jul-2019

 ----------------------------------------------------------------------
 #t hf aug-cc-pvdz iop(5/13=1,5/36=2,99/5=2) pseudo=read geom=check gue
 ss=(read,tcheck) scf=(maxcycle=1)
 ----------------------------------------------------------------------
 -----
 title
 -----
 Structure from the checkpoint file:  "anti-tricyclo-4-2-0-0-octane.chk"
 Charge =  0 Multiplicity = 1

                         Standard orientation:
 ---------------------------------------------------------------------
 Center     Atomic      Atomic             Coordinates (Angstroms)
 Number     Number       Type             X           Y           Z
 ---------------------------------------------------------------------
      1          6           0       -0.418466    0.644989    0.791107
      2          6           0       -0.418466    0.644989   -0.791107
      3          6           0        0.418466   -0.644989    0.791107
      4          6           0        0.418466    1.946235    0.777144
      5          6           0        0.418466   -0.644989   -0.791107
      6          6           0        0.418466    1.946235   -0.777144
      7          6           0       -0.418466   -1.946235   -0.777144
      8          6           0       -0.418466   -1.946235    0.777144
      9          1           0       -1.320254    0.645883    1.403108
     10          1           0       -1.320254    0.645883   -1.403108
     11          1           0        1.320254   -0.645883    1.403108
     12          1           0       -0.103896    2.800429    1.206129
     13          1           0        1.394828    1.871332    1.257928
     14          1           0        1.320254   -0.645883   -1.403108
     15          1           0        1.394828    1.871332   -1.257928
     16          1           0       -0.103896    2.800429   -1.206129
     17          1           0       -1.394828   -1.871332   -1.257928
     18          1           0        0.103896   -2.800429   -1.206129
     19          1           0        0.103896   -2.800429    1.206129
     20          1           0       -1.394828   -1.871332    1.257928
 ---------------------------------------------------------------------

 SCF Done:  E(RHF) =  -309.959788143     A.U. after    2 cycles

 The electronic state is 1-AG.
 Alpha  occ. eigenvalues --  -11.22606 -11.22578 -11.22563 -11.22535 -11.22252
 Alpha  occ. eigenvalues --  -11.22251 -11.22216 -11.22211  -1.16422  -1.06692
 Alpha  occ. eigenvalues --   -0.93066  -0.92817  -0.85792  -0.82064  -0.75183
 Alpha  occ. eigenvalues --   -0.68272  -0.66336  -0.65800  -0.63873  -0.58108
 Alpha  occ. eigenvalues --   -0.55056  -0.52494  -0.50869  -0.49700  -0.46176
 Alpha  occ. eigenvalues --   -0.46159  -0.43343  -0.42038  -0.38890  -0.38053
 Alpha virt. eigenvalues --    0.03564   0.04140   0.04345   0.04646   0.05682
 Alpha virt. eigenvalues --    0.06208   0.06337   0.06608   0.08174   0.08596
 Alpha virt. eigenvalues --    0.08669   0.10814   0.11653   0.11830   0.11936

 Mulliken charges:
               1
     1  C    0.228214
     2  C    0.228214
     3  C    0.228214
     4  C    0.629659
     5  C    0.228214
     6  C    0.629659
     7  C    0.629659
     8  C    0.629659
     9  H   -0.428072
    10  H   -0.428072
    11  H   -0.428072
    12  H   -0.190738
    13  H   -0.239063
    14  H   -0.428072
    15  H   -0.239063
    16  H   -0.190738
    17  H   -0.239063
    18  H   -0.190738
    19  H   -0.190738
    20  H   -0.239063
 Sum of Mulliken charges =  -0.00000

 Dipole moment (field-independent basis, Debye):
    X=              0.0000    Y=              0.0000    Z=              0.0000  Tot=              0.0000

 Test job not archived.
 1\1\GINC-SE107\SP\RHF\Aug-CC-pVDZ\C8H12\OHZDE\05-Apr-2025\0\\#t hf aug
 -cc-pvdz iop(5/13=1,5/36=2,99/5=2) pseudo=read geom=check guess=(read,
 tcheck) scf=(maxcycle=1)\\title\\0,1\C,0,-0.418466,0.644989,0.791107\C
 ,0,-0.418466,0.644989,-0.791107\C,0,0.418466,-0.644989,0.791107\C,0,0.
 418466,1.946235,0.777144\C,0,0.418466,-0.644989,-0.791107\C,0,0.418466
 ,1.946235,-0.777144\C,0,-0.418466,-1.946235,-0.777144\C,0,-0.418466,-1
 .946235,0.777144\H,0,-1.320254,0.645883,1.403108\H,0,-1.320254,0.64588
 3,-1.403108\H,0,1.320254,-0.645883,1.403108\H,0,-0.103896,2.800429,1.2

 Normal termination of Gaussian 16 at Sat Apr  5 22:51:45 2025.
