 Gaussian 16, Revision C.01,

 ----------------------------------------------------------------------
 #t hf aug-cc-pvdz symm=none int=(grid=ultrafine) guess=(read,tcheck) s
 table=(opt,rrhf)
 ----------------------------------------------------------------------
 -----
 title
 -----
 Symbolic Z-matrix:
 Charge =  0 Multiplicity = 1

 SCF Done:  E(RHF) =  -602.992426212     A.U. after   14 cycles
 Normal termination of Gaussian 16 at Sat Apr  5 22:54:33 2025.
 Gaussian 16:  ES64L-G16RevC.01  3-Jul-2019

 ----------------------------------------------------------------------
 #t hf aug-cc-pvdz iop(5/13=1,5/36=2,99/5=2) pseudo=read geom=check gue
 ss=(read,tcheck) scf=(maxcycle=1)
 ----------------------------------------------------------------------
 -----
 title
 -----
 Structure from the checkpoint file:  "arginine.chk"
 Charge =  0 Multiplicity = 1

                         Standard orientation:
 ---------------------------------------------------------------------
 Center     Atomic      Atomic             Coordinates (Angstroms)
 Number     Number       Type             X           Y           Z
 ---------------------------------------------------------------------
      1          7           0       -2.526983    1.644610    0.539401
      2          6           0       -2.309574    0.430804   -0.263716
      3          6           0       -3.543059   -0.493877   -0.155950
      4          8           0       -3.559770   -1.614822   -0.589237
      5          8           0       -4.602147    0.075386    0.430775
      6          1           0       -4.303472    0.974710    0.689949
      7          6           0       -1.025447   -0.342914    0.052142
      8          6           0        0.250781    0.404006   -0.330854
      9          6           0        1.510265   -0.390892    0.003386
     10          7           0        2.702104    0.351444   -0.372440
     11          6           0        3.997767    0.022671   -0.008400
     12          7           0        4.099684   -0.984055    0.943541
     13          7           0        5.063631    0.606486   -0.414314
     14          1           0       -2.286412    0.732459   -1.314703
     15          1           0       -1.014272   -0.576246    1.122559
     16          1           0       -1.076507   -1.298385   -0.469583
     17          1           0        0.232932    0.616099   -1.405631
     18          1           0        0.304202    1.368500    0.179891
     19          1           0        1.544459   -0.575336    1.078269
     20          1           0        1.458323   -1.369138   -0.495193
     21          1           0        2.638588    0.883680   -1.223524
     22          1           0        3.488801   -1.778017    0.839937
     23          1           0        5.061405   -1.240273    1.103040
     24          1           0        4.860793    1.403058   -1.010069
     25          1           0       -2.070153    1.586068    1.441314
     26          1           0       -2.196817    2.480125    0.078473
 ---------------------------------------------------------------------

 SCF Done:  E(RHF) =  -603.176784756     A.U. after    2 cycles

 The electronic state is 1-A.
 Alpha  occ. eigenvalues --  -20.61535 -20.55740 -15.65661 -15.64781 -15.63764
 Alpha  occ. eigenvalues --  -15.57175 -11.39508 -11.36014 -11.31280 -11.29429
 Alpha  occ. eigenvalues --  -11.26368 -11.26216  -1.41859  -1.32887  -1.27146
 Alpha  occ. eigenvalues --   -1.20281  -1.16481  -1.10870  -1.07241  -0.99341
 Alpha  occ. eigenvalues --   -0.91053  -0.84402  -0.82296  -0.80975  -0.75293
 Alpha  occ. eigenvalues --   -0.73588  -0.71175  -0.68879  -0.67998  -0.66471
 Alpha  occ. eigenvalues --   -0.64417  -0.63647  -0.62858  -0.61055  -0.59638
 Alpha  occ. eigenvalues --   -0.59277  -0.55809  -0.54050  -0.52952  -0.51859
 Alpha  occ. eigenvalues --   -0.50733  -0.48976  -0.47996  -0.43027  -0.42014
 Alpha  occ. eigenvalues --   -0.40838  -0.34445
 Alpha virt. eigenvalues --    0.01847   0.02642   0.03039   0.03975   0.04754
 Alpha virt. eigenvalues --    0.05240   0.05562   0.06607   0.07073   0.08026
 Alpha virt. eigenvalues --    0.08317   0.08698   0.09389   0.10112   0.11357

 Mulliken charges:
               1
     1  N   -0.618160
     2  C    0.247436
     3  C    0.743796
     4  O   -0.478796
     5  O   -0.490436
     6  H    0.267384
     7  C    0.374846
     8  C    0.365897
     9  C    0.990583
    10  N   -0.340062
    11  C    0.718185
    12  N   -0.244305
    13  N   -0.451182
    14  H   -0.011907
    15  H   -0.139488
    16  H   -0.154001
    17  H   -0.172361
    18  H   -0.166276
    19  H   -0.250872
    20  H   -0.253440
    21  H   -0.089975
    22  H    0.014939
    23  H    0.006067
    24  H   -0.029251
    25  H    0.084081
    26  H    0.077299
 Sum of Mulliken charges =   0.00000

 Dipole moment (field-independent basis, Debye):
    X=              0.0258    Y=              3.1068    Z=              0.2294  Tot=              3.1153

 Test job not archived.
 1\1\GINC-SE107\SP\RHF\Aug-CC-pVDZ\C6H14N4O2\OHZDE\05-Apr-2025\0\\#t hf
  aug-cc-pvdz iop(5/13=1,5/36=2,99/5=2) pseudo=read geom=check guess=(r
 ead,tcheck) scf=(maxcycle=1)\\title\\0,1\N,0,-2.526983,1.64461,0.53940
 1\C,0,-2.309574,0.430804,-0.263716\C,0,-3.543059,-0.493877,-0.15595\O,
 0,-3.55977,-1.614822,-0.589237\O,0,-4.602147,0.075386,0.430775\H,0,-4.
 303472,0.97471,0.689949\C,0,-1.025447,-0.342914,0.052142\C,0,0.250781,
 0.404006,-0.330854\C,0,1.510265,-0.390892,0.003386\N,0,2.702104,0.3514
 44,-0.37244\C,0,3.997767,0.022671,-0.0084\N,0,4.099684,-0.984055,0.943

 Normal termination of Gaussian 16 at Sat Apr  5 22:54:54 2025.
