 Gaussian 16, Revision C.01,

 ----------------------------------------------------------------------
 #t hf aug-cc-pvdz symm=none int=(grid=ultrafine) guess=(read,tcheck) s
 table=(opt,rrhf)
 ----------------------------------------------------------------------
 -----
 title
 -----
 Symbolic Z-matrix:
 Charge =  0 Multiplicity = 1

 SCF Done:  E(RHF) =  -489.736109003     A.U. after   14 cycles
 Normal termination of Gaussian 16 at Sat Apr  5 22:51:30 2025.
 Gaussian 16:  ES64L-G16RevC.01  3-Jul-2019

 ----------------------------------------------------------------------
 #t hf aug-cc-pvdz iop(5/13=1,5/36=2,99/5=2) pseudo=read geom=check gue
 ss=(read,tcheck) scf=(maxcycle=1)
 ----------------------------------------------------------------------
 -----
 title
 -----
 Structure from the checkpoint file:  "asparagine.chk"
 Charge =  0 Multiplicity = 1

                         Standard orientation:
 ---------------------------------------------------------------------
 Center     Atomic      Atomic             Coordinates (Angstroms)
 Number     Number       Type             X           Y           Z
 ---------------------------------------------------------------------
      1          7           0       -0.537636    1.634468   -0.311017
      2          6           0       -0.506076    0.174773   -0.439687
      3          6           0       -1.882737   -0.418460   -0.080577
      4          8           0       -2.175140   -1.564324   -0.298926
      5          8           0       -2.703547    0.449095    0.519188
      6          1           0       -2.201073    1.295665    0.555522
      7          6           0        0.530887   -0.449933    0.513055
      8          6           0        1.954459   -0.058137    0.153171
      9          8           0        2.308657    1.111421    0.104908
     10          7           0        2.806159   -1.080562   -0.108786
     11          1           0       -0.288369   -0.160572   -1.457832
     12          1           0        0.343314   -0.088713    1.526973
     13          1           0        0.392111   -1.529176    0.509676
     14          1           0        2.517736   -2.040866   -0.075861
     15          1           0        3.761371   -0.865241   -0.340502
     16          1           0        0.386763    1.982426   -0.073290
     17          1           0       -0.810476    2.070141   -1.183197
 ---------------------------------------------------------------------

 SCF Done:  E(RHF) =  -489.887814197     A.U. after    2 cycles

 The electronic state is 1-A.
 Alpha  occ. eigenvalues --  -20.61448 -20.55786 -20.55729 -15.67359 -15.63766
 Alpha  occ. eigenvalues --  -11.39395 -11.39162 -11.31241 -11.27872  -1.41764
 Alpha  occ. eigenvalues --   -1.37068  -1.32801  -1.20340  -1.19158  -1.04840
 Alpha  occ. eigenvalues --   -0.93224  -0.82776  -0.81753  -0.75025  -0.74448
 Alpha  occ. eigenvalues --   -0.71012  -0.69314  -0.68167  -0.64454  -0.64159
 Alpha  occ. eigenvalues --   -0.61673  -0.60723  -0.57408  -0.55911  -0.53680
 Alpha  occ. eigenvalues --   -0.49229  -0.47858  -0.46089  -0.44300  -0.42131
 Alpha virt. eigenvalues --    0.02367   0.03572   0.04235   0.04665   0.05935
 Alpha virt. eigenvalues --    0.06697   0.07510   0.08239   0.10614   0.10742
 Alpha virt. eigenvalues --    0.12190   0.12401   0.13523   0.13932   0.14121

 Mulliken charges:
               1
     1  N   -0.408114
     2  C    0.210007
     3  C    0.718526
     4  O   -0.517157
     5  O   -0.492769
     6  H    0.271147
     7  C    0.229450
     8  C    0.768233
     9  O   -0.592227
    10  N   -0.110260
    11  H   -0.080260
    12  H    0.060342
    13  H   -0.149559
    14  H   -0.005060
    15  H   -0.030149
    16  H    0.095793
    17  H    0.032057
 Sum of Mulliken charges =  -0.00000

 Dipole moment (field-independent basis, Debye):
    X=              4.0219    Y=             -0.2646    Z=             -0.9412  Tot=              4.1391

 Test job not archived.
 1\1\GINC-SE220\SP\RHF\Aug-CC-pVDZ\C4H8N2O3\OHZDE\05-Apr-2025\0\\#t hf
 aug-cc-pvdz iop(5/13=1,5/36=2,99/5=2) pseudo=read geom=check guess=(re
 ad,tcheck) scf=(maxcycle=1)\\title\\0,1\N,0,-0.537636,1.634468,-0.3110
 17\C,0,-0.506076,0.174773,-0.439687\C,0,-1.882737,-0.41846,-0.080577\O
 ,0,-2.17514,-1.564324,-0.298926\O,0,-2.703547,0.449095,0.519188\H,0,-2
 .201073,1.295665,0.555522\C,0,0.530887,-0.449933,0.513055\C,0,1.954459
 ,-0.058137,0.153171\O,0,2.308657,1.111421,0.104908\N,0,2.806159,-1.080
 562,-0.108786\H,0,-0.288369,-0.160572,-1.457832\H,0,0.343314,-0.088713

 Normal termination of Gaussian 16 at Sat Apr  5 22:51:46 2025.
