 Gaussian 16, Revision C.01,

 ----------------------------------------------------------------------
 #t hf aug-cc-pvdz symm=none int=(grid=ultrafine) guess=(read,tcheck) s
 table=(opt,rrhf)
 ----------------------------------------------------------------------
 -----
 title
 -----
 Symbolic Z-matrix:
 Charge =  0 Multiplicity = 1

 SCF Done:  E(RHF) =  -509.570865086     A.U. after   14 cycles
 Normal termination of Gaussian 16 at Sat Apr  5 22:52:38 2025.
 Gaussian 16:  ES64L-G16RevC.01  3-Jul-2019

 ----------------------------------------------------------------------
 #t hf aug-cc-pvdz iop(5/13=1,5/36=2,99/5=2) pseudo=read geom=check gue
 ss=(read,tcheck) scf=(maxcycle=1)
 ----------------------------------------------------------------------
 -----
 title
 -----
 Structure from the checkpoint file:  "aspartic_acid.chk"
 Charge =  0 Multiplicity = 1

                         Standard orientation:
 ---------------------------------------------------------------------
 Center     Atomic      Atomic             Coordinates (Angstroms)
 Number     Number       Type             X           Y           Z
 ---------------------------------------------------------------------
      1          7           0       -0.559751    1.671657    0.045915
      2          6           0       -0.532972    0.280240   -0.418930
      3          6           0       -1.890012   -0.388824   -0.132659
      4          8           0       -2.226830   -1.423048   -0.641390
      5          8           0       -2.644131    0.266174    0.760645
      6          1           0       -2.137138    1.070719    1.003194
      7          6           0        0.538406   -0.536571    0.312301
      8          6           0        1.953822   -0.103384    0.017412
      9          8           0        2.287312    0.951709   -0.465001
     10          8           0        2.843745   -1.045709    0.388575
     11          1           0       -0.363243    0.188219   -1.494723
     12          1           0        0.398061   -0.461864    1.395187
     13          1           0        0.431236   -1.589892    0.058200
     14          1           0        0.385487    2.025817    0.133560
     15          1           0       -1.022701    2.261966   -0.635773
     16          1           0        3.730329   -0.698333    0.207579
 ---------------------------------------------------------------------

 SCF Done:  E(RHF) =  -509.729796226     A.U. after    2 cycles

 The electronic state is 1-A.
 Alpha  occ. eigenvalues --  -20.64892 -20.62000 -20.59232 -20.56158 -15.64661
 Alpha  occ. eigenvalues --  -11.42873 -11.39861 -11.31469 -11.28672  -1.45223
 Alpha  occ. eigenvalues --   -1.42217  -1.35429  -1.33281  -1.19933  -1.06720
 Alpha  occ. eigenvalues --   -0.95225  -0.85198  -0.82574  -0.75623  -0.74295
 Alpha  occ. eigenvalues --   -0.71544  -0.71343  -0.68683  -0.67806  -0.64304
 Alpha  occ. eigenvalues --   -0.63920  -0.61956  -0.58511  -0.56566  -0.55585
 Alpha  occ. eigenvalues --   -0.52812  -0.50375  -0.49322  -0.47053  -0.43388
 Alpha virt. eigenvalues --    0.02770   0.03538   0.04162   0.05337   0.06068
 Alpha virt. eigenvalues --    0.06810   0.07440   0.09901   0.10638   0.11602
 Alpha virt. eigenvalues --    0.12612   0.12973   0.13373   0.13791   0.14294

 Mulliken charges:
               1
     1  N   -0.321667
     2  C    0.461806
     3  C    0.750010
     4  O   -0.510616
     5  O   -0.501179
     6  H    0.257574
     7  C    0.037288
     8  C    0.614960
     9  O   -0.488952
    10  O   -0.497754
    11  H   -0.126941
    12  H    0.058264
    13  H    0.008353
    14  H    0.042539
    15  H    0.011538
    16  H    0.204775
 Sum of Mulliken charges =  -0.00000

 Dipole moment (field-independent basis, Debye):
    X=              3.6728    Y=              2.4332    Z=              0.5925  Tot=              4.4453

 Test job not archived.
 1\1\GINC-SE050\SP\RHF\Aug-CC-pVDZ\C4H7N1O4\OHZDE\05-Apr-2025\0\\#t hf
 aug-cc-pvdz iop(5/13=1,5/36=2,99/5=2) pseudo=read geom=check guess=(re
 ad,tcheck) scf=(maxcycle=1)\\title\\0,1\N,0,-0.559751,1.671657,0.04591
 5\C,0,-0.532972,0.28024,-0.41893\C,0,-1.890012,-0.388824,-0.132659\O,0
 ,-2.22683,-1.423048,-0.64139\O,0,-2.644131,0.266174,0.760645\H,0,-2.13
 7138,1.070719,1.003194\C,0,0.538406,-0.536571,0.312301\C,0,1.953822,-0
 .103384,0.017412\O,0,2.287312,0.951709,-0.465001\O,0,2.843745,-1.04570
 9,0.388575\H,0,-0.363243,0.188219,-1.494723\H,0,0.398061,-0.461864,1.3

 Normal termination of Gaussian 16 at Sat Apr  5 22:52:51 2025.
