 Gaussian 16, Revision C.01,

 ----------------------------------------------------------------------
 #t hf aug-cc-pvdz symm=none int=(grid=ultrafine) guess=(read,tcheck) s
 table=(opt,rrhf)
 ----------------------------------------------------------------------
 -----
 title
 -----
 Symbolic Z-matrix:
 Charge =  0 Multiplicity = 1

 SCF Done:  E(RHF) =  -172.103281639     A.U. after   12 cycles
 Normal termination of Gaussian 16 at Sat Apr  5 22:51:33 2025.
 Gaussian 16:  ES64L-G16RevC.01  3-Jul-2019

 ----------------------------------------------------------------------
 #t hf aug-cc-pvdz iop(5/13=1,5/36=2,99/5=2) pseudo=read geom=check gue
 ss=(read,tcheck) scf=(maxcycle=1)
 ----------------------------------------------------------------------
 -----
 title
 -----
 Structure from the checkpoint file:  "azetidine.chk"
 Charge =  0 Multiplicity = 1

                         Standard orientation:
 ---------------------------------------------------------------------
 Center     Atomic      Atomic             Coordinates (Angstroms)
 Number     Number       Type             X           Y           Z
 ---------------------------------------------------------------------
      1          6           0        0.082897    1.078427   -0.000000
      2          6           0        0.082897   -0.051210    1.054630
      3          6           0        0.082897   -0.051210   -1.054630
      4          7           0       -0.374490   -0.989590    0.000000
      5          1           0       -0.845440    1.645623   -0.000000
      6          1           0        0.926741    1.763706   -0.000000
      7          1           0        1.090133   -0.261322    1.431487
      8          1           0       -0.597396    0.043257    1.901760
      9          1           0       -0.597396    0.043257   -1.901760
     10          1           0        1.090133   -0.261322   -1.431487
     11          1           0        0.062512   -1.902110    0.000000
 ---------------------------------------------------------------------

 SCF Done:  E(RHF) =  -172.156287852     A.U. after    2 cycles

 The electronic state is 1-A'.
 Alpha  occ. eigenvalues --  -15.60137 -11.25720 -11.25698 -11.22971  -1.19792
 Alpha  occ. eigenvalues --   -0.95721  -0.90739  -0.76260  -0.68879  -0.65411
 Alpha  occ. eigenvalues --   -0.55266  -0.52941  -0.51809  -0.47074  -0.45672
 Alpha  occ. eigenvalues --   -0.36469
 Alpha virt. eigenvalues --    0.03582   0.04498   0.04628   0.05027   0.07346
 Alpha virt. eigenvalues --    0.07374   0.07635   0.11257   0.11704   0.13940
 Alpha virt. eigenvalues --    0.14090   0.15351   0.15762   0.16201   0.17775

 Mulliken charges:
               1
     1  C    0.336787
     2  C    0.775523
     3  C    0.775523
     4  N   -0.637006
     5  H   -0.159464
     6  H   -0.164352
     7  H   -0.243850
     8  H   -0.205553
     9  H   -0.205553
    10  H   -0.243850
    11  H   -0.028203
 Sum of Mulliken charges =  -0.00000

 Dipole moment (field-independent basis, Debye):
    X=              1.3649    Y=              0.2541    Z=              0.0000  Tot=              1.3884

 Test job not archived.
 1\1\GINC-SE053\SP\RHF\Aug-CC-pVDZ\C3H7N1\OHZDE\05-Apr-2025\0\\#t hf au
 g-cc-pvdz iop(5/13=1,5/36=2,99/5=2) pseudo=read geom=check guess=(read
 ,tcheck) scf=(maxcycle=1)\\title\\0,1\C,0,0.082897,1.078427,0.\C,0,0.0
 82897,-0.05121,1.05463\C,0,0.082897,-0.05121,-1.05463\N,0,-0.37449,-0.
 98959,0.\H,0,-0.84544,1.645623,0.\H,0,0.926741,1.763706,0.\H,0,1.09013
 3,-0.261322,1.431487\H,0,-0.597396,0.043257,1.90176\H,0,-0.597396,0.04
 3257,-1.90176\H,0,1.090133,-0.261322,-1.431487\H,0,0.062512,-1.90211,0
 .\\Version=ES64L-G16RevC.01\State=1-A'\HF=-172.1562879\RMSD=4.600e-03\

 Normal termination of Gaussian 16 at Sat Apr  5 22:51:41 2025.
