 Gaussian 16, Revision C.01,

 ----------------------------------------------------------------------
 #t hf aug-cc-pvdz symm=none int=(grid=ultrafine) guess=(read,tcheck) s
 table=(opt,rrhf)
 ----------------------------------------------------------------------
 -----
 title
 -----
 Symbolic Z-matrix:
 Charge =  0 Multiplicity = 1

 SCF Done:  E(RHF) =  -240.751863280     A.U. after   15 cycles
 Normal termination of Gaussian 16 at Sat Apr  5 22:51:34 2025.
 Gaussian 16:  ES64L-G16RevC.01  3-Jul-2019

 ----------------------------------------------------------------------
 #t hf aug-cc-pvdz iop(5/13=1,5/36=2,99/5=2) pseudo=read geom=check gue
 ss=(read,tcheck) scf=(maxcycle=1)
 ----------------------------------------------------------------------
 -----
 title
 -----
 Structure from the checkpoint file:  "azidoethene.chk"
 Charge =  0 Multiplicity = 1

                         Standard orientation:
 ---------------------------------------------------------------------
 Center     Atomic      Atomic             Coordinates (Angstroms)
 Number     Number       Type             X           Y           Z
 ---------------------------------------------------------------------
      1          7           0       -0.091593   -0.542859   -0.000002
      2          7           0       -1.235025   -0.089021    0.000000
      3          7           0       -2.326717    0.196979    0.000000
      4          6           0        0.978435    0.373808    0.000000
      5          6           0        2.241526   -0.037019    0.000000
      6          1           0        0.716580    1.426207    0.000003
      7          1           0        2.493945   -1.087536   -0.000002
      8          1           0        3.043059    0.684904    0.000002
 ---------------------------------------------------------------------

 SCF Done:  E(RHF) =  -240.825790453     A.U. after    2 cycles

 The electronic state is 1-A.
 Alpha  occ. eigenvalues --  -15.86492 -15.75107 -15.68991 -11.30466 -11.24393
 Alpha  occ. eigenvalues --   -1.46977  -1.28463  -1.06194  -0.86679  -0.75317
 Alpha  occ. eigenvalues --   -0.71198  -0.69960  -0.67341  -0.61188  -0.56590
 Alpha  occ. eigenvalues --   -0.47729  -0.45088  -0.33357
 Alpha virt. eigenvalues --    0.03573   0.04449   0.05829   0.08748   0.09031
 Alpha virt. eigenvalues --    0.09716   0.10548   0.12392   0.13619   0.14000
 Alpha virt. eigenvalues --    0.14269   0.17017   0.17515   0.17740   0.18742

 Mulliken charges:
               1
     1  N   -0.721401
     2  N    0.527181
     3  N   -0.285770
     4  C    0.933767
     5  C    0.381820
     6  H   -0.299141
     7  H   -0.269152
     8  H   -0.267305
 Sum of Mulliken charges =  -0.00000

 Dipole moment (field-independent basis, Debye):
    X=              0.7598    Y=              1.1018    Z=              0.0000  Tot=              1.3384

 Test job not archived.
 1\1\GINC-SE104\SP\RHF\Aug-CC-pVDZ\C2H3N3\OHZDE\05-Apr-2025\0\\#t hf au
 g-cc-pvdz iop(5/13=1,5/36=2,99/5=2) pseudo=read geom=check guess=(read
 ,tcheck) scf=(maxcycle=1)\\title\\0,1\N,0,-0.091593,-0.542859,-0.00000
 2\N,0,-1.235025,-0.089021,0.\N,0,-2.326717,0.196979,0.\C,0,0.978435,0.
 373808,0.\C,0,2.241526,-0.037019,0.\H,0,0.71658,1.426207,0.000003\H,0,
 2.493945,-1.087536,-0.000002\H,0,3.043059,0.684904,0.000002\\Version=E
 S64L-G16RevC.01\State=1-A\HF=-240.8257905\RMSD=6.155e-03\Dipole=0.2989
 475,0.4334988,0.0000018\Quadrupole=-0.2110787,1.1420421,-0.9309634,0.6

 Normal termination of Gaussian 16 at Sat Apr  5 22:51:40 2025.
