 Gaussian 16, Revision C.01,

 ----------------------------------------------------------------------
 #t hf aug-cc-pvdz symm=none int=(grid=ultrafine) guess=(read,tcheck) s
 table=(opt,rrhf)
 ----------------------------------------------------------------------
 -----
 title
 -----
 Symbolic Z-matrix:
 Charge =  0 Multiplicity = 1

 SCF Done:  E(RHF) =  -133.059615408     A.U. after   11 cycles
 Normal termination of Gaussian 16 at Sat Apr  5 22:51:30 2025.
 Gaussian 16:  ES64L-G16RevC.01  3-Jul-2019

 ----------------------------------------------------------------------
 #t hf aug-cc-pvdz iop(5/13=1,5/36=2,99/5=2) pseudo=read geom=check gue
 ss=(read,tcheck) scf=(maxcycle=1)
 ----------------------------------------------------------------------
 -----
 title
 -----
 Structure from the checkpoint file:  "aziridine.chk"
 Charge =  0 Multiplicity = 1

                         Standard orientation:
 ---------------------------------------------------------------------
 Center     Atomic      Atomic             Coordinates (Angstroms)
 Number     Number       Type             X           Y           Z
 ---------------------------------------------------------------------
      1          7           0       -0.037940    0.872541   -0.000000
      2          1           0        0.888780    1.282744   -0.000000
      3          6           0       -0.037940   -0.397603    0.739990
      4          6           0       -0.037940   -0.397603   -0.739990
      5          1           0       -0.952512   -0.607514    1.278587
      6          1           0        0.868549   -0.702138    1.248293
      7          1           0       -0.952512   -0.607514   -1.278587
      8          1           0        0.868549   -0.702138   -1.248293
 ---------------------------------------------------------------------

 SCF Done:  E(RHF) =  -133.100323659     A.U. after    2 cycles

 The electronic state is 1-A'.
 Alpha  occ. eigenvalues --  -15.62287 -11.26582 -11.26460  -1.22979  -0.88526
 Alpha  occ. eigenvalues --   -0.83911  -0.70015  -0.64031  -0.53026  -0.47777
 Alpha  occ. eigenvalues --   -0.47748  -0.38975
 Alpha virt. eigenvalues --    0.03541   0.04612   0.04694   0.05660   0.07422
 Alpha virt. eigenvalues --    0.11332   0.11845   0.12551   0.14318   0.16012
 Alpha virt. eigenvalues --    0.17669   0.18618   0.19919   0.20449   0.20866

 Mulliken charges:
               1
     1  N   -0.566086
     2  H   -0.001092
     3  C    0.829898
     4  C    0.829898
     5  H   -0.274661
     6  H   -0.271648
     7  H   -0.274661
     8  H   -0.271648
 Sum of Mulliken charges =   0.00000

 Dipole moment (field-independent basis, Debye):
    X=              1.3558    Y=             -1.1849    Z=              0.0000  Tot=              1.8006

 Test job not archived.
 1\1\GINC-SE158\SP\RHF\Aug-CC-pVDZ\C2H5N1\OHZDE\05-Apr-2025\0\\#t hf au
 g-cc-pvdz iop(5/13=1,5/36=2,99/5=2) pseudo=read geom=check guess=(read
 ,tcheck) scf=(maxcycle=1)\\title\\0,1\N,0,-0.03794,0.872541,0.\H,0,0.8
 8878,1.282744,0.\C,0,-0.03794,-0.397603,0.73999\C,0,-0.03794,-0.397603
 ,-0.73999\H,0,-0.952512,-0.607514,1.278587\H,0,0.868549,-0.702138,1.24
 8293\H,0,-0.952512,-0.607514,-1.278587\H,0,0.868549,-0.702138,-1.24829
 3\\Version=ES64L-G16RevC.01\State=1-A'\HF=-133.1003237\RMSD=4.873e-03\
 Dipole=0.5334245,-0.4661739,0.\Quadrupole=1.1600868,-1.6800781,0.51999

 Normal termination of Gaussian 16 at Sat Apr  5 22:51:40 2025.
