 Gaussian 16, Revision C.01,

 ----------------------------------------------------------------------
 #t hf aug-cc-pvdz symm=none int=(grid=ultrafine) guess=(read,tcheck) s
 table=(opt,rrhf)
 ----------------------------------------------------------------------
 -----
 title
 -----
 Symbolic Z-matrix:
 Charge =  0 Multiplicity = 1

 SCF Done:  E(RHF) =  -383.324824200     A.U. after   16 cycles
 Normal termination of Gaussian 16 at Sat Apr  5 22:53:16 2025.
 Gaussian 16:  ES64L-G16RevC.01  3-Jul-2019

 ----------------------------------------------------------------------
 #t hf aug-cc-pvdz iop(5/13=1,5/36=2,99/5=2) pseudo=read geom=check gue
 ss=(read,tcheck) scf=(maxcycle=1)
 ----------------------------------------------------------------------
 -----
 title
 -----
 Structure from the checkpoint file:  "azulene.chk"
 Charge =  0 Multiplicity = 1

                         Standard orientation:
 ---------------------------------------------------------------------
 Center     Atomic      Atomic             Coordinates (Angstroms)
 Number     Number       Type             X           Y           Z
 ---------------------------------------------------------------------
      1          6           0        0.000000    0.000000   -2.493269
      2          6           0        0.000000    1.260954   -1.903510
      3          6           0        0.000000    0.747825    0.551519
      4          6           0        0.000000    1.588911   -0.550232
      5          6           0        0.000000    0.000000    2.698578
      6          6           0        0.000000   -1.145715    1.894921
      7          6           0       -0.000000   -0.747825    0.551519
      8          6           0        0.000000    1.145715    1.894921
      9          6           0       -0.000000   -1.588911   -0.550232
     10          6           0       -0.000000   -1.260954   -1.903510
     11          1           0        0.000000    0.000000   -3.577631
     12          1           0        0.000000    2.098972   -2.589739
     13          1           0        0.000000    2.650420   -0.323058
     14          1           0        0.000000    0.000000    3.778585
     15          1           0        0.000000   -2.167642    2.240201
     16          1           0        0.000000    2.167642    2.240201
     17          1           0       -0.000000   -2.650420   -0.323058
     18          1           0       -0.000000   -2.098972   -2.589739
 ---------------------------------------------------------------------

 SCF Done:  E(RHF) =  -383.435934268     A.U. after    2 cycles

 The electronic state is 1-A1.
 Alpha  occ. eigenvalues --  -11.27371 -11.27366 -11.27131 -11.25376 -11.25371
 Alpha  occ. eigenvalues --  -11.25152 -11.25089 -11.23978 -11.22348 -11.22341
 Alpha  occ. eigenvalues --   -1.16805  -1.10814  -1.06509  -1.00190  -0.96073
 Alpha  occ. eigenvalues --   -0.88538  -0.85096  -0.75713  -0.75234  -0.71644
 Alpha  occ. eigenvalues --   -0.68583  -0.63586  -0.63281  -0.58077  -0.56152
 Alpha  occ. eigenvalues --   -0.53753  -0.53682  -0.53387  -0.51836  -0.48397
 Alpha  occ. eigenvalues --   -0.45561  -0.41122  -0.30476  -0.26454
 Alpha virt. eigenvalues --    0.03161   0.03591   0.03774   0.03957   0.05154
 Alpha virt. eigenvalues --    0.05298   0.06584   0.06958   0.07345   0.09232
 Alpha virt. eigenvalues --    0.10659   0.11192   0.11975   0.12548   0.12988

 Mulliken charges:
               1
     1  C    0.259313
     2  C    0.232259
     3  C    0.661406
     4  C    0.379915
     5  C    0.416939
     6  C    0.346804
     7  C    0.661406
     8  C    0.346804
     9  C    0.379915
    10  C    0.232259
    11  H   -0.455825
    12  H   -0.502477
    13  H   -0.529534
    14  H   -0.369611
    15  H   -0.513781
    16  H   -0.513781
    17  H   -0.529534
    18  H   -0.502477
 Sum of Mulliken charges =  -0.00000

 Dipole moment (field-independent basis, Debye):
    X=              0.0000    Y=             -0.0000    Z=             -1.4586  Tot=              1.4586

 Test job not archived.
 1\1\GINC-SE165\SP\RHF\Aug-CC-pVDZ\C10H8\OHZDE\05-Apr-2025\0\\#t hf aug
 -cc-pvdz iop(5/13=1,5/36=2,99/5=2) pseudo=read geom=check guess=(read,
 tcheck) scf=(maxcycle=1)\\title\\0,1\C,0,0.,0.,-2.493269\C,0,0.,1.2609
 54,-1.90351\C,0,0.,0.747825,0.551519\C,0,0.,1.588911,-0.550232\C,0,0.,
 0.,2.698578\C,0,0.,-1.145715,1.894921\C,0,0.,-0.747825,0.551519\C,0,0.
 ,1.145715,1.894921\C,0,0.,-1.588911,-0.550232\C,0,0.,-1.260954,-1.9035
 1\H,0,0.,0.,-3.577631\H,0,0.,2.098972,-2.589739\H,0,0.,2.65042,-0.3230
 58\H,0,0.,0.,3.778585\H,0,0.,-2.167642,2.240201\H,0,0.,2.167642,2.2402

 Normal termination of Gaussian 16 at Sat Apr  5 22:53:23 2025.
