 Gaussian 16, Revision C.01,

 ----------------------------------------------------------------------
 #t hf aug-cc-pvdz symm=none int=(grid=ultrafine) guess=(read,tcheck) s
 table=(opt,rrhf)
 ----------------------------------------------------------------------
 -----
 title
 -----
 Symbolic Z-matrix:
 Charge =  0 Multiplicity = 1

 SCF Done:  E(RHF) =  -418.381410535     A.U. after   16 cycles
 Normal termination of Gaussian 16 at Sat Apr  5 22:53:09 2025.
 Gaussian 16:  ES64L-G16RevC.01  3-Jul-2019

 ----------------------------------------------------------------------
 #t hf aug-cc-pvdz iop(5/13=1,5/36=2,99/5=2) pseudo=read geom=check gue
 ss=(read,tcheck) scf=(maxcycle=1)
 ----------------------------------------------------------------------
 -----
 title
 -----
 Structure from the checkpoint file:  "benzoic_acid.chk"
 Charge =  0 Multiplicity = 1

                         Standard orientation:
 ---------------------------------------------------------------------
 Center     Atomic      Atomic             Coordinates (Angstroms)
 Number     Number       Type             X           Y           Z
 ---------------------------------------------------------------------
      1          6           0        0.307786   -2.544530    0.000000
      2          6           0        1.429809   -1.720826   -0.000000
      3          6           0       -0.966751   -1.987681    0.000000
      4          6           0        1.277760   -0.342753   -0.000000
      5          6           0       -1.123948   -0.608404    0.000000
      6          6           0       -0.000000    0.220374   -0.000000
      7          6           0       -0.110623    1.700856   -0.000000
      8          8           0        0.823931    2.465863   -0.000000
      9          8           0       -1.394622    2.140425    0.000000
     10          1           0        0.427050   -3.619739    0.000000
     11          1           0        2.420556   -2.154119   -0.000000
     12          1           0       -1.837930   -2.628373    0.000000
     13          1           0        2.135639    0.314086   -0.000000
     14          1           0       -2.111190   -0.171656    0.000000
     15          1           0       -1.352794    3.107284   -0.000000
 ---------------------------------------------------------------------

 SCF Done:  E(RHF) =  -418.508802829     A.U. after    2 cycles

 The electronic state is 1-A'.
 Alpha  occ. eigenvalues --  -20.62746 -20.56491 -11.40543 -11.26617 -11.26547
 Alpha  occ. eigenvalues --  -11.26495 -11.26235 -11.25659 -11.25589  -1.42777
 Alpha  occ. eigenvalues --   -1.32802  -1.16454  -1.04738  -1.02838  -0.90640
 Alpha  occ. eigenvalues --   -0.84919  -0.81252  -0.74361  -0.72035  -0.68561
 Alpha  occ. eigenvalues --   -0.65111  -0.64873  -0.63813  -0.61219  -0.59919
 Alpha  occ. eigenvalues --   -0.53526  -0.52732  -0.51273  -0.50319  -0.47605
 Alpha  occ. eigenvalues --   -0.36093  -0.35522
 Alpha virt. eigenvalues --    0.03054   0.03782   0.04167   0.05377   0.06406
 Alpha virt. eigenvalues --    0.06439   0.07272   0.09305   0.09935   0.11104
 Alpha virt. eigenvalues --    0.11266   0.13019   0.13230   0.13924   0.13925

 Mulliken charges:
               1
     1  C    0.400278
     2  C    0.640209
     3  C    0.508283
     4  C   -0.029064
     5  C    0.372455
     6  C    1.203793
     7  C    0.152500
     8  O   -0.473418
     9  O   -0.598782
    10  H   -0.431666
    11  H   -0.426778
    12  H   -0.451777
    13  H   -0.592153
    14  H   -0.531454
    15  H    0.257575
 Sum of Mulliken charges =   0.00000

 Dipole moment (field-independent basis, Debye):
    X=             -1.3285    Y=             -2.1098    Z=              0.0000  Tot=              2.4932

 Test job not archived.
 1\1\GINC-SE232\SP\RHF\Aug-CC-pVDZ\C7H6O2\OHZDE\05-Apr-2025\0\\#t hf au
 g-cc-pvdz iop(5/13=1,5/36=2,99/5=2) pseudo=read geom=check guess=(read
 ,tcheck) scf=(maxcycle=1)\\title\\0,1\C,0,0.307786,-2.54453,0.\C,0,1.4
 29809,-1.720826,0.\C,0,-0.966751,-1.987681,0.\C,0,1.27776,-0.342753,0.
 \C,0,-1.123948,-0.608404,0.\C,0,0.,0.220374,0.\C,0,-0.110623,1.700856,
 0.\O,0,0.823931,2.465863,0.\O,0,-1.394622,2.140425,0.\H,0,0.427051,-3.
 619739,0.\H,0,2.420556,-2.154119,0.\H,0,-1.83793,-2.628373,0.\H,0,2.13
 5639,0.314086,0.\H,0,-2.11119,-0.171656,0.\H,0,-1.352794,3.107284,0.\\

 Normal termination of Gaussian 16 at Sat Apr  5 22:53:17 2025.
