 Gaussian 16, Revision C.01,

 ----------------------------------------------------------------------
 #t hf aug-cc-pvdz symm=none int=(grid=ultrafine) guess=(read,tcheck) s
 table=(opt,rrhf)
 ----------------------------------------------------------------------
 -----
 title
 -----
 Symbolic Z-matrix:
 Charge =  0 Multiplicity = 1

 SCF Done:  E(RHF) =  -306.368413149     A.U. after   14 cycles
 Normal termination of Gaussian 16 at Sat Apr  5 22:52:05 2025.
 Gaussian 16:  ES64L-G16RevC.01  3-Jul-2019

 ----------------------------------------------------------------------
 #t hf aug-cc-pvdz iop(5/13=1,5/36=2,99/5=2) pseudo=read geom=check gue
 ss=(read,tcheck) scf=(maxcycle=1)
 ----------------------------------------------------------------------
 -----
 title
 -----
 Structure from the checkpoint file:  "benzocyclobutadiene.chk"
 Charge =  0 Multiplicity = 1

                         Standard orientation:
 ---------------------------------------------------------------------
 Center     Atomic      Atomic             Coordinates (Angstroms)
 Number     Number       Type             X           Y           Z
 ---------------------------------------------------------------------
      1          6           0        0.000000    1.439760   -0.621675
      2          6           0        0.000000    0.686345   -1.839508
      3          6           0       -0.000000   -0.686345   -1.839508
      4          6           0       -0.000000   -1.439760   -0.621675
      5          6           0        0.000000   -0.673165    2.041672
      6          6           0        0.000000    0.673165    2.041672
      7          6           0        0.000000    0.709390    0.520531
      8          6           0       -0.000000   -0.709390    0.520531
      9          1           0        0.000000    2.521064   -0.642939
     10          1           0        0.000000    1.216563   -2.782280
     11          1           0       -0.000000   -1.216563   -2.782280
     12          1           0       -0.000000   -2.521064   -0.642939
     13          1           0        0.000000   -1.421348    2.819103
     14          1           0        0.000000    1.421348    2.819103
 ---------------------------------------------------------------------

 SCF Done:  E(RHF) =  -306.457523896     A.U. after    2 cycles

 The electronic state is 1-A1.
 Alpha  occ. eigenvalues --  -11.27015 -11.26862 -11.25279 -11.25183 -11.24245
 Alpha  occ. eigenvalues --  -11.24241 -11.24005 -11.23879  -1.18862  -1.09326
 Alpha  occ. eigenvalues --   -1.01069  -0.94866  -0.83982  -0.82099  -0.75711
 Alpha  occ. eigenvalues --   -0.70831  -0.65650  -0.62658  -0.58002  -0.56793
 Alpha  occ. eigenvalues --   -0.55833  -0.53690  -0.48295  -0.47594  -0.42403
 Alpha  occ. eigenvalues --   -0.35008  -0.27849
 Alpha virt. eigenvalues --    0.03490   0.03852   0.03915   0.05305   0.05682
 Alpha virt. eigenvalues --    0.06362   0.07383   0.09399   0.11031   0.11870
 Alpha virt. eigenvalues --    0.11873   0.13100   0.13379   0.13556   0.14139

 Mulliken charges:
               1
     1  C    1.293571
     2  C    0.284327
     3  C    0.284327
     4  C    1.293571
     5  C    0.528313
     6  C    0.528313
     7  C   -0.882023
     8  C   -0.882023
     9  H   -0.423053
    10  H   -0.461784
    11  H   -0.461784
    12  H   -0.423053
    13  H   -0.339350
    14  H   -0.339350
 Sum of Mulliken charges =  -0.00000

 Dipole moment (field-independent basis, Debye):
    X=              0.0000    Y=              0.0000    Z=              0.8682  Tot=              0.8682

 Test job not archived.
 1\1\GINC-SE190\SP\RHF\Aug-CC-pVDZ\C8H6\OHZDE\05-Apr-2025\0\\#t hf aug-
 cc-pvdz iop(5/13=1,5/36=2,99/5=2) pseudo=read geom=check guess=(read,t
 check) scf=(maxcycle=1)\\title\\0,1\C,0,0.,1.43976,-0.621675\C,0,0.,0.
 686345,-1.839508\C,0,0.,-0.686345,-1.839508\C,0,0.,-1.43976,-0.621675\
 C,0,0.,-0.673165,2.041672\C,0,0.,0.673165,2.041672\C,0,0.,0.70939,0.52
 0531\C,0,0.,-0.70939,0.520531\H,0,0.,2.521064,-0.642939\H,0,0.,1.21656
 3,-2.78228\H,0,0.,-1.216563,-2.78228\H,0,0.,-2.521064,-0.642939\H,0,0.
 ,-1.421348,2.819103\H,0,0.,1.421348,2.819103\\Version=ES64L-G16RevC.01

 Normal termination of Gaussian 16 at Sat Apr  5 22:52:47 2025.
