 Gaussian 16, Revision C.01,

 ----------------------------------------------------------------------
 #t hf aug-cc-pvdz symm=none int=(grid=ultrafine) guess=(read,tcheck) s
 table=(opt,rrhf)
 ----------------------------------------------------------------------
 -----
 title
 -----
 Symbolic Z-matrix:
 Charge =  0 Multiplicity = 1

 SCF Done:  E(RHF) =  -344.635452400     A.U. after   14 cycles
 Normal termination of Gaussian 16 at Sat Apr  5 22:52:23 2025.
 Gaussian 16:  ES64L-G16RevC.01  3-Jul-2019

 ----------------------------------------------------------------------
 #t hf aug-cc-pvdz iop(5/13=1,5/36=2,99/5=2) pseudo=read geom=check gue
 ss=(read,tcheck) scf=(maxcycle=1)
 ----------------------------------------------------------------------
 -----
 title
 -----
 Structure from the checkpoint file:  "benzyl_alcohol.chk"
 Charge =  0 Multiplicity = 1

                         Standard orientation:
 ---------------------------------------------------------------------
 Center     Atomic      Atomic             Coordinates (Angstroms)
 Number     Number       Type             X           Y           Z
 ---------------------------------------------------------------------
      1          6           0        2.295875   -0.194875    0.152817
      2          6           0        1.760211    1.086177    0.147384
      3          6           0        1.459304   -1.293258   -0.029852
      4          6           0        0.392585    1.267430   -0.038587
      5          6           0        0.097012   -1.108725   -0.219163
      6          6           0       -0.452614    0.175941   -0.226405
      7          6           0       -1.935484    0.370754   -0.429766
      8          8           0       -2.736278   -0.345146    0.513236
      9          1           0        3.357833   -0.339687    0.298826
     10          1           0        2.403036    1.944269    0.291616
     11          1           0        1.872130   -2.293318   -0.028077
     12          1           0       -0.021144    2.268461   -0.038507
     13          1           0       -0.552474   -1.963339   -0.357038
     14          1           0       -2.174626    1.438864   -0.408291
     15          1           0       -2.241931   -0.013856   -1.403463
     16          1           0       -2.453932   -0.100885    1.400478
 ---------------------------------------------------------------------

 SCF Done:  E(RHF) =  -344.739730999     A.U. after    2 cycles

 The electronic state is 1-A.
 Alpha  occ. eigenvalues --  -20.57412 -11.29431 -11.25098 -11.24869 -11.24798
 Alpha  occ. eigenvalues --  -11.24743 -11.24657 -11.24462  -1.32161  -1.15015
 Alpha  occ. eigenvalues --   -1.03666  -1.01483  -0.92416  -0.83550  -0.81196
 Alpha  occ. eigenvalues --   -0.72097  -0.69058  -0.65471  -0.62873  -0.61844
 Alpha  occ. eigenvalues --   -0.60342  -0.59399  -0.54330  -0.51228  -0.50319
 Alpha  occ. eigenvalues --   -0.48925  -0.46509  -0.34534  -0.33979
 Alpha virt. eigenvalues --    0.03249   0.03962   0.04278   0.05441   0.05660
 Alpha virt. eigenvalues --    0.05887   0.07700   0.08034   0.09863   0.10371
 Alpha virt. eigenvalues --    0.11151   0.12612   0.13254   0.13802   0.14001

 Mulliken charges:
               1
     1  C    0.484044
     2  C    0.293775
     3  C    0.346525
     4  C    0.597647
     5  C    0.191489
     6  C    0.323761
     7  C    0.924719
     8  O   -0.571022
     9  H   -0.438885
    10  H   -0.445025
    11  H   -0.445938
    12  H   -0.547934
    13  H   -0.536155
    14  H   -0.231945
    15  H   -0.105221
    16  H    0.160167
 Sum of Mulliken charges =  -0.00000

 Dipole moment (field-independent basis, Debye):
    X=              1.4334    Y=              1.0236    Z=              0.3075  Tot=              1.7880

 Test job not archived.
 1\1\GINC-SE187\SP\RHF\Aug-CC-pVDZ\C7H8O1\OHZDE\05-Apr-2025\0\\#t hf au
 g-cc-pvdz iop(5/13=1,5/36=2,99/5=2) pseudo=read geom=check guess=(read
 ,tcheck) scf=(maxcycle=1)\\title\\0,1\C,0,2.295875,-0.194875,0.152817\
 C,0,1.760211,1.086177,0.147384\C,0,1.459304,-1.293258,-0.029852\C,0,0.
 392585,1.26743,-0.038587\C,0,0.097012,-1.108725,-0.219163\C,0,-0.45261
 4,0.175941,-0.226405\C,0,-1.935484,0.370754,-0.429766\O,0,-2.736278,-0
 .345146,0.513236\H,0,3.357833,-0.339687,0.298826\H,0,2.403036,1.944269
 ,0.291616\H,0,1.87213,-2.293318,-0.028077\H,0,-0.021144,2.268461,-0.03

 Normal termination of Gaussian 16 at Sat Apr  5 22:52:50 2025.
