 Gaussian 16, Revision C.01,

 ----------------------------------------------------------------------
 #t hf aug-cc-pvdz symm=none int=(grid=ultrafine) guess=(read,tcheck) s
 table=(opt,rrhf)
 ----------------------------------------------------------------------
 -----
 title
 -----
 Symbolic Z-matrix:
 Charge =  0 Multiplicity = 1

 SCF Done:  E(RHF) =  -343.473603836     A.U. after   16 cycles
 Normal termination of Gaussian 16 at Sat Apr  5 22:52:06 2025.
 Gaussian 16:  ES64L-G16RevC.01  3-Jul-2019

 ----------------------------------------------------------------------
 #t hf aug-cc-pvdz iop(5/13=1,5/36=2,99/5=2) pseudo=read geom=check gue
 ss=(read,tcheck) scf=(maxcycle=1)
 ----------------------------------------------------------------------
 -----
 title
 -----
 Structure from the checkpoint file:  "benzaldehyde.chk"
 Charge =  0 Multiplicity = 1

                         Standard orientation:
 ---------------------------------------------------------------------
 Center     Atomic      Atomic             Coordinates (Angstroms)
 Number     Number       Type             X           Y           Z
 ---------------------------------------------------------------------
      1          6           0        0.571069   -2.149970   -0.000000
      2          6           0        1.611083   -1.227341   -0.000000
      3          6           0       -0.754728   -1.717051   -0.000000
      4          6           0        1.324206    0.131604    0.000000
      5          6           0       -1.041517   -0.362317   -0.000000
      6          6           0        0.000000    0.570512    0.000000
      7          6           0       -0.284070    2.020789    0.000000
      8          8           0       -1.388905    2.512174    0.000000
      9          1           0        0.790975   -3.209245   -0.000000
     10          1           0        2.637810   -1.566777   -0.000000
     11          1           0       -1.558218   -2.441065   -0.000000
     12          1           0        2.126678    0.859329    0.000000
     13          1           0       -2.060939   -0.001955   -0.000000
     14          1           0        0.618676    2.664963    0.000000
 ---------------------------------------------------------------------

 SCF Done:  E(RHF) =  -343.576874842     A.U. after    2 cycles

 The electronic state is 1-A'.
 Alpha  occ. eigenvalues --  -20.57174 -11.34800 -11.27037 -11.26811 -11.26364
 Alpha  occ. eigenvalues --  -11.26128 -11.26085 -11.25927  -1.35873  -1.16645
 Alpha  occ. eigenvalues --   -1.04746  -1.03152  -0.89651  -0.85113  -0.79766
 Alpha  occ. eigenvalues --   -0.72886  -0.68818  -0.66425  -0.62931  -0.62709
 Alpha  occ. eigenvalues --   -0.61170  -0.56730  -0.53760  -0.51520  -0.51222
 Alpha  occ. eigenvalues --   -0.44342  -0.36128  -0.35789
 Alpha virt. eigenvalues --    0.02888   0.03652   0.04334   0.05453   0.05491
 Alpha virt. eigenvalues --    0.06310   0.07598   0.08623   0.09732   0.11038
 Alpha virt. eigenvalues --    0.11541   0.12622   0.13687   0.13729   0.13857

 Mulliken charges:
               1
     1  C    0.303707
     2  C    0.392166
     3  C    0.512612
     4  C    0.301594
     5  C    0.098440
     6  C    0.897377
     7  C    0.672812
     8  O   -0.505888
     9  H   -0.428925
    10  H   -0.436564
    11  H   -0.434153
    12  H   -0.548870
    13  H   -0.547751
    14  H   -0.276556
 Sum of Mulliken charges =  -0.00000

 Dipole moment (field-independent basis, Debye):
    X=              2.8453    Y=             -2.7513    Z=              0.0000  Tot=              3.9580

 Test job not archived.
 1\1\GINC-SE183\SP\RHF\Aug-CC-pVDZ\C7H6O1\OHZDE\05-Apr-2025\0\\#t hf au
 g-cc-pvdz iop(5/13=1,5/36=2,99/5=2) pseudo=read geom=check guess=(read
 ,tcheck) scf=(maxcycle=1)\\title\\0,1\C,0,0.571069,-2.14997,0.\C,0,1.6
 11083,-1.227341,0.\C,0,-0.754728,-1.717051,0.\C,0,1.324206,0.131604,0.
 \C,0,-1.041517,-0.362317,0.\C,0,0.,0.570512,0.\C,0,-0.28407,2.020789,0
 .\O,0,-1.388905,2.512174,0.\H,0,0.790975,-3.209245,0.\H,0,2.63781,-1.5
 66777,0.\H,0,-1.558218,-2.441065,0.\H,0,2.126678,0.859329,0.\H,0,-2.06
 0939,-0.001955,0.\H,0,0.618676,2.664963,0.\\Version=ES64L-G16RevC.01\S

 Normal termination of Gaussian 16 at Sat Apr  5 22:52:49 2025.
