 Gaussian 16, Revision C.01,

 ----------------------------------------------------------------------
 #t hf aug-cc-pvdz symm=none int=(grid=ultrafine) guess=(read,tcheck) s
 table=(opt,rrhf)
 ----------------------------------------------------------------------
 -----
 title
 -----
 Symbolic Z-matrix:
 Charge =  0 Multiplicity = 1

 SCF Done:  E(RHF) =  -230.728350653     A.U. after   10 cycles
 Normal termination of Gaussian 16 at Sat Apr  5 22:51:38 2025.
 Gaussian 16:  ES64L-G16RevC.01  3-Jul-2019

 ----------------------------------------------------------------------
 #t hf aug-cc-pvdz iop(5/13=1,5/36=2,99/5=2) pseudo=read geom=check gue
 ss=(read,tcheck) scf=(maxcycle=1)
 ----------------------------------------------------------------------
 -----
 title
 -----
 Structure from the checkpoint file:  "benzene.chk"
 Charge =  0 Multiplicity = 1

                         Standard orientation:
 ---------------------------------------------------------------------
 Center     Atomic      Atomic             Coordinates (Angstroms)
 Number     Number       Type             X           Y           Z
 ---------------------------------------------------------------------
      1          6           0       -0.000000   -0.000000    1.390589
      2          6           0        0.000000    1.204285    0.695294
      3          6           0       -0.000000   -1.204285    0.695294
      4          6           0        0.000000    1.204285   -0.695294
      5          6           0       -0.000000   -1.204285   -0.695294
      6          6           0        0.000000   -0.000000   -1.390589
      7          1           0       -0.000000    0.000000    2.472617
      8          1           0        0.000000    0.000000   -2.472617
      9          1           0       -0.000000   -2.141349    1.236308
     10          1           0        0.000000    2.141349   -1.236308
     11          1           0        0.000000    2.141349    1.236308
     12          1           0        0.000000   -2.141349   -1.236308
 ---------------------------------------------------------------------

 SCF Done:  E(RHF) =  -230.798048983     A.U. after    2 cycles

 The electronic state is 1-AG.
 Alpha  occ. eigenvalues --  -11.24497 -11.24446 -11.24446 -11.24325 -11.24325
 Alpha  occ. eigenvalues --  -11.24276  -1.14353  -1.01094  -1.01094  -0.82682
 Alpha  occ. eigenvalues --   -0.82682  -0.71538  -0.64564  -0.62693  -0.59327
 Alpha  occ. eigenvalues --   -0.59327  -0.50692  -0.49855  -0.49855  -0.34071
 Alpha  occ. eigenvalues --   -0.34071
 Alpha virt. eigenvalues --    0.03531   0.04199   0.04199   0.05791   0.05791
 Alpha virt. eigenvalues --    0.07649   0.10643   0.10643   0.12290   0.14342
 Alpha virt. eigenvalues --    0.14342   0.14595   0.14777   0.14777   0.14903

 Mulliken charges:
               1
     1  C    0.437598
     2  C    0.437600
     3  C    0.437600
     4  C    0.437600
     5  C    0.437600
     6  C    0.437598
     7  H   -0.437600
     8  H   -0.437600
     9  H   -0.437599
    10  H   -0.437599
    11  H   -0.437599
    12  H   -0.437599
 Sum of Mulliken charges =  -0.00000

 Dipole moment (field-independent basis, Debye):
    X=             -0.0000    Y=             -0.0000    Z=              0.0000  Tot=              0.0000

 Test job not archived.
 1\1\GINC-SE108\SP\RHF\Aug-CC-pVDZ\C6H6\OHZDE\05-Apr-2025\0\\#t hf aug-
 cc-pvdz iop(5/13=1,5/36=2,99/5=2) pseudo=read geom=check guess=(read,t
 check) scf=(maxcycle=1)\\title\\0,1\C,0,0.,1.390589,0.\C,0,1.204285,0.
 695294,0.\C,0,-1.204285,0.695294,0.\C,0,1.204285,-0.695294,0.\C,0,-1.2
 04285,-0.695294,0.\C,0,0.,-1.390589,0.\H,0,0.,2.472617,0.\H,0,0.,-2.47
 2617,0.\H,0,-2.141349,1.236308,0.\H,0,2.141349,-1.236308,0.\H,0,2.1413
 49,1.236308,0.\H,0,-2.141349,-1.236308,0.\\Version=ES64L-G16RevC.01\St
 ate=1-AG\HF=-230.798049\RMSD=1.147e-02\Dipole=0.,0.,0.\Quadrupole=2.28

 Normal termination of Gaussian 16 at Sat Apr  5 22:52:46 2025.
