 Gaussian 16, Revision C.01,

 ----------------------------------------------------------------------
 #t hf aug-cc-pvdz symm=none int=(grid=ultrafine) guess=(read,tcheck) s
 table=(opt,rrhf)
 ----------------------------------------------------------------------
 -----
 title
 -----
 Symbolic Z-matrix:
 Charge =  0 Multiplicity = 1

 SCF Done:  E(RHF) =  -628.258473862     A.U. after   15 cycles
 Normal termination of Gaussian 16 at Sat Apr  5 22:51:57 2025.
 Gaussian 16:  ES64L-G16RevC.01  3-Jul-2019

 ----------------------------------------------------------------------
 #t hf aug-cc-pvdz iop(5/13=1,5/36=2,99/5=2) pseudo=read geom=check gue
 ss=(read,tcheck) scf=(maxcycle=1)
 ----------------------------------------------------------------------
 -----
 title
 -----
 Structure from the checkpoint file:  "benzenethiol.chk"
 Charge =  0 Multiplicity = 1

                         Standard orientation:
 ---------------------------------------------------------------------
 Center     Atomic      Atomic             Coordinates (Angstroms)
 Number     Number       Type             X           Y           Z
 ---------------------------------------------------------------------
      1          6           0        0.007083   -2.289118    0.000000
      2          6           0        1.204721   -1.583554    0.000000
      3          6           0       -1.194960   -1.590256   -0.000000
      4          6           0        1.206584   -0.194173    0.000000
      5          6           0       -1.203315   -0.201715   -0.000000
      6          6           0       -0.000000    0.505241   -0.000000
      7         16           0       -0.086475    2.284006   -0.000000
      8          1           0        0.010419   -3.370141    0.000000
      9          1           0        2.147471   -2.114249    0.000000
     10          1           0       -2.134602   -2.126238   -0.000000
     11          1           0        2.146513    0.340962    0.000000
     12          1           0       -2.144219    0.332370   -0.000000
     13          1           0        1.237336    2.514654    0.000000
 ---------------------------------------------------------------------

 SCF Done:  E(RHF) =  -628.347014513     A.U. after    2 cycles

 The electronic state is 1-A'.
 Alpha  occ. eigenvalues --  -93.55001 -11.28856 -11.25445 -11.25384 -11.25287
 Alpha  occ. eigenvalues --  -11.25132 -11.24684  -8.84780  -6.18987  -6.18782
 Alpha  occ. eigenvalues --   -6.18364  -1.15925  -1.05115  -1.02160  -0.94340
 Alpha  occ. eigenvalues --   -0.84193  -0.81282  -0.70960  -0.65228  -0.64179
 Alpha  occ. eigenvalues --   -0.60299  -0.58380  -0.52863  -0.52765  -0.50794
 Alpha  occ. eigenvalues --   -0.46905  -0.41759  -0.35134  -0.31162
 Alpha virt. eigenvalues --    0.03379   0.03963   0.04375   0.05703   0.06150
 Alpha virt. eigenvalues --    0.07776   0.08988   0.09787   0.10312   0.11763
 Alpha virt. eigenvalues --    0.12010   0.13061   0.13959   0.14091   0.14187

 Mulliken charges:
               1
     1  C    0.285741
     2  C    0.682488
     3  C    0.509120
     4  C    0.413028
     5  C   -0.049694
     6  C    0.281849
     7  S    0.237322
     8  H   -0.432746
     9  H   -0.433530
    10  H   -0.436160
    11  H   -0.575684
    12  H   -0.486732
    13  H    0.004997
 Sum of Mulliken charges =  -0.00000

 Dipole moment (field-independent basis, Debye):
    X=              0.7896    Y=             -1.0145    Z=              0.0000  Tot=              1.2856

 Test job not archived.
 1\1\GINC-SE115\SP\RHF\Aug-CC-pVDZ\C6H6S1\OHZDE\05-Apr-2025\0\\#t hf au
 g-cc-pvdz iop(5/13=1,5/36=2,99/5=2) pseudo=read geom=check guess=(read
 ,tcheck) scf=(maxcycle=1)\\title\\0,1\C,0,0.007083,-2.289118,0.\C,0,1.
 204721,-1.583554,0.\C,0,-1.19496,-1.590256,0.\C,0,1.206584,-0.194173,0
 .\C,0,-1.203315,-0.201715,0.\C,0,0.,0.505241,0.\S,0,-0.086475,2.284006
 ,0.\H,0,0.010418,-3.370141,0.\H,0,2.147471,-2.114249,0.\H,0,-2.134602,
 -2.126238,0.\H,0,2.146513,0.340962,0.\H,0,-2.144219,0.33237,0.\H,0,1.2
 37336,2.514654,0.\\Version=ES64L-G16RevC.01\State=1-A'\HF=-628.3470145

 Normal termination of Gaussian 16 at Sat Apr  5 22:52:48 2025.
