 Gaussian 16, Revision C.01,

 ----------------------------------------------------------------------
 #t hf aug-cc-pvdz symm=none int=(grid=ultrafine) guess=(read,tcheck) s
 table=(opt,rrhf)
 ----------------------------------------------------------------------
 -----
 title
 -----
 Symbolic Z-matrix:
 Charge =  0 Multiplicity = 1

 SCF Done:  E(RHF) =  -623.077506327     A.U. after   16 cycles

 1\1\GINC-SE185\Stability\RHF\Aug-CC-pVDZ\C12H9N3\OHZDE\05-Apr-2025\0\\
 #t hf aug-cc-pvdz symm=none int=(grid=ultrafine) guess=(read,tcheck) s
 table=(opt,rrhf)\\title\\0,1\C,0,-2.260008,1.718793,0.\C,0,2.618522,1.
 097828,0.\C,0,-0.358514,-2.816621,0.\C,0,-1.636395,2.936436,0.\C,0,3.3
 61226,-0.051059,0.\C,0,-1.724831,-2.885378,0.\C,0,-1.235698,0.719678,0
 .\C,0,1.241108,0.710307,0.\C,0,-0.00541,-1.429985,0.\C,0,0.,1.392828,0
 .\C,0,1.206225,-0.696414,0.\C,0,-1.206225,-0.696414,0.\N,0,-0.273028,2
 .739129,0.\N,0,2.508669,-1.133115,0.\N,0,-2.235641,-1.606014,0.\H,0,-3

 Normal termination of Gaussian 16 at Sat Apr  5 22:58:16 2025.
 Gaussian 16:  ES64L-G16RevC.01  3-Jul-2019

 ----------------------------------------------------------------------
 #t hf aug-cc-pvdz iop(5/13=1,5/36=2,99/5=2) pseudo=read geom=check gue
 ss=(read,tcheck) scf=(maxcycle=1)
 ----------------------------------------------------------------------
 -----
 title
 -----
 Structure from the checkpoint file:  "benzo1-2-b-3-4-b--5-6-b--tripyrrole.chk"
 Charge =  0 Multiplicity = 1

                         Standard orientation:
 ---------------------------------------------------------------------
 Center     Atomic      Atomic             Coordinates (Angstroms)
 Number     Number       Type             X           Y           Z
 ---------------------------------------------------------------------
      1          6           0       -2.260008    1.718793    0.000000
      2          6           0        2.618522    1.097828   -0.000000
      3          6           0       -0.358514   -2.816621    0.000000
      4          6           0       -1.636395    2.936436   -0.000000
      5          6           0        3.361226   -0.051059   -0.000000
      6          6           0       -1.724831   -2.885378    0.000000
      7          6           0       -1.235698    0.719678    0.000000
      8          6           0        1.241108    0.710307   -0.000000
      9          6           0       -0.005410   -1.429985    0.000000
     10          6           0       -0.000000    1.392828   -0.000000
     11          6           0        1.206225   -0.696414   -0.000000
     12          6           0       -1.206225   -0.696414    0.000000
     13          7           0       -0.273028    2.739129   -0.000000
     14          7           0        2.508669   -1.133115   -0.000000
     15          7           0       -2.235641   -1.606014    0.000000
     16          1           0       -3.326106    1.566758    0.000000
     17          1           0        3.019905    2.097113   -0.000000
     18          1           0        0.306200   -3.663871    0.000000
     19          1           0       -2.050289    3.929412   -0.000000
     20          1           0        4.428115   -0.189104   -0.000000
     21          1           0       -2.377826   -3.740308    0.000000
     22          1           0        0.415105    3.468383   -0.000000
     23          1           0        2.796155   -2.093683   -0.000000
     24          1           0       -3.211260   -1.374700    0.000000
 ---------------------------------------------------------------------

 SCF Done:  E(RHF) =  -623.255610057     A.U. after    2 cycles

 The electronic state is 1-A'.
 Alpha  occ. eigenvalues --  -15.66207 -15.66207 -15.66206 -11.26854 -11.26854
 Alpha  occ. eigenvalues --  -11.26852 -11.26715 -11.26715 -11.26714 -11.22333
 Alpha  occ. eigenvalues --  -11.22333 -11.22331 -11.22243 -11.22243 -11.22242
 Alpha  occ. eigenvalues --   -1.26987  -1.25378  -1.25378  -1.08726  -1.04496
 Alpha  occ. eigenvalues --   -1.04496  -0.99811  -0.95461  -0.95461  -0.81820
 Alpha  occ. eigenvalues --   -0.81820  -0.81355  -0.78204  -0.77414  -0.77414
 Alpha  occ. eigenvalues --   -0.68025  -0.67361  -0.67361  -0.60121  -0.59871
 Alpha  occ. eigenvalues --   -0.59184  -0.59184  -0.58023  -0.57011  -0.57011
 Alpha  occ. eigenvalues --   -0.55790  -0.55790  -0.54852  -0.50340  -0.50340
 Alpha  occ. eigenvalues --   -0.40418  -0.37507  -0.37507  -0.32093  -0.25060
 Alpha  occ. eigenvalues --   -0.25060
 Alpha virt. eigenvalues --    0.03031   0.03031   0.03113   0.04587   0.04587
 Alpha virt. eigenvalues --    0.06166   0.07108   0.08094   0.08737   0.08737
 Alpha virt. eigenvalues --    0.10156   0.10636   0.10636   0.12307   0.12307

 Mulliken charges:
               1
     1  C    0.346800
     2  C    0.346801
     3  C    0.346807
     4  C    0.979360
     5  C    0.979360
     6  C    0.979361
     7  C    1.047594
     8  C    1.047590
     9  C    1.047587
    10  C   -0.917017
    11  C   -0.917017
    12  C   -0.917017
    13  N   -0.498717
    14  N   -0.498716
    15  N   -0.498717
    16  H   -0.445920
    17  H   -0.445921
    18  H   -0.445922
    19  H   -0.418717
    20  H   -0.418718
    21  H   -0.418719
    22  H   -0.093381
    23  H   -0.093380
    24  H   -0.093380
 Sum of Mulliken charges =  -0.00000

 Dipole moment (field-independent basis, Debye):
    X=             -0.0000    Y=             -0.0000    Z=              0.0000  Tot=              0.0000

 Test job not archived.
 1\1\GINC-SE185\SP\RHF\Aug-CC-pVDZ\C12H9N3\OHZDE\05-Apr-2025\0\\#t hf a
 ug-cc-pvdz iop(5/13=1,5/36=2,99/5=2) pseudo=read geom=check guess=(rea
 d,tcheck) scf=(maxcycle=1)\\title\\0,1\C,0,-2.260008,1.718793,0.\C,0,2
 .618522,1.097828,0.\C,0,-0.358514,-2.816621,0.\C,0,-1.636395,2.936436,
 0.\C,0,3.361226,-0.051059,0.\C,0,-1.724831,-2.885378,0.\C,0,-1.235698,
 0.719678,0.\C,0,1.241108,0.710307,0.\C,0,-0.00541,-1.429985,0.\C,0,0.,
 1.392828,0.\C,0,1.206225,-0.696414,0.\C,0,-1.206225,-0.696414,0.\N,0,-
 0.273028,2.739129,0.\N,0,2.508669,-1.133115,0.\N,0,-2.235641,-1.606014

 Normal termination of Gaussian 16 at Sat Apr  5 22:58:42 2025.
