 Gaussian 16, Revision C.01,

 ----------------------------------------------------------------------
 #t hf aug-cc-pvdz symm=none int=(grid=ultrafine) guess=(read,tcheck) s
 table=(opt,rrhf)
 ----------------------------------------------------------------------
 -----
 title
 -----
 Symbolic Z-matrix:
 Charge =  0 Multiplicity = 1

 SCF Done:  E(RHF) =  -229.412704976     A.U. after   13 cycles
 Normal termination of Gaussian 16 at Sat Apr  5 22:51:35 2025.
 Gaussian 16:  ES64L-G16RevC.01  3-Jul-2019

 ----------------------------------------------------------------------
 #t hf aug-cc-pvdz iop(5/13=1,5/36=2,99/5=2) pseudo=read geom=check gue
 ss=(read,tcheck) scf=(maxcycle=1)
 ----------------------------------------------------------------------
 -----
 title
 -----
 Structure from the checkpoint file:  "benzyne.chk"
 Charge =  0 Multiplicity = 1

                         Standard orientation:
 ---------------------------------------------------------------------
 Center     Atomic      Atomic             Coordinates (Angstroms)
 Number     Number       Type             X           Y           Z
 ---------------------------------------------------------------------
      1          6           0        0.000000    1.455634   -0.133697
      2          6           0        0.000000    0.700529    1.053581
      3          6           0       -0.000000   -0.700529    1.053581
      4          6           0       -0.000000   -1.455634   -0.133697
      5          6           0        0.000000   -0.620534   -1.230930
      6          6           0        0.000000    0.620534   -1.230930
      7          1           0        0.000000    2.535415   -0.135167
      8          1           0        0.000000    1.224463    2.001444
      9          1           0       -0.000000   -1.224463    2.001444
     10          1           0       -0.000000   -2.535415   -0.135167
 ---------------------------------------------------------------------

 SCF Done:  E(RHF) =  -229.481497463     A.U. after    2 cycles

 The electronic state is 1-A1.
 Alpha  occ. eigenvalues --  -11.28527 -11.28520 -11.26368 -11.26258 -11.26208
 Alpha  occ. eigenvalues --  -11.25895  -1.17060  -1.02821  -1.01527  -0.85401
 Alpha  occ. eigenvalues --   -0.79968  -0.70072  -0.65175  -0.64343  -0.55923
 Alpha  occ. eigenvalues --   -0.55522  -0.53494  -0.38065  -0.36153  -0.35876
 Alpha virt. eigenvalues --    0.03328   0.03814   0.04700   0.04830   0.06792
 Alpha virt. eigenvalues --    0.08695   0.08926   0.11722   0.11839   0.11886
 Alpha virt. eigenvalues --    0.13845   0.14113   0.14194   0.14403   0.14718

 Mulliken charges:
               1
     1  C    0.578791
     2  C    0.589433
     3  C    0.589433
     4  C    0.578791
     5  C   -0.424362
     6  C   -0.424362
     7  H   -0.316368
     8  H   -0.427494
     9  H   -0.427494
    10  H   -0.316368
 Sum of Mulliken charges =  -0.00000

 Dipole moment (field-independent basis, Debye):
    X=             -0.0000    Y=              0.0000    Z=              1.8482  Tot=              1.8482

 Test job not archived.
 1\1\GINC-SE226\SP\RHF\Aug-CC-pVDZ\C6H4\OHZDE\05-Apr-2025\0\\#t hf aug-
 cc-pvdz iop(5/13=1,5/36=2,99/5=2) pseudo=read geom=check guess=(read,t
 check) scf=(maxcycle=1)\\title\\0,1\C,0,0.,1.455634,-0.133697\C,0,0.,0
 .700529,1.053581\C,0,0.,-0.700529,1.053581\C,0,0.,-1.455634,-0.133697\
 C,0,0.,-0.620534,-1.23093\C,0,0.,0.620534,-1.23093\H,0,0.,2.535415,-0.
 135167\H,0,0.,1.224463,2.001444\H,0,0.,-1.224463,2.001444\H,0,0.,-2.53
 5415,-0.135167\\Version=ES64L-G16RevC.01\State=1-A1\HF=-229.4814975\RM
 SD=1.078e-02\Dipole=0.,0.,0.7271403\Quadrupole=-3.4063263,4.1890896,-0

 Normal termination of Gaussian 16 at Sat Apr  5 22:51:41 2025.
