 Gaussian 16, Revision C.01,

 ----------------------------------------------------------------------
 #t hf aug-cc-pvdz symm=none int=(grid=ultrafine) guess=(read,tcheck) s
 table=(opt,rrhf)
 ----------------------------------------------------------------------
 -----
 title
 -----
 Symbolic Z-matrix:
 Charge =  0 Multiplicity = 1

 SCF Done:  E(RHF) =  -682.531957009     A.U. after   16 cycles

 1\1\GINC-SE176\Stability\RHF\Aug-CC-pVDZ\C12H6O3\OHZDE\05-Apr-2025\0\\
 #t hf aug-cc-pvdz symm=none int=(grid=ultrafine) guess=(read,tcheck) s
 table=(opt,rrhf)\\title\\0,1\C,0,-2.229408,1.746979,0.\C,0,2.627632,1.
 057235,0.\C,0,-0.398224,-2.804213,0.\C,0,-1.554337,2.916926,0.\C,0,3.3
 033,-0.112368,0.\C,0,-1.748963,-2.804558,0.\C,0,-1.230229,0.713698,0.\
 C,0,1.233195,0.708561,0.\C,0,-0.002966,-1.422258,0.\C,0,0.,1.375748,0.
 \C,0,1.191433,-0.687874,0.\C,0,-1.191433,-0.687874,0.\O,0,-0.195326,2.
 723963,0.\O,0,2.456685,-1.192825,0.\O,0,-2.261359,-1.531139,0.\H,0,-3.

 Normal termination of Gaussian 16 at Sat Apr  5 22:56:38 2025.
 Gaussian 16:  ES64L-G16RevC.01  3-Jul-2019

 ----------------------------------------------------------------------
 #t hf aug-cc-pvdz iop(5/13=1,5/36=2,99/5=2) pseudo=read geom=check gue
 ss=(read,tcheck) scf=(maxcycle=1)
 ----------------------------------------------------------------------
 -----
 title
 -----
 Structure from the checkpoint file:  "benzo1-2-b-3-4-b--5-6-b--trifuran.chk"
 Charge =  0 Multiplicity = 1

                         Standard orientation:
 ---------------------------------------------------------------------
 Center     Atomic      Atomic             Coordinates (Angstroms)
 Number     Number       Type             X           Y           Z
 ---------------------------------------------------------------------
      1          6           0       -2.229408    1.746979   -0.000000
      2          6           0        2.627632    1.057235   -0.000000
      3          6           0       -0.398224   -2.804213    0.000000
      4          6           0       -1.554337    2.916926   -0.000000
      5          6           0        3.303300   -0.112368   -0.000000
      6          6           0       -1.748963   -2.804558    0.000000
      7          6           0       -1.230229    0.713698   -0.000000
      8          6           0        1.233195    0.708561   -0.000000
      9          6           0       -0.002966   -1.422258    0.000000
     10          6           0        0.000000    1.375748   -0.000000
     11          6           0        1.191433   -0.687874    0.000000
     12          6           0       -1.191433   -0.687874    0.000000
     13          8           0       -0.195326    2.723963   -0.000000
     14          8           0        2.456685   -1.192825    0.000000
     15          8           0       -2.261359   -1.531139    0.000000
     16          1           0       -3.298343    1.627719   -0.000000
     17          1           0        3.058818    2.042589   -0.000000
     18          1           0        0.239525   -3.670309    0.000000
     19          1           0       -1.873962    3.943054   -0.000000
     20          1           0        4.351766   -0.348628   -0.000000
     21          1           0       -2.477803   -3.594426    0.000000
 ---------------------------------------------------------------------

 SCF Done:  E(RHF) =  -682.736611133     A.U. after    2 cycles

 The electronic state is 1-A'.
 Alpha  occ. eigenvalues --  -20.64173 -20.64173 -20.64173 -11.31686 -11.31686
 Alpha  occ. eigenvalues --  -11.31683 -11.31117 -11.31117 -11.31116 -11.25426
 Alpha  occ. eigenvalues --  -11.25426 -11.25422 -11.25157 -11.25156 -11.25156
 Alpha  occ. eigenvalues --   -1.42753  -1.42328  -1.42328  -1.15486  -1.09512
 Alpha  occ. eigenvalues --   -1.09512  -1.04433  -0.99863  -0.99863  -0.86266
 Alpha  occ. eigenvalues --   -0.85549  -0.85549  -0.78814  -0.78814  -0.77917
 Alpha  occ. eigenvalues --   -0.72121  -0.69632  -0.69632  -0.67738  -0.65318
 Alpha  occ. eigenvalues --   -0.65318  -0.61707  -0.61698  -0.61697  -0.58982
 Alpha  occ. eigenvalues --   -0.58982  -0.58426  -0.57485  -0.53136  -0.53136
 Alpha  occ. eigenvalues --   -0.48405  -0.42703  -0.42703  -0.36857  -0.29367
 Alpha  occ. eigenvalues --   -0.29367
 Alpha virt. eigenvalues --    0.03360   0.03550   0.03550   0.04979   0.04979
 Alpha virt. eigenvalues --    0.06148   0.08667   0.08832   0.09317   0.09317
 Alpha virt. eigenvalues --    0.10694   0.10776   0.10776   0.11811   0.11811

 Mulliken charges:
               1
     1  C    0.430724
     2  C    0.430729
     3  C    0.430718
     4  C    0.833042
     5  C    0.833039
     6  C    0.833042
     7  C    0.511541
     8  C    0.511541
     9  C    0.511550
    10  C   -0.332213
    11  C   -0.332211
    12  C   -0.332212
    13  O   -0.665247
    14  O   -0.665247
    15  O   -0.665247
    16  H   -0.367078
    17  H   -0.367079
    18  H   -0.367077
    19  H   -0.410771
    20  H   -0.410771
    21  H   -0.410771
 Sum of Mulliken charges =  -0.00000

 Dipole moment (field-independent basis, Debye):
    X=             -0.0000    Y=              0.0000    Z=             -0.0000  Tot=              0.0000

 Test job not archived.
 1\1\GINC-SE176\SP\RHF\Aug-CC-pVDZ\C12H6O3\OHZDE\05-Apr-2025\0\\#t hf a
 ug-cc-pvdz iop(5/13=1,5/36=2,99/5=2) pseudo=read geom=check guess=(rea
 d,tcheck) scf=(maxcycle=1)\\title\\0,1\C,0,-2.229408,1.746979,0.\C,0,2
 .627632,1.057235,0.\C,0,-0.398224,-2.804213,0.\C,0,-1.554337,2.916926,
 0.\C,0,3.3033,-0.112368,0.\C,0,-1.748963,-2.804558,0.\C,0,-1.230229,0.
 713698,0.\C,0,1.233195,0.708561,0.\C,0,-0.002966,-1.422258,0.\C,0,0.,1
 .375748,0.\C,0,1.191433,-0.687874,0.\C,0,-1.191433,-0.687874,0.\O,0,-0
 .195326,2.723963,0.\O,0,2.456685,-1.192825,0.\O,0,-2.261359,-1.531139,

 Normal termination of Gaussian 16 at Sat Apr  5 22:56:59 2025.
