 Gaussian 16, Revision C.01,

 ----------------------------------------------------------------------
 #t hf aug-cc-pvdz symm=none int=(grid=ultrafine) guess=(read,tcheck) s
 table=(opt,rrhf)
 ----------------------------------------------------------------------
 -----
 title
 -----
 Symbolic Z-matrix:
 Charge =  0 Multiplicity = 1

 SCF Done:  E(RHF) =  -322.472439720     A.U. after   15 cycles
 Normal termination of Gaussian 16 at Sat Apr  5 22:53:20 2025.
 Gaussian 16:  ES64L-G16RevC.01  3-Jul-2019

 ----------------------------------------------------------------------
 #t hf aug-cc-pvdz iop(5/13=1,5/36=2,99/5=2) pseudo=read geom=check gue
 ss=(read,tcheck) scf=(maxcycle=1)
 ----------------------------------------------------------------------
 -----
 title
 -----
 Structure from the checkpoint file:  "benzonitrile.chk"
 Charge =  0 Multiplicity = 1

                         Standard orientation:
 ---------------------------------------------------------------------
 Center     Atomic      Atomic             Coordinates (Angstroms)
 Number     Number       Type             X           Y           Z
 ---------------------------------------------------------------------
      1          6           0        0.000000   -0.000000    2.038408
      2          6           0        0.000000    0.000000   -2.171450
      3          6           0        0.000000    1.205362   -1.477349
      4          6           0       -0.000000   -1.205362   -1.477349
      5          6           0        0.000000    1.211491   -0.090773
      6          6           0       -0.000000   -1.211491   -0.090773
      7          6           0        0.000000   -0.000000    0.608724
      8          7           0        0.000000   -0.000000    3.190989
      9          1           0        0.000000    0.000000   -3.252992
     10          1           0        0.000000    2.142437   -2.016824
     11          1           0       -0.000000   -2.142437   -2.016824
     12          1           0        0.000000    2.143254    0.456544
     13          1           0       -0.000000   -2.143254    0.456544
 ---------------------------------------------------------------------

 SCF Done:  E(RHF) =  -322.566826995     A.U. after    2 cycles

 The electronic state is 1-A1.
 Alpha  occ. eigenvalues --  -15.64182 -11.29972 -11.29083 -11.28102 -11.28098
 Alpha  occ. eigenvalues --  -11.27643 -11.27099 -11.27089  -1.20423  -1.17268
 Alpha  occ. eigenvalues --   -1.05868  -1.04432  -0.89043  -0.86268  -0.77151
 Alpha  occ. eigenvalues --   -0.70386  -0.66953  -0.64210  -0.62458  -0.55978
 Alpha  occ. eigenvalues --   -0.55872  -0.53675  -0.53454  -0.48456  -0.46871
 Alpha  occ. eigenvalues --   -0.37089  -0.36154
 Alpha virt. eigenvalues --    0.02523   0.03525   0.04321   0.05589   0.06127
 Alpha virt. eigenvalues --    0.06269   0.08458   0.09106   0.09794   0.10872
 Alpha virt. eigenvalues --    0.11937   0.12825   0.13142   0.13429   0.13685

 Mulliken charges:
               1
     1  C   -1.199982
     2  C    0.196067
     3  C    0.681749
     4  C    0.681749
     5  C    0.024253
     6  C    0.024253
     7  C    2.027872
     8  N   -0.120782
     9  H   -0.433950
    10  H   -0.413184
    11  H   -0.413184
    12  H   -0.527431
    13  H   -0.527431
 Sum of Mulliken charges =  -0.00000

 Dipole moment (field-independent basis, Debye):
    X=              0.0000    Y=             -0.0000    Z=             -4.8645  Tot=              4.8645

 Test job not archived.
 1\1\GINC-SE232\SP\RHF\Aug-CC-pVDZ\C7H5N1\OHZDE\05-Apr-2025\0\\#t hf au
 g-cc-pvdz iop(5/13=1,5/36=2,99/5=2) pseudo=read geom=check guess=(read
 ,tcheck) scf=(maxcycle=1)\\title\\0,1\C,0,0.,0.,2.038408\C,0,0.,0.,-2.
 17145\C,0,0.,1.205362,-1.477349\C,0,0.,-1.205362,-1.477349\C,0,0.,1.21
 1491,-0.090773\C,0,0.,-1.211491,-0.090773\C,0,0.,0.,0.608724\N,0,0.,0.
 ,3.190989\H,0,0.,0.,-3.252992\H,0,0.,2.142437,-2.016824\H,0,0.,-2.1424
 37,-2.016824\H,0,0.,2.143254,0.456544\H,0,0.,-2.143254,0.456544\\Versi
 on=ES64L-G16RevC.01\State=1-A1\HF=-322.566827\RMSD=1.145e-02\Dipole=0.

 Normal termination of Gaussian 16 at Sat Apr  5 22:53:36 2025.
