 Gaussian 16, Revision C.01,

 ----------------------------------------------------------------------
 #t hf aug-cc-pvdz symm=none int=(grid=ultrafine) guess=(read,tcheck) s
 table=(opt,rrhf)
 ----------------------------------------------------------------------
 -----
 title
 -----
 Symbolic Z-matrix:
 Charge =  0 Multiplicity = 1

 SCF Done:  E(RHF) =  -704.003136738     A.U. after   18 cycles
 Normal termination of Gaussian 16 at Sat Apr  5 22:52:38 2025.
 Gaussian 16:  ES64L-G16RevC.01  3-Jul-2019

 ----------------------------------------------------------------------
 #t hf aug-cc-pvdz iop(5/13=1,5/36=2,99/5=2) pseudo=read geom=check gue
 ss=(read,tcheck) scf=(maxcycle=1)
 ----------------------------------------------------------------------
 -----
 title
 -----
 Structure from the checkpoint file:  "benzothiophene.chk"
 Charge =  0 Multiplicity = 1

                         Standard orientation:
 ---------------------------------------------------------------------
 Center     Atomic      Atomic             Coordinates (Angstroms)
 Number     Number       Type             X           Y           Z
 ---------------------------------------------------------------------
      1          6           0        2.419842   -0.781506    0.000000
      2          6           0        2.384977    0.620139    0.000000
      3          6           0        1.250934   -1.517608   -0.000000
      4          6           0        1.179130    1.298960    0.000000
      5          6           0       -1.312092   -1.405181   -0.000000
      6          6           0       -2.275718   -0.456495   -0.000000
      7          6           0        0.014337   -0.856085   -0.000000
      8          6           0        0.000000    0.556152    0.000000
      9         16           0       -1.639275    1.165435   -0.000000
     10          1           0        3.374674   -1.289610    0.000000
     11          1           0        3.311216    1.178597    0.000000
     12          1           0        1.282913   -2.599422   -0.000000
     13          1           0        1.154241    2.380060    0.000000
     14          1           0       -1.519954   -2.465202   -0.000000
     15          1           0       -3.343153   -0.601646   -0.000000
 ---------------------------------------------------------------------

 SCF Done:  E(RHF) =  -704.114068906     A.U. after    2 cycles

 The electronic state is 1-A'.
 Alpha  occ. eigenvalues --  -93.56050 -11.28041 -11.27856 -11.25656 -11.25433
 Alpha  occ. eigenvalues --  -11.25251 -11.25152 -11.24952 -11.24686  -8.85883
 Alpha  occ. eigenvalues --   -6.20035  -6.19897  -6.19497  -1.18302  -1.10832
 Alpha  occ. eigenvalues --   -1.03722  -0.98783  -0.95533  -0.84501  -0.80224
 Alpha  occ. eigenvalues --   -0.77720  -0.69326  -0.66706  -0.64465  -0.60467
 Alpha  occ. eigenvalues --   -0.60306  -0.55282  -0.55010  -0.51807  -0.50506
 Alpha  occ. eigenvalues --   -0.46816  -0.46100  -0.39247  -0.32208  -0.30333
 Alpha virt. eigenvalues --    0.03465   0.03645   0.04245   0.05232   0.05846
 Alpha virt. eigenvalues --    0.07440   0.08552   0.09158   0.09491   0.10923
 Alpha virt. eigenvalues --    0.11031   0.12533   0.12624   0.12923   0.13691

 Mulliken charges:
               1
     1  C    0.333652
     2  C    0.373517
     3  C    0.759252
     4  C    0.164975
     5  C    0.342638
     6  C   -0.098461
     7  C    0.124629
     8  C    0.017428
     9  S    0.663856
    10  H   -0.458907
    11  H   -0.440476
    12  H   -0.516745
    13  H   -0.458075
    14  H   -0.431455
    15  H   -0.375829
 Sum of Mulliken charges =  -0.00000

 Dipole moment (field-independent basis, Debye):
    X=              0.2308    Y=             -0.8854    Z=             -0.0000  Tot=              0.9149

 Test job not archived.
 1\1\GINC-SE188\SP\RHF\Aug-CC-pVDZ\C8H6S1\OHZDE\05-Apr-2025\0\\#t hf au
 g-cc-pvdz iop(5/13=1,5/36=2,99/5=2) pseudo=read geom=check guess=(read
 ,tcheck) scf=(maxcycle=1)\\title\\0,1\C,0,2.419842,-0.781506,0.\C,0,2.
 384977,0.620139,0.\C,0,1.250934,-1.517608,0.\C,0,1.17913,1.29896,0.\C,
 0,-1.312092,-1.405181,0.\C,0,-2.275718,-0.456495,0.\C,0,0.014337,-0.85
 6085,0.\C,0,0.,0.556152,0.\S,0,-1.639275,1.165435,0.\H,0,3.374674,-1.2
 8961,0.\H,0,3.311216,1.178597,0.\H,0,1.282913,-2.599422,0.\H,0,1.15424
 1,2.38006,0.\H,0,-1.519954,-2.465202,0.\H,0,-3.343153,-0.601646,0.\\Ve

 Normal termination of Gaussian 16 at Sat Apr  5 22:52:51 2025.
