 Gaussian 16, Revision C.01,

 ----------------------------------------------------------------------
 #t hf aug-cc-pvdz symm=none int=(grid=ultrafine) guess=(read,tcheck) s
 table=(opt,rrhf)
 ----------------------------------------------------------------------
 -----
 title
 -----
 Symbolic Z-matrix:
 Charge =  0 Multiplicity = 1

 SCF Done:  E(RHF) =  -381.330845280     A.U. after   17 cycles
 Normal termination of Gaussian 16 at Sat Apr  5 22:52:36 2025.
 Gaussian 16:  ES64L-G16RevC.01  3-Jul-2019

 ----------------------------------------------------------------------
 #t hf aug-cc-pvdz iop(5/13=1,5/36=2,99/5=2) pseudo=read geom=check gue
 ss=(read,tcheck) scf=(maxcycle=1)
 ----------------------------------------------------------------------
 -----
 title
 -----
 Structure from the checkpoint file:  "benzofuran.chk"
 Charge =  0 Multiplicity = 1

                         Standard orientation:
 ---------------------------------------------------------------------
 Center     Atomic      Atomic             Coordinates (Angstroms)
 Number     Number       Type             X           Y           Z
 ---------------------------------------------------------------------
      1          6           0        1.747263   -1.406167    0.000000
      2          6           0        2.223038   -0.087275    0.000000
      3          6           0        0.389336   -1.682725    0.000000
      4          6           0        1.351487    0.993360   -0.000000
      5          6           0       -1.940990   -0.463643   -0.000000
      6          6           0       -2.180642    0.864075   -0.000000
      7          6           0       -0.508089   -0.610981    0.000000
      8          6           0        0.000000    0.695937   -0.000000
      9          8           0       -1.024824    1.601092   -0.000000
     10          1           0        2.457684   -2.221739    0.000000
     11          1           0        3.289485    0.091942    0.000000
     12          1           0        0.033887   -2.704379    0.000000
     13          1           0        1.703212    2.015004   -0.000000
     14          1           0       -2.683681   -1.242643    0.000000
     15          1           0       -3.090416    1.437594   -0.000000
 ---------------------------------------------------------------------

 SCF Done:  E(RHF) =  -381.445620536     A.U. after    2 cycles

 The electronic state is 1-A'.
 Alpha  occ. eigenvalues --  -20.63530 -11.31298 -11.30422 -11.25139 -11.25015
 Alpha  occ. eigenvalues --  -11.24943 -11.24813 -11.24688 -11.24249  -1.41935
 Alpha  occ. eigenvalues --   -1.14836  -1.07941  -1.01579  -0.99284  -0.86351
 Alpha  occ. eigenvalues --   -0.82381  -0.80653  -0.72560  -0.68845  -0.66824
 Alpha  occ. eigenvalues --   -0.65697  -0.61921  -0.60322  -0.58693  -0.56876
 Alpha  occ. eigenvalues --   -0.52781  -0.49972  -0.49879  -0.41502  -0.33297
 Alpha  occ. eigenvalues --   -0.30738
 Alpha virt. eigenvalues --    0.03436   0.03707   0.04056   0.05271   0.05703
 Alpha virt. eigenvalues --    0.07358   0.08309   0.10470   0.10539   0.11427
 Alpha virt. eigenvalues --    0.11864   0.12515   0.12893   0.13618   0.13865

 Mulliken charges:
               1
     1  C    0.512566
     2  C    0.448688
     3  C    0.934713
     4  C    0.720915
     5  C    0.485448
     6  C    0.696582
     7  C   -0.118296
     8  C   -0.476061
     9  O   -0.633887
    10  H   -0.467505
    11  H   -0.445004
    12  H   -0.459450
    13  H   -0.494379
    14  H   -0.352028
    15  H   -0.352301
 Sum of Mulliken charges =  -0.00000

 Dipole moment (field-independent basis, Debye):
    X=             -0.5201    Y=             -0.8561    Z=              0.0000  Tot=              1.0017

 Test job not archived.
 1\1\GINC-SE196\SP\RHF\Aug-CC-pVDZ\C8H6O1\OHZDE\05-Apr-2025\0\\#t hf au
 g-cc-pvdz iop(5/13=1,5/36=2,99/5=2) pseudo=read geom=check guess=(read
 ,tcheck) scf=(maxcycle=1)\\title\\0,1\C,0,1.747263,-1.406167,0.\C,0,2.
 223038,-0.087275,0.\C,0,0.389336,-1.682725,0.\C,0,1.351487,0.99336,0.\
 C,0,-1.94099,-0.463643,0.\C,0,-2.180642,0.864075,0.\C,0,-0.508089,-0.6
 10981,0.\C,0,0.,0.695937,0.\O,0,-1.024824,1.601092,0.\H,0,2.457684,-2.
 221739,0.\H,0,3.289485,0.091942,0.\H,0,0.033887,-2.704379,0.\H,0,1.703
 212,2.015004,0.\H,0,-2.683681,-1.242643,0.\H,0,-3.090416,1.437594,0.\\

 Normal termination of Gaussian 16 at Sat Apr  5 22:52:50 2025.
