 Gaussian 16, Revision C.01,

 ----------------------------------------------------------------------
 #t hf aug-cc-pvdz symm=none int=(grid=ultrafine) guess=(read,tcheck) s
 table=(opt,rrhf)
 ----------------------------------------------------------------------
 -----
 title
 -----
 Symbolic Z-matrix:
 Charge =  0 Multiplicity = 1

 SCF Done:  E(RHF) =  -398.542734039     A.U. after   16 cycles
 Normal termination of Gaussian 16 at Sat Apr  5 22:52:27 2025.
 Gaussian 16:  ES64L-G16RevC.01  3-Jul-2019

 ----------------------------------------------------------------------
 #t hf aug-cc-pvdz iop(5/13=1,5/36=2,99/5=2) pseudo=read geom=check gue
 ss=(read,tcheck) scf=(maxcycle=1)
 ----------------------------------------------------------------------
 -----
 title
 -----
 Structure from the checkpoint file:  "benzamide.chk"
 Charge =  0 Multiplicity = 1

                         Standard orientation:
 ---------------------------------------------------------------------
 Center     Atomic      Atomic             Coordinates (Angstroms)
 Number     Number       Type             X           Y           Z
 ---------------------------------------------------------------------
      1          6           0       -2.571902    0.046888    0.020768
      2          6           0       -1.848389    1.223950   -0.131564
      3          6           0       -1.902431   -1.166543    0.145550
      4          6           0       -0.459401    1.189827   -0.147202
      5          6           0       -0.515903   -1.202319    0.120287
      6          6           0        0.218670   -0.023721   -0.016122
      7          6           0        1.715052   -0.135921   -0.035243
      8          7           0        2.416666    1.006941    0.237137
      9          8           0        2.280280   -1.184451   -0.295323
     10          1           0       -3.653148    0.074322    0.035323
     11          1           0       -2.364586    2.167480   -0.245942
     12          1           0       -2.462548   -2.084753    0.259361
     13          1           0        0.086801    2.111464   -0.297061
     14          1           0        0.020859   -2.136416    0.202736
     15          1           0        1.984571    1.789885    0.692283
     16          1           0        3.414974    0.912074    0.317082
 ---------------------------------------------------------------------

 SCF Done:  E(RHF) =  -398.662590101     A.U. after    2 cycles

 The electronic state is 1-A.
 Alpha  occ. eigenvalues --  -20.53711 -15.65061 -11.37151 -11.26506 -11.26229
 Alpha  occ. eigenvalues --  -11.26070 -11.25668 -11.25573 -11.25367  -1.34951
 Alpha  occ. eigenvalues --   -1.18310  -1.15710  -1.03629  -1.02534  -0.88097
 Alpha  occ. eigenvalues --   -0.84430  -0.79435  -0.75219  -0.70111  -0.67991
 Alpha  occ. eigenvalues --   -0.64670  -0.63047  -0.61002  -0.60411  -0.58514
 Alpha  occ. eigenvalues --   -0.53030  -0.51417  -0.51028  -0.44848  -0.42177
 Alpha  occ. eigenvalues --   -0.35622  -0.35237
 Alpha virt. eigenvalues --    0.02689   0.03434   0.04183   0.05309   0.06066
 Alpha virt. eigenvalues --    0.06130   0.07320   0.07871   0.09878   0.10984
 Alpha virt. eigenvalues --    0.11351   0.12039   0.12861   0.13225   0.13598

 Mulliken charges:
               1
     1  C    0.319968
     2  C    0.485590
     3  C    0.595180
     4  C    0.350645
     5  C   -0.020253
     6  C    1.256977
     7  C    0.161303
     8  N   -0.156769
     9  O   -0.519742
    10  H   -0.437122
    11  H   -0.446644
    12  H   -0.417166
    13  H   -0.594127
    14  H   -0.586508
    15  H   -0.019392
    16  H    0.028061
 Sum of Mulliken charges =   0.00000

 Dipole moment (field-independent basis, Debye):
    X=             -1.9556    Y=              3.4585    Z=              1.4111  Tot=              4.2163

 Test job not archived.
 1\1\GINC-SE199\SP\RHF\Aug-CC-pVDZ\C7H7N1O1\OHZDE\05-Apr-2025\0\\#t hf
 aug-cc-pvdz iop(5/13=1,5/36=2,99/5=2) pseudo=read geom=check guess=(re
 ad,tcheck) scf=(maxcycle=1)\\title\\0,1\C,0,-2.571902,0.046888,0.02076
 8\C,0,-1.848389,1.22395,-0.131564\C,0,-1.902431,-1.166543,0.14555\C,0,
 -0.459401,1.189827,-0.147202\C,0,-0.515903,-1.202319,0.120287\C,0,0.21
 867,-0.023721,-0.016122\C,0,1.715052,-0.135921,-0.035243\N,0,2.416666,
 1.006941,0.237137\O,0,2.28028,-1.184451,-0.295323\H,0,-3.653148,0.0743
 22,0.035323\H,0,-2.364586,2.16748,-0.245942\H,0,-2.462548,-2.084753,0.

 Normal termination of Gaussian 16 at Sat Apr  5 22:52:51 2025.
