 Gaussian 16, Revision C.01,

 ----------------------------------------------------------------------
 #t hf aug-cc-pvdz symm=none int=(grid=ultrafine) guess=(read,tcheck) s
 table=(opt,rrhf)
 ----------------------------------------------------------------------
 -----
 title
 -----
 Symbolic Z-matrix:
 Charge =  0 Multiplicity = 1

 SCF Done:  E(RHF) =  -379.284340741     A.U. after   12 cycles
 Normal termination of Gaussian 16 at Sat Apr  5 22:52:00 2025.
 Gaussian 16:  ES64L-G16RevC.01  3-Jul-2019

 ----------------------------------------------------------------------
 #t hf aug-cc-pvdz iop(5/13=1,5/36=2,99/5=2) pseudo=read geom=check gue
 ss=(read,tcheck) scf=(maxcycle=1)
 ----------------------------------------------------------------------
 -----
 title
 -----
 Structure from the checkpoint file:  "benzoquinone.chk"
 Charge =  0 Multiplicity = 1

                         Standard orientation:
 ---------------------------------------------------------------------
 Center     Atomic      Atomic             Coordinates (Angstroms)
 Number     Number       Type             X           Y           Z
 ---------------------------------------------------------------------
      1          6           0        0.000000    0.000000    1.438198
      2          6           0        0.000000    0.000000   -1.438198
      3          8           0        0.000000    0.000000    2.656988
      4          8           0        0.000000    0.000000   -2.656988
      5          6           0        0.000000    1.265716    0.667837
      6          6           0       -0.000000   -1.265716    0.667837
      7          6           0       -0.000000   -1.265716   -0.667837
      8          6           0        0.000000    1.265716   -0.667837
      9          1           0        0.000000    2.176019    1.252736
     10          1           0       -0.000000   -2.176019    1.252736
     11          1           0       -0.000000   -2.176019   -1.252736
     12          1           0        0.000000    2.176019   -1.252736
 ---------------------------------------------------------------------

 SCF Done:  E(RHF) =  -379.397867935     A.U. after    2 cycles

 The electronic state is 1-AG.
 Alpha  occ. eigenvalues --  -20.59603 -20.59603 -11.37422 -11.37417 -11.29385
 Alpha  occ. eigenvalues --  -11.29378 -11.29221 -11.29218  -1.38218  -1.37934
 Alpha  occ. eigenvalues --   -1.15532  -1.07460  -0.96422  -0.87967  -0.83720
 Alpha  occ. eigenvalues --   -0.72980  -0.72557  -0.70197  -0.64950  -0.63997
 Alpha  occ. eigenvalues --   -0.61774  -0.60859  -0.59851  -0.57143  -0.48306
 Alpha  occ. eigenvalues --   -0.45573  -0.42782  -0.41679
 Alpha virt. eigenvalues --   -0.00672   0.03093   0.03608   0.04717   0.05833
 Alpha virt. eigenvalues --    0.08638   0.09578   0.10156   0.11290   0.12483
 Alpha virt. eigenvalues --    0.13099   0.13177   0.13254   0.13764   0.14078

 Mulliken charges:
               1
     1  C   -0.144616
     2  C   -0.144616
     3  O   -0.491645
     4  O   -0.491645
     5  C    0.733000
     6  C    0.733000
     7  C    0.733000
     8  C    0.733000
     9  H   -0.414869
    10  H   -0.414869
    11  H   -0.414869
    12  H   -0.414869
 Sum of Mulliken charges =  -0.00000

 Dipole moment (field-independent basis, Debye):
    X=             -0.0000    Y=             -0.0000    Z=              0.0000  Tot=              0.0000

 Test job not archived.
 1\1\GINC-SE179\SP\RHF\Aug-CC-pVDZ\C6H4O2\OHZDE\05-Apr-2025\0\\#t hf au
 g-cc-pvdz iop(5/13=1,5/36=2,99/5=2) pseudo=read geom=check guess=(read
 ,tcheck) scf=(maxcycle=1)\\title\\0,1\C,0,0.,0.,1.438198\C,0,0.,0.,-1.
 438198\O,0,0.,0.,2.656988\O,0,0.,0.,-2.656988\C,0,0.,1.265716,0.667837
 \C,0,0.,-1.265716,0.667837\C,0,0.,-1.265716,-0.667837\C,0,0.,1.265716,
 -0.667837\H,0,0.,2.176019,1.252736\H,0,0.,-2.176019,1.252736\H,0,0.,-2
 .176019,-1.252736\H,0,0.,2.176019,-1.252736\\Version=ES64L-G16RevC.01\
 State=1-AG\HF=-379.3978679\RMSD=1.064e-02\Dipole=0.,0.,0.\Quadrupole=2

 Normal termination of Gaussian 16 at Sat Apr  5 22:52:48 2025.
