 Gaussian 16, Revision C.01,

 ----------------------------------------------------------------------
 #t hf aug-cc-pvdz symm=none int=(grid=ultrafine) guess=(read,tcheck) s
 table=(opt,rrhf)
 ----------------------------------------------------------------------
 -----
 title
 -----
 Symbolic Z-matrix:
 Charge =  0 Multiplicity = 1

 SCF Done:  E(RHF) =  -395.860565625     A.U. after   14 cycles
 Normal termination of Gaussian 16 at Sat Apr  5 22:52:33 2025.
 Gaussian 16:  ES64L-G16RevC.01  3-Jul-2019

 ----------------------------------------------------------------------
 #t hf aug-cc-pvdz iop(5/13=1,5/36=2,99/5=2) pseudo=read geom=check gue
 ss=(read,tcheck) scf=(maxcycle=1)
 ----------------------------------------------------------------------
 -----
 title
 -----
 Structure from the checkpoint file:  "benzene-1-3-5-triamine.chk"
 Charge =  0 Multiplicity = 1

                         Standard orientation:
 ---------------------------------------------------------------------
 Center     Atomic      Atomic             Coordinates (Angstroms)
 Number     Number       Type             X           Y           Z
 ---------------------------------------------------------------------
      1          6           0       -0.005270   -1.396197   -0.000000
      2          6           0       -0.005270    0.698099    1.209142
      3          6           0       -0.005270    0.698099   -1.209142
      4          6           0       -0.006832   -0.697921    1.208834
      5          6           0       -0.006832   -0.697921   -1.208834
      6          6           0       -0.006832    1.395841   -0.000000
      7          7           0       -0.064461   -1.395250    2.416644
      8          7           0       -0.064461   -1.395250   -2.416644
      9          7           0       -0.064461    2.790500   -0.000000
     10          1           0       -0.023214   -2.479119   -0.000000
     11          1           0       -0.023214    1.239560    2.146980
     12          1           0       -0.023214    1.239560   -2.146980
     13          1           0        0.273528   -0.895252    3.222171
     14          1           0        0.273528   -2.342856    2.386397
     15          1           0        0.273528   -2.342856   -2.386397
     16          1           0        0.273528   -0.895252   -3.222171
     17          1           0        0.273528    3.238108   -0.835774
     18          1           0        0.273528    3.238108    0.835774
 ---------------------------------------------------------------------

 SCF Done:  E(RHF) =  -395.978422042     A.U. after    2 cycles

 The electronic state is 1-A'.
 Alpha  occ. eigenvalues --  -15.62464 -15.62464 -15.62464 -11.28587 -11.28587
 Alpha  occ. eigenvalues --  -11.28586 -11.20472 -11.20472 -11.20469  -1.20532
 Alpha  occ. eigenvalues --   -1.17715  -1.17715  -1.06568  -0.96599  -0.96599
 Alpha  occ. eigenvalues --   -0.81687  -0.81687  -0.72065  -0.70417  -0.65876
 Alpha  occ. eigenvalues --   -0.65805  -0.65805  -0.60361  -0.60361  -0.56258
 Alpha  occ. eigenvalues --   -0.55002  -0.51301  -0.51301  -0.48081  -0.48081
 Alpha  occ. eigenvalues --   -0.37479  -0.28409  -0.28409
 Alpha virt. eigenvalues --    0.03096   0.03560   0.03560   0.05251   0.05251
 Alpha virt. eigenvalues --    0.07435   0.08192   0.10249   0.10249   0.11610
 Alpha virt. eigenvalues --    0.11847   0.12955   0.12955   0.13978   0.13978

 Mulliken charges:
               1
     1  C    1.145893
     2  C    1.145886
     3  C    1.145886
     4  C   -0.110421
     5  C   -0.110421
     6  C   -0.110418
     7  N   -0.284087
     8  N   -0.284087
     9  N   -0.284086
    10  H   -0.665014
    11  H   -0.665014
    12  H   -0.665014
    13  H   -0.043184
    14  H   -0.043184
    15  H   -0.043184
    16  H   -0.043184
    17  H   -0.043185
    18  H   -0.043185
 Sum of Mulliken charges =  -0.00000

 Dipole moment (field-independent basis, Debye):
    X=              2.8396    Y=             -0.0000    Z=             -0.0000  Tot=              2.8396

 Test job not archived.
 1\1\GINC-SE045\SP\RHF\Aug-CC-pVDZ\C6H9N3\OHZDE\05-Apr-2025\0\\#t hf au
 g-cc-pvdz iop(5/13=1,5/36=2,99/5=2) pseudo=read geom=check guess=(read
 ,tcheck) scf=(maxcycle=1)\\title\\0,1\C,0,0.,1.396197,-0.00527\C,0,1.2
 09142,-0.698099,-0.00527\C,0,-1.209142,-0.698099,-0.00527\C,0,1.208834
 ,0.697921,-0.006832\C,0,-1.208834,0.697921,-0.006832\C,0,0.,-1.395841,
 -0.006832\N,0,2.416644,1.39525,-0.064461\N,0,-2.416644,1.39525,-0.0644
 61\N,0,0.,-2.7905,-0.064461\H,0,0.,2.479119,-0.023214\H,0,2.14698,-1.2
 3956,-0.023214\H,0,-2.14698,-1.23956,-0.023214\H,0,3.222171,0.895252,0

 Normal termination of Gaussian 16 at Sat Apr  5 22:52:49 2025.
