 Gaussian 16, Revision C.01,

 ----------------------------------------------------------------------
 #t hf aug-cc-pvdz symm=none int=(grid=ultrafine) guess=(read,tcheck) s
 table=(opt,rrhf)
 ----------------------------------------------------------------------
 -----
 title
 -----
 Symbolic Z-matrix:
 Charge =  0 Multiplicity = 1

 SCF Done:  E(RHF) =  -321.915101656     A.U. after   14 cycles
 Normal termination of Gaussian 16 at Sat Apr  5 22:51:47 2025.
 Gaussian 16:  ES64L-G16RevC.01  3-Jul-2019

 ----------------------------------------------------------------------
 #t hf aug-cc-pvdz iop(5/13=1,5/36=2,99/5=2) pseudo=read geom=check gue
 ss=(read,tcheck) scf=(maxcycle=1)
 ----------------------------------------------------------------------
 -----
 title
 -----
 Structure from the checkpoint file:  "beta-alanine.chk"
 Charge =  0 Multiplicity = 1

                         Standard orientation:
 ---------------------------------------------------------------------
 Center     Atomic      Atomic             Coordinates (Angstroms)
 Number     Number       Type             X           Y           Z
 ---------------------------------------------------------------------
      1          1           0        2.844792   -0.788170    0.777220
      2          1           0        3.404575    0.345604   -0.245141
      3          7           0        2.637944   -0.294370   -0.082906
      4          1           0        1.280732    1.064160    0.901267
      5          1           0        1.287489    1.091764   -0.849294
      6          6           0        1.367895    0.430365    0.012626
      7          1           0        0.282574   -1.185743   -0.904827
      8          1           0        0.265487   -1.235933    0.844398
      9          6           0        0.206748   -0.556935   -0.013182
     10          8           0       -1.337293    1.297083    0.023560
     11          6           0       -1.152003    0.113743    0.002622
     12          1           0       -1.923395   -1.652577   -0.039753
     13          8           0       -2.218170   -0.734777   -0.013051
 ---------------------------------------------------------------------

 SCF Done:  E(RHF) =  -322.016968880     A.U. after    2 cycles

 The electronic state is 1-A.
 Alpha  occ. eigenvalues --  -20.62654 -20.56310 -15.61901 -11.40104 -11.27452
 Alpha  occ. eigenvalues --  -11.26739  -1.42089  -1.33308  -1.16443  -1.03700
 Alpha  occ. eigenvalues --   -0.88055  -0.83129  -0.73667  -0.69000  -0.67761
 Alpha  occ. eigenvalues --   -0.65178  -0.63090  -0.60601  -0.56950  -0.53943
 Alpha  occ. eigenvalues --   -0.51361  -0.50078  -0.46917  -0.40013
 Alpha virt. eigenvalues --    0.02580   0.03472   0.04391   0.05287   0.06493
 Alpha virt. eigenvalues --    0.07078   0.08496   0.10115   0.11916   0.12573
 Alpha virt. eigenvalues --    0.12799   0.14124   0.14803   0.16018   0.16564

 Mulliken charges:
               1
     1  H    0.000995
     2  H   -0.016089
     3  N   -0.348158
     4  H   -0.108437
     5  H   -0.170032
     6  C    0.850380
     7  H    0.009039
     8  H   -0.038378
     9  C   -0.072767
    10  O   -0.442031
    11  C    0.674196
    12  H    0.176258
    13  O   -0.514978
 Sum of Mulliken charges =  -0.00000

 Dipole moment (field-independent basis, Debye):
    X=              2.8732    Y=             -3.2308    Z=              0.8841  Tot=              4.4130

 Test job not archived.
 1\1\GINC-SE009\SP\RHF\Aug-CC-pVDZ\C3H7N1O2\OHZDE\05-Apr-2025\0\\#t hf
 aug-cc-pvdz iop(5/13=1,5/36=2,99/5=2) pseudo=read geom=check guess=(re
 ad,tcheck) scf=(maxcycle=1)\\title\\0,1\H,0,2.844792,-0.78817,0.77722\
 H,0,3.404575,0.345604,-0.245141\N,0,2.637944,-0.29437,-0.082906\H,0,1.
 280732,1.06416,0.901267\H,0,1.287489,1.091764,-0.849294\C,0,1.367895,0
 .430365,0.012626\H,0,0.282574,-1.185743,-0.904827\H,0,0.265487,-1.2359
 33,0.844398\C,0,0.206748,-0.556935,-0.013182\O,0,-1.337293,1.297083,0.
 02356\C,0,-1.152003,0.113743,0.002622\H,0,-1.923395,-1.652577,-0.03975

 Normal termination of Gaussian 16 at Sat Apr  5 22:52:47 2025.
