 Gaussian 16, Revision C.01,

 ----------------------------------------------------------------------
 #t hf aug-cc-pvdz symm=none int=(grid=ultrafine) guess=(read,tcheck) s
 table=(opt,rrhf)
 ----------------------------------------------------------------------
 -----
 title
 -----
 Symbolic Z-matrix:
 Charge =  0 Multiplicity = 1

 SCF Done:  E(RHF) =  -265.677743007     A.U. after   13 cycles
 Normal termination of Gaussian 16 at Sat Apr  5 22:51:45 2025.
 Gaussian 16:  ES64L-G16RevC.01  3-Jul-2019

 ----------------------------------------------------------------------
 #t hf aug-cc-pvdz iop(5/13=1,5/36=2,99/5=2) pseudo=read geom=check gue
 ss=(read,tcheck) scf=(maxcycle=1)
 ----------------------------------------------------------------------
 -----
 title
 -----
 Structure from the checkpoint file:  "beta-propiolactone.chk"
 Charge =  0 Multiplicity = 1

                         Standard orientation:
 ---------------------------------------------------------------------
 Center     Atomic      Atomic             Coordinates (Angstroms)
 Number     Number       Type             X           Y           Z
 ---------------------------------------------------------------------
      1          8           0       -1.034291   -0.277068    0.000000
      2          6           0        0.000000    0.628638    0.000000
      3          8           0       -0.070941    1.813015    0.000000
      4          6           0        1.084794   -0.444247    0.000000
      5          1           0        1.709429   -0.440463    0.889880
      6          1           0        1.709429   -0.440463   -0.889880
      7          6           0       -0.101764   -1.414106    0.000000
      8          1           0       -0.237589   -2.014177   -0.895897
      9          1           0       -0.237589   -2.014177    0.895897
 ---------------------------------------------------------------------

 SCF Done:  E(RHF) =  -265.762522320     A.U. after    2 cycles

 The electronic state is 1-A'.
 Alpha  occ. eigenvalues --  -20.62094 -20.57416 -11.40425 -11.32682 -11.27918
 Alpha  occ. eigenvalues --   -1.42924  -1.35184  -1.05329  -0.92623  -0.76822
 Alpha  occ. eigenvalues --   -0.72193  -0.71407  -0.69632  -0.58521  -0.58221
 Alpha  occ. eigenvalues --   -0.58067  -0.53550  -0.48223  -0.46505
 Alpha virt. eigenvalues --    0.02763   0.04269   0.04424   0.06592   0.07080
 Alpha virt. eigenvalues --    0.10762   0.11391   0.11611   0.11684   0.13886
 Alpha virt. eigenvalues --    0.14799   0.15757   0.15885   0.16287   0.18960

 Mulliken charges:
               1
     1  O   -0.691866
     2  C    0.430210
     3  O   -0.396284
     4  C    0.131472
     5  H   -0.040274
     6  H   -0.040274
     7  C    0.998119
     8  H   -0.195552
     9  H   -0.195552
 Sum of Mulliken charges =  -0.00000

 Dipole moment (field-independent basis, Debye):
    X=              2.5646    Y=             -4.3925    Z=             -0.0000  Tot=              5.0864

 Test job not archived.
 1\1\GINC-SE012\SP\RHF\Aug-CC-pVDZ\C3H4O2\OHZDE\05-Apr-2025\0\\#t hf au
 g-cc-pvdz iop(5/13=1,5/36=2,99/5=2) pseudo=read geom=check guess=(read
 ,tcheck) scf=(maxcycle=1)\\title\\0,1\O,0,-1.034291,-0.277068,0.\C,0,0
 .,0.628638,0.\O,0,-0.070941,1.813015,0.\C,0,1.084794,-0.444247,0.\H,0,
 1.709429,-0.440463,0.88988\H,0,1.709429,-0.440463,-0.88988\C,0,-0.1017
 64,-1.414106,0.\H,0,-0.237589,-2.014177,-0.895897\H,0,-0.237589,-2.014
 177,0.895897\\Version=ES64L-G16RevC.01\State=1-A'\HF=-265.7625223\RMSD
 =4.835e-03\Dipole=1.0090104,-1.7281379,0.\Quadrupole=-0.0066344,-2.171

 Normal termination of Gaussian 16 at Sat Apr  5 22:52:46 2025.
