 Gaussian 16, Revision C.01,

 ----------------------------------------------------------------------
 #t hf aug-cc-pvdz symm=none int=(grid=ultrafine) guess=(read,tcheck) s
 table=(opt,rrhf)
 ----------------------------------------------------------------------
 -----
 title
 -----
 Symbolic Z-matrix:
 Charge =  0 Multiplicity = 1

 SCF Done:  E(RHF) =  -311.101738453     A.U. after   12 cycles
 Normal termination of Gaussian 16 at Sat Apr  5 22:53:07 2025.
 Gaussian 16:  ES64L-G16RevC.01  3-Jul-2019

 ----------------------------------------------------------------------
 #t hf aug-cc-pvdz iop(5/13=1,5/36=2,99/5=2) pseudo=read geom=check gue
 ss=(read,tcheck) scf=(maxcycle=1)
 ----------------------------------------------------------------------
 -----
 title
 -----
 Structure from the checkpoint file:  "bicyclo-5-1-0-octane.chk"
 Charge =  0 Multiplicity = 1

                         Standard orientation:
 ---------------------------------------------------------------------
 Center     Atomic      Atomic             Coordinates (Angstroms)
 Number     Number       Type             X           Y           Z
 ---------------------------------------------------------------------
      1          6           0        0.322882   -1.211271    0.752902
      2          6           0        0.322882   -1.211271   -0.752902
      3          6           0       -0.466950   -2.251492   -0.000000
      4          6           0       -0.345255   -0.092908    1.527147
      5          6           0       -0.345255   -0.092908   -1.527147
      6          6           0        0.322882    1.274175    1.311568
      7          6           0        0.322882    1.274175   -1.311568
      8          6           0       -0.056876    1.976267    0.000000
      9          1           0        1.240243   -1.564633   -1.210344
     10          1           0       -0.116933   -3.274616   -0.000000
     11          1           0       -1.545089   -2.152272    0.000000
     12          1           0       -1.402559   -0.021790    1.258165
     13          1           0       -0.326225   -0.345142    2.590759
     14          1           0       -0.326225   -0.345142   -2.590759
     15          1           0       -1.402559   -0.021790   -1.258165
     16          1           0        0.048720    1.937680    2.136366
     17          1           0        1.410002    1.155998    1.365948
     18          1           0        1.410002    1.155998   -1.365948
     19          1           0        0.048720    1.937680   -2.136366
     20          1           0       -1.139984    2.143490    0.000000
     21          1           0        0.398488    2.970578    0.000000
     22          1           0        1.240243   -1.564633    1.210344
 ---------------------------------------------------------------------

 SCF Done:  E(RHF) =  -311.196549589     A.U. after    2 cycles

 The electronic state is 1-A'.
 Alpha  occ. eigenvalues --  -11.22802 -11.22745 -11.22427 -11.22388 -11.22386
 Alpha  occ. eigenvalues --  -11.22219 -11.22162 -11.22134  -1.14131  -1.05762
 Alpha  occ. eigenvalues --   -1.01673  -0.92271  -0.86894  -0.80114  -0.76926
 Alpha  occ. eigenvalues --   -0.73062  -0.67265  -0.63657  -0.61919  -0.58677
 Alpha  occ. eigenvalues --   -0.56269  -0.55948  -0.51957  -0.51339  -0.50701
 Alpha  occ. eigenvalues --   -0.46803  -0.46340  -0.45819  -0.44918  -0.39622
 Alpha  occ. eigenvalues --   -0.38286
 Alpha virt. eigenvalues --    0.03582   0.04147   0.04204   0.04462   0.05875
 Alpha virt. eigenvalues --    0.06187   0.06444   0.06498   0.06814   0.08564
 Alpha virt. eigenvalues --    0.08824   0.09100   0.09112   0.09448   0.11827

 Mulliken charges:
               1
     1  C    0.321774
     2  C    0.321774
     3  C    0.847621
     4  C    0.212587
     5  C    0.212587
     6  C    0.419277
     7  C    0.419277
     8  C    0.009490
     9  H   -0.450615
    10  H   -0.369432
    11  H   -0.344320
    12  H   -0.087691
    13  H   -0.123343
    14  H   -0.123343
    15  H   -0.087691
    16  H   -0.104281
    17  H   -0.150120
    18  H   -0.150120
    19  H   -0.104281
    20  H   -0.098287
    21  H   -0.120245
    22  H   -0.450615
 Sum of Mulliken charges =  -0.00000

 Dipole moment (field-independent basis, Debye):
    X=              0.0979    Y=              0.1448    Z=              0.0000  Tot=              0.1747

 Test job not archived.
 1\1\GINC-SE202\SP\RHF\Aug-CC-pVDZ\C8H14\OHZDE\05-Apr-2025\0\\#t hf aug
 -cc-pvdz iop(5/13=1,5/36=2,99/5=2) pseudo=read geom=check guess=(read,
 tcheck) scf=(maxcycle=1)\\title\\0,1\C,0,0.322882,-1.211271,0.752902\C
 ,0,0.322882,-1.211271,-0.752902\C,0,-0.46695,-2.251492,0.\C,0,-0.34525
 5,-0.092908,1.527147\C,0,-0.345255,-0.092908,-1.527147\C,0,0.322882,1.
 274175,1.311568\C,0,0.322882,1.274175,-1.311568\C,0,-0.056876,1.976267
 ,0.\H,0,1.240243,-1.564633,-1.210344\H,0,-0.116933,-3.274616,0.\H,0,-1
 .545089,-2.152272,0.\H,0,-1.402559,-0.02179,1.258165\H,0,-0.326225,-0.

 Normal termination of Gaussian 16 at Sat Apr  5 22:53:17 2025.
