 Gaussian 16, Revision C.01,

 ----------------------------------------------------------------------
 #t hf aug-cc-pvdz symm=none int=(grid=ultrafine) guess=(read,tcheck) s
 table=(opt,rrhf)
 ----------------------------------------------------------------------
 -----
 title
 -----
 Symbolic Z-matrix:
 Charge =  0 Multiplicity = 1

 SCF Done:  E(RHF) =  -231.835667685     A.U. after   14 cycles
 Normal termination of Gaussian 16 at Sat Apr  5 22:52:03 2025.
 Gaussian 16:  ES64L-G16RevC.01  3-Jul-2019

 ----------------------------------------------------------------------
 #t hf aug-cc-pvdz iop(5/13=1,5/36=2,99/5=2) pseudo=read geom=check gue
 ss=(read,tcheck) scf=(maxcycle=1)
 ----------------------------------------------------------------------
 -----
 title
 -----
 Structure from the checkpoint file:  "bicyclo-3-1-0-hex-2-ene.chk"
 Charge =  0 Multiplicity = 1

                         Standard orientation:
 ---------------------------------------------------------------------
 Center     Atomic      Atomic             Coordinates (Angstroms)
 Number     Number       Type             X           Y           Z
 ---------------------------------------------------------------------
      1          6           0        0.645070   -0.770527   -0.387053
      2          6           0       -0.789799   -1.153566   -0.033586
      3          6           0        0.710734    0.747733   -0.438274
      4          6           0        1.457988   -0.021657    0.630098
      5          6           0       -1.464834    0.179434    0.203670
      6          6           0       -0.653112    1.204214   -0.052761
      7          1           0        1.177895   -1.366546   -1.113656
      8          1           0       -1.269345   -1.698798   -0.852718
      9          1           0       -0.844021   -1.804885    0.843900
     10          1           0        1.275524    1.279992   -1.191271
     11          1           0        1.092367    0.049534    1.646341
     12          1           0        2.533970   -0.086125    0.538571
     13          1           0       -2.482396    0.264631    0.559582
     14          1           0       -0.920271    2.248412    0.036679
 ---------------------------------------------------------------------

 SCF Done:  E(RHF) =  -231.905825782     A.U. after    2 cycles

 The electronic state is 1-A.
 Alpha  occ. eigenvalues --  -11.23668 -11.23573 -11.23391 -11.23273 -11.23174
 Alpha  occ. eigenvalues --  -11.22966  -1.16888  -1.02731  -0.95227  -0.82726
 Alpha  occ. eigenvalues --   -0.76622  -0.72991  -0.69984  -0.62321  -0.57734
 Alpha  occ. eigenvalues --   -0.56616  -0.52579  -0.51354  -0.47932  -0.44702
 Alpha  occ. eigenvalues --   -0.40277  -0.33199
 Alpha virt. eigenvalues --    0.03522   0.04336   0.04558   0.04878   0.06255
 Alpha virt. eigenvalues --    0.06528   0.07017   0.07447   0.10622   0.12120
 Alpha virt. eigenvalues --    0.12735   0.14246   0.14476   0.14868   0.15210

 Mulliken charges:
               1
     1  C    0.502626
     2  C    0.183309
     3  C    0.330364
     4  C    0.736677
     5  C    0.160413
     6  C    0.260663
     7  H   -0.373208
     8  H   -0.047827
     9  H   -0.023551
    10  H   -0.361019
    11  H   -0.359699
    12  H   -0.361724
    13  H   -0.315383
    14  H   -0.331640
 Sum of Mulliken charges =   0.00000

 Dipole moment (field-independent basis, Debye):
    X=              0.1787    Y=             -0.2068    Z=             -0.1028  Tot=              0.2920

 Test job not archived.
 1\1\GINC-SE168\SP\RHF\Aug-CC-pVDZ\C6H8\OHZDE\05-Apr-2025\0\\#t hf aug-
 cc-pvdz iop(5/13=1,5/36=2,99/5=2) pseudo=read geom=check guess=(read,t
 check) scf=(maxcycle=1)\\title\\0,1\C,0,0.64507,-0.770527,-0.387053\C,
 0,-0.789799,-1.153566,-0.033586\C,0,0.710734,0.747733,-0.438274\C,0,1.
 457988,-0.021657,0.630098\C,0,-1.464834,0.179434,0.20367\C,0,-0.653112
 ,1.204214,-0.052761\H,0,1.177895,-1.366546,-1.113656\H,0,-1.269345,-1.
 698798,-0.852718\H,0,-0.844021,-1.804885,0.8439\H,0,1.275524,1.279992,
 -1.191271\H,0,1.092367,0.049534,1.646341\H,0,2.53397,-0.086125,0.53857

 Normal termination of Gaussian 16 at Sat Apr  5 22:52:48 2025.
