 Gaussian 16, Revision C.01,

 ----------------------------------------------------------------------
 #t hf aug-cc-pvdz symm=none int=(grid=ultrafine) guess=(read,tcheck) s
 table=(opt,rrhf)
 ----------------------------------------------------------------------
 -----
 title
 -----
 Symbolic Z-matrix:
 Charge =  0 Multiplicity = 1

 SCF Done:  E(RHF) =  -231.743181908     A.U. after   11 cycles
 Normal termination of Gaussian 16 at Sat Apr  5 22:51:48 2025.
 Gaussian 16:  ES64L-G16RevC.01  3-Jul-2019

 ----------------------------------------------------------------------
 #t hf aug-cc-pvdz iop(5/13=1,5/36=2,99/5=2) pseudo=read geom=check gue
 ss=(read,tcheck) scf=(maxcycle=1)
 ----------------------------------------------------------------------
 -----
 title
 -----
 Structure from the checkpoint file:  "bicyclo-2-2-0-hex-1-4-ene.chk"
 Charge =  0 Multiplicity = 1

                         Standard orientation:
 ---------------------------------------------------------------------
 Center     Atomic      Atomic             Coordinates (Angstroms)
 Number     Number       Type             X           Y           Z
 ---------------------------------------------------------------------
      1          6           0       -1.522244    0.801625    0.000000
      2          1           0       -1.971604    1.251554    0.886835
      3          1           0       -1.971604    1.251554   -0.886835
      4          6           0       -1.522244   -0.801625   -0.000000
      5          1           0       -1.971604   -1.251554   -0.886835
      6          1           0       -1.971604   -1.251554    0.886835
      7          6           0        1.522244   -0.801625    0.000000
      8          1           0        1.971604   -1.251554    0.886835
      9          1           0        1.971604   -1.251554   -0.886835
     10          6           0        0.000000   -0.656608    0.000000
     11          6           0        0.000000    0.656608    0.000000
     12          6           0        1.522244    0.801625    0.000000
     13          1           0        1.971604    1.251554   -0.886835
     14          1           0        1.971604    1.251554    0.886835
 ---------------------------------------------------------------------

 SCF Done:  E(RHF) =  -231.812974655     A.U. after    2 cycles

 The electronic state is 1-AG.
 Alpha  occ. eigenvalues --  -11.24728 -11.24727 -11.24695 -11.24693 -11.21237
 Alpha  occ. eigenvalues --  -11.21042  -1.16416  -1.03172  -0.88015  -0.84955
 Alpha  occ. eigenvalues --   -0.83326  -0.65702  -0.64094  -0.60617  -0.60290
 Alpha  occ. eigenvalues --   -0.54016  -0.51901  -0.50693  -0.44880  -0.44742
 Alpha  occ. eigenvalues --   -0.41604  -0.33320
 Alpha virt. eigenvalues --    0.03780   0.04294   0.04670   0.04787   0.05828
 Alpha virt. eigenvalues --    0.06624   0.06720   0.08851   0.09205   0.11669
 Alpha virt. eigenvalues --    0.11734   0.12458   0.13531   0.15147   0.15171

 Mulliken charges:
               1
     1  C    0.544916
     2  H   -0.120117
     3  H   -0.120117
     4  C    0.544916
     5  H   -0.120117
     6  H   -0.120117
     7  C    0.544916
     8  H   -0.120117
     9  H   -0.120117
    10  C   -0.609363
    11  C   -0.609363
    12  C    0.544916
    13  H   -0.120117
    14  H   -0.120117
 Sum of Mulliken charges =  -0.00000

 Dipole moment (field-independent basis, Debye):
    X=             -0.0000    Y=             -0.0000    Z=             -0.0000  Tot=              0.0000

 Test job not archived.
 1\1\GINC-SE153\SP\RHF\Aug-CC-pVDZ\C6H8\OHZDE\05-Apr-2025\0\\#t hf aug-
 cc-pvdz iop(5/13=1,5/36=2,99/5=2) pseudo=read geom=check guess=(read,t
 check) scf=(maxcycle=1)\\title\\0,1\C,0,-1.522244,0.801625,0.\H,0,-1.9
 71604,1.251554,0.886835\H,0,-1.971604,1.251554,-0.886835\C,0,-1.522244
 ,-0.801625,0.\H,0,-1.971604,-1.251554,-0.886835\H,0,-1.971604,-1.25155
 4,0.886835\C,0,1.522244,-0.801625,0.\H,0,1.971604,-1.251554,0.886835\H
 ,0,1.971604,-1.251554,-0.886835\C,0,0.,-0.656608,0.\C,0,0.,0.656608,0.
 \C,0,1.522244,0.801625,0.\H,0,1.971604,1.251554,-0.886835\H,0,1.971604

 Normal termination of Gaussian 16 at Sat Apr  5 22:52:47 2025.
