 Gaussian 16, Revision C.01,

 ----------------------------------------------------------------------
 #t hf aug-cc-pvdz symm=none int=(grid=ultrafine) guess=(read,tcheck) s
 table=(opt,rrhf)
 ----------------------------------------------------------------------
 -----
 title
 -----
 Symbolic Z-matrix:
 Charge =  0 Multiplicity = 1

 SCF Done:  E(RHF) =  -350.082724707     A.U. after   12 cycles
 Normal termination of Gaussian 16 at Sat Apr  5 22:54:03 2025.
 Gaussian 16:  ES64L-G16RevC.01  3-Jul-2019

 ----------------------------------------------------------------------
 #t hf aug-cc-pvdz iop(5/13=1,5/36=2,99/5=2) pseudo=read geom=check gue
 ss=(read,tcheck) scf=(maxcycle=1)
 ----------------------------------------------------------------------
 -----
 title
 -----
 Structure from the checkpoint file:  "bicyclo-3-3-1-nonane.chk"
 Charge =  0 Multiplicity = 1

                         Standard orientation:
 ---------------------------------------------------------------------
 Center     Atomic      Atomic             Coordinates (Angstroms)
 Number     Number       Type             X           Y           Z
 ---------------------------------------------------------------------
      1          6           0       -1.220553    0.008291   -0.000000
      2          6           0        0.018065    0.941134    0.000000
      3          6           0        0.207716    1.430365    1.426632
      4          6           0        0.207716    1.430365   -1.426632
      5          6           0       -0.475923   -1.306583   -0.000000
      6          6           0        0.207716    0.053150    2.219513
      7          6           0        0.207716    0.053150   -2.219513
      8          6           0        0.362254   -1.260477   -1.348939
      9          6           0        0.362254   -1.260477    1.348939
     10          1           0       -1.853935    0.149273    0.874293
     11          1           0       -1.853935    0.149273   -0.874293
     12          1           0        0.882835    0.286335    0.000000
     13          1           0        1.158855    1.951425    1.555610
     14          1           0       -0.583800    2.082415    1.802671
     15          1           0       -0.583800    2.082415   -1.802671
     16          1           0        1.158855    1.951425   -1.555610
     17          1           0       -1.113964   -2.193709   -0.000000
     18          1           0        1.006641    0.053850    2.962556
     19          1           0       -0.719568   -0.025384    2.786768
     20          1           0       -0.719568   -0.025384   -2.786768
     21          1           0        1.006641    0.053850   -2.962556
     22          1           0        1.419007   -1.432023   -1.131265
     23          1           0        0.057484   -2.092626   -1.986451
     24          1           0        0.057484   -2.092626    1.986451
     25          1           0        1.419007   -1.432023    1.131265
 ---------------------------------------------------------------------

 SCF Done:  E(RHF) =  -350.185425446     A.U. after    2 cycles

 The electronic state is 1-A'.
 Alpha  occ. eigenvalues --  -11.23199 -11.22769 -11.22768 -11.22700 -11.22693
 Alpha  occ. eigenvalues --  -11.22684 -11.22677 -11.21497 -11.20892  -1.13550
 Alpha  occ. eigenvalues --   -1.03226  -1.00679  -0.95536  -0.91068  -0.85156
 Alpha  occ. eigenvalues --   -0.78708  -0.78490  -0.72021  -0.65595  -0.63695
 Alpha  occ. eigenvalues --   -0.61615  -0.60803  -0.56171  -0.54224  -0.53002
 Alpha  occ. eigenvalues --   -0.51214  -0.50577  -0.48930  -0.48486  -0.47089
 Alpha  occ. eigenvalues --   -0.46324  -0.45215  -0.41825  -0.41162  -0.39038
 Alpha virt. eigenvalues --    0.03409   0.04088   0.04104   0.04479   0.05974
 Alpha virt. eigenvalues --    0.05982   0.06153   0.06374   0.06579   0.08090
 Alpha virt. eigenvalues --    0.08458   0.08742   0.08895   0.09031   0.10460

 Mulliken charges:
               1
     1  C    0.790126
     2  C   -0.841691
     3  C    0.731224
     4  C    0.731224
     5  C   -0.033411
     6  C    0.227040
     7  C    0.227040
     8  C    0.542451
     9  C    0.542451
    10  H   -0.289465
    11  H   -0.289465
    12  H   -0.624097
    13  H   -0.033442
    14  H   -0.116494
    15  H   -0.116494
    16  H   -0.033442
    17  H   -0.275039
    18  H   -0.164753
    19  H   -0.095657
    20  H   -0.095657
    21  H   -0.164753
    22  H   -0.096950
    23  H   -0.211900
    24  H   -0.211900
    25  H   -0.096950
 Sum of Mulliken charges =  -0.00000

 Dipole moment (field-independent basis, Debye):
    X=              0.0940    Y=             -0.1744    Z=              0.0000  Tot=              0.1981

 Test job not archived.
 1\1\GINC-SE172\SP\RHF\Aug-CC-pVDZ\C9H16\OHZDE\05-Apr-2025\0\\#t hf aug
 -cc-pvdz iop(5/13=1,5/36=2,99/5=2) pseudo=read geom=check guess=(read,
 tcheck) scf=(maxcycle=1)\\title\\0,1\C,0,-1.220553,0.008291,0.\C,0,0.0
 18065,0.941134,0.\C,0,0.207716,1.430365,1.426632\C,0,0.207716,1.430365
 ,-1.426632\C,0,-0.475923,-1.306583,0.\C,0,0.207716,0.05315,2.219513\C,
 0,0.207716,0.05315,-2.219513\C,0,0.362254,-1.260477,-1.348939\C,0,0.36
 2254,-1.260477,1.348939\H,0,-1.853935,0.149273,0.874293\H,0,-1.853935,
 0.149273,-0.874293\H,0,0.882835,0.286335,0.\H,0,1.158855,1.951425,1.55

 Normal termination of Gaussian 16 at Sat Apr  5 22:54:43 2025.
