 Gaussian 16, Revision C.01,

 ----------------------------------------------------------------------
 #t hf aug-cc-pvdz symm=none int=(grid=ultrafine) guess=(read,tcheck) s
 table=(opt,rrhf)
 ----------------------------------------------------------------------
 -----
 title
 -----
 Symbolic Z-matrix:
 Charge =  0 Multiplicity = 1

 SCF Done:  E(RHF) =  -154.888396087     A.U. after   11 cycles
 Normal termination of Gaussian 16 at Sat Apr  5 22:51:32 2025.
 Gaussian 16:  ES64L-G16RevC.01  3-Jul-2019

 ----------------------------------------------------------------------
 #t hf aug-cc-pvdz iop(5/13=1,5/36=2,99/5=2) pseudo=read geom=check gue
 ss=(read,tcheck) scf=(maxcycle=1)
 ----------------------------------------------------------------------
 -----
 title
 -----
 Structure from the checkpoint file:  "bicyclo-1-1-0-butane.chk"
 Charge =  0 Multiplicity = 1

                         Standard orientation:
 ---------------------------------------------------------------------
 Center     Atomic      Atomic             Coordinates (Angstroms)
 Number     Number       Type             X           Y           Z
 ---------------------------------------------------------------------
      1          6           0       -0.742813    0.000000   -0.317669
      2          6           0        0.742813   -0.000000   -0.317669
      3          6           0        0.000000    1.134528    0.312889
      4          6           0       -0.000000   -1.134528    0.312889
      5          1           0        0.000000   -1.232016    1.397188
      6          1           0        0.000000    1.232016    1.397188
      7          1           0        0.000000   -2.078551   -0.219647
      8          1           0        0.000000    2.078551   -0.219647
      9          1           0       -1.425483    0.000000   -1.148859
     10          1           0        1.425483   -0.000000   -1.148859
 ---------------------------------------------------------------------

 SCF Done:  E(RHF) =  -154.937983219     A.U. after    2 cycles

 The electronic state is 1-A1.
 Alpha  occ. eigenvalues --  -11.24857 -11.24852 -11.24449 -11.24399  -1.20604
 Alpha  occ. eigenvalues --   -0.92743  -0.78622  -0.78561  -0.69811  -0.59307
 Alpha  occ. eigenvalues --   -0.58489  -0.51789  -0.46171  -0.43841  -0.35773
 Alpha virt. eigenvalues --    0.03593   0.04622   0.04912   0.05071   0.06800
 Alpha virt. eigenvalues --    0.07627   0.10097   0.12210   0.12922   0.13689
 Alpha virt. eigenvalues --    0.14523   0.15115   0.15800   0.16169   0.16190

 Mulliken charges:
               1
     1  C    0.419574
     2  C    0.419574
     3  C    0.587232
     4  C    0.587232
     5  H   -0.295729
     6  H   -0.295729
     7  H   -0.334229
     8  H   -0.334229
     9  H   -0.376847
    10  H   -0.376847
 Sum of Mulliken charges =  -0.00000

 Dipole moment (field-independent basis, Debye):
    X=              0.0000    Y=             -0.0000    Z=             -0.6934  Tot=              0.6934

 Test job not archived.
 1\1\GINC-SE222\SP\RHF\Aug-CC-pVDZ\C4H6\OHZDE\05-Apr-2025\0\\#t hf aug-
 cc-pvdz iop(5/13=1,5/36=2,99/5=2) pseudo=read geom=check guess=(read,t
 check) scf=(maxcycle=1)\\title\\0,1\C,0,-0.742813,0.,-0.317669\C,0,0.7
 42813,0.,-0.317669\C,0,0.,1.134528,0.312889\C,0,0.,-1.134528,0.312889\
 H,0,0.,-1.232016,1.397188\H,0,0.,1.232016,1.397188\H,0,0.,-2.078551,-0
 .219647\H,0,0.,2.078551,-0.219647\H,0,-1.425483,0.,-1.148859\H,0,1.425
 483,0.,-1.148859\\Version=ES64L-G16RevC.01\State=1-A1\HF=-154.9379832\
 RMSD=5.028e-03\Dipole=0.,0.,-0.2728074\Quadrupole=-1.3735795,0.7033795

 Normal termination of Gaussian 16 at Sat Apr  5 22:51:40 2025.
