 Gaussian 16, Revision C.01,

 ----------------------------------------------------------------------
 #t hf aug-cc-pvdz symm=none int=(grid=ultrafine) guess=(read,tcheck) s
 table=(opt,rrhf)
 ----------------------------------------------------------------------
 -----
 title
 -----
 Symbolic Z-matrix:
 Charge =  0 Multiplicity = 1

 SCF Done:  E(RHF) =  -311.134578343     A.U. after   11 cycles
 Normal termination of Gaussian 16 at Sat Apr  5 22:53:07 2025.
 Gaussian 16:  ES64L-G16RevC.01  3-Jul-2019

 ----------------------------------------------------------------------
 #t hf aug-cc-pvdz iop(5/13=1,5/36=2,99/5=2) pseudo=read geom=check gue
 ss=(read,tcheck) scf=(maxcycle=1)
 ----------------------------------------------------------------------
 -----
 title
 -----
 Structure from the checkpoint file:  "bicyclo-2-2-2-octane.chk"
 Charge =  0 Multiplicity = 1

                         Standard orientation:
 ---------------------------------------------------------------------
 Center     Atomic      Atomic             Coordinates (Angstroms)
 Number     Number       Type             X           Y           Z
 ---------------------------------------------------------------------
      1          6           0       -1.295208    0.000000   -0.000000
      2          6           0       -0.777177    0.017844    1.447195
      3          6           0       -0.777177    1.244385   -0.739051
      4          6           0        0.777177   -0.017844    1.447195
      5          6           0        1.295208   -0.000000   -0.000000
      6          6           0        0.777177    1.262230   -0.708144
      7          6           0       -0.777177   -1.262230   -0.708144
      8          6           0        0.777177   -1.244385   -0.739051
      9          1           0       -1.182692   -1.308838   -1.720784
     10          1           0        2.387174   -0.000000   -0.000000
     11          1           0        1.142178    2.149499   -0.186632
     12          1           0       -1.142178   -2.149499   -0.186632
     13          1           0        1.182692    1.308838   -1.720784
     14          1           0       -2.387174    0.000000   -0.000000
     15          1           0       -1.182692    2.144662   -0.273094
     16          1           0        1.142178   -1.236378   -1.768205
     17          1           0       -1.182692   -0.835824    1.993879
     18          1           0        1.182692    0.835824    1.993879
     19          1           0        1.182692   -2.144662   -0.273094
     20          1           0       -1.142178    0.913121    1.954837
     21          1           0       -1.142178    1.236378   -1.768205
     22          1           0        1.142178   -0.913121    1.954837
 ---------------------------------------------------------------------

 SCF Done:  E(RHF) =  -311.226273622     A.U. after    2 cycles

 The electronic state is 1-A.
 Alpha  occ. eigenvalues --  -11.22337 -11.22329 -11.21865 -11.21865 -11.21850
 Alpha  occ. eigenvalues --  -11.21822 -11.21822 -11.21810  -1.13069  -1.00715
 Alpha  occ. eigenvalues --   -0.98685  -0.98685  -0.82757  -0.82757  -0.79862
 Alpha  occ. eigenvalues --   -0.67522  -0.67226  -0.64131  -0.64131  -0.55910
 Alpha  occ. eigenvalues --   -0.52960  -0.52960  -0.52324  -0.51564  -0.51564
 Alpha  occ. eigenvalues --   -0.49253  -0.49253  -0.45582  -0.41213  -0.40886
 Alpha  occ. eigenvalues --   -0.40886
 Alpha virt. eigenvalues --    0.03414   0.04154   0.04614   0.04614   0.06149
 Alpha virt. eigenvalues --    0.06149   0.06417   0.06614   0.06614   0.08641
 Alpha virt. eigenvalues --    0.08759   0.08829   0.08829   0.11011   0.12221

 Mulliken charges:
               1
     1  C   -0.590159
     2  C    0.534778
     3  C    0.534772
     4  C    0.534778
     5  C   -0.590159
     6  C    0.534780
     7  C    0.534780
     8  C    0.534772
     9  H   -0.147011
    10  H   -0.145325
    11  H   -0.142607
    12  H   -0.142607
    13  H   -0.147011
    14  H   -0.145325
    15  H   -0.147007
    16  H   -0.142606
    17  H   -0.147011
    18  H   -0.147011
    19  H   -0.147007
    20  H   -0.142606
    21  H   -0.142606
    22  H   -0.142606
 Sum of Mulliken charges =  -0.00000

 Dipole moment (field-independent basis, Debye):
    X=             -0.0000    Y=             -0.0000    Z=              0.0000  Tot=              0.0000

 Test job not archived.
 1\1\GINC-SE154\SP\RHF\Aug-CC-pVDZ\C8H14\OHZDE\05-Apr-2025\0\\#t hf aug
 -cc-pvdz iop(5/13=1,5/36=2,99/5=2) pseudo=read geom=check guess=(read,
 tcheck) scf=(maxcycle=1)\\title\\0,1\C,0,0.,0.,1.295208\C,0,-0.017844,
 1.447195,0.777177\C,0,-1.244385,-0.739051,0.777177\C,0,0.017844,1.4471
 95,-0.777177\C,0,0.,0.,-1.295208\C,0,-1.26223,-0.708144,-0.777177\C,0,
 1.26223,-0.708144,0.777177\C,0,1.244385,-0.739051,-0.777177\H,0,1.3088
 38,-1.720784,1.182692\H,0,0.,0.,-2.387174\H,0,-2.149499,-0.186632,-1.1
 42178\H,0,2.149499,-0.186632,1.142178\H,0,-1.308838,-1.720784,-1.18269

 Normal termination of Gaussian 16 at Sat Apr  5 22:53:17 2025.
