 Gaussian 16, Revision C.01,

 ----------------------------------------------------------------------
 #t hf aug-cc-pvdz symm=none int=(grid=ultrafine) guess=(read,tcheck) s
 table=(opt,rrhf)
 ----------------------------------------------------------------------
 -----
 title
 -----
 Symbolic Z-matrix:
 Charge =  0 Multiplicity = 1

 SCF Done:  E(RHF) =  -246.634960601     A.U. after   14 cycles
 Normal termination of Gaussian 16 at Sat Apr  5 22:51:38 2025.
 Gaussian 16:  ES64L-G16RevC.01  3-Jul-2019

 ----------------------------------------------------------------------
 #t hf aug-cc-pvdz iop(5/13=1,5/36=2,99/5=2) pseudo=read geom=check gue
 ss=(read,tcheck) scf=(maxcycle=1)
 ----------------------------------------------------------------------
 -----
 title
 -----
 Structure from the checkpoint file:  "bicyclo-1-1-0-butane-1-carbonitrile.chk"
 Charge =  0 Multiplicity = 1

                         Standard orientation:
 ---------------------------------------------------------------------
 Center     Atomic      Atomic             Coordinates (Angstroms)
 Number     Number       Type             X           Y           Z
 ---------------------------------------------------------------------
      1          1           0       -0.140619    0.678735    2.076979
      2          1           0        1.129568    1.686573    1.231058
      3          6           0        0.276344    1.019981    1.138037
      4          1           0       -0.140619    0.678735   -2.076979
      5          1           0        1.129568    1.686573   -1.231058
      6          6           0        0.276344    1.019981   -1.138037
      7          6           0        0.276344    0.034656    0.000000
      8          1           0       -1.743752    1.161245   -0.000000
      9          6           0       -0.668943    1.198926   -0.000000
     10          7           0       -0.181839   -2.488939   -0.000000
     11          6           0        0.013033   -1.351758    0.000000
 ---------------------------------------------------------------------

 SCF Done:  E(RHF) =  -246.709461986     A.U. after    2 cycles

 The electronic state is 1-A'.
 Alpha  occ. eigenvalues --  -15.63598 -11.30239 -11.29136 -11.29107 -11.28837
 Alpha  occ. eigenvalues --  -11.28818  -1.25517  -1.18570  -0.96848  -0.90979
 Alpha  occ. eigenvalues --   -0.82563  -0.75221  -0.63986  -0.63587  -0.55789
 Alpha  occ. eigenvalues --   -0.55551  -0.52281  -0.51876  -0.49778  -0.43843
 Alpha  occ. eigenvalues --   -0.37597
 Alpha virt. eigenvalues --    0.02873   0.04070   0.04091   0.05721   0.06828
 Alpha virt. eigenvalues --    0.07600   0.09720   0.09993   0.11265   0.12667
 Alpha virt. eigenvalues --    0.13211   0.14237   0.14340   0.14640   0.14910

 Mulliken charges:
               1
     1  H   -0.335444
     2  H   -0.266238
     3  C    0.502955
     4  H   -0.335444
     5  H   -0.266238
     6  C    0.502955
     7  C    1.258125
     8  H   -0.397775
     9  C    0.497815
    10  N   -0.087765
    11  C   -1.072947
 Sum of Mulliken charges =  -0.00000

 Dipole moment (field-independent basis, Debye):
    X=             -0.0623    Y=              4.3494    Z=              0.0000  Tot=              4.3498

 Test job not archived.
 1\1\GINC-SE221\SP\RHF\Aug-CC-pVDZ\C5H5N1\OHZDE\05-Apr-2025\0\\#t hf au
 g-cc-pvdz iop(5/13=1,5/36=2,99/5=2) pseudo=read geom=check guess=(read
 ,tcheck) scf=(maxcycle=1)\\title\\0,1\H,0,-0.140619,0.678735,2.076979\
 H,0,1.129568,1.686573,1.231058\C,0,0.276344,1.019981,1.138037\H,0,-0.1
 40619,0.678735,-2.076979\H,0,1.129568,1.686573,-1.231058\C,0,0.276344,
 1.019981,-1.138037\C,0,0.276344,0.034656,0.\H,0,-1.743752,1.161245,0.\
 C,0,-0.668943,1.198926,0.\N,0,-0.181839,-2.488939,0.\C,0,0.013033,-1.3
 51758,0.\\Version=ES64L-G16RevC.01\State=1-A'\HF=-246.709462\RMSD=5.78

 Normal termination of Gaussian 16 at Sat Apr  5 22:51:41 2025.
