 Gaussian 16, Revision C.01,

 ----------------------------------------------------------------------
 #t hf aug-cc-pvdz symm=none int=(grid=ultrafine) guess=(read,tcheck) s
 table=(opt,rrhf)
 ----------------------------------------------------------------------
 -----
 title
 -----
 Symbolic Z-matrix:
 Charge =  0 Multiplicity = 1

 SCF Done:  E(RHF) =  -232.986323561     A.U. after   11 cycles
 Normal termination of Gaussian 16 at Sat Apr  5 22:51:53 2025.
 Gaussian 16:  ES64L-G16RevC.01  3-Jul-2019

 ----------------------------------------------------------------------
 #t hf aug-cc-pvdz iop(5/13=1,5/36=2,99/5=2) pseudo=read geom=check gue
 ss=(read,tcheck) scf=(maxcycle=1)
 ----------------------------------------------------------------------
 -----
 title
 -----
 Structure from the checkpoint file:  "bicyclopropyl.chk"
 Charge =  0 Multiplicity = 1

                         Standard orientation:
 ---------------------------------------------------------------------
 Center     Atomic      Atomic             Coordinates (Angstroms)
 Number     Number       Type             X           Y           Z
 ---------------------------------------------------------------------
      1          6           0       -0.000000    1.843020    0.753782
      2          6           0        0.427743    0.611952   -0.000000
      3          6           0       -0.000000    1.843020   -0.753782
      4          6           0       -0.427743   -0.611952   -0.000000
      5          6           0       -0.000000   -1.843020    0.753782
      6          6           0       -0.000000   -1.843020   -0.753782
      7          1           0        0.754138    2.423213    1.266843
      8          1           0       -0.956630    1.813429    1.257842
      9          1           0        1.492677    0.407118   -0.000000
     10          1           0       -0.956630    1.813429   -1.257842
     11          1           0        0.754138    2.423213   -1.266843
     12          1           0       -1.492677   -0.407118   -0.000000
     13          1           0       -0.754138   -2.423213    1.266843
     14          1           0        0.956630   -1.813429    1.257842
     15          1           0        0.956630   -1.813429   -1.257842
     16          1           0       -0.754138   -2.423213   -1.266843
 ---------------------------------------------------------------------

 SCF Done:  E(RHF) =  -233.060231714     A.U. after    2 cycles

 The electronic state is 1-AG.
 Alpha  occ. eigenvalues --  -11.23780 -11.23720 -11.22859 -11.22858 -11.22810
 Alpha  occ. eigenvalues --  -11.22808  -1.14929  -1.10382  -0.86470  -0.82362
 Alpha  occ. eigenvalues --   -0.81196  -0.76699  -0.67193  -0.66311  -0.62016
 Alpha  occ. eigenvalues --   -0.57582  -0.51555  -0.51405  -0.48920  -0.47459
 Alpha  occ. eigenvalues --   -0.44171  -0.40210  -0.37080
 Alpha virt. eigenvalues --    0.03733   0.04250   0.04465   0.04586   0.06350
 Alpha virt. eigenvalues --    0.06451   0.06715   0.06932   0.08710   0.09086
 Alpha virt. eigenvalues --    0.10794   0.12189   0.12898   0.14107   0.14254

 Mulliken charges:
               1
     1  C    0.771517
     2  C    0.261735
     3  C    0.771517
     4  C    0.261735
     5  C    0.771517
     6  C    0.771517
     7  H   -0.338403
     8  H   -0.367573
     9  H   -0.392818
    10  H   -0.367573
    11  H   -0.338403
    12  H   -0.392818
    13  H   -0.338403
    14  H   -0.367573
    15  H   -0.367573
    16  H   -0.338403
 Sum of Mulliken charges =  -0.00000

 Dipole moment (field-independent basis, Debye):
    X=             -0.0000    Y=              0.0000    Z=             -0.0000  Tot=              0.0000

 Test job not archived.
 1\1\GINC-SE203\SP\RHF\Aug-CC-pVDZ\C6H10\OHZDE\05-Apr-2025\0\\#t hf aug
 -cc-pvdz iop(5/13=1,5/36=2,99/5=2) pseudo=read geom=check guess=(read,
 tcheck) scf=(maxcycle=1)\\title\\0,1\C,0,0.,1.84302,0.753782\C,0,0.427
 743,0.611952,0.\C,0,0.,1.84302,-0.753782\C,0,-0.427743,-0.611952,0.\C,
 0,0.,-1.84302,0.753782\C,0,0.,-1.84302,-0.753782\H,0,0.754138,2.423213
 ,1.266843\H,0,-0.95663,1.813429,1.257842\H,0,1.492677,0.407118,0.\H,0,
 -0.95663,1.813429,-1.257842\H,0,0.754138,2.423213,-1.266843\H,0,-1.492
 677,-0.407118,0.\H,0,-0.754138,-2.423213,1.266843\H,0,0.95663,-1.81342

 Normal termination of Gaussian 16 at Sat Apr  5 22:52:47 2025.
