 Gaussian 16, Revision C.01,

 ----------------------------------------------------------------------
 #t hf aug-cc-pvdz symm=none int=(grid=ultrafine) guess=(read,tcheck) s
 table=(opt,rrhf)
 ----------------------------------------------------------------------
 -----
 title
 -----
 Symbolic Z-matrix:
 Charge =  0 Multiplicity = 1

 SCF Done:  E(RHF) =  -232.988588171     A.U. after   12 cycles
 Normal termination of Gaussian 16 at Sat Apr  5 22:51:57 2025.
 Gaussian 16:  ES64L-G16RevC.01  3-Jul-2019

 ----------------------------------------------------------------------
 #t hf aug-cc-pvdz iop(5/13=1,5/36=2,99/5=2) pseudo=read geom=check gue
 ss=(read,tcheck) scf=(maxcycle=1)
 ----------------------------------------------------------------------
 -----
 title
 -----
 Structure from the checkpoint file:  "bicyclo-2-2-0-hexane.chk"
 Charge =  0 Multiplicity = 1

                         Standard orientation:
 ---------------------------------------------------------------------
 Center     Atomic      Atomic             Coordinates (Angstroms)
 Number     Number       Type             X           Y           Z
 ---------------------------------------------------------------------
      1          6           0        1.306673    0.778578   -0.253085
      2          6           0        1.306673   -0.778578   -0.253085
      3          6           0        0.000000   -0.786260    0.577788
      4          6           0        0.000000    0.786260    0.577788
      5          6           0       -1.306673    0.778578   -0.253085
      6          6           0       -1.306673   -0.778578   -0.253085
      7          1           0        1.235314    1.258625   -1.230081
      8          1           0        2.159674    1.206785    0.272012
      9          1           0        2.159674   -1.206785    0.272012
     10          1           0        1.235314   -1.258625   -1.230081
     11          1           0        0.000000   -1.384950    1.486430
     12          1           0        0.000000    1.384950    1.486430
     13          1           0       -2.159674    1.206785    0.272012
     14          1           0       -1.235314    1.258625   -1.230081
     15          1           0       -1.235314   -1.258625   -1.230081
     16          1           0       -2.159674   -1.206785    0.272012
 ---------------------------------------------------------------------

 SCF Done:  E(RHF) =  -233.058558166     A.U. after    2 cycles

 The electronic state is 1-A1.
 Alpha  occ. eigenvalues --  -11.22513 -11.22479 -11.22237 -11.22230 -11.22200
 Alpha  occ. eigenvalues --  -11.22189  -1.14385  -1.00058  -0.91560  -0.84165
 Alpha  occ. eigenvalues --   -0.81353  -0.69427  -0.67744  -0.61926  -0.60984
 Alpha  occ. eigenvalues --   -0.56737  -0.53614  -0.49209  -0.47917  -0.45667
 Alpha  occ. eigenvalues --   -0.43409  -0.40676  -0.39371
 Alpha virt. eigenvalues --    0.03571   0.04527   0.04628   0.04771   0.06136
 Alpha virt. eigenvalues --    0.06624   0.06667   0.07128   0.08854   0.09252
 Alpha virt. eigenvalues --    0.11875   0.12430   0.12543   0.14477   0.15004

 Mulliken charges:
               1
     1  C    0.519148
     2  C    0.519148
     3  C    0.196294
     4  C    0.196294
     5  C    0.519148
     6  C    0.519148
     7  H   -0.228774
     8  H   -0.205452
     9  H   -0.205452
    10  H   -0.228774
    11  H   -0.366140
    12  H   -0.366140
    13  H   -0.205452
    14  H   -0.228774
    15  H   -0.228774
    16  H   -0.205452
 Sum of Mulliken charges =  -0.00000

 Dipole moment (field-independent basis, Debye):
    X=              0.0000    Y=             -0.0000    Z=              0.1560  Tot=              0.1560

 Test job not archived.
 1\1\GINC-SE155\SP\RHF\Aug-CC-pVDZ\C6H10\OHZDE\05-Apr-2025\0\\#t hf aug
 -cc-pvdz iop(5/13=1,5/36=2,99/5=2) pseudo=read geom=check guess=(read,
 tcheck) scf=(maxcycle=1)\\title\\0,1\C,0,1.306673,0.778578,-0.253085\C
 ,0,1.306673,-0.778578,-0.253085\C,0,0.,-0.78626,0.577788\C,0,0.,0.7862
 6,0.577788\C,0,-1.306673,0.778578,-0.253085\C,0,-1.306673,-0.778578,-0
 .253085\H,0,1.235314,1.258625,-1.230081\H,0,2.159674,1.206785,0.272012
 \H,0,2.159674,-1.206785,0.272012\H,0,1.235314,-1.258625,-1.230081\H,0,
 0.,-1.38495,1.48643\H,0,0.,1.38495,1.48643\H,0,-2.159674,1.206785,0.27

 Normal termination of Gaussian 16 at Sat Apr  5 22:52:48 2025.
