 Gaussian 16, Revision C.01,

 ----------------------------------------------------------------------
 #t hf aug-cc-pvdz symm=none int=(grid=ultrafine) guess=(read,tcheck) s
 table=(opt,rrhf)
 ----------------------------------------------------------------------
 -----
 title
 -----
 Symbolic Z-matrix:
 Charge =  0 Multiplicity = 1

 SCF Done:  E(RHF) =  -311.107221745     A.U. after   12 cycles
 Normal termination of Gaussian 16 at Sat Apr  5 22:53:07 2025.
 Gaussian 16:  ES64L-G16RevC.01  3-Jul-2019

 ----------------------------------------------------------------------
 #t hf aug-cc-pvdz iop(5/13=1,5/36=2,99/5=2) pseudo=read geom=check gue
 ss=(read,tcheck) scf=(maxcycle=1)
 ----------------------------------------------------------------------
 -----
 title
 -----
 Structure from the checkpoint file:  "bicyclo-4-2-0-octane.chk"
 Charge =  0 Multiplicity = 1

                         Standard orientation:
 ---------------------------------------------------------------------
 Center     Atomic      Atomic             Coordinates (Angstroms)
 Number     Number       Type             X           Y           Z
 ---------------------------------------------------------------------
      1          6           0       -1.791427   -0.546342   -0.470725
      2          6           0       -1.753453    0.902887    0.021944
      3          6           0       -0.346099    1.484644   -0.136504
      4          6           0        0.713967    0.691652    0.641171
      5          6           0        2.060839    0.553545   -0.118966
      6          6           0        1.570404   -0.813571   -0.662948
      7          6           0        0.552087   -0.854996    0.508236
      8          6           0       -0.849517   -1.436058    0.348591
      9          1           0       -2.807213   -0.943726   -0.416752
     10          1           0       -1.508563   -0.568405   -1.527994
     11          1           0       -2.059618    0.940911    1.073243
     12          1           0       -2.471421    1.510462   -0.533276
     13          1           0       -0.099323    1.483279   -1.202799
     14          1           0       -0.319965    2.530882    0.176897
     15          1           0        0.774332    1.062996    1.665761
     16          1           0        2.903852    0.434271    0.561752
     17          1           0        2.304420    1.332097   -0.842353
     18          1           0        2.293715   -1.626176   -0.723529
     19          1           0        1.084176   -0.713631   -1.633483
     20          1           0        1.040476   -1.331839    1.360944
     21          1           0       -1.285091   -1.564400    1.345109
     22          1           0       -0.790578   -2.437289   -0.088318
 ---------------------------------------------------------------------

 SCF Done:  E(RHF) =  -311.200106010     A.U. after    2 cycles

 The electronic state is 1-A.
 Alpha  occ. eigenvalues --  -11.22434 -11.22388 -11.22099 -11.22096 -11.22043
 Alpha  occ. eigenvalues --  -11.22029 -11.21992 -11.21956  -1.13298  -1.05034
 Alpha  occ. eigenvalues --   -0.99642  -0.91285  -0.86675  -0.81772  -0.78644
 Alpha  occ. eigenvalues --   -0.70576  -0.66498  -0.62521  -0.61030  -0.59575
 Alpha  occ. eigenvalues --   -0.57902  -0.53690  -0.52019  -0.49841  -0.49587
 Alpha  occ. eigenvalues --   -0.48400  -0.47027  -0.44888  -0.42211  -0.41367
 Alpha  occ. eigenvalues --   -0.40307
 Alpha virt. eigenvalues --    0.03533   0.04210   0.04267   0.04425   0.05958
 Alpha virt. eigenvalues --    0.06094   0.06387   0.06568   0.06587   0.08701
 Alpha virt. eigenvalues --    0.08815   0.08949   0.09384   0.09543   0.13053

 Mulliken charges:
               1
     1  C    0.278958
     2  C    0.524783
     3  C    0.211192
     4  C   -0.109381
     5  C    0.855751
     6  C    0.476244
     7  C   -0.303725
     8  C    0.461520
     9  H   -0.107204
    10  H   -0.117788
    11  H   -0.151524
    12  H   -0.094215
    13  H   -0.171839
    14  H   -0.112354
    15  H   -0.311039
    16  H   -0.243988
    17  H   -0.239351
    18  H   -0.198999
    19  H   -0.249529
    20  H   -0.292589
    21  H   -0.012509
    22  H   -0.092414
 Sum of Mulliken charges =  -0.00000

 Dipole moment (field-independent basis, Debye):
    X=             -0.0932    Y=             -0.0174    Z=              0.1058  Tot=              0.1421

 Test job not archived.
 1\1\GINC-SE171\SP\RHF\Aug-CC-pVDZ\C8H14\OHZDE\05-Apr-2025\0\\#t hf aug
 -cc-pvdz iop(5/13=1,5/36=2,99/5=2) pseudo=read geom=check guess=(read,
 tcheck) scf=(maxcycle=1)\\title\\0,1\C,0,-1.791427,-0.546342,-0.470725
 \C,0,-1.753453,0.902887,0.021944\C,0,-0.346099,1.484644,-0.136504\C,0,
 0.713967,0.691652,0.641171\C,0,2.060839,0.553545,-0.118966\C,0,1.57040
 4,-0.813571,-0.662948\C,0,0.552087,-0.854996,0.508236\C,0,-0.849517,-1
 .436058,0.348591\H,0,-2.807213,-0.943727,-0.416752\H,0,-1.508563,-0.56
 8405,-1.527994\H,0,-2.059618,0.940911,1.073243\H,0,-2.471421,1.510461,

 Normal termination of Gaussian 16 at Sat Apr  5 22:53:22 2025.
