 Gaussian 16, Revision C.01,

 ----------------------------------------------------------------------
 #t hf aug-cc-pvdz symm=none int=(grid=ultrafine) guess=(read,tcheck) s
 table=(opt,rrhf)
 ----------------------------------------------------------------------
 -----
 title
 -----
 Symbolic Z-matrix:
 Charge =  0 Multiplicity = 1

 SCF Done:  E(RHF) =  -193.946843676     A.U. after   12 cycles
 Normal termination of Gaussian 16 at Sat Apr  5 22:51:53 2025.
 Gaussian 16:  ES64L-G16RevC.01  3-Jul-2019

 ----------------------------------------------------------------------
 #t hf aug-cc-pvdz iop(5/13=1,5/36=2,99/5=2) pseudo=read geom=check gue
 ss=(read,tcheck) scf=(maxcycle=1)
 ----------------------------------------------------------------------
 -----
 title
 -----
 Structure from the checkpoint file:  "bicyclo-2-1-0-pentane.chk"
 Charge =  0 Multiplicity = 1

                         Standard orientation:
 ---------------------------------------------------------------------
 Center     Atomic      Atomic             Coordinates (Angstroms)
 Number     Number       Type             X           Y           Z
 ---------------------------------------------------------------------
      1          6           0       -0.244446   -0.536702    0.764733
      2          6           0       -0.244446   -0.536702   -0.764733
      3          6           0       -0.244446    0.993902    0.781471
      4          6           0       -0.244446    0.993902   -0.781471
      5          6           0        0.939024   -1.048468    0.000000
      6          1           0       -0.797183   -1.171910    1.441963
      7          1           0       -0.797183   -1.171910   -1.441963
      8          1           0        0.607058    1.464190    1.277074
      9          1           0        0.607058    1.464190   -1.277074
     10          1           0       -1.160667    1.417563    1.188390
     11          1           0       -1.160667    1.417563   -1.188390
     12          1           0        1.871038   -0.492128    0.000000
     13          1           0        1.063120   -2.123147    0.000000
 ---------------------------------------------------------------------

 SCF Done:  E(RHF) =  -194.006641950     A.U. after    2 cycles

 The electronic state is 1-A'.
 Alpha  occ. eigenvalues --  -11.23487 -11.23439 -11.23044 -11.22976 -11.22937
 Alpha  occ. eigenvalues --   -1.17368  -0.97566  -0.88484  -0.79693  -0.72772
 Alpha  occ. eigenvalues --   -0.68995  -0.61309  -0.59957  -0.53503  -0.52359
 Alpha  occ. eigenvalues --   -0.46755  -0.46300  -0.40697  -0.37502
 Alpha virt. eigenvalues --    0.03598   0.04628   0.04678   0.04763   0.06690
 Alpha virt. eigenvalues --    0.06790   0.07395   0.07430   0.11786   0.12031
 Alpha virt. eigenvalues --    0.12988   0.13823   0.14603   0.15699   0.15871

 Mulliken charges:
               1
     1  C    0.285073
     2  C    0.285073
     3  C    0.431426
     4  C    0.431426
     5  C    0.789805
     6  H   -0.416323
     7  H   -0.416323
     8  H   -0.169653
     9  H   -0.169653
    10  H   -0.161543
    11  H   -0.161543
    12  H   -0.387645
    13  H   -0.340119
 Sum of Mulliken charges =  -0.00000

 Dipole moment (field-independent basis, Debye):
    X=             -0.2382    Y=             -0.0643    Z=             -0.0000  Tot=              0.2467

 Test job not archived.
 1\1\GINC-SE223\SP\RHF\Aug-CC-pVDZ\C5H8\OHZDE\05-Apr-2025\0\\#t hf aug-
 cc-pvdz iop(5/13=1,5/36=2,99/5=2) pseudo=read geom=check guess=(read,t
 check) scf=(maxcycle=1)\\title\\0,1\C,0,-0.244446,-0.536702,0.764733\C
 ,0,-0.244446,-0.536702,-0.764733\C,0,-0.244446,0.993902,0.781471\C,0,-
 0.244446,0.993902,-0.781471\C,0,0.939024,-1.048468,0.\H,0,-0.797183,-1
 .17191,1.441963\H,0,-0.797183,-1.17191,-1.441963\H,0,0.607058,1.46419,
 1.277074\H,0,0.607058,1.46419,-1.277074\H,0,-1.160667,1.417563,1.18839
 \H,0,-1.160667,1.417563,-1.18839\H,0,1.871038,-0.492128,0.\H,0,1.06312

 Normal termination of Gaussian 16 at Sat Apr  5 22:52:46 2025.
