 Gaussian 16, Revision C.01,

 ----------------------------------------------------------------------
 #t hf aug-cc-pvdz symm=none int=(grid=ultrafine) guess=(read,tcheck) s
 table=(opt,rrhf)
 ----------------------------------------------------------------------
 -----
 title
 -----
 Symbolic Z-matrix:
 Charge =  0 Multiplicity = 1

 SCF Done:  E(RHF) =  -192.732913035     A.U. after   12 cycles
 Normal termination of Gaussian 16 at Sat Apr  5 22:51:35 2025.
 Gaussian 16:  ES64L-G16RevC.01  3-Jul-2019

 ----------------------------------------------------------------------
 #t hf aug-cc-pvdz iop(5/13=1,5/36=2,99/5=2) pseudo=read geom=check gue
 ss=(read,tcheck) scf=(maxcycle=1)
 ----------------------------------------------------------------------
 -----
 title
 -----
 Structure from the checkpoint file:  "bicyclo-2-1-0-pent-2-ene.chk"
 Charge =  0 Multiplicity = 1

                         Standard orientation:
 ---------------------------------------------------------------------
 Center     Atomic      Atomic             Coordinates (Angstroms)
 Number     Number       Type             X           Y           Z
 ---------------------------------------------------------------------
      1          6           0       -0.266056    1.055248    0.669094
      2          6           0       -0.266056    1.055248   -0.669094
      3          6           0       -0.266056   -0.460196    0.760307
      4          6           0       -0.266056   -0.460196   -0.760307
      5          6           0        0.922329   -1.012414    0.000000
      6          1           0       -0.135836    1.824369    1.417771
      7          1           0       -0.135836    1.824369   -1.417771
      8          1           0       -0.878809   -1.079524    1.397279
      9          1           0       -0.878809   -1.079524   -1.397279
     10          1           0        1.855860   -0.463241   -0.000000
     11          1           0        1.024808   -2.092588    0.000000
 ---------------------------------------------------------------------

 SCF Done:  E(RHF) =  -192.791484432     A.U. after    2 cycles

 The electronic state is 1-A'.
 Alpha  occ. eigenvalues --  -11.24716 -11.24336 -11.24272 -11.24245 -11.24155
 Alpha  occ. eigenvalues --   -1.19455  -0.98960  -0.85145  -0.80846  -0.70368
 Alpha  occ. eigenvalues --   -0.70043  -0.61775  -0.60385  -0.51307  -0.48210
 Alpha  occ. eigenvalues --   -0.43373  -0.43321  -0.32465
 Alpha virt. eigenvalues --    0.03629   0.04449   0.04454   0.05163   0.06342
 Alpha virt. eigenvalues --    0.06852   0.09886   0.11309   0.12077   0.12619
 Alpha virt. eigenvalues --    0.13499   0.13597   0.15391   0.15865   0.16198

 Mulliken charges:
               1
     1  C    0.240557
     2  C    0.240557
     3  C    0.398286
     4  C    0.398286
     5  C    0.542550
     6  H   -0.237790
     7  H   -0.237790
     8  H   -0.351602
     9  H   -0.351602
    10  H   -0.323290
    11  H   -0.318162
 Sum of Mulliken charges =  -0.00000

 Dipole moment (field-independent basis, Debye):
    X=              0.1982    Y=             -0.3839    Z=              0.0000  Tot=              0.4321

 Test job not archived.
 1\1\GINC-SE222\SP\RHF\Aug-CC-pVDZ\C5H6\OHZDE\05-Apr-2025\0\\#t hf aug-
 cc-pvdz iop(5/13=1,5/36=2,99/5=2) pseudo=read geom=check guess=(read,t
 check) scf=(maxcycle=1)\\title\\0,1\C,0,-0.266056,1.055248,0.669094\C,
 0,-0.266056,1.055248,-0.669094\C,0,-0.266056,-0.460196,0.760307\C,0,-0
 .266056,-0.460196,-0.760307\C,0,0.922329,-1.012414,0.\H,0,-0.135836,1.
 824369,1.417771\H,0,-0.135836,1.824369,-1.417771\H,0,-0.878809,-1.0795
 24,1.397279\H,0,-0.878809,-1.079524,-1.397279\H,0,1.85586,-0.463241,0.
 \H,0,1.024808,-2.092588,0.\\Version=ES64L-G16RevC.01\State=1-A'\HF=-19

 Normal termination of Gaussian 16 at Sat Apr  5 22:51:41 2025.
