 Gaussian 16, Revision C.01,

 ----------------------------------------------------------------------
 #t hf aug-cc-pvdz symm=none int=(grid=ultrafine) guess=(read,tcheck) s
 table=(opt,rrhf)
 ----------------------------------------------------------------------
 -----
 title
 -----
 Symbolic Z-matrix:
 Charge =  0 Multiplicity = 1

 SCF Done:  E(RHF) =  -233.024497428     A.U. after   12 cycles
 Normal termination of Gaussian 16 at Sat Apr  5 22:52:08 2025.
 Gaussian 16:  ES64L-G16RevC.01  3-Jul-2019

 ----------------------------------------------------------------------
 #t hf aug-cc-pvdz iop(5/13=1,5/36=2,99/5=2) pseudo=read geom=check gue
 ss=(read,tcheck) scf=(maxcycle=1)
 ----------------------------------------------------------------------
 -----
 title
 -----
 Structure from the checkpoint file:  "bicyclo-3-1-0-hexane.chk"
 Charge =  0 Multiplicity = 1

                         Standard orientation:
 ---------------------------------------------------------------------
 Center     Atomic      Atomic             Coordinates (Angstroms)
 Number     Number       Type             X           Y           Z
 ---------------------------------------------------------------------
      1          1           0       -1.102142   -2.369592   -0.000000
      2          1           0       -1.825210   -0.706722   -0.000000
      3          6           0       -0.167576    1.451617    0.000000
      4          1           0       -1.252508    1.558566    0.000000
      5          1           0        0.244759    2.460062    0.000000
      6          6           0        0.285460    0.631379    1.227651
      7          1           0       -0.356020    0.801607    2.094810
      8          1           0        1.301459    0.910417    1.518369
      9          6           0        0.285460    0.631379   -1.227651
     10          1           0        1.301459    0.910417   -1.518369
     11          1           0       -0.356020    0.801607   -2.094810
     12          6           0       -0.922260   -1.303615   -0.000000
     13          6           0        0.285460   -0.812956    0.755445
     14          1           0        0.866098   -1.537728    1.309572
     15          6           0        0.285460   -0.812956   -0.755445
     16          1           0        0.866098   -1.537728   -1.309572
 ---------------------------------------------------------------------

 SCF Done:  E(RHF) =  -233.095723783     A.U. after    2 cycles

 The electronic state is 1-A'.
 Alpha  occ. eigenvalues --  -11.22908 -11.22851 -11.22498 -11.22490 -11.22487
 Alpha  occ. eigenvalues --  -11.22348  -1.15768  -1.01563  -0.95172  -0.84244
 Alpha  occ. eigenvalues --   -0.75937  -0.74732  -0.68780  -0.62875  -0.59437
 Alpha  occ. eigenvalues --   -0.56280  -0.54949  -0.49598  -0.47637  -0.47276
 Alpha  occ. eigenvalues --   -0.46548  -0.40263  -0.38824
 Alpha virt. eigenvalues --    0.03550   0.04462   0.04585   0.04700   0.06572
 Alpha virt. eigenvalues --    0.06625   0.06774   0.07192   0.07213   0.09359
 Alpha virt. eigenvalues --    0.12089   0.13354   0.14540   0.14580   0.14923

 Mulliken charges:
               1
     1  H   -0.371559
     2  H   -0.386029
     3  C    0.214771
     4  H   -0.185857
     5  H   -0.135126
     6  C    0.378360
     7  H   -0.073572
     8  H   -0.113962
     9  C    0.378360
    10  H   -0.113962
    11  H   -0.073572
    12  C    0.704624
    13  C    0.277082
    14  H   -0.388321
    15  C    0.277082
    16  H   -0.388321
 Sum of Mulliken charges =  -0.00000

 Dipole moment (field-independent basis, Debye):
    X=              0.1782    Y=              0.0702    Z=             -0.0000  Tot=              0.1915

 Test job not archived.
 1\1\GINC-SE168\SP\RHF\Aug-CC-pVDZ\C6H10\OHZDE\05-Apr-2025\0\\#t hf aug
 -cc-pvdz iop(5/13=1,5/36=2,99/5=2) pseudo=read geom=check guess=(read,
 tcheck) scf=(maxcycle=1)\\title\\0,1\H,0,-1.102142,-2.369592,0.\H,0,-1
 .82521,-0.706722,0.\C,0,-0.167576,1.451617,0.\H,0,-1.252508,1.558566,0
 .\H,0,0.244759,2.460062,0.\C,0,0.28546,0.631379,1.227651\H,0,-0.35602,
 0.801607,2.09481\H,0,1.301459,0.910417,1.518369\C,0,0.28546,0.631379,-
 1.227651\H,0,1.301459,0.910417,-1.518369\H,0,-0.35602,0.801607,-2.0948
 1\C,0,-0.92226,-1.303615,0.\C,0,0.28546,-0.812956,0.755445\H,0,0.86609

 Normal termination of Gaussian 16 at Sat Apr  5 22:52:47 2025.
