 Gaussian 16, Revision C.01,

 ----------------------------------------------------------------------
 #t hf aug-cc-pvdz symm=none int=(grid=ultrafine) guess=(read,tcheck) s
 table=(opt,rrhf)
 ----------------------------------------------------------------------
 -----
 title
 -----
 Symbolic Z-matrix:
 Charge =  0 Multiplicity = 1

 SCF Done:  E(RHF) =  -231.800440442     A.U. after   12 cycles
 Normal termination of Gaussian 16 at Sat Apr  5 22:52:00 2025.
 Gaussian 16:  ES64L-G16RevC.01  3-Jul-2019

 ----------------------------------------------------------------------
 #t hf aug-cc-pvdz iop(5/13=1,5/36=2,99/5=2) pseudo=read geom=check gue
 ss=(read,tcheck) scf=(maxcycle=1)
 ----------------------------------------------------------------------
 -----
 title
 -----
 Structure from the checkpoint file:  "bicyclo-2-1-1-hex-2-ene.chk"
 Charge =  0 Multiplicity = 1

                         Standard orientation:
 ---------------------------------------------------------------------
 Center     Atomic      Atomic             Coordinates (Angstroms)
 Number     Number       Type             X           Y           Z
 ---------------------------------------------------------------------
      1          6           0        0.000000    0.666639    1.212835
      2          6           0       -0.000000   -0.666639    1.212835
      3          6           0        0.000000   -1.020958   -0.278406
      4          6           0        0.000000    1.020958   -0.278406
      5          6           0        1.063233   -0.000000   -0.808697
      6          6           0       -1.063233    0.000000   -0.808697
      7          1           0        0.000000    1.359953    2.038801
      8          1           0       -0.000000   -1.359953    2.038801
      9          1           0        0.000000   -2.068141   -0.567858
     10          1           0        0.000000    2.068141   -0.567858
     11          1           0        2.041135   -0.000000   -0.329854
     12          1           0       -2.041135    0.000000   -0.329854
     13          1           0       -1.157060    0.000000   -1.895481
     14          1           0        1.157060   -0.000000   -1.895481
 ---------------------------------------------------------------------

 SCF Done:  E(RHF) =  -231.868473414     A.U. after    2 cycles

 The electronic state is 1-A1.
 Alpha  occ. eigenvalues --  -11.24356 -11.24348 -11.23302 -11.23294 -11.23048
 Alpha  occ. eigenvalues --  -11.22883  -1.18152  -0.98150  -0.90832  -0.89159
 Alpha  occ. eigenvalues --   -0.74878  -0.71628  -0.69741  -0.63707  -0.56538
 Alpha  occ. eigenvalues --   -0.56245  -0.49116  -0.47971  -0.47235  -0.46252
 Alpha  occ. eigenvalues --   -0.43530  -0.33031
 Alpha virt. eigenvalues --    0.03468   0.04192   0.04375   0.04908   0.06152
 Alpha virt. eigenvalues --    0.06488   0.06897   0.07484   0.11201   0.12795
 Alpha virt. eigenvalues --    0.12965   0.13471   0.13478   0.13517   0.14329

 Mulliken charges:
               1
     1  C    0.396226
     2  C    0.396226
     3  C    0.360935
     4  C    0.360935
     5  C    0.589208
     6  C    0.589208
     7  H   -0.347058
     8  H   -0.347058
     9  H   -0.426635
    10  H   -0.426635
    11  H   -0.257237
    12  H   -0.257237
    13  H   -0.315438
    14  H   -0.315438
 Sum of Mulliken charges =  -0.00000

 Dipole moment (field-independent basis, Debye):
    X=              0.0000    Y=             -0.0000    Z=             -0.3332  Tot=              0.3332

 Test job not archived.
 1\1\GINC-SE151\SP\RHF\Aug-CC-pVDZ\C6H8\OHZDE\05-Apr-2025\0\\#t hf aug-
 cc-pvdz iop(5/13=1,5/36=2,99/5=2) pseudo=read geom=check guess=(read,t
 check) scf=(maxcycle=1)\\title\\0,1\C,0,0.,0.666639,1.212835\C,0,0.,-0
 .666639,1.212835\C,0,0.,-1.020958,-0.278406\C,0,0.,1.020958,-0.278406\
 C,0,1.063233,0.,-0.808697\C,0,-1.063233,0.,-0.808697\H,0,0.,1.359953,2
 .038801\H,0,0.,-1.359953,2.038801\H,0,0.,-2.068141,-0.567858\H,0,0.,2.
 068141,-0.567858\H,0,2.041135,0.,-0.329854\H,0,-2.041135,0.,-0.329854\
 H,0,-1.15706,0.,-1.895481\H,0,1.15706,0.,-1.895481\\Version=ES64L-G16R

 Normal termination of Gaussian 16 at Sat Apr  5 22:52:47 2025.
