 Gaussian 16, Revision C.01,

 ----------------------------------------------------------------------
 #t hf aug-cc-pvdz symm=none int=(grid=ultrafine) guess=(read,tcheck) s
 table=(opt,rrhf)
 ----------------------------------------------------------------------
 -----
 title
 -----
 Symbolic Z-matrix:
 Charge =  0 Multiplicity = 1

 SCF Done:  E(RHF) =  -459.059689421     A.U. after   14 cycles
 Normal termination of Gaussian 16 at Sat Apr  5 22:54:59 2025.
 Gaussian 16:  ES64L-G16RevC.01  3-Jul-2019

 ----------------------------------------------------------------------
 #t hf aug-cc-pvdz iop(5/13=1,5/36=2,99/5=2) pseudo=read geom=check gue
 ss=(read,tcheck) scf=(maxcycle=1)
 ----------------------------------------------------------------------
 -----
 title
 -----
 Structure from the checkpoint file:  "biphenylene.chk"
 Charge =  0 Multiplicity = 1

                         Standard orientation:
 ---------------------------------------------------------------------
 Center     Atomic      Atomic             Coordinates (Angstroms)
 Number     Number       Type             X           Y           Z
 ---------------------------------------------------------------------
      1          6           0        3.111158    0.691977    0.000194
      2          6           0        1.909382    1.439432    0.000379
      3          6           0        0.753239    0.709064   -0.000071
      4          6           0       -0.753239    0.709064    0.000071
      5          6           0       -0.753239   -0.709064   -0.000071
      6          6           0        0.753239   -0.709064    0.000071
      7          6           0        1.909382   -1.439432   -0.000379
      8          6           0        3.111158   -0.691977   -0.000194
      9          6           0       -1.909382   -1.439432    0.000379
     10          6           0       -3.111158   -0.691977    0.000194
     11          6           0       -3.111158    0.691977   -0.000194
     12          6           0       -1.909382    1.439432   -0.000379
     13          1           0        4.056913    1.217403    0.000417
     14          1           0        1.930044    2.520654    0.000453
     15          1           0        1.930044   -2.520654   -0.000453
     16          1           0        4.056913   -1.217403   -0.000417
     17          1           0       -1.930044   -2.520654    0.000453
     18          1           0       -4.056913   -1.217403    0.000417
     19          1           0       -4.056913    1.217403   -0.000417
     20          1           0       -1.930044    2.520654   -0.000453
 ---------------------------------------------------------------------

 SCF Done:  E(RHF) =  -459.191189715     A.U. after    2 cycles

 The electronic state is 1-A.
 Alpha  occ. eigenvalues --  -11.25863 -11.25827 -11.25777 -11.25720 -11.25107
 Alpha  occ. eigenvalues --  -11.25105 -11.25104 -11.25102 -11.24903 -11.24902
 Alpha  occ. eigenvalues --  -11.24790 -11.24788  -1.20135  -1.13141  -1.07347
 Alpha  occ. eigenvalues --   -1.02763  -1.00930  -0.95939  -0.88606  -0.84484
 Alpha  occ. eigenvalues --   -0.78648  -0.78315  -0.72247  -0.65981  -0.65932
 Alpha  occ. eigenvalues --   -0.65421  -0.62748  -0.60710  -0.59165  -0.56784
 Alpha  occ. eigenvalues --   -0.55799  -0.54194  -0.48961  -0.48860  -0.48427
 Alpha  occ. eigenvalues --   -0.48413  -0.39034  -0.37223  -0.33565  -0.27537
 Alpha virt. eigenvalues --    0.03415   0.03602   0.03635   0.04893   0.04900
 Alpha virt. eigenvalues --    0.06428   0.06682   0.06902   0.07159   0.08393
 Alpha virt. eigenvalues --    0.10234   0.11477   0.11665   0.11994   0.12393

 Mulliken charges:
               1
     1  C    0.112250
     2  C    0.427003
     3  C    0.344512
     4  C    0.344512
     5  C    0.344512
     6  C    0.344512
     7  C    0.427003
     8  C    0.112250
     9  C    0.427003
    10  C    0.112250
    11  C    0.112250
    12  C    0.427003
    13  H   -0.467953
    14  H   -0.415812
    15  H   -0.415812
    16  H   -0.467953
    17  H   -0.415812
    18  H   -0.467953
    19  H   -0.467953
    20  H   -0.415812
 Sum of Mulliken charges =   0.00000

 Dipole moment (field-independent basis, Debye):
    X=             -0.0000    Y=              0.0000    Z=              0.0000  Tot=              0.0000

 Test job not archived.
 1\1\GINC-SE205\SP\RHF\Aug-CC-pVDZ\C12H8\OHZDE\05-Apr-2025\0\\#t hf aug
 -cc-pvdz iop(5/13=1,5/36=2,99/5=2) pseudo=read geom=check guess=(read,
 tcheck) scf=(maxcycle=1)\\title\\0,1\C,0,3.111158,0.691977,0.000194\C,
 0,1.909382,1.439432,0.000379\C,0,0.753239,0.709064,-0.000071\C,0,-0.75
 3239,0.709064,0.000071\C,0,-0.753239,-0.709064,-0.000071\C,0,0.753239,
 -0.709064,0.000071\C,0,1.909382,-1.439432,-0.000379\C,0,3.111158,-0.69
 1977,-0.000194\C,0,-1.909382,-1.439432,0.000379\C,0,-3.111158,-0.69197
 7,0.000194\C,0,-3.111158,0.691977,-0.000194\C,0,-1.909382,1.439432,-0.

 Normal termination of Gaussian 16 at Sat Apr  5 22:55:56 2025.
