 Gaussian 16, Revision C.01,

 ----------------------------------------------------------------------
 #t hf aug-cc-pvdz symm=none int=(grid=ultrafine) guess=(read,tcheck) s
 table=(opt,rrhf)
 ----------------------------------------------------------------------
 -----
 title
 -----
 Symbolic Z-matrix:
 Charge =  0 Multiplicity = 1

 SCF Done:  E(RHF) =  -460.301087009     A.U. after   14 cycles
 Normal termination of Gaussian 16 at Sat Apr  5 22:55:01 2025.
 Gaussian 16:  ES64L-G16RevC.01  3-Jul-2019

 ----------------------------------------------------------------------
 #t hf aug-cc-pvdz iop(5/13=1,5/36=2,99/5=2) pseudo=read geom=check gue
 ss=(read,tcheck) scf=(maxcycle=1)
 ----------------------------------------------------------------------
 -----
 title
 -----
 Structure from the checkpoint file:  "biphenyl.chk"
 Charge =  0 Multiplicity = 1

                         Standard orientation:
 ---------------------------------------------------------------------
 Center     Atomic      Atomic             Coordinates (Angstroms)
 Number     Number       Type             X           Y           Z
 ---------------------------------------------------------------------
      1          6           0        0.000000    0.000000   -0.741117
      2          6           0       -0.402579    1.130241   -1.461501
      3          6           0        0.402579   -1.130241   -1.461501
      4          6           0        0.403188   -1.130626   -2.850176
      5          6           0        0.000000    0.000000   -3.551569
      6          6           0       -0.403188    1.130626   -2.850176
      7          6           0       -0.000000    0.000000    0.741117
      8          6           0        0.402579    1.130241    1.461501
      9          6           0        0.403188    1.130626    2.850176
     10          6           0       -0.000000    0.000000    3.551569
     11          6           0       -0.403188   -1.130626    2.850176
     12          6           0       -0.402579   -1.130241    1.461501
     13          1           0       -0.727357   -2.013375    3.385168
     14          1           0       -0.727357    2.013375   -3.385168
     15          1           0        0.000000   -0.000000    4.633120
     16          1           0        0.000000   -0.000000   -4.633120
     17          1           0        0.727357   -2.013375   -3.385168
     18          1           0        0.727357    2.013375    3.385168
     19          1           0        0.740949    2.008623    0.928761
     20          1           0        0.740949   -2.008623   -0.928761
     21          1           0       -0.740949   -2.008623    0.928761
     22          1           0       -0.740949    2.008623   -0.928761
 ---------------------------------------------------------------------

 SCF Done:  E(RHF) =  -460.435141474     A.U. after    2 cycles

 The electronic state is 1-A.
 Alpha  occ. eigenvalues --  -11.25541 -11.25470 -11.24591 -11.24590 -11.24564
 Alpha  occ. eigenvalues --  -11.24564 -11.24387 -11.24386 -11.24371 -11.24368
 Alpha  occ. eigenvalues --  -11.24344 -11.24342  -1.16249  -1.13592  -1.04983
 Alpha  occ. eigenvalues --   -1.01698  -1.00862  -0.98171  -0.85596  -0.84669
 Alpha  occ. eigenvalues --   -0.81428  -0.79574  -0.72690  -0.68830  -0.65847
 Alpha  occ. eigenvalues --   -0.64883  -0.62089  -0.61537  -0.59770  -0.59283
 Alpha  occ. eigenvalues --   -0.58849  -0.52666  -0.52273  -0.50872  -0.49658
 Alpha  occ. eigenvalues --   -0.49068  -0.48758  -0.37382  -0.34299  -0.34284
 Alpha  occ. eigenvalues --   -0.30615
 Alpha virt. eigenvalues --    0.03390   0.03662   0.03821   0.04764   0.04940
 Alpha virt. eigenvalues --    0.05926   0.06145   0.06755   0.07409   0.07604
 Alpha virt. eigenvalues --    0.08560   0.10364   0.10367   0.11409   0.11824

 Mulliken charges:
               1
     1  C    0.862055
     2  C    0.218053
     3  C    0.218053
     4  C    0.319145
     5  C    0.566902
     6  C    0.319145
     7  C    0.862055
     8  C    0.218053
     9  C    0.319145
    10  C    0.566902
    11  C    0.319145
    12  C    0.218053
    13  H   -0.456580
    14  H   -0.456580
    15  H   -0.443105
    16  H   -0.443105
    17  H   -0.456580
    18  H   -0.456580
    19  H   -0.573545
    20  H   -0.573545
    21  H   -0.573545
    22  H   -0.573545
 Sum of Mulliken charges =  -0.00000

 Dipole moment (field-independent basis, Debye):
    X=             -0.0000    Y=              0.0000    Z=              0.0000  Tot=              0.0000

 Test job not archived.
 1\1\GINC-SE204\SP\RHF\Aug-CC-pVDZ\C12H10\OHZDE\05-Apr-2025\0\\#t hf au
 g-cc-pvdz iop(5/13=1,5/36=2,99/5=2) pseudo=read geom=check guess=(read
 ,tcheck) scf=(maxcycle=1)\\title\\0,1\C,0,0.,0.,-0.741117\C,0,-0.40257
 9,1.130241,-1.461501\C,0,0.402579,-1.130241,-1.461501\C,0,0.403188,-1.
 130626,-2.850176\C,0,0.,0.,-3.551569\C,0,-0.403188,1.130626,-2.850176\
 C,0,0.,0.,0.741117\C,0,0.402579,1.130241,1.461501\C,0,0.403188,1.13062
 6,2.850176\C,0,0.,0.,3.551569\C,0,-0.403188,-1.130626,2.850176\C,0,-0.
 402579,-1.130241,1.461501\H,0,-0.727357,-2.013375,3.385168\H,0,-0.7273

 Normal termination of Gaussian 16 at Sat Apr  5 22:55:57 2025.
