 Gaussian 16, Revision C.01,

 ----------------------------------------------------------------------
 #t hf aug-cc-pvdz symm=none int=(grid=ultrafine) guess=(read,tcheck) s
 table=(opt,rrhf)
 ----------------------------------------------------------------------
 -----
 title
 -----
 Symbolic Z-matrix:
 Charge =  0 Multiplicity = 1

 SCF Done:  E(RHF) =  -283.691330725     A.U. after   15 cycles
 Normal termination of Gaussian 16 at Sat Apr  5 22:51:49 2025.
 Gaussian 16:  ES64L-G16RevC.01  3-Jul-2019

 ----------------------------------------------------------------------
 #t hf aug-cc-pvdz iop(5/13=1,5/36=2,99/5=2) pseudo=read geom=check gue
 ss=(read,tcheck) scf=(maxcycle=1)
 ----------------------------------------------------------------------
 -----
 title
 -----
 Structure from the checkpoint file:  "but-2-ynamide.chk"
 Charge =  0 Multiplicity = 1

                         Standard orientation:
 ---------------------------------------------------------------------
 Center     Atomic      Atomic             Coordinates (Angstroms)
 Number     Number       Type             X           Y           Z
 ---------------------------------------------------------------------
      1          6           0       -0.275084   -0.023840    0.000001
      2          6           0       -1.476686    0.011199   -0.000006
      3          6           0        1.173929   -0.141273    0.000002
      4          6           0       -2.928915    0.034761    0.000001
      5          7           0        1.835717    1.050955    0.000032
      6          8           0        1.744529   -1.217101   -0.000005
      7          1           0       -3.308404    0.552873    0.882157
      8          1           0       -3.334521   -0.977755   -0.000225
      9          1           0       -3.308412    0.553273   -0.881917
     10          1           0        2.841046    1.040814   -0.000076
     11          1           0        1.344570    1.925831   -0.000104
 ---------------------------------------------------------------------

 SCF Done:  E(RHF) =  -283.782176718     A.U. after    2 cycles

 The electronic state is 1-A.
 Alpha  occ. eigenvalues --  -20.54332 -15.65665 -11.39198 -11.27502 -11.27320
 Alpha  occ. eigenvalues --  -11.24934  -1.35492  -1.18723  -1.07534  -0.98824
 Alpha  occ. eigenvalues --   -0.87335  -0.76161  -0.69935  -0.65705  -0.62799
 Alpha  occ. eigenvalues --   -0.61272  -0.60989  -0.59086  -0.46818  -0.42351
 Alpha  occ. eigenvalues --   -0.40498  -0.40430
 Alpha virt. eigenvalues --    0.02654   0.03527   0.05238   0.05351   0.06529
 Alpha virt. eigenvalues --    0.08211   0.10423   0.11506   0.11611   0.12612
 Alpha virt. eigenvalues --    0.14203   0.14348   0.14580   0.15086   0.16183

 Mulliken charges:
               1
     1  C    0.053559
     2  C   -0.557026
     3  C    0.416510
     4  C    0.302797
     5  N   -0.179690
     6  O   -0.531282
     7  H    0.145973
     8  H    0.168695
     9  H    0.145959
    10  H    0.030731
    11  H    0.003773
 Sum of Mulliken charges =  -0.00000

 Dipole moment (field-independent basis, Debye):
    X=             -2.5707    Y=              4.1713    Z=             -0.0004  Tot=              4.8998

 Test job not archived.
 1\1\GINC-SE206\SP\RHF\Aug-CC-pVDZ\C4H5N1O1\OHZDE\05-Apr-2025\0\\#t hf
 aug-cc-pvdz iop(5/13=1,5/36=2,99/5=2) pseudo=read geom=check guess=(re
 ad,tcheck) scf=(maxcycle=1)\\title\\0,1\C,0,-0.275084,-0.02384,0.00000
 1\C,0,-1.476686,0.011199,-0.000006\C,0,1.173929,-0.141273,0.000002\C,0
 ,-2.928915,0.034761,0.000001\N,0,1.835717,1.050955,0.000032\O,0,1.7445
 29,-1.217101,-0.000005\H,0,-3.308404,0.552873,0.882157\H,0,-3.334521,-
 0.977755,-0.000225\H,0,-3.308412,0.553273,-0.881917\H,0,2.841046,1.040
 814,-0.000076\H,0,1.34457,1.925831,-0.000104\\Version=ES64L-G16RevC.01

 Normal termination of Gaussian 16 at Sat Apr  5 22:52:47 2025.
