 Gaussian 16, Revision C.01,

 ----------------------------------------------------------------------
 #t hf aug-cc-pvdz symm=none int=(grid=ultrafine) guess=(read,tcheck) s
 table=(opt,rrhf)
 ----------------------------------------------------------------------
 -----
 title
 -----
 Symbolic Z-matrix:
 Charge =  0 Multiplicity = 1

 SCF Done:  E(RHF) =  -286.090396823     A.U. after   13 cycles
 Normal termination of Gaussian 16 at Sat Apr  5 22:52:02 2025.
 Gaussian 16:  ES64L-G16RevC.01  3-Jul-2019

 ----------------------------------------------------------------------
 #t hf aug-cc-pvdz iop(5/13=1,5/36=2,99/5=2) pseudo=read geom=check gue
 ss=(read,tcheck) scf=(maxcycle=1)
 ----------------------------------------------------------------------
 -----
 title
 -----
 Structure from the checkpoint file:  "butanamide.chk"
 Charge =  0 Multiplicity = 1

                         Standard orientation:
 ---------------------------------------------------------------------
 Center     Atomic      Atomic             Coordinates (Angstroms)
 Number     Number       Type             X           Y           Z
 ---------------------------------------------------------------------
      1          6           0       -2.731329   -0.188210    0.027569
      2          1           0       -2.896131   -0.208886    1.106914
      3          1           0       -3.510969    0.433548   -0.413737
      4          1           0       -2.869306   -1.205115   -0.346583
      5          6           0       -1.343418    0.351342   -0.308883
      6          1           0       -1.217269    0.398690   -1.393390
      7          1           0       -1.233985    1.372797    0.054840
      8          6           0       -0.221272   -0.497474    0.289364
      9          1           0       -0.261557   -1.517699   -0.100776
     10          1           0       -0.357479   -0.572869    1.373168
     11          7           0        2.159806   -0.790578   -0.170020
     12          1           0        3.099748   -0.446011   -0.265813
     13          1           0        1.999084   -1.780108   -0.196024
     14          6           0        1.158613    0.105753    0.066900
     15          8           0        1.369207    1.303904    0.115231
 ---------------------------------------------------------------------

 SCF Done:  E(RHF) =  -286.181960543     A.U. after    2 cycles

 The electronic state is 1-A.
 Alpha  occ. eigenvalues --  -20.53103 -15.64914 -11.36303 -11.24881 -11.23300
 Alpha  occ. eigenvalues --  -11.22699  -1.34367  -1.17685  -1.06503  -0.95973
 Alpha  occ. eigenvalues --   -0.83513  -0.78216  -0.72309  -0.67797  -0.64208
 Alpha  occ. eigenvalues --   -0.60982  -0.59215  -0.56824  -0.53150  -0.50908
 Alpha  occ. eigenvalues --   -0.48746  -0.47910  -0.43317  -0.41730
 Alpha virt. eigenvalues --    0.02747   0.03935   0.04764   0.04925   0.06352
 Alpha virt. eigenvalues --    0.06624   0.07589   0.08104   0.09340   0.11815
 Alpha virt. eigenvalues --    0.12127   0.13654   0.14537   0.14801   0.15607

 Mulliken charges:
               1
     1  C    0.474089
     2  H   -0.066114
     3  H   -0.056401
     4  H   -0.078706
     5  C    0.102065
     6  H   -0.134932
     7  H   -0.095160
     8  C    0.158022
     9  H   -0.179494
    10  H    0.008302
    11  N   -0.115243
    12  H   -0.031381
    13  H   -0.021451
    14  C    0.578143
    15  O   -0.541738
 Sum of Mulliken charges =  -0.00000

 Dipole moment (field-independent basis, Debye):
    X=             -0.2252    Y=             -4.1313    Z=             -0.2136  Tot=              4.1429

 Test job not archived.
 1\1\GINC-SE292\SP\RHF\Aug-CC-pVDZ\C4H9N1O1\OHZDE\05-Apr-2025\0\\#t hf
 aug-cc-pvdz iop(5/13=1,5/36=2,99/5=2) pseudo=read geom=check guess=(re
 ad,tcheck) scf=(maxcycle=1)\\title\\0,1\C,0,-2.731329,-0.18821,0.02756
 9\H,0,-2.896131,-0.208886,1.106914\H,0,-3.510969,0.433548,-0.413737\H,
 0,-2.869306,-1.205115,-0.346583\C,0,-1.343418,0.351342,-0.308883\H,0,-
 1.217269,0.39869,-1.39339\H,0,-1.233985,1.372797,0.05484\C,0,-0.221272
 ,-0.497474,0.289364\H,0,-0.261557,-1.517699,-0.100776\H,0,-0.357479,-0
 .572869,1.373168\N,0,2.159806,-0.790578,-0.17002\H,0,3.099748,-0.44601

 Normal termination of Gaussian 16 at Sat Apr  5 22:52:48 2025.
