 Gaussian 16, Revision C.01,

 ----------------------------------------------------------------------
 #t hf aug-cc-pvdz symm=none int=(grid=ultrafine) guess=(read,tcheck) s
 table=(opt,rrhf)
 ----------------------------------------------------------------------
 -----
 title
 -----
 Symbolic Z-matrix:
 Charge =  0 Multiplicity = 1

 SCF Done:  E(RHF) =  -554.846688020     A.U. after   12 cycles

 1\1\GINC-SE036\Stability\RHF\Aug-CC-pVDZ\C4H10S1\OHZDE\05-Apr-2025\0\\
 #t hf aug-cc-pvdz symm=none int=(grid=ultrafine) guess=(read,tcheck) s
 table=(opt,rrhf)\\title\\0,1\C,0,2.784969,-0.371669,-0.128185\C,0,1.35
 3327,-0.290285,0.397998\C,0,0.523956,0.782957,-0.309707\C,0,-0.898001,
 0.948281,0.21948\S,0,-1.902817,-0.567172,-0.109965\H,0,3.355821,-1.140
 15,0.394167\H,0,3.309752,0.577267,0.001618\H,0,2.800602,-0.614167,-1.1
 92643\H,0,1.367691,-0.079826,1.471581\H,0,0.869424,-1.263165,0.28702\H
 ,0,0.488279,0.573674,-1.382567\H,0,1.026483,1.74951,-0.202216\H,0,-0.8

 Normal termination of Gaussian 16 at Sat Apr  5 22:53:10 2025.
 Gaussian 16:  ES64L-G16RevC.01  3-Jul-2019

 ----------------------------------------------------------------------
 #t hf aug-cc-pvdz iop(5/13=1,5/36=2,99/5=2) pseudo=read geom=check gue
 ss=(read,tcheck) scf=(maxcycle=1)
 ----------------------------------------------------------------------
 -----
 title
 -----
 Structure from the checkpoint file:  "butanethiol.chk"
 Charge =  0 Multiplicity = 1

                         Standard orientation:
 ---------------------------------------------------------------------
 Center     Atomic      Atomic             Coordinates (Angstroms)
 Number     Number       Type             X           Y           Z
 ---------------------------------------------------------------------
      1          6           0        2.784969   -0.371669   -0.128185
      2          6           0        1.353327   -0.290285    0.397998
      3          6           0        0.523956    0.782957   -0.309707
      4          6           0       -0.898001    0.948281    0.219480
      5         16           0       -1.902817   -0.567172   -0.109965
      6          1           0        3.355821   -1.140150    0.394167
      7          1           0        3.309752    0.577267    0.001618
      8          1           0        2.800602   -0.614167   -1.192643
      9          1           0        1.367691   -0.079826    1.471581
     10          1           0        0.869424   -1.263165    0.287020
     11          1           0        0.488279    0.573674   -1.382567
     12          1           0        1.026483    1.749510   -0.202216
     13          1           0       -0.887504    1.133147    1.293120
     14          1           0       -1.385788    1.786314   -0.273539
     15          1           0       -3.085182   -0.063565    0.285377
 ---------------------------------------------------------------------

 SCF Done:  E(RHF) =  -554.917676837     A.U. after    2 cycles

 The electronic state is 1-A.
 Alpha  occ. eigenvalues --  -93.52835 -11.27034 -11.23900 -11.23039 -11.22416
 Alpha  occ. eigenvalues --   -8.82575  -6.16759  -6.16516  -6.16180  -1.08324
 Alpha  occ. eigenvalues --   -1.01191  -0.92577  -0.84314  -0.78573  -0.65034
 Alpha  occ. eigenvalues --   -0.61768  -0.59833  -0.57420  -0.53089  -0.51552
 Alpha  occ. eigenvalues --   -0.48664  -0.48045  -0.47304  -0.43694  -0.35063
 Alpha virt. eigenvalues --    0.03493   0.04218   0.04812   0.05076   0.06350
 Alpha virt. eigenvalues --    0.06657   0.07102   0.07466   0.09130   0.09761
 Alpha virt. eigenvalues --    0.11013   0.11932   0.13889   0.14793   0.15225

 Mulliken charges:
               1
     1  C    0.449138
     2  C    0.101802
     3  C    0.175455
     4  C    0.065008
     5  S    0.218589
     6  H   -0.070520
     7  H   -0.085689
     8  H   -0.068627
     9  H   -0.131733
    10  H   -0.145131
    11  H   -0.178462
    12  H   -0.107097
    13  H   -0.134325
    14  H   -0.115355
    15  H    0.026947
 Sum of Mulliken charges =   0.00000

 Dipole moment (field-independent basis, Debye):
    X=              0.4859    Y=              1.5712    Z=              0.5199  Tot=              1.7248

 Test job not archived.
 1\1\GINC-SE036\SP\RHF\Aug-CC-pVDZ\C4H10S1\OHZDE\05-Apr-2025\0\\#t hf a
 ug-cc-pvdz iop(5/13=1,5/36=2,99/5=2) pseudo=read geom=check guess=(rea
 d,tcheck) scf=(maxcycle=1)\\title\\0,1\C,0,2.784969,-0.371669,-0.12818
 5\C,0,1.353327,-0.290285,0.397998\C,0,0.523956,0.782957,-0.309707\C,0,
 -0.898001,0.948281,0.21948\S,0,-1.902817,-0.567172,-0.109965\H,0,3.355
 821,-1.14015,0.394167\H,0,3.309752,0.577267,0.001618\H,0,2.800602,-0.6
 14167,-1.192643\H,0,1.367691,-0.079826,1.471581\H,0,0.869424,-1.263165
 ,0.28702\H,0,0.488279,0.573674,-1.382567\H,0,1.026483,1.74951,-0.20221

 Normal termination of Gaussian 16 at Sat Apr  5 22:53:15 2025.
