 Gaussian 16, Revision C.01,

 ----------------------------------------------------------------------
 #t hf aug-cc-pvdz symm=none int=(grid=ultrafine) guess=(read,tcheck) s
 table=(opt,rrhf)
 ----------------------------------------------------------------------
 -----
 title
 -----
 Symbolic Z-matrix:
 Charge =  0 Multiplicity = 1

 SCF Done:  E(RHF) =  -157.313613381     A.U. after   11 cycles
 Normal termination of Gaussian 16 at Sat Apr  5 22:53:10 2025.
 Gaussian 16:  ES64L-G16RevC.01  3-Jul-2019

 ----------------------------------------------------------------------
 #t hf aug-cc-pvdz iop(5/13=1,5/36=2,99/5=2) pseudo=read geom=check gue
 ss=(read,tcheck) scf=(maxcycle=1)
 ----------------------------------------------------------------------
 -----
 title
 -----
 Structure from the checkpoint file:  "butane.chk"
 Charge =  0 Multiplicity = 1

                         Standard orientation:
 ---------------------------------------------------------------------
 Center     Atomic      Atomic             Coordinates (Angstroms)
 Number     Number       Type             X           Y           Z
 ---------------------------------------------------------------------
      1          6           0       -0.252798    0.723681    0.616235
      2          6           0        0.252798    1.571360   -0.551646
      3          6           0        0.252798   -0.723681    0.616235
      4          6           0       -0.252798   -1.571360   -0.551646
      5          1           0       -0.104388    2.599202   -0.473491
      6          1           0        0.083428   -1.182319   -1.513402
      7          1           0       -1.344623   -1.601548   -0.570383
      8          1           0       -0.083428    1.182319   -1.513402
      9          1           0        0.104388   -2.599202   -0.473491
     10          1           0        1.344623    1.601548   -0.570383
     11          1           0       -1.347442    0.719895    0.615666
     12          1           0        0.047102    1.198634    1.554079
     13          1           0        1.347442   -0.719895    0.615666
     14          1           0       -0.047102   -1.198634    1.554079
 ---------------------------------------------------------------------

 SCF Done:  E(RHF) =  -157.366913441     A.U. after    2 cycles

 The electronic state is 1-A.
 Alpha  occ. eigenvalues --  -11.22425 -11.22373 -11.21843 -11.21843  -1.06007
 Alpha  occ. eigenvalues --   -0.97068  -0.87135  -0.77682  -0.62489  -0.62133
 Alpha  occ. eigenvalues --   -0.57623  -0.53549  -0.53345  -0.50588  -0.46426
 Alpha  occ. eigenvalues --   -0.46043  -0.45931
 Alpha virt. eigenvalues --    0.03697   0.04602   0.04832   0.04941   0.06871
 Alpha virt. eigenvalues --    0.07075   0.07338   0.07576   0.08337   0.10033
 Alpha virt. eigenvalues --    0.13747   0.14608   0.14713   0.15511   0.15999

 Mulliken charges:
               1
     1  C    0.129084
     2  C    0.370681
     3  C    0.129084
     4  C    0.370681
     5  H   -0.086059
     6  H   -0.118566
     7  H   -0.074216
     8  H   -0.118566
     9  H   -0.086059
    10  H   -0.074216
    11  H   -0.120091
    12  H   -0.100834
    13  H   -0.120091
    14  H   -0.100834
 Sum of Mulliken charges =  -0.00000

 Dipole moment (field-independent basis, Debye):
    X=             -0.0000    Y=             -0.0000    Z=              0.0941  Tot=              0.0941

 Test job not archived.
 1\1\GINC-SE252\SP\RHF\Aug-CC-pVDZ\C4H10\OHZDE\05-Apr-2025\0\\#t hf aug
 -cc-pvdz iop(5/13=1,5/36=2,99/5=2) pseudo=read geom=check guess=(read,
 tcheck) scf=(maxcycle=1)\\title\\0,1\C,0,-0.252798,0.723681,0.616235\C
 ,0,0.252798,1.57136,-0.551646\C,0,0.252798,-0.723681,0.616235\C,0,-0.2
 52798,-1.57136,-0.551646\H,0,-0.104388,2.599202,-0.473491\H,0,0.083428
 ,-1.182319,-1.513402\H,0,-1.344623,-1.601548,-0.570383\H,0,-0.083428,1
 .182319,-1.513402\H,0,0.104388,-2.599202,-0.473491\H,0,1.344623,1.6015
 48,-0.570383\H,0,-1.347442,0.719895,0.615666\H,0,0.047102,1.198634,1.5

 Normal termination of Gaussian 16 at Sat Apr  5 22:53:12 2025.
