 Gaussian 16, Revision C.01,

 ----------------------------------------------------------------------
 #t hf aug-cc-pvdz symm=none int=(grid=ultrafine) guess=(read,tcheck) s
 table=(opt,rrhf)
 ----------------------------------------------------------------------
 -----
 title
 -----
 Symbolic Z-matrix:
 Charge =  0 Multiplicity = 1

 SCF Done:  E(RHF) =  -302.333881116     A.U. after   14 cycles
 Normal termination of Gaussian 16 at Sat Apr  5 22:51:34 2025.
 Gaussian 16:  ES64L-G16RevC.01  3-Jul-2019

 ----------------------------------------------------------------------
 #t hf aug-cc-pvdz iop(5/13=1,5/36=2,99/5=2) pseudo=read geom=check gue
 ss=(read,tcheck) scf=(maxcycle=1)
 ----------------------------------------------------------------------
 -----
 title
 -----
 Structure from the checkpoint file:  "buta-1-3-diene-1-4-dione.chk"
 Charge =  0 Multiplicity = 1

                         Standard orientation:
 ---------------------------------------------------------------------
 Center     Atomic      Atomic             Coordinates (Angstroms)
 Number     Number       Type             X           Y           Z
 ---------------------------------------------------------------------
      1          8           0       -0.115324    2.385771   -0.820827
      2          8           0        0.115324   -2.385771   -0.820827
      3          6           0        0.379356    0.637546    0.860073
      4          6           0       -0.379356   -0.637546    0.860073
      5          6           0        0.115324    1.569774   -0.030466
      6          6           0       -0.115324   -1.569774   -0.030466
      7          1           0        1.150733    0.853280    1.588973
      8          1           0       -1.150733   -0.853280    1.588973
 ---------------------------------------------------------------------

 SCF Done:  E(RHF) =  -302.430768645     A.U. after    2 cycles

 The electronic state is 1-A.
 Alpha  occ. eigenvalues --  -20.65588 -20.65587 -11.40735 -11.40735 -11.27633
 Alpha  occ. eigenvalues --  -11.27569  -1.45263  -1.45208  -1.11924  -1.01243
 Alpha  occ. eigenvalues --   -0.79372  -0.76905  -0.71893  -0.69313  -0.68804
 Alpha  occ. eigenvalues --   -0.66635  -0.66421  -0.61551  -0.57577  -0.39649
 Alpha  occ. eigenvalues --   -0.36362
 Alpha virt. eigenvalues --    0.02843   0.04247   0.06509   0.06779   0.09431
 Alpha virt. eigenvalues --    0.09555   0.11314   0.11421   0.12185   0.12481
 Alpha virt. eigenvalues --    0.13319   0.14362   0.14997   0.15713   0.15732

 Mulliken charges:
               1
     1  O   -0.221681
     2  O   -0.221681
     3  C    0.862959
     4  C    0.862959
     5  C   -0.415393
     6  C   -0.415393
     7  H   -0.225886
     8  H   -0.225886
 Sum of Mulliken charges =   0.00000

 Dipole moment (field-independent basis, Debye):
    X=              0.0000    Y=              0.0000    Z=              2.5852  Tot=              2.5852

 Test job not archived.
 1\1\GINC-SE210\SP\RHF\Aug-CC-pVDZ\C4H2O2\OHZDE\05-Apr-2025\0\\#t hf au
 g-cc-pvdz iop(5/13=1,5/36=2,99/5=2) pseudo=read geom=check guess=(read
 ,tcheck) scf=(maxcycle=1)\\title\\0,1\O,0,-0.115324,2.385771,-0.820827
 \O,0,0.115324,-2.385771,-0.820827\C,0,0.379356,0.637546,0.860073\C,0,-
 0.379356,-0.637546,0.860073\C,0,0.115324,1.569774,-0.030466\C,0,-0.115
 324,-1.569774,-0.030466\H,0,1.150733,0.85328,1.588973\H,0,-1.150733,-0
 .85328,1.588973\\Version=ES64L-G16RevC.01\State=1-A\HF=-302.4307686\RM
 SD=5.096e-03\Dipole=0.,0.,1.0170895\Quadrupole=2.7816396,-4.1159512,1.

 Normal termination of Gaussian 16 at Sat Apr  5 22:51:40 2025.
