 Gaussian 16, Revision C.01,

 ----------------------------------------------------------------------
 #t hf aug-cc-pvdz symm=none int=(grid=ultrafine) guess=(read,tcheck) s
 table=(opt,rrhf)
 ----------------------------------------------------------------------
 -----
 title
 -----
 Symbolic Z-matrix:
 Charge =  0 Multiplicity = 1

 SCF Done:  E(RHF) =  -210.022125788     A.U. after   13 cycles
 Normal termination of Gaussian 16 at Sat Apr  5 22:51:36 2025.
 Gaussian 16:  ES64L-G16RevC.01  3-Jul-2019

 ----------------------------------------------------------------------
 #t hf aug-cc-pvdz iop(5/13=1,5/36=2,99/5=2) pseudo=read geom=check gue
 ss=(read,tcheck) scf=(maxcycle=1)
 ----------------------------------------------------------------------
 -----
 title
 -----
 Structure from the checkpoint file:  "butanenitrile.chk"
 Charge =  0 Multiplicity = 1

                         Standard orientation:
 ---------------------------------------------------------------------
 Center     Atomic      Atomic             Coordinates (Angstroms)
 Number     Number       Type             X           Y           Z
 ---------------------------------------------------------------------
      1          6           0        1.454366    0.512277    0.000000
      2          6           0       -2.231561   -0.577774    0.000000
      3          6           0        0.000000    0.631202    0.000000
      4          6           0       -0.713585   -0.731881    0.000000
      5          7           0        2.598842    0.398854    0.000000
      6          1           0       -2.575965   -0.034287    0.881826
      7          1           0       -2.575965   -0.034287   -0.881826
      8          1           0       -2.719762   -1.552136    0.000000
      9          1           0       -0.295422    1.212550    0.876647
     10          1           0       -0.295422    1.212550   -0.876647
     11          1           0       -0.392341   -1.299658    0.874523
     12          1           0       -0.392341   -1.299658   -0.874523
 ---------------------------------------------------------------------

 SCF Done:  E(RHF) =  -210.087929955     A.U. after    2 cycles

 The electronic state is 1-A'.
 Alpha  occ. eigenvalues --  -15.63402 -11.29132 -11.28421 -11.26194 -11.24565
 Alpha  occ. eigenvalues --   -1.19304  -1.09293  -0.98435  -0.84780  -0.70448
 Alpha  occ. eigenvalues --   -0.67468  -0.60786  -0.58777  -0.55697  -0.53040
 Alpha  occ. eigenvalues --   -0.52176  -0.50896  -0.45561  -0.45294
 Alpha virt. eigenvalues --    0.02784   0.04115   0.04331   0.05140   0.06954
 Alpha virt. eigenvalues --    0.06955   0.07570   0.09420   0.10785   0.12797
 Alpha virt. eigenvalues --    0.13841   0.14688   0.14914   0.15157   0.16089

 Mulliken charges:
               1
     1  C   -0.348331
     2  C    0.437459
     3  C    0.464092
     4  C    0.121673
     5  N   -0.172285
     6  H   -0.060650
     7  H   -0.060650
     8  H   -0.053931
     9  H   -0.019049
    10  H   -0.019049
    11  H   -0.144639
    12  H   -0.144639
 Sum of Mulliken charges =  -0.00000

 Dipole moment (field-independent basis, Debye):
    X=             -4.4010    Y=              0.0208    Z=             -0.0000  Tot=              4.4011

 Test job not archived.
 1\1\GINC-SE255\SP\RHF\Aug-CC-pVDZ\C4H7N1\OHZDE\05-Apr-2025\0\\#t hf au
 g-cc-pvdz iop(5/13=1,5/36=2,99/5=2) pseudo=read geom=check guess=(read
 ,tcheck) scf=(maxcycle=1)\\title\\0,1\C,0,1.454366,0.512277,0.\C,0,-2.
 231561,-0.577773,0.\C,0,0.,0.631202,0.\C,0,-0.713585,-0.731881,0.\N,0,
 2.598842,0.398853,0.\H,0,-2.575965,-0.034286,0.881826\H,0,-2.575965,-0
 .034286,-0.881826\H,0,-2.719763,-1.552135,0.\H,0,-0.295422,1.21255,0.8
 76647\H,0,-0.295422,1.21255,-0.876647\H,0,-0.392342,-1.299658,0.874523
 \H,0,-0.392342,-1.299658,-0.874523\\Version=ES64L-G16RevC.01\State=1-A

 Normal termination of Gaussian 16 at Sat Apr  5 22:51:41 2025.
