 Gaussian 16, Revision C.01,

 ----------------------------------------------------------------------
 #t hf aug-cc-pvdz symm=none int=(grid=ultrafine) guess=(read,tcheck) s
 table=(opt,rrhf)
 ----------------------------------------------------------------------
 -----
 title
 -----
 Symbolic Z-matrix:
 Charge =  0 Multiplicity = 1

 SCF Done:  E(RHF) =  -552.899697055     A.U. after   16 cycles
 Normal termination of Gaussian 16 at Sat Apr  5 22:52:13 2025.
 Gaussian 16:  ES64L-G16RevC.01  3-Jul-2019

 ----------------------------------------------------------------------
 #t hf aug-cc-pvdz iop(5/13=1,5/36=2,99/5=2) pseudo=read geom=check gue
 ss=(read,tcheck) scf=(maxcycle=1)
 ----------------------------------------------------------------------
 -----
 title
 -----
 Structure from the checkpoint file:  "buta-1-3-diynyl_fluoromethyl_carbonate.chk"
 Charge =  0 Multiplicity = 1

                         Standard orientation:
 ---------------------------------------------------------------------
 Center     Atomic      Atomic             Coordinates (Angstroms)
 Number     Number       Type             X           Y           Z
 ---------------------------------------------------------------------
      1          9           0        3.940309   -0.700508    0.000001
      2          8           0        0.078593   -0.377057    0.000001
      3          8           0        2.113751    0.544697   -0.000000
      4          8           0        0.337726    1.902359   -0.000003
      5          6           0        0.818126    0.821984   -0.000000
      6          6           0       -1.226279   -0.291508    0.000001
      7          6           0        2.589453   -0.807507    0.000001
      8          6           0       -2.427483   -0.308785   -0.000000
      9          6           0       -3.790073   -0.312892   -0.000000
     10          6           0       -4.994397   -0.317938   -0.000000
     11          1           0        2.268129   -1.318104    0.905799
     12          1           0        2.268129   -1.318107   -0.905795
     13          1           0       -6.055687   -0.319329   -0.000000
 ---------------------------------------------------------------------

 SCF Done:  E(RHF) =  -553.086437362     A.U. after    2 cycles

 The electronic state is 1-A.
 Alpha  occ. eigenvalues --  -26.15793 -20.71041 -20.67553 -20.60951 -11.50432
 Alpha  occ. eigenvalues --  -11.43273 -11.34910 -11.28576 -11.28123 -11.26988
 Alpha  occ. eigenvalues --   -1.70171  -1.52359  -1.43404  -1.39728  -1.09742
 Alpha  occ. eigenvalues --   -1.04513  -1.02964  -0.95218  -0.85948  -0.83844
 Alpha  occ. eigenvalues --   -0.82052  -0.80644  -0.76623  -0.75448  -0.72837
 Alpha  occ. eigenvalues --   -0.72193  -0.69410  -0.67168  -0.62791  -0.60299
 Alpha  occ. eigenvalues --   -0.54732  -0.52716  -0.50102  -0.49675  -0.37859
 Alpha  occ. eigenvalues --   -0.37038
 Alpha virt. eigenvalues --    0.02884   0.03411   0.04618   0.06988   0.07180
 Alpha virt. eigenvalues --    0.08829   0.08930   0.09275   0.10305   0.10921
 Alpha virt. eigenvalues --    0.11629   0.12092   0.12602   0.13003   0.13193

 Mulliken charges:
               1
     1  F   -0.307770
     2  O   -0.232252
     3  O   -0.538386
     4  O   -0.303050
     5  C    0.641388
     6  C   -1.554617
     7  C    1.020576
     8  C    1.722168
     9  C   -0.078781
    10  C    0.593184
    11  H   -0.149524
    12  H   -0.149524
    13  H   -0.663413
 Sum of Mulliken charges =  -0.00000

 Dipole moment (field-independent basis, Debye):
    X=             -0.8499    Y=             -3.3368    Z=              0.0000  Tot=              3.4433

 Test job not archived.
 1\1\GINC-SE211\SP\RHF\Aug-CC-pVDZ\C6H3F1O3\OHZDE\05-Apr-2025\0\\#t hf
 aug-cc-pvdz iop(5/13=1,5/36=2,99/5=2) pseudo=read geom=check guess=(re
 ad,tcheck) scf=(maxcycle=1)\\title\\0,1\F,0,3.940309,-0.700508,0.00000
 1\O,0,0.078593,-0.377057,0.000001\O,0,2.113751,0.544697,0.\O,0,0.33772
 6,1.902359,-0.000003\C,0,0.818126,0.821984,0.\C,0,-1.226279,-0.291508,
 0.000001\C,0,2.589453,-0.807507,0.000001\C,0,-2.427483,-0.308785,0.\C,
 0,-3.790073,-0.312892,0.\C,0,-4.994397,-0.317938,0.\H,0,2.268129,-1.31
 8104,0.905799\H,0,2.268129,-1.318107,-0.905795\H,0,-6.055687,-0.319329

 Normal termination of Gaussian 16 at Sat Apr  5 22:52:49 2025.
