 Gaussian 16, Revision C.01,

 ----------------------------------------------------------------------
 #t hf aug-cc-pvdz symm=none int=(grid=ultrafine) guess=(read,tcheck) s
 table=(opt,rrhf)
 ----------------------------------------------------------------------
 -----
 title
 -----
 Symbolic Z-matrix:
 Charge =  0 Multiplicity = 1

 SCF Done:  E(RHF) =  -153.708826952     A.U. after   11 cycles
 Normal termination of Gaussian 16 at Sat Apr  5 22:53:08 2025.
 Gaussian 16:  ES64L-G16RevC.01  3-Jul-2019

 ----------------------------------------------------------------------
 #t hf aug-cc-pvdz iop(5/13=1,5/36=2,99/5=2) pseudo=read geom=check gue
 ss=(read,tcheck) scf=(maxcycle=1)
 ----------------------------------------------------------------------
 -----
 title
 -----
 Structure from the checkpoint file:  "butatriene.chk"
 Charge =  0 Multiplicity = 1

                         Standard orientation:
 ---------------------------------------------------------------------
 Center     Atomic      Atomic             Coordinates (Angstroms)
 Number     Number       Type             X           Y           Z
 ---------------------------------------------------------------------
      1          6           0        0.000000    0.000000    0.631617
      2          6           0        0.000000    0.000000   -0.631617
      3          6           0        0.000000    0.000000    1.943149
      4          6           0        0.000000    0.000000   -1.943149
      5          1           0        0.000000    0.924533    2.508102
      6          1           0       -0.000000   -0.924533    2.508102
      7          1           0        0.000000    0.924533   -2.508102
      8          1           0       -0.000000   -0.924533   -2.508102
 ---------------------------------------------------------------------

 SCF Done:  E(RHF) =  -153.759545538     A.U. after    2 cycles

 The electronic state is 1-AG.
 Alpha  occ. eigenvalues --  -11.27074 -11.26862 -11.26563 -11.26524  -1.08722
 Alpha  occ. eigenvalues --   -1.01270  -0.89858  -0.69530  -0.65637  -0.63068
 Alpha  occ. eigenvalues --   -0.60820  -0.48172  -0.37868  -0.33906
 Alpha virt. eigenvalues --    0.03658   0.04179   0.04886   0.05867   0.06130
 Alpha virt. eigenvalues --    0.08734   0.11492   0.12424   0.12442   0.13232
 Alpha virt. eigenvalues --    0.15584   0.16301   0.16853   0.18531   0.18928

 Mulliken charges:
               1
     1  C   -0.279876
     2  C   -0.279876
     3  C    0.575171
     4  C    0.575171
     5  H   -0.147647
     6  H   -0.147647
     7  H   -0.147647
     8  H   -0.147647
 Sum of Mulliken charges =   0.00000

 Dipole moment (field-independent basis, Debye):
    X=              0.0000    Y=              0.0000    Z=              0.0000  Tot=              0.0000

 Test job not archived.
 1\1\GINC-SE055\SP\RHF\Aug-CC-pVDZ\C4H4\OHZDE\05-Apr-2025\0\\#t hf aug-
 cc-pvdz iop(5/13=1,5/36=2,99/5=2) pseudo=read geom=check guess=(read,t
 check) scf=(maxcycle=1)\\title\\0,1\C,0,0.,0.,0.631617\C,0,0.,0.,-0.63
 1617\C,0,0.,0.,1.943149\C,0,0.,0.,-1.943149\H,0,0.,0.924533,2.508102\H
 ,0,0.,-0.924533,2.508102\H,0,0.,0.924533,-2.508102\H,0,0.,-0.924533,-2
 .508102\\Version=ES64L-G16RevC.01\State=1-AG\HF=-153.7595455\RMSD=1.04
 8e-02\Dipole=0.,0.,0.\Quadrupole=-3.4536533,-0.4396612,3.8933145,0.,0.
 ,0.\PG=D02H [C2"(C1C1.C1C1),SG(H4)]\\@

 Normal termination of Gaussian 16 at Sat Apr  5 22:53:12 2025.
