 Gaussian 16, Revision C.01,

 ----------------------------------------------------------------------
 #t hf aug-cc-pvdz symm=none int=(grid=ultrafine) guess=(read,tcheck) s
 table=(opt,rrhf)
 ----------------------------------------------------------------------
 -----
 title
 -----
 Symbolic Z-matrix:
 Charge =  0 Multiplicity = 1

 SCF Done:  E(RHF) =  -302.235209470     A.U. after   14 cycles
 Normal termination of Gaussian 16 at Sat Apr  5 22:51:34 2025.
 Gaussian 16:  ES64L-G16RevC.01  3-Jul-2019

 ----------------------------------------------------------------------
 #t hf aug-cc-pvdz iop(5/13=1,5/36=2,99/5=2) pseudo=read geom=check gue
 ss=(read,tcheck) scf=(maxcycle=1)
 ----------------------------------------------------------------------
 -----
 title
 -----
 Structure from the checkpoint file:  "buta-1-3-diyn-1-4-diol.chk"
 Charge =  0 Multiplicity = 1

                         Standard orientation:
 ---------------------------------------------------------------------
 Center     Atomic      Atomic             Coordinates (Angstroms)
 Number     Number       Type             X           Y           Z
 ---------------------------------------------------------------------
      1          8           0        3.189684   -0.076657   -0.064099
      2          8           0       -3.189684    0.076659   -0.064103
      3          6           0        0.681541   -0.006531   -0.008790
      4          6           0       -0.681541    0.006524   -0.008791
      5          6           0        1.886110   -0.000033    0.003758
      6          6           0       -1.886111    0.000032    0.003757
      7          1           0        3.604742    0.550174    0.542991
      8          1           0       -3.604744   -0.550143    0.543017
 ---------------------------------------------------------------------

 SCF Done:  E(RHF) =  -302.336107606     A.U. after    2 cycles

 The electronic state is 1-A.
 Alpha  occ. eigenvalues --  -20.65734 -20.65733 -11.31930 -11.31922 -11.25677
 Alpha  occ. eigenvalues --  -11.25562  -1.41666  -1.41661  -1.07026  -1.00765
 Alpha  occ. eigenvalues --   -0.86788  -0.83527  -0.77877  -0.69134  -0.68852
 Alpha  occ. eigenvalues --   -0.64599  -0.64583  -0.47040  -0.46999  -0.34183
 Alpha  occ. eigenvalues --   -0.34107
 Alpha virt. eigenvalues --    0.02705   0.03028   0.08793   0.09154   0.09854
 Alpha virt. eigenvalues --    0.09983   0.09992   0.10533   0.13297   0.15021
 Alpha virt. eigenvalues --    0.15740   0.15740   0.17564   0.18248   0.20948

 Mulliken charges:
               1
     1  O   -0.270090
     2  O   -0.270090
     3  C    1.886386
     4  C    1.886370
     5  C   -1.756361
     6  C   -1.756345
     7  H    0.140065
     8  H    0.140065
 Sum of Mulliken charges =  -0.00000

 Dipole moment (field-independent basis, Debye):
    X=             -0.0000    Y=              0.0001    Z=              2.2407  Tot=              2.2407

 Test job not archived.
 1\1\GINC-SE211\SP\RHF\Aug-CC-pVDZ\C4H2O2\OHZDE\05-Apr-2025\0\\#t hf au
 g-cc-pvdz iop(5/13=1,5/36=2,99/5=2) pseudo=read geom=check guess=(read
 ,tcheck) scf=(maxcycle=1)\\title\\0,1\O,0,3.189684,-0.076657,-0.064099
 \O,0,-3.189684,0.076659,-0.064103\C,0,0.681541,-0.006531,-0.00879\C,0,
 -0.681541,0.006524,-0.008791\C,0,1.88611,-0.000033,0.003758\C,0,-1.886
 111,0.000032,0.003757\H,0,3.604742,0.550174,0.542991\H,0,-3.604744,-0.
 550143,0.543017\\Version=ES64L-G16RevC.01\State=1-A\HF=-302.3361076\RM
 SD=2.042e-02\Dipole=-0.000004,0.0000231,0.8815464\Quadrupole=7.1927866

 Normal termination of Gaussian 16 at Sat Apr  5 22:51:41 2025.
