 Gaussian 16, Revision C.01,

 ----------------------------------------------------------------------
 #t hf aug-cc-pvdz symm=none int=(grid=ultrafine) guess=(read,tcheck) s
 table=(opt,rrhf)
 ----------------------------------------------------------------------
 -----
 title
 -----
 Symbolic Z-matrix:
 Charge =  0 Multiplicity = 1

 SCF Done:  E(RHF) =  -231.017177605     A.U. after   13 cycles
 Normal termination of Gaussian 16 at Sat Apr  5 22:51:42 2025.
 Gaussian 16:  ES64L-G16RevC.01  3-Jul-2019

 ----------------------------------------------------------------------
 #t hf aug-cc-pvdz iop(5/13=1,5/36=2,99/5=2) pseudo=read geom=check gue
 ss=(read,tcheck) scf=(maxcycle=1)
 ----------------------------------------------------------------------
 -----
 title
 -----
 Structure from the checkpoint file:  "butanal.chk"
 Charge =  0 Multiplicity = 1

                         Standard orientation:
 ---------------------------------------------------------------------
 Center     Atomic      Atomic             Coordinates (Angstroms)
 Number     Number       Type             X           Y           Z
 ---------------------------------------------------------------------
      1          6           0       -1.498796    0.606364    0.000000
      2          6           0        2.286416   -0.364870    0.000000
      3          6           0        0.000000    0.740162    0.000000
      4          6           0        0.773358   -0.572830    0.000000
      5          8           0       -2.103883   -0.435720    0.000000
      6          1           0       -2.049279    1.570818    0.000000
      7          1           0        2.612258    0.192076    0.881024
      8          1           0        2.813086   -1.319587    0.000000
      9          1           0        2.612258    0.192076   -0.881024
     10          1           0        0.262254    1.359651    0.867455
     11          1           0        0.262254    1.359651   -0.867455
     12          1           0        0.476183   -1.160935    0.870082
     13          1           0        0.476183   -1.160935   -0.870082
 ---------------------------------------------------------------------

 SCF Done:  E(RHF) =  -231.091857367     A.U. after    2 cycles

 The electronic state is 1-A'.
 Alpha  occ. eigenvalues --  -20.57259 -11.34427 -11.25207 -11.23671 -11.23033
 Alpha  occ. eigenvalues --   -1.36053  -1.07340  -0.97383  -0.84891  -0.77293
 Alpha  occ. eigenvalues --   -0.68494  -0.65237  -0.64653  -0.57512  -0.57427
 Alpha  occ. eigenvalues --   -0.52097  -0.51724  -0.49447  -0.48256  -0.43122
 Alpha virt. eigenvalues --    0.03206   0.04102   0.04719   0.05199   0.06521
 Alpha virt. eigenvalues --    0.07068   0.07915   0.07916   0.11448   0.11498
 Alpha virt. eigenvalues --    0.11831   0.13082   0.15008   0.15867   0.15975

 Mulliken charges:
               1
     1  C    0.583137
     2  C    0.481619
     3  C   -0.124111
     4  C    0.209294
     5  O   -0.453689
     6  H   -0.133923
     7  H   -0.077708
     8  H   -0.057841
     9  H   -0.077708
    10  H   -0.051395
    11  H   -0.051395
    12  H   -0.123141
    13  H   -0.123141
 Sum of Mulliken charges =  -0.00000

 Dipole moment (field-independent basis, Debye):
    X=              2.1844    Y=              2.4110    Z=              0.0000  Tot=              3.2534

 Test job not archived.
 1\1\GINC-SE214\SP\RHF\Aug-CC-pVDZ\C4H8O1\OHZDE\05-Apr-2025\0\\#t hf au
 g-cc-pvdz iop(5/13=1,5/36=2,99/5=2) pseudo=read geom=check guess=(read
 ,tcheck) scf=(maxcycle=1)\\title\\0,1\C,0,-1.498796,0.606364,0.\C,0,2.
 286416,-0.36487,0.\C,0,0.,0.740162,0.\C,0,0.773358,-0.57283,0.\O,0,-2.
 103883,-0.43572,0.\H,0,-2.049279,1.570818,0.\H,0,2.612258,0.192076,0.8
 81024\H,0,2.813086,-1.319587,0.\H,0,2.612258,0.192076,-0.881024\H,0,0.
 262254,1.359651,0.867455\H,0,0.262254,1.359651,-0.867455\H,0,0.476183,
 -1.160935,0.870082\H,0,0.476183,-1.160935,-0.870082\\Version=ES64L-G16

 Normal termination of Gaussian 16 at Sat Apr  5 22:52:47 2025.
