 Gaussian 16, Revision C.01,

 ----------------------------------------------------------------------
 #t hf aug-cc-pvdz symm=none int=(grid=ultrafine) guess=(read,tcheck) s
 table=(opt,rrhf)
 ----------------------------------------------------------------------
 -----
 title
 -----
 Symbolic Z-matrix:
 Charge =  0 Multiplicity = 1

 SCF Done:  E(RHF) =  -386.885399575     A.U. after   14 cycles
 Normal termination of Gaussian 16 at Sat Apr  5 22:55:31 2025.
 Gaussian 16:  ES64L-G16RevC.01  3-Jul-2019

 ----------------------------------------------------------------------
 #t hf aug-cc-pvdz iop(5/13=1,5/36=2,99/5=2) pseudo=read geom=check gue
 ss=(read,tcheck) scf=(maxcycle=1)
 ----------------------------------------------------------------------
 -----
 title
 -----
 Structure from the checkpoint file:  "butylbenzene.chk"
 Charge =  0 Multiplicity = 1

                         Standard orientation:
 ---------------------------------------------------------------------
 Center     Atomic      Atomic             Coordinates (Angstroms)
 Number     Number       Type             X           Y           Z
 ---------------------------------------------------------------------
      1          6           0        0.680345   -3.295333   -0.000000
      2          6           0        0.681769   -2.594527    1.200390
      3          6           0        0.681769   -2.594527   -1.200390
      4          6           0        0.681769   -1.204878    1.197095
      5          6           0        0.681769   -1.204878   -1.197095
      6          6           0        0.679166   -0.487390   -0.000000
      7          6           0       -2.241322    3.689088    0.000000
      8          6           0        0.640208    1.021053    0.000000
      9          6           0       -0.822953    3.121120    0.000000
     10          6           0       -0.786838    1.592902    0.000000
     11          1           0        0.683708   -4.377103   -0.000000
     12          1           0        0.687861   -3.130232    2.140693
     13          1           0        0.687861   -3.130232   -2.140693
     14          1           0        0.689431   -0.667833    2.138051
     15          1           0        0.689431   -0.667833   -2.138051
     16          1           0       -2.797599    3.361340    0.880573
     17          1           0       -2.797599    3.361340   -0.880573
     18          1           0       -2.234070    4.779958    0.000000
     19          1           0        1.173513    1.399551    0.875815
     20          1           0        1.173513    1.399551   -0.875815
     21          1           0       -0.280474    3.494116    0.873994
     22          1           0       -0.280474    3.494116   -0.873994
     23          1           0       -1.324598    1.213739    0.873915
     24          1           0       -1.324598    1.213739   -0.873915
 ---------------------------------------------------------------------

 SCF Done:  E(RHF) =  -387.003063023     A.U. after    2 cycles

 The electronic state is 1-A'.
 Alpha  occ. eigenvalues --  -11.24508 -11.24074 -11.24057 -11.23690 -11.23608
 Alpha  occ. eigenvalues --  -11.23600 -11.23359 -11.22782 -11.22725 -11.22173
 Alpha  occ. eigenvalues --   -1.14466  -1.07364  -1.02659  -1.00622  -0.96031
 Alpha  occ. eigenvalues --   -0.87315  -0.82663  -0.80267  -0.78710  -0.69707
 Alpha  occ. eigenvalues --   -0.65581  -0.63461  -0.62486  -0.59346  -0.58737
 Alpha  occ. eigenvalues --   -0.58152  -0.56419  -0.53545  -0.51642  -0.50491
 Alpha  occ. eigenvalues --   -0.49157  -0.48483  -0.47346  -0.46659  -0.46027
 Alpha  occ. eigenvalues --   -0.33717  -0.32642
 Alpha virt. eigenvalues --    0.03404   0.03851   0.04015   0.04694   0.05101
 Alpha virt. eigenvalues --    0.05311   0.06398   0.06883   0.07042   0.07632
 Alpha virt. eigenvalues --    0.07815   0.08632   0.09709   0.10430   0.11285

 Mulliken charges:
               1
     1  C    0.655399
     2  C    0.148544
     3  C    0.148544
     4  C    0.443614
     5  C    0.443614
     6  C    0.875147
     7  C    0.539781
     8  C    0.491402
     9  C    0.245453
    10  C   -0.001521
    11  H   -0.444190
    12  H   -0.450422
    13  H   -0.450422
    14  H   -0.640113
    15  H   -0.640113
    16  H   -0.080342
    17  H   -0.080342
    18  H   -0.065787
    19  H   -0.214496
    20  H   -0.214496
    21  H   -0.134757
    22  H   -0.134757
    23  H   -0.219869
    24  H   -0.219869
 Sum of Mulliken charges =  -0.00000

 Dipole moment (field-independent basis, Debye):
    X=             -0.0979    Y=              0.4749    Z=              0.0000  Tot=              0.4848

 Test job not archived.
 1\1\GINC-SE129\SP\RHF\Aug-CC-pVDZ\C10H14\OHZDE\05-Apr-2025\0\\#t hf au
 g-cc-pvdz iop(5/13=1,5/36=2,99/5=2) pseudo=read geom=check guess=(read
 ,tcheck) scf=(maxcycle=1)\\title\\0,1\C,0,0.680345,-3.295333,0.\C,0,0.
 681769,-2.594527,1.20039\C,0,0.681769,-2.594527,-1.20039\C,0,0.681769,
 -1.204878,1.197095\C,0,0.681769,-1.204878,-1.197095\C,0,0.679166,-0.48
 739,0.\C,0,-2.241322,3.689088,0.\C,0,0.640208,1.021053,0.\C,0,-0.82295
 3,3.12112,0.\C,0,-0.786838,1.592902,0.\H,0,0.683708,-4.377103,0.\H,0,0
 .687861,-3.130232,2.140693\H,0,0.687861,-3.130232,-2.140693\H,0,0.6894

 Normal termination of Gaussian 16 at Sat Apr  5 22:55:54 2025.
