 Gaussian 16, Revision C.01,

 ----------------------------------------------------------------------
 #t hf aug-cc-pvdz symm=none int=(grid=ultrafine) guess=(read,tcheck) s
 table=(opt,rrhf)
 ----------------------------------------------------------------------
 -----
 title
 -----
 Symbolic Z-matrix:
 Charge =  0 Multiplicity = 1

 SCF Done:  E(RHF) =  -383.994367484     A.U. after   13 cycles

 1\1\GINC-SE104\Stability\RHF\Aug-CC-pVDZ\C6H12O2\OHZDE\05-Apr-2025\0\\
 #t hf aug-cc-pvdz symm=none int=(grid=ultrafine) guess=(read,tcheck) s
 table=(opt,rrhf)\\title\\0,1\C,0,2.202488,0.116111,-0.000012\C,0,3.288
 179,-0.927156,0.000005\C,0,-3.962455,-0.357641,-0.000017\C,0,-2.678902
 ,0.470725,0.000022\C,0,-1.415543,-0.392205,-0.000009\C,0,-0.151969,0.4
 44179,0.000021\O,0,2.38092,1.308789,-0.00002\O,0,0.980632,-0.454908,0.
 \H,0,3.191841,-1.565826,-0.877925\H,0,3.192067,-1.565518,0.878188\H,0,
 4.258416,-0.440768,-0.000192\H,0,-4.016737,-1.000104,-0.880951\H,0,-4.

 Normal termination of Gaussian 16 at Sat Apr  5 22:53:59 2025.
 Gaussian 16:  ES64L-G16RevC.01  3-Jul-2019

 ----------------------------------------------------------------------
 #t hf aug-cc-pvdz iop(5/13=1,5/36=2,99/5=2) pseudo=read geom=check gue
 ss=(read,tcheck) scf=(maxcycle=1)
 ----------------------------------------------------------------------
 -----
 title
 -----
 Structure from the checkpoint file:  "butyl_acetate.chk"
 Charge =  0 Multiplicity = 1

                         Standard orientation:
 ---------------------------------------------------------------------
 Center     Atomic      Atomic             Coordinates (Angstroms)
 Number     Number       Type             X           Y           Z
 ---------------------------------------------------------------------
      1          6           0        2.202488    0.116111   -0.000012
      2          6           0        3.288179   -0.927156    0.000005
      3          6           0       -3.962455   -0.357641   -0.000017
      4          6           0       -2.678902    0.470725    0.000022
      5          6           0       -1.415543   -0.392205   -0.000009
      6          6           0       -0.151969    0.444179    0.000021
      7          8           0        2.380920    1.308789   -0.000020
      8          8           0        0.980632   -0.454908   -0.000000
      9          1           0        3.191841   -1.565826   -0.877925
     10          1           0        3.192067   -1.565518    0.878188
     11          1           0        4.258416   -0.440768   -0.000192
     12          1           0       -4.016737   -1.000104   -0.880951
     13          1           0       -4.016742   -1.000179    0.880862
     14          1           0       -4.846288    0.281106    0.000008
     15          1           0       -2.669921    1.127959   -0.874214
     16          1           0       -2.669927    1.127886    0.874314
     17          1           0       -1.412843   -1.045046    0.876714
     18          1           0       -1.412842   -1.044982   -0.876781
     19          1           0       -0.090109    1.085203   -0.880362
     20          1           0       -0.090117    1.085149    0.880444
 ---------------------------------------------------------------------

 SCF Done:  E(RHF) =  -384.119067568     A.U. after    2 cycles

 The electronic state is 1-A.
 Alpha  occ. eigenvalues --  -20.61102 -20.55631 -11.39115 -11.29484 -11.24893
 Alpha  occ. eigenvalues --  -11.23667 -11.23533 -11.22780  -1.41456  -1.32016
 Alpha  occ. eigenvalues --   -1.07981  -1.02547  -0.97628  -0.87864  -0.80727
 Alpha  occ. eigenvalues --   -0.78256  -0.69876  -0.69646  -0.67810  -0.64140
 Alpha  occ. eigenvalues --   -0.59967  -0.59600  -0.57605  -0.56712  -0.54921
 Alpha  occ. eigenvalues --   -0.53053  -0.51223  -0.49022  -0.48672  -0.47981
 Alpha  occ. eigenvalues --   -0.46946  -0.45977
 Alpha virt. eigenvalues --    0.03365   0.03851   0.04645   0.04735   0.05633
 Alpha virt. eigenvalues --    0.06096   0.06358   0.06973   0.07997   0.08445
 Alpha virt. eigenvalues --    0.08571   0.10159   0.10961   0.11734   0.13457

 Mulliken charges:
               1
     1  C    0.180200
     2  C    0.311194
     3  C    0.426431
     4  C    0.310639
     5  C    0.208211
     6  C    0.756055
     7  O   -0.457400
     8  O   -0.516917
     9  H    0.026813
    10  H    0.026861
    11  H   -0.024874
    12  H   -0.078511
    13  H   -0.078510
    14  H   -0.061325
    15  H   -0.145481
    16  H   -0.145480
    17  H   -0.173149
    18  H   -0.173142
    19  H   -0.195807
    20  H   -0.195807
 Sum of Mulliken charges =   0.00000

 Dipole moment (field-independent basis, Debye):
    X=             -1.1808    Y=             -2.0455    Z=              0.0001  Tot=              2.3619

 Test job not archived.
 1\1\GINC-SE104\SP\RHF\Aug-CC-pVDZ\C6H12O2\OHZDE\05-Apr-2025\0\\#t hf a
 ug-cc-pvdz iop(5/13=1,5/36=2,99/5=2) pseudo=read geom=check guess=(rea
 d,tcheck) scf=(maxcycle=1)\\title\\0,1\C,0,2.202488,0.116111,-0.000012
 \C,0,3.288179,-0.927156,0.000005\C,0,-3.962455,-0.357641,-0.000017\C,0
 ,-2.678902,0.470725,0.000022\C,0,-1.415543,-0.392205,-0.000009\C,0,-0.
 151969,0.444179,0.000021\O,0,2.38092,1.308789,-0.00002\O,0,0.980632,-0
 .454908,0.\H,0,3.191841,-1.565826,-0.877925\H,0,3.192067,-1.565518,0.8
 78188\H,0,4.258416,-0.440768,-0.000192\H,0,-4.016737,-1.000104,-0.8809

 Normal termination of Gaussian 16 at Sat Apr  5 22:54:41 2025.
