 Gaussian 16, Revision C.01,

 ----------------------------------------------------------------------
 #t hf aug-cc-pvdz symm=none int=(grid=ultrafine) guess=(read,tcheck) s
 table=(opt,rrhf)
 ----------------------------------------------------------------------
 -----
 title
 -----
 Symbolic Z-matrix:
 Charge =  0 Multiplicity = 1

 SCF Done:  E(RHF) =  -305.927857967     A.U. after   13 cycles
 Normal termination of Gaussian 16 at Sat Apr  5 22:53:18 2025.
 Gaussian 16:  ES64L-G16RevC.01  3-Jul-2019

 ----------------------------------------------------------------------
 #t hf aug-cc-pvdz iop(5/13=1,5/36=2,99/5=2) pseudo=read geom=check gue
 ss=(read,tcheck) scf=(maxcycle=1)
 ----------------------------------------------------------------------
 -----
 title
 -----
 Structure from the checkpoint file:  "butyric_acid.chk"
 Charge =  0 Multiplicity = 1

                         Standard orientation:
 ---------------------------------------------------------------------
 Center     Atomic      Atomic             Coordinates (Angstroms)
 Number     Number       Type             X           Y           Z
 ---------------------------------------------------------------------
      1          6           0       -1.045329   -0.494601    0.000000
      2          6           0        2.460708    1.198934    0.000000
      3          6           0        0.000000    0.591852    0.000000
      4          6           0        1.432695    0.069636    0.000000
      5          8           0       -0.842076   -1.681341    0.000000
      6          8           0       -2.300401    0.024009    0.000000
      7          1           0        2.354021    1.835295    0.881002
      8          1           0        2.354021    1.835295   -0.881002
      9          1           0        3.476451    0.802896    0.000000
     10          1           0       -0.189161    1.228211    0.869185
     11          1           0       -0.189161    1.228211   -0.869185
     12          1           0        1.580358   -0.571042   -0.870771
     13          1           0        1.580358   -0.571042    0.870771
     14          1           0       -2.915516   -0.724098    0.000000
 ---------------------------------------------------------------------

 SCF Done:  E(RHF) =  -306.026719882     A.U. after    2 cycles

 The electronic state is 1-A'.
 Alpha  occ. eigenvalues --  -20.62438 -20.56595 -11.39964 -11.25640 -11.23811
 Alpha  occ. eigenvalues --  -11.23072  -1.42495  -1.32736  -1.07745  -0.97817
 Alpha  occ. eigenvalues --   -0.85944  -0.79416  -0.71781  -0.69980  -0.67413
 Alpha  occ. eigenvalues --   -0.62324  -0.61000  -0.58074  -0.55031  -0.51568
 Alpha  occ. eigenvalues --   -0.50277  -0.49629  -0.48448  -0.46804
 Alpha virt. eigenvalues --    0.03365   0.04139   0.04892   0.04994   0.06216
 Alpha virt. eigenvalues --    0.07342   0.07998   0.08070   0.11215   0.11670
 Alpha virt. eigenvalues --    0.13267   0.13444   0.14998   0.15642   0.15744

 Mulliken charges:
               1
     1  C    0.451046
     2  C    0.510037
     3  C    0.084387
     4  C    0.236767
     5  O   -0.458050
     6  O   -0.513260
     7  H   -0.081113
     8  H   -0.081113
     9  H   -0.047248
    10  H   -0.009767
    11  H   -0.009767
    12  H   -0.140284
    13  H   -0.140284
    14  H    0.198650
 Sum of Mulliken charges =  -0.00000

 Dipole moment (field-independent basis, Debye):
    X=              0.0206    Y=              1.8780    Z=             -0.0000  Tot=              1.8781

 Test job not archived.
 1\1\GINC-SE173\SP\RHF\Aug-CC-pVDZ\C4H8O2\OHZDE\05-Apr-2025\0\\#t hf au
 g-cc-pvdz iop(5/13=1,5/36=2,99/5=2) pseudo=read geom=check guess=(read
 ,tcheck) scf=(maxcycle=1)\\title\\0,1\C,0,-1.045329,-0.494601,0.\C,0,2
 .460708,1.198934,0.\C,0,0.,0.591852,0.\C,0,1.432695,0.069636,0.\O,0,-0
 .842076,-1.681341,0.\O,0,-2.300401,0.024009,0.\H,0,2.354021,1.835295,0
 .881002\H,0,2.354021,1.835295,-0.881002\H,0,3.476451,0.802896,0.\H,0,-
 0.189161,1.228211,0.869185\H,0,-0.189161,1.228211,-0.869185\H,0,1.5803
 58,-0.571042,-0.870771\H,0,1.580358,-0.571042,0.870771\H,0,-2.915516,-

 Normal termination of Gaussian 16 at Sat Apr  5 22:53:22 2025.
