 Gaussian 16, Revision C.01,

 ----------------------------------------------------------------------
 #t hf aug-cc-pvdz symm=none int=(grid=ultrafine) guess=(read,tcheck) s
 table=(opt,rrhf)
 ----------------------------------------------------------------------
 -----
 title
 -----
 Symbolic Z-matrix:
 Charge =  0 Multiplicity = 1

 SCF Done:  E(RHF) =  -306.326624159     A.U. after   14 cycles
 Normal termination of Gaussian 16 at Sat Apr  5 22:53:35 2025.
 Gaussian 16:  ES64L-G16RevC.01  3-Jul-2019

 ----------------------------------------------------------------------
 #t hf aug-cc-pvdz iop(5/13=1,5/36=2,99/5=2) pseudo=read geom=check gue
 ss=(read,tcheck) scf=(maxcycle=1)
 ----------------------------------------------------------------------
 -----
 title
 -----
 Structure from the checkpoint file:  "calicene.chk"
 Charge =  0 Multiplicity = 1

                         Standard orientation:
 ---------------------------------------------------------------------
 Center     Atomic      Atomic             Coordinates (Angstroms)
 Number     Number       Type             X           Y           Z
 ---------------------------------------------------------------------
      1          6           0        0.000000   -0.000000   -0.043798
      2          6           0        0.000000    0.000000    1.304624
      3          6           0        0.000000    0.659873    2.562756
      4          6           0       -0.000000   -0.659873    2.562756
      5          6           0        0.000000    1.167314   -0.908995
      6          6           0       -0.000000   -1.167314   -0.908995
      7          6           0        0.000000    0.725289   -2.197208
      8          6           0       -0.000000   -0.725289   -2.197208
      9          1           0        0.000000    1.574226    3.129175
     10          1           0       -0.000000   -1.574226    3.129175
     11          1           0        0.000000    2.191202   -0.569441
     12          1           0       -0.000000   -2.191202   -0.569441
     13          1           0        0.000000    1.344285   -3.081535
     14          1           0       -0.000000   -1.344285   -3.081535
 ---------------------------------------------------------------------

 SCF Done:  E(RHF) =  -306.418355828     A.U. after    2 cycles

 The electronic state is 1-A1.
 Alpha  occ. eigenvalues --  -11.31938 -11.31767 -11.31662 -11.21607 -11.21089
 Alpha  occ. eigenvalues --  -11.21075 -11.20537 -11.20458  -1.24023  -1.12362
 Alpha  occ. eigenvalues --   -0.97051  -0.93456  -0.82960  -0.81482  -0.76430
 Alpha  occ. eigenvalues --   -0.71532  -0.69356  -0.60388  -0.55198  -0.55099
 Alpha  occ. eigenvalues --   -0.53807  -0.53368  -0.49981  -0.46489  -0.46048
 Alpha  occ. eigenvalues --   -0.28592  -0.27940
 Alpha virt. eigenvalues --    0.02424   0.03249   0.04741   0.05576   0.05951
 Alpha virt. eigenvalues --    0.07369   0.07487   0.07638   0.10105   0.10502
 Alpha virt. eigenvalues --    0.11484   0.12384   0.12402   0.12964   0.13985

 Mulliken charges:
               1
     1  C   -0.114020
     2  C    0.948775
     3  C    0.263728
     4  C    0.263728
     5  C    0.351787
     6  C    0.351787
     7  C    0.279902
     8  C    0.279902
     9  H   -0.381810
    10  H   -0.381810
    11  H   -0.566576
    12  H   -0.566576
    13  H   -0.364409
    14  H   -0.364409
 Sum of Mulliken charges =  -0.00000

 Dipole moment (field-independent basis, Debye):
    X=              0.0000    Y=              0.0000    Z=              5.1969  Tot=              5.1969

 Test job not archived.
 1\1\GINC-SE185\SP\RHF\Aug-CC-pVDZ\C8H6\OHZDE\05-Apr-2025\0\\#t hf aug-
 cc-pvdz iop(5/13=1,5/36=2,99/5=2) pseudo=read geom=check guess=(read,t
 check) scf=(maxcycle=1)\\title\\0,1\C,0,0.,0.,-0.043798\C,0,0.,0.,1.30
 4624\C,0,0.,0.659873,2.562756\C,0,0.,-0.659873,2.562756\C,0,0.,1.16731
 4,-0.908995\C,0,0.,-1.167314,-0.908995\C,0,0.,0.725289,-2.197208\C,0,0
 .,-0.725289,-2.197208\H,0,0.,1.574226,3.129175\H,0,0.,-1.574226,3.1291
 75\H,0,0.,2.191202,-0.569441\H,0,0.,-2.191202,-0.569441\H,0,0.,1.34428
 5,-3.081535\H,0,0.,-1.344285,-3.081535\\Version=ES64L-G16RevC.01\State

 Normal termination of Gaussian 16 at Sat Apr  5 22:53:41 2025.
