 Gaussian 16, Revision C.01,

 ----------------------------------------------------------------------
 #t hf aug-cc-pvdz symm=none int=(grid=ultrafine) guess=(read,tcheck) s
 table=(opt,rrhf)
 ----------------------------------------------------------------------
 -----
 title
 -----
 Symbolic Z-matrix:
 Charge =  0 Multiplicity = 1

 SCF Done:  E(RHF) =  -311.654004098     A.U. after   12 cycles
 Normal termination of Gaussian 16 at Sat Apr  5 22:53:10 2025.
 Gaussian 16:  ES64L-G16RevC.01  3-Jul-2019

 ----------------------------------------------------------------------
 #t hf aug-cc-pvdz iop(5/13=1,5/36=2,99/5=2) pseudo=read geom=check gue
 ss=(read,tcheck) scf=(maxcycle=1)
 ----------------------------------------------------------------------
 -----
 title
 -----
 Structure from the checkpoint file:  "carbonyl_fluoride.chk"
 Charge =  0 Multiplicity = 1

                         Standard orientation:
 ---------------------------------------------------------------------
 Center     Atomic      Atomic             Coordinates (Angstroms)
 Number     Number       Type             X           Y           Z
 ---------------------------------------------------------------------
      1          8           0        0.000000   -0.000000    1.316315
      2          6           0        0.000000   -0.000000    0.145081
      3          9           0        0.000000    1.065268   -0.633389
      4          9           0       -0.000000   -1.065268   -0.633389
 ---------------------------------------------------------------------

 SCF Done:  E(RHF) =  -311.768588547     A.U. after    2 cycles

 The electronic state is 1-A1.
 Alpha  occ. eigenvalues --  -26.21691 -26.21675 -20.64046 -11.55680  -1.79578
 Alpha  occ. eigenvalues --   -1.74054  -1.45441  -1.01274  -0.91867  -0.86683
 Alpha  occ. eigenvalues --   -0.85310  -0.79051  -0.77033  -0.73814  -0.60502
 Alpha  occ. eigenvalues --   -0.58834
 Alpha virt. eigenvalues --    0.06450   0.08254   0.09082   0.09190   0.13924
 Alpha virt. eigenvalues --    0.21205   0.21786   0.23703   0.24889   0.25893
 Alpha virt. eigenvalues --    0.27239   0.30651   0.31540   0.32147   0.33887

 Mulliken charges:
               1
     1  O   -0.234534
     2  C    0.675586
     3  F   -0.220526
     4  F   -0.220526
 Sum of Mulliken charges =  -0.00000

 Dipole moment (field-independent basis, Debye):
    X=              0.0000    Y=             -0.0000    Z=             -1.0112  Tot=              1.0112

 Test job not archived.
 1\1\GINC-SE053\SP\RHF\Aug-CC-pVDZ\C1F2O1\OHZDE\05-Apr-2025\0\\#t hf au
 g-cc-pvdz iop(5/13=1,5/36=2,99/5=2) pseudo=read geom=check guess=(read
 ,tcheck) scf=(maxcycle=1)\\title\\0,1\O,0,0.,0.,1.316315\C,0,0.,0.,0.1
 45081\F,0,0.,1.065268,-0.633389\F,0,0.,-1.065268,-0.633389\\Version=ES
 64L-G16RevC.01\State=1-A1\HF=-311.7685885\RMSD=6.325e-03\Dipole=0.,0.,
 -0.397847\Quadrupole=2.0022196,-0.2406877,-1.7615319,0.,0.,0.\PG=C02V
 [C2(C1O1),SGV(F2)]\\@

 Normal termination of Gaussian 16 at Sat Apr  5 22:53:12 2025.
