 Gaussian 16, Revision C.01,

 ----------------------------------------------------------------------
 #t hf aug-cc-pvdz symm=none int=(grid=ultrafine) guess=(read,tcheck) s
 table=(opt,rrhf)
 ----------------------------------------------------------------------
 -----
 title
 -----
 Symbolic Z-matrix:
 Charge =  0 Multiplicity = 1

 SCF Done:  E(RHF) =  -187.662759194     A.U. after   10 cycles
 Normal termination of Gaussian 16 at Sat Apr  5 22:53:08 2025.
 Gaussian 16:  ES64L-G16RevC.01  3-Jul-2019

 ----------------------------------------------------------------------
 #t hf aug-cc-pvdz iop(5/13=1,5/36=2,99/5=2) pseudo=read geom=check gue
 ss=(read,tcheck) scf=(maxcycle=1)
 ----------------------------------------------------------------------
 -----
 title
 -----
 Structure from the checkpoint file:  "carbon_dioxide.chk"
 Charge =  0 Multiplicity = 1

                         Standard orientation:
 ---------------------------------------------------------------------
 Center     Atomic      Atomic             Coordinates (Angstroms)
 Number     Number       Type             X           Y           Z
 ---------------------------------------------------------------------
      1          6           0        0.000000    0.000000    0.000000
      2          8           0        0.000000    0.000000    1.160386
      3          8           0        0.000000    0.000000   -1.160386
 ---------------------------------------------------------------------

 SCF Done:  E(RHF) =  -187.725650356     A.U. after    2 cycles

 The electronic state is 1-SGG.
 Alpha  occ. eigenvalues --  -20.66890 -20.66857 -11.48107  -1.49653  -1.44905
 Alpha  occ. eigenvalues --   -0.81365  -0.76043  -0.73340  -0.73340  -0.56537
 Alpha  occ. eigenvalues --   -0.56537
 Alpha virt. eigenvalues --    0.05541   0.08552   0.08552   0.09314   0.19654
 Alpha virt. eigenvalues --    0.19654   0.19725   0.21152   0.21152   0.24741
 Alpha virt. eigenvalues --    0.26897   0.29533   0.29533   0.36572   0.40482

 Mulliken charges:
               1
     1  C    0.295174
     2  O   -0.147587
     3  O   -0.147587
 Sum of Mulliken charges =  -0.00000

 Dipole moment (field-independent basis, Debye):
    X=              0.0000    Y=              0.0000    Z=             -0.0000  Tot=              0.0000

 Test job not archived.
 1\1\GINC-SE115\SP\RHF\Aug-CC-pVDZ\C1O2\OHZDE\05-Apr-2025\0\\#t hf aug-
 cc-pvdz iop(5/13=1,5/36=2,99/5=2) pseudo=read geom=check guess=(read,t
 check) scf=(maxcycle=1)\\title\\0,1\C,0,0.,0.,0.\O,0,0.,0.,1.160386\O,
 0,0.,0.,-1.160386\\Version=ES64L-G16RevC.01\State=1-SGG\HF=-187.725650
 4\RMSD=3.529e-03\Dipole=0.,0.,0.\Quadrupole=1.393776,1.393776,-2.78755
 19,0.,0.,0.\PG=D*H [O(C1),C*(O1.O1)]\\@

 Normal termination of Gaussian 16 at Sat Apr  5 22:53:11 2025.
