 Gaussian 16, Revision C.01,

 ----------------------------------------------------------------------
 #t hf aug-cc-pvdz symm=none int=(grid=ultrafine) guess=(read,tcheck) s
 table=(opt,rrhf)
 ----------------------------------------------------------------------
 -----
 title
 -----
 Symbolic Z-matrix:
 Charge =  0 Multiplicity = 1

 SCF Done:  E(RHF) =  -671.698963697     A.U. after   13 cycles
 Normal termination of Gaussian 16 at Sat Apr  5 22:53:07 2025.
 Gaussian 16:  ES64L-G16RevC.01  3-Jul-2019

 ----------------------------------------------------------------------
 #t hf aug-cc-pvdz iop(5/13=1,5/36=2,99/5=2) pseudo=read geom=check gue
 ss=(read,tcheck) scf=(maxcycle=1)
 ----------------------------------------------------------------------
 -----
 title
 -----
 Structure from the checkpoint file:  "carbonic_chloride_fluoride.chk"
 Charge =  0 Multiplicity = 1

                         Standard orientation:
 ---------------------------------------------------------------------
 Center     Atomic      Atomic             Coordinates (Angstroms)
 Number     Number       Type             X           Y           Z
 ---------------------------------------------------------------------
      1          6           0        0.000000    0.510905    0.000000
      2          8           0       -0.797403    1.370426    0.000000
      3         17           0       -0.321199   -1.202070    0.000000
      4          9           0        1.315513    0.711817    0.000000
 ---------------------------------------------------------------------

 SCF Done:  E(RHF) =  -671.793965223     A.U. after    2 cycles

 The electronic state is 1-A'.
 Alpha  occ. eigenvalues -- -103.72410 -26.20469 -20.64125 -11.52194 -10.75727
 Alpha  occ. eigenvalues --   -8.41456  -8.41113  -8.41092  -1.75425  -1.45440
 Alpha  occ. eigenvalues --   -1.22468  -0.95218  -0.83497  -0.82298  -0.78042
 Alpha  occ. eigenvalues --   -0.68798  -0.62749  -0.56548  -0.52312  -0.52078
 Alpha virt. eigenvalues --    0.05915   0.08533   0.09302   0.09971   0.10665
 Alpha virt. eigenvalues --    0.11265   0.14908   0.15375   0.18336   0.22818
 Alpha virt. eigenvalues --    0.23919   0.26035   0.27726   0.31651   0.31775

 Mulliken charges:
               1
     1  C    0.433287
     2  O   -0.220274
     3  Cl   0.012596
     4  F   -0.225610
 Sum of Mulliken charges =   0.00000

 Dipole moment (field-independent basis, Debye):
    X=              0.3332    Y=             -1.5745    Z=              0.0000  Tot=              1.6094

 Test job not archived.
 1\1\GINC-SE183\SP\RHF\Aug-CC-pVDZ\C1Cl1F1O1\OHZDE\05-Apr-2025\0\\#t hf
  aug-cc-pvdz iop(5/13=1,5/36=2,99/5=2) pseudo=read geom=check guess=(r
 ead,tcheck) scf=(maxcycle=1)\\title\\0,1\C,0,0.,0.510905,0.\O,0,-0.797
 403,1.370426,0.\Cl,0,-0.3212,-1.20207,0.\F,0,1.315513,0.711817,0.\\Ver
 sion=ES64L-G16RevC.01\State=1-A'\HF=-671.7939652\RMSD=4.703e-03\Dipole
 =0.1310857,-0.6194682,0.\Quadrupole=-1.2325595,-0.272957,1.5055164,1.2
 021663,0.,0.\PG=CS [SG(C1Cl1F1O1)]\\@

 Normal termination of Gaussian 16 at Sat Apr  5 22:53:11 2025.
