 Gaussian 16, Revision C.01,

 ----------------------------------------------------------------------
 #t hf aug-cc-pvdz symm=none int=(grid=ultrafine) guess=(read,tcheck) s
 table=(opt,rrhf)
 ----------------------------------------------------------------------
 -----
 title
 -----
 Symbolic Z-matrix:
 Charge =  0 Multiplicity = 1

 SCF Done:  E(RHF) =  -263.699428896     A.U. after   12 cycles
 Normal termination of Gaussian 16 at Sat Apr  5 22:53:10 2025.
 Gaussian 16:  ES64L-G16RevC.01  3-Jul-2019

 ----------------------------------------------------------------------
 #t hf aug-cc-pvdz iop(5/13=1,5/36=2,99/5=2) pseudo=read geom=check gue
 ss=(read,tcheck) scf=(maxcycle=1)
 ----------------------------------------------------------------------
 -----
 title
 -----
 Structure from the checkpoint file:  "carbonic_acid.chk"
 Charge =  0 Multiplicity = 1

                         Standard orientation:
 ---------------------------------------------------------------------
 Center     Atomic      Atomic             Coordinates (Angstroms)
 Number     Number       Type             X           Y           Z
 ---------------------------------------------------------------------
      1          6           0        0.000000   -0.000000    0.101922
      2          8           0        0.000000   -0.000000    1.305118
      3          8           0        0.000000    1.088420   -0.679394
      4          8           0       -0.000000   -1.088420   -0.679394
      5          1           0        0.000000    1.854503   -0.091082
      6          1           0       -0.000000   -1.854503   -0.091082
 ---------------------------------------------------------------------

 SCF Done:  E(RHF) =  -263.787034683     A.U. after    2 cycles

 The electronic state is 1-A1.
 Alpha  occ. eigenvalues --  -20.64751 -20.64748 -20.57800 -11.46977  -1.48456
 Alpha  occ. eigenvalues --   -1.38289  -1.34857  -0.92283  -0.76960  -0.74945
 Alpha  occ. eigenvalues --   -0.70817  -0.69104  -0.63320  -0.57867  -0.51655
 Alpha  occ. eigenvalues --   -0.51018
 Alpha virt. eigenvalues --    0.03291   0.04282   0.09091   0.09884   0.12017
 Alpha virt. eigenvalues --    0.14529   0.17426   0.18593   0.18884   0.21232
 Alpha virt. eigenvalues --    0.21931   0.22431   0.22757   0.28501   0.28592

 Mulliken charges:
               1
     1  C    0.834587
     2  O   -0.386995
     3  O   -0.381776
     4  O   -0.381776
     5  H    0.157980
     6  H    0.157980
 Sum of Mulliken charges =  -0.00000

 Dipole moment (field-independent basis, Debye):
    X=              0.0000    Y=              0.0000    Z=             -0.3042  Tot=              0.3042

 Test job not archived.
 1\1\GINC-SE183\SP\RHF\Aug-CC-pVDZ\C1H2O3\OHZDE\05-Apr-2025\0\\#t hf au
 g-cc-pvdz iop(5/13=1,5/36=2,99/5=2) pseudo=read geom=check guess=(read
 ,tcheck) scf=(maxcycle=1)\\title\\0,1\C,0,0.,0.,0.101922\O,0,0.,0.,1.3
 05118\O,0,0.,1.08842,-0.679394\O,0,0.,-1.08842,-0.679394\H,0,0.,1.8545
 03,-0.091082\H,0,0.,-1.854503,-0.091082\\Version=ES64L-G16RevC.01\Stat
 e=1-A1\HF=-263.7870347\RMSD=2.885e-03\Dipole=0.,0.,-0.1196825\Quadrupo
 le=-0.212627,5.9570703,-5.7444433,0.,0.,0.\PG=C02V [C2(C1O1),SGV(H2O2)
 ]\\@

 Normal termination of Gaussian 16 at Sat Apr  5 22:53:12 2025.
