 Gaussian 16, Revision C.01,

 ----------------------------------------------------------------------
 #t hf aug-cc-pvdz symm=none int=(grid=ultrafine) guess=(read,tcheck) s
 table=(opt,rrhf)
 ----------------------------------------------------------------------
 -----
 title
 -----
 Symbolic Z-matrix:
 Charge =  0 Multiplicity = 1

 SCF Done:  E(RHF) =  -656.666260403     A.U. after   14 cycles
 Normal termination of Gaussian 16 at Sat Apr  5 22:53:09 2025.
 Gaussian 16:  ES64L-G16RevC.01  3-Jul-2019

 ----------------------------------------------------------------------
 #t hf aug-cc-pvdz iop(5/13=1,5/36=2,99/5=2) pseudo=read geom=check gue
 ss=(read,tcheck) scf=(maxcycle=1)
 ----------------------------------------------------------------------
 -----
 title
 -----
 Structure from the checkpoint file:  "carbonothioic_dihydrazide.chk"
 Charge =  0 Multiplicity = 1

                         Standard orientation:
 ---------------------------------------------------------------------
 Center     Atomic      Atomic             Coordinates (Angstroms)
 Number     Number       Type             X           Y           Z
 ---------------------------------------------------------------------
      1          6           0       -0.008290   -0.208356   -0.024723
      2         16           0       -1.217170   -1.356869    0.021420
      3          7           0       -0.162614    1.134737   -0.015493
      4          7           0       -1.417749    1.738272    0.008702
      5          7           0        1.302148   -0.610414   -0.099972
      6          7           0        2.364793    0.297605    0.049141
      7          1           0        2.841583    0.157650    0.933495
      8          1           0        3.025732    0.182703   -0.708975
      9          1           0       -1.510815    2.327204    0.825721
     10          1           0       -1.567518    2.280758   -0.832165
     11          1           0        0.681476    1.689836   -0.040769
     12          1           0        1.447958   -1.599522    0.031666
 ---------------------------------------------------------------------

 SCF Done:  E(RHF) =  -656.762517563     A.U. after    2 cycles

 The electronic state is 1-A.
 Alpha  occ. eigenvalues --  -93.45573 -15.68707 -15.68620 -15.68518 -15.66049
 Alpha  occ. eigenvalues --  -11.37851  -8.75521  -6.09788  -6.09206  -6.09149
 Alpha  occ. eigenvalues --   -1.31894  -1.26101  -1.11973  -1.03397  -0.93156
 Alpha  occ. eigenvalues --   -0.79384  -0.75272  -0.72262  -0.70781  -0.69843
 Alpha  occ. eigenvalues --   -0.65679  -0.54030  -0.50089  -0.46986  -0.42520
 Alpha  occ. eigenvalues --   -0.40599  -0.30789  -0.30466
 Alpha virt. eigenvalues --    0.02085   0.02948   0.03623   0.05282   0.06596
 Alpha virt. eigenvalues --    0.07050   0.10326   0.12306   0.13635   0.14699
 Alpha virt. eigenvalues --    0.14781   0.15270   0.15910   0.16518   0.17226

 Mulliken charges:
               1
     1  C    0.552551
     2  S   -0.067631
     3  N   -0.337219
     4  N   -0.053371
     5  N   -0.135212
     6  N   -0.251826
     7  H    0.086554
     8  H    0.098032
     9  H    0.059032
    10  H    0.059531
    11  H   -0.001475
    12  H   -0.008965
 Sum of Mulliken charges =  -0.00000

 Dipole moment (field-independent basis, Debye):
    X=              5.5852    Y=              4.2454    Z=              0.2481  Tot=              7.0200

 Test job not archived.
 1\1\GINC-SE196\SP\RHF\Aug-CC-pVDZ\C1H6N4S1\OHZDE\05-Apr-2025\0\\#t hf
 aug-cc-pvdz iop(5/13=1,5/36=2,99/5=2) pseudo=read geom=check guess=(re
 ad,tcheck) scf=(maxcycle=1)\\title\\0,1\C,0,-0.00829,-0.208356,-0.0247
 23\S,0,-1.21717,-1.356869,0.02142\N,0,-0.162614,1.134737,-0.015493\N,0
 ,-1.417749,1.738272,0.008702\N,0,1.302148,-0.610414,-0.099972\N,0,2.36
 4793,0.297605,0.049141\H,0,2.841583,0.15765,0.933495\H,0,3.025732,0.18
 2703,-0.708975\H,0,-1.510815,2.327204,0.825721\H,0,-1.567518,2.280758,
 -0.832165\H,0,0.681476,1.689836,-0.040769\H,0,1.447958,-1.599522,0.031

 Normal termination of Gaussian 16 at Sat Apr  5 22:53:15 2025.
