 Gaussian 16, Revision C.01,

 ----------------------------------------------------------------------
 #t hf aug-cc-pvdz symm=none int=(grid=ultrafine) guess=(read,tcheck) s
 table=(opt,rrhf)
 ----------------------------------------------------------------------
 -----
 title
 -----
 Symbolic Z-matrix:
 Charge =  0 Multiplicity = 1

 SCF Done:  E(RHF) =  -147.926044017     A.U. after   12 cycles
 Normal termination of Gaussian 16 at Sat Apr  5 22:53:08 2025.
 Gaussian 16:  ES64L-G16RevC.01  3-Jul-2019

 ----------------------------------------------------------------------
 #t hf aug-cc-pvdz iop(5/13=1,5/36=2,99/5=2) pseudo=read geom=check gue
 ss=(read,tcheck) scf=(maxcycle=1)
 ----------------------------------------------------------------------
 -----
 title
 -----
 Structure from the checkpoint file:  "carbodiimide.chk"
 Charge =  0 Multiplicity = 1

                         Standard orientation:
 ---------------------------------------------------------------------
 Center     Atomic      Atomic             Coordinates (Angstroms)
 Number     Number       Type             X           Y           Z
 ---------------------------------------------------------------------
      1          6           0        0.000000   -0.000000    0.018127
      2          7           0        0.000000    1.215003   -0.079246
      3          7           0       -0.000000   -1.215003   -0.079246
      4          1           0        0.613213    1.770339    0.500341
      5          1           0       -0.613213   -1.770339    0.500341
 ---------------------------------------------------------------------

 SCF Done:  E(RHF) =  -147.971554720     A.U. after    2 cycles

 The electronic state is 1-A.
 Alpha  occ. eigenvalues --  -15.64681 -15.64654 -11.38420  -1.25901  -1.17382
 Alpha  occ. eigenvalues --   -0.79750  -0.74133  -0.58441  -0.57661  -0.42052
 Alpha  occ. eigenvalues --   -0.41993
 Alpha virt. eigenvalues --    0.03138   0.04057   0.08902   0.09033   0.11066
 Alpha virt. eigenvalues --    0.14544   0.16689   0.16919   0.17444   0.18108
 Alpha virt. eigenvalues --    0.18670   0.20999   0.25289   0.25855   0.30500

 Mulliken charges:
               1
     1  C   -0.052570
     2  N   -0.047992
     3  N   -0.047992
     4  H    0.074277
     5  H    0.074277
 Sum of Mulliken charges =  -0.00000

 Dipole moment (field-independent basis, Debye):
    X=             -0.0000    Y=             -0.0000    Z=              2.1516  Tot=              2.1516

 Test job not archived.
 1\1\GINC-SE040\SP\RHF\Aug-CC-pVDZ\C1H2N2\OHZDE\05-Apr-2025\0\\#t hf au
 g-cc-pvdz iop(5/13=1,5/36=2,99/5=2) pseudo=read geom=check guess=(read
 ,tcheck) scf=(maxcycle=1)\\title\\0,1\C,0,0.,0.,0.018127\N,0,0.,1.2150
 03,-0.079246\N,0,0.,-1.215003,-0.079246\H,0,0.613213,1.770339,0.500341
 \H,0,-0.613213,-1.770339,0.500341\\Version=ES64L-G16RevC.01\State=1-A\
 HF=-147.9715547\RMSD=2.628e-03\Dipole=0.,0.,0.8465184\Quadrupole=0.038
 1516,0.325178,-0.3633296,3.2598029,0.,0.\PG=C02 [C2(C1),X(H2N2)]\\@

 Normal termination of Gaussian 16 at Sat Apr  5 22:53:11 2025.
