 Gaussian 16, Revision C.01,

 ----------------------------------------------------------------------
 #t hf aug-cc-pvdz symm=none int=(grid=ultrafine) guess=(read,tcheck) s
 table=(opt,rrhf)
 ----------------------------------------------------------------------
 -----
 title
 -----
 Symbolic Z-matrix:
 Charge =  0 Multiplicity = 1

 SCF Done:  E(RHF) =  -832.930765530     A.U. after   10 cycles
 Normal termination of Gaussian 16 at Sat Apr  5 22:53:09 2025.
 Gaussian 16:  ES64L-G16RevC.01  3-Jul-2019

 ----------------------------------------------------------------------
 #t hf aug-cc-pvdz iop(5/13=1,5/36=2,99/5=2) pseudo=read geom=check gue
 ss=(read,tcheck) scf=(maxcycle=1)
 ----------------------------------------------------------------------
 -----
 title
 -----
 Structure from the checkpoint file:  "carbon_disulfide.chk"
 Charge =  0 Multiplicity = 1

                         Standard orientation:
 ---------------------------------------------------------------------
 Center     Atomic      Atomic             Coordinates (Angstroms)
 Number     Number       Type             X           Y           Z
 ---------------------------------------------------------------------
      1          6           0        0.000000    0.000000    0.000000
      2         16           0        0.000000    0.000000    1.557501
      3         16           0        0.000000    0.000000   -1.557501
 ---------------------------------------------------------------------

 SCF Done:  E(RHF) =  -832.980245551     A.U. after    2 cycles

 The electronic state is 1-SGG.
 Alpha  occ. eigenvalues --  -93.57580 -93.57575 -11.41333  -8.87573  -8.87559
 Alpha  occ. eigenvalues --   -6.21822  -6.21714  -6.21178  -6.21178  -6.21170
 Alpha  occ. eigenvalues --   -6.21170  -1.13502  -1.01349  -0.67313  -0.58105
 Alpha  occ. eigenvalues --   -0.52795  -0.52795  -0.37318  -0.37318
 Alpha virt. eigenvalues --    0.03678   0.03678   0.06624   0.06887   0.10614
 Alpha virt. eigenvalues --    0.12109   0.12109   0.13829   0.13829   0.15622
 Alpha virt. eigenvalues --    0.18596   0.18596   0.21969   0.27370   0.30706

 Mulliken charges:
               1
     1  C   -0.580995
     2  S    0.290498
     3  S    0.290498
 Sum of Mulliken charges =  -0.00000

 Dipole moment (field-independent basis, Debye):
    X=              0.0000    Y=              0.0000    Z=             -0.0000  Tot=              0.0000

 Test job not archived.
 1\1\GINC-SE176\SP\RHF\Aug-CC-pVDZ\C1S2\OHZDE\05-Apr-2025\0\\#t hf aug-
 cc-pvdz iop(5/13=1,5/36=2,99/5=2) pseudo=read geom=check guess=(read,t
 check) scf=(maxcycle=1)\\title\\0,1\C,0,0.,0.,0.\S,0,0.,0.,1.557501\S,
 0,0.,0.,-1.557501\\Version=ES64L-G16RevC.01\State=1-SGG\HF=-832.980245
 6\RMSD=8.272e-03\Dipole=0.,0.,0.\Quadrupole=-0.9001521,-0.9001521,1.80
 03042,0.,0.,0.\PG=D*H [O(C1),C*(S1.S1)]\\@

 Normal termination of Gaussian 16 at Sat Apr  5 22:53:11 2025.
