 Gaussian 16, Revision C.01,

 ----------------------------------------------------------------------
 #t hf aug-cc-pvdz symm=none int=(grid=ultrafine) guess=(read,tcheck) s
 table=(opt,rrhf)
 ----------------------------------------------------------------------
 -----
 title
 -----
 Symbolic Z-matrix:
 Charge =  0 Multiplicity = 1

 SCF Done:  E(RHF) =  -1332.03008525     A.U. after   15 cycles
 Normal termination of Gaussian 16 at Sat Apr  5 22:53:09 2025.
 Gaussian 16:  ES64L-G16RevC.01  3-Jul-2019

 ----------------------------------------------------------------------
 #t hf aug-cc-pvdz iop(5/13=1,5/36=2,99/5=2) pseudo=read geom=check gue
 ss=(read,tcheck) scf=(maxcycle=1)
 ----------------------------------------------------------------------
 -----
 title
 -----
 Structure from the checkpoint file:  "carbonochloridodithioic_acid.chk"
 Charge =  0 Multiplicity = 1

                         Standard orientation:
 ---------------------------------------------------------------------
 Center     Atomic      Atomic             Coordinates (Angstroms)
 Number     Number       Type             X           Y           Z
 ---------------------------------------------------------------------
      1         17           0       -0.142353    1.682318    0.000006
      2         16           0        0.908059   -1.112252   -0.000003
      3         16           0       -1.983399   -0.651574   -0.000005
      4          6           0       -0.475009   -0.060877   -0.000000
      5          6           0        2.395894   -0.059942    0.000003
      6          1           0        2.437172    0.555719    0.893120
      7          1           0        3.225785   -0.764724    0.000001
      8          1           0        2.437174    0.555726   -0.893110
 ---------------------------------------------------------------------

 SCF Done:  E(RHF) =  -1332.11392028     A.U. after    2 cycles

 The electronic state is 1-A.
 Alpha  occ. eigenvalues -- -103.69798 -93.58599 -93.53188 -11.41968 -11.29478
 Alpha  occ. eigenvalues --  -10.73083  -8.88390  -8.83150  -8.38797  -8.38473
 Alpha  occ. eigenvalues --   -8.38472  -6.22525  -6.22247  -6.21954  -6.17316
 Alpha  occ. eigenvalues --   -6.16876  -6.16672  -1.21866  -1.08815  -1.02713
 Alpha  occ. eigenvalues --   -0.90806  -0.73262  -0.64506  -0.62718  -0.61001
 Alpha  occ. eigenvalues --   -0.55793  -0.55021  -0.49821  -0.46702  -0.44873
 Alpha  occ. eigenvalues --   -0.35852  -0.35330
 Alpha virt. eigenvalues --    0.02968   0.02984   0.05193   0.05629   0.06798
 Alpha virt. eigenvalues --    0.08658   0.09081   0.10590   0.12736   0.13613
 Alpha virt. eigenvalues --    0.13745   0.13931   0.15058   0.16560   0.16745

 Mulliken charges:
               1
     1  Cl  -0.152523
     2  S    0.590307
     3  S    0.247943
     4  C   -0.575464
     5  C    0.044806
     6  H   -0.027520
     7  H   -0.100032
     8  H   -0.027517
 Sum of Mulliken charges =   0.00000

 Dipole moment (field-independent basis, Debye):
    X=              3.5253    Y=              0.4570    Z=              0.0000  Tot=              3.5548

 Test job not archived.
 1\1\GINC-SE196\SP\RHF\Aug-CC-pVDZ\C2H3Cl1S2\OHZDE\05-Apr-2025\0\\#t hf
  aug-cc-pvdz iop(5/13=1,5/36=2,99/5=2) pseudo=read geom=check guess=(r
 ead,tcheck) scf=(maxcycle=1)\\title\\0,1\Cl,0,-0.142353,1.682318,0.000
 006\S,0,0.908059,-1.112252,-0.000003\S,0,-1.983399,-0.651574,-0.000005
 \C,0,-0.475009,-0.060877,0.\C,0,2.395894,-0.059942,0.000003\H,0,2.4371
 72,0.555719,0.89312\H,0,3.225785,-0.764724,0.000001\H,0,2.437174,0.555
 726,-0.89311\\Version=ES64L-G16RevC.01\State=1-A\HF=-1332.1139203\RMSD
 =5.457e-03\Dipole=1.3869659,0.1797911,0.0000023\Quadrupole=2.8234557,-

 Normal termination of Gaussian 16 at Sat Apr  5 22:53:13 2025.
