 Gaussian 16, Revision C.01,

 ----------------------------------------------------------------------
 #t hf aug-cc-pvdz symm=none int=(grid=ultrafine) guess=(read,tcheck) s
 table=(opt,rrhf)
 ----------------------------------------------------------------------
 -----
 title
 -----
 Symbolic Z-matrix:
 Charge =  0 Multiplicity = 1

 SCF Done:  E(RHF) =  -510.299914328     A.U. after   12 cycles
 Normal termination of Gaussian 16 at Sat Apr  5 22:53:08 2025.
 Gaussian 16:  ES64L-G16RevC.01  3-Jul-2019

 ----------------------------------------------------------------------
 #t hf aug-cc-pvdz iop(5/13=1,5/36=2,99/5=2) pseudo=read geom=check gue
 ss=(read,tcheck) scf=(maxcycle=1)
 ----------------------------------------------------------------------
 -----
 title
 -----
 Structure from the checkpoint file:  "carbonyl_sulfide.chk"
 Charge =  0 Multiplicity = 1

                         Standard orientation:
 ---------------------------------------------------------------------
 Center     Atomic      Atomic             Coordinates (Angstroms)
 Number     Number       Type             X           Y           Z
 ---------------------------------------------------------------------
      1          6           0        0.000000    0.000000   -0.527573
      2          8           0        0.000000    0.000000   -1.683489
      3         16           0        0.000000    0.000000    1.039584
 ---------------------------------------------------------------------

 SCF Done:  E(RHF) =  -510.355876251     A.U. after    2 cycles

 The electronic state is 1-SG.
 Alpha  occ. eigenvalues --  -93.57502 -20.67795 -11.45412  -8.87475  -6.21757
 Alpha  occ. eigenvalues --   -6.21053  -6.21053  -1.47757  -1.08167  -0.79430
 Alpha  occ. eigenvalues --   -0.67827  -0.67827  -0.63353  -0.42296  -0.42296
 Alpha virt. eigenvalues --    0.05989   0.07527   0.08890   0.08890   0.10850
 Alpha virt. eigenvalues --    0.10850   0.12387   0.15330   0.15330   0.22429
 Alpha virt. eigenvalues --    0.24448   0.27910   0.27910   0.29813   0.32601

 Mulliken charges:
               1
     1  C   -0.237685
     2  O   -0.182740
     3  S    0.420425
 Sum of Mulliken charges =   0.00000

 Dipole moment (field-independent basis, Debye):
    X=              0.0000    Y=              0.0000    Z=              1.1157  Tot=              1.1157

 Test job not archived.
 1\1\GINC-SE052\SP\RHF\Aug-CC-pVDZ\C1O1S1\OHZDE\05-Apr-2025\0\\#t hf au
 g-cc-pvdz iop(5/13=1,5/36=2,99/5=2) pseudo=read geom=check guess=(read
 ,tcheck) scf=(maxcycle=1)\\title\\0,1\C,0,0.,0.,-0.527573\O,0,0.,0.,-1
 .683489\S,0,0.,0.,1.039584\\Version=ES64L-G16RevC.01\State=1-SG\HF=-51
 0.3558763\RMSD=6.350e-03\Dipole=0.,0.,0.438938\Quadrupole=0.4309107,0.
 4309107,-0.8618215,0.,0.,0.\PG=C*V [C*(O1C1S1)]\\@

 Normal termination of Gaussian 16 at Sat Apr  5 22:53:12 2025.
