 Gaussian 16, Revision C.01,

 ----------------------------------------------------------------------
 #t hf aug-cc-pvdz symm=none int=(grid=ultrafine) guess=(read,tcheck) s
 table=(opt,rrhf)
 ----------------------------------------------------------------------
 -----
 title
 -----
 Symbolic Z-matrix:
 Charge =  0 Multiplicity = 1

 SCF Done:  E(RHF) =  -590.854739982     A.U. after   14 cycles
 Normal termination of Gaussian 16 at Sat Apr  5 22:53:10 2025.
 Gaussian 16:  ES64L-G16RevC.01  3-Jul-2019

 ----------------------------------------------------------------------
 #t hf aug-cc-pvdz iop(5/13=1,5/36=2,99/5=2) pseudo=read geom=check gue
 ss=(read,tcheck) scf=(maxcycle=1)
 ----------------------------------------------------------------------
 -----
 title
 -----
 Structure from the checkpoint file:  "chloroacetonitrile.chk"
 Charge =  0 Multiplicity = 1

                         Standard orientation:
 ---------------------------------------------------------------------
 Center     Atomic      Atomic             Coordinates (Angstroms)
 Number     Number       Type             X           Y           Z
 ---------------------------------------------------------------------
      1         17           0       -1.385401   -0.338103    0.000000
      2          7           0        2.297547   -0.400037    0.000000
      3          6           0        0.000000    0.819137    0.000000
      4          6           0        1.275830    0.126036    0.000000
      5          1           0       -0.092993    1.438487    0.887765
      6          1           0       -0.092993    1.438487   -0.887765
 ---------------------------------------------------------------------

 SCF Done:  E(RHF) =  -590.913473874     A.U. after    2 cycles

 The electronic state is 1-A'.
 Alpha  occ. eigenvalues -- -103.68994 -15.66418 -11.37320 -11.31123 -10.72230
 Alpha  occ. eigenvalues --   -8.37955  -8.37632  -8.37623  -1.22769  -1.19212
 Alpha  occ. eigenvalues --   -1.01420  -0.74254  -0.69166  -0.62067  -0.56960
 Alpha  occ. eigenvalues --   -0.49948  -0.49738  -0.47853  -0.47359
 Alpha virt. eigenvalues --    0.02709   0.04556   0.06294   0.07682   0.10996
 Alpha virt. eigenvalues --    0.11776   0.11779   0.13146   0.13715   0.15126
 Alpha virt. eigenvalues --    0.15403   0.16479   0.17133   0.17878   0.20367

 Mulliken charges:
               1
     1  Cl  -0.062723
     2  N   -0.147517
     3  C    0.081683
     4  C   -0.144135
     5  H    0.136346
     6  H    0.136346
 Sum of Mulliken charges =  -0.00000

 Dipole moment (field-independent basis, Debye):
    X=             -1.8840    Y=              2.8343    Z=              0.0000  Tot=              3.4033

 Test job not archived.
 1\1\GINC-SE085\SP\RHF\Aug-CC-pVDZ\C2H2Cl1N1\OHZDE\05-Apr-2025\0\\#t hf
  aug-cc-pvdz iop(5/13=1,5/36=2,99/5=2) pseudo=read geom=check guess=(r
 ead,tcheck) scf=(maxcycle=1)\\title\\0,1\Cl,0,-1.385401,-0.338103,0.\N
 ,0,2.297547,-0.400037,0.\C,0,0.,0.819137,0.\C,0,1.27583,0.126036,0.\H,
 0,-0.092993,1.438487,0.887765\H,0,-0.092993,1.438487,-0.887765\\Versio
 n=ES64L-G16RevC.01\State=1-A'\HF=-590.9134739\RMSD=3.584e-03\Dipole=-0
 .7412289,1.1150862,0.\Quadrupole=-5.4369613,3.2782485,2.1587128,1.6688
 337,0.,0.\PG=CS [SG(C2Cl1N1),X(H2)]\\@

 Normal termination of Gaussian 16 at Sat Apr  5 22:53:12 2025.
