 Gaussian 16, Revision C.01,

 ----------------------------------------------------------------------
 #t hf aug-cc-pvdz symm=none int=(grid=ultrafine) guess=(read,tcheck) s
 table=(opt,rrhf)
 ----------------------------------------------------------------------
 -----
 title
 -----
 Symbolic Z-matrix:
 Charge =  0 Multiplicity = 1

 SCF Done:  E(RHF) =  -728.693189594     A.U. after   15 cycles

 1\1\GINC-SE183\Stability\RHF\Aug-CC-pVDZ\C7H7Cl1\OHZDE\05-Apr-2025\0\\
 #t hf aug-cc-pvdz symm=none int=(grid=ultrafine) guess=(read,tcheck) s
 table=(opt,rrhf)\\title\\0,1\C,0,0.420637,2.644566,0.\C,0,0.421753,1.9
 47096,1.20309\C,0,0.421753,1.947096,-1.20309\C,0,0.421753,0.558318,1.2
 01822\C,0,0.421753,0.558318,-1.201822\C,0,0.421492,-0.150366,0.\C,0,0.
 42614,-1.643412,0.\Cl,0,-1.272788,-2.340959,0.\H,0,0.421639,3.726146,0
 .\H,0,0.424437,2.484779,2.141585\H,0,0.424437,2.484779,-2.141585\H,0,0
 .419754,0.018155,2.140045\H,0,0.419754,0.018155,-2.140045\H,0,0.897849

 Normal termination of Gaussian 16 at Sat Apr  5 22:54:20 2025.
 Gaussian 16:  ES64L-G16RevC.01  3-Jul-2019

 ----------------------------------------------------------------------
 #t hf aug-cc-pvdz iop(5/13=1,5/36=2,99/5=2) pseudo=read geom=check gue
 ss=(read,tcheck) scf=(maxcycle=1)
 ----------------------------------------------------------------------
 -----
 title
 -----
 Structure from the checkpoint file:  "chloromethylbenzene.chk"
 Charge =  0 Multiplicity = 1

                         Standard orientation:
 ---------------------------------------------------------------------
 Center     Atomic      Atomic             Coordinates (Angstroms)
 Number     Number       Type             X           Y           Z
 ---------------------------------------------------------------------
      1          6           0        0.420637    2.644566    0.000000
      2          6           0        0.421753    1.947096    1.203090
      3          6           0        0.421753    1.947096   -1.203090
      4          6           0        0.421753    0.558318    1.201822
      5          6           0        0.421753    0.558318   -1.201822
      6          6           0        0.421492   -0.150366    0.000000
      7          6           0        0.426140   -1.643412   -0.000000
      8         17           0       -1.272788   -2.340959   -0.000000
      9          1           0        0.421639    3.726146    0.000000
     10          1           0        0.424437    2.484779    2.141585
     11          1           0        0.424437    2.484779   -2.141585
     12          1           0        0.419754    0.018155    2.140045
     13          1           0        0.419754    0.018155   -2.140045
     14          1           0        0.897849   -2.052701    0.887296
     15          1           0        0.897849   -2.052701   -0.887296
 ---------------------------------------------------------------------

 SCF Done:  E(RHF) =  -728.791036567     A.U. after    2 cycles

 The electronic state is 1-A'.
 Alpha  occ. eigenvalues -- -103.64527 -11.31269 -11.26317 -11.25453 -11.25449
 Alpha  occ. eigenvalues --  -11.25379 -11.25261 -11.25217 -10.67774  -8.33486
 Alpha  occ. eigenvalues --   -8.33202  -8.33196  -1.17215  -1.13993  -1.03968
 Alpha  occ. eigenvalues --   -1.02196  -0.92593  -0.84307  -0.81329  -0.71441
 Alpha  occ. eigenvalues --   -0.66730  -0.65436  -0.60471  -0.60354  -0.59209
 Alpha  occ. eigenvalues --   -0.56849  -0.51714  -0.50649  -0.50473  -0.44611
 Alpha  occ. eigenvalues --   -0.44437  -0.35053  -0.34519
 Alpha virt. eigenvalues --    0.03262   0.03920   0.03939   0.05440   0.05661
 Alpha virt. eigenvalues --    0.07334   0.08032   0.08290   0.09058   0.10072
 Alpha virt. eigenvalues --    0.11208   0.12145   0.12956   0.14092   0.14290

 Mulliken charges:
               1
     1  C    0.423466
     2  C    0.443638
     3  C    0.443638
     4  C    0.172037
     5  C    0.172037
     6  C    0.936494
     7  C    0.249445
     8  Cl  -0.163023
     9  H   -0.435189
    10  H   -0.439019
    11  H   -0.439019
    12  H   -0.539323
    13  H   -0.539323
    14  H   -0.142930
    15  H   -0.142930
 Sum of Mulliken charges =  -0.00000

 Dipole moment (field-independent basis, Debye):
    X=              2.0804    Y=              1.4369    Z=             -0.0000  Tot=              2.5284

 Test job not archived.
 1\1\GINC-SE183\SP\RHF\Aug-CC-pVDZ\C7H7Cl1\OHZDE\05-Apr-2025\0\\#t hf a
 ug-cc-pvdz iop(5/13=1,5/36=2,99/5=2) pseudo=read geom=check guess=(rea
 d,tcheck) scf=(maxcycle=1)\\title\\0,1\C,0,0.420637,2.644566,0.\C,0,0.
 421753,1.947096,1.20309\C,0,0.421753,1.947096,-1.20309\C,0,0.421753,0.
 558318,1.201822\C,0,0.421753,0.558318,-1.201822\C,0,0.421492,-0.150366
 ,0.\C,0,0.42614,-1.643412,0.\Cl,0,-1.272788,-2.340959,0.\H,0,0.421639,
 3.726146,0.\H,0,0.424437,2.484779,2.141585\H,0,0.424437,2.484779,-2.14
 1585\H,0,0.419754,0.018155,2.140045\H,0,0.419754,0.018155,-2.140045\H,

 Normal termination of Gaussian 16 at Sat Apr  5 22:54:37 2025.
