 Gaussian 16, Revision C.01,

 ----------------------------------------------------------------------
 #t hf aug-cc-pvdz symm=none int=(grid=ultrafine) guess=(read,tcheck) s
 table=(opt,rrhf)
 ----------------------------------------------------------------------
 -----
 title
 -----
 Symbolic Z-matrix:
 Charge =  0 Multiplicity = 1

 SCF Done:  E(RHF) =  -696.853890625     A.U. after   12 cycles
 Normal termination of Gaussian 16 at Sat Apr  5 22:53:38 2025.
 Gaussian 16:  ES64L-G16RevC.01  3-Jul-2019

 ----------------------------------------------------------------------
 #t hf aug-cc-pvdz iop(5/13=1,5/36=2,99/5=2) pseudo=read geom=check gue
 ss=(read,tcheck) scf=(maxcycle=1)
 ----------------------------------------------------------------------
 -----
 title
 -----
 Structure from the checkpoint file:  "chlorodifluoromethane.chk"
 Charge =  0 Multiplicity = 1

                         Standard orientation:
 ---------------------------------------------------------------------
 Center     Atomic      Atomic             Coordinates (Angstroms)
 Number     Number       Type             X           Y           Z
 ---------------------------------------------------------------------
      1          6           0        0.570687   -0.092261   -0.000000
      2          9           0        0.570687   -0.879813    1.088316
      3          9           0        0.570687   -0.879813   -1.088316
      4         17           0       -0.890989    0.932054    0.000000
      5          1           0        1.450337    0.545289   -0.000000
 ---------------------------------------------------------------------

 SCF Done:  E(RHF) =  -696.960630073     A.U. after    2 cycles

 The electronic state is 1-A'.
 Alpha  occ. eigenvalues -- -103.69002 -26.17426 -26.17416 -11.50592 -10.72384
 Alpha  occ. eigenvalues --   -8.38100  -8.37774  -8.37771  -1.74584  -1.69729
 Alpha  occ. eigenvalues --   -1.20196  -1.00452  -0.86460  -0.85740  -0.82424
 Alpha  occ. eigenvalues --   -0.76479  -0.73216  -0.69448  -0.57878  -0.50401
 Alpha  occ. eigenvalues --   -0.49836
 Alpha virt. eigenvalues --    0.03539   0.07469   0.09351   0.09409   0.12032
 Alpha virt. eigenvalues --    0.15045   0.15272   0.15687   0.20601   0.23434
 Alpha virt. eigenvalues --    0.24680   0.26997   0.27029   0.30595   0.30613

 Mulliken charges:
               1
     1  C    0.757339
     2  F   -0.283943
     3  F   -0.283943
     4  Cl  -0.133153
     5  H   -0.056300
 Sum of Mulliken charges =  -0.00000

 Dipole moment (field-independent basis, Debye):
    X=              1.2323    Y=              1.3707    Z=              0.0000  Tot=              1.8432

 Test job not archived.
 1\1\GINC-SE052\SP\RHF\Aug-CC-pVDZ\C1H1Cl1F2\OHZDE\05-Apr-2025\0\\#t hf
  aug-cc-pvdz iop(5/13=1,5/36=2,99/5=2) pseudo=read geom=check guess=(r
 ead,tcheck) scf=(maxcycle=1)\\title\\0,1\C,0,0.570687,-0.092261,0.\F,0
 ,0.570687,-0.879813,1.088316\F,0,0.570687,-0.879813,-1.088316\Cl,0,-0.
 890989,0.932054,0.\H,0,1.450337,0.545289,0.\\Version=ES64L-G16RevC.01\
 State=1-A'\HF=-696.9606301\RMSD=5.152e-03\Dipole=0.4848199,0.5392568,0
 .\Quadrupole=2.1700907,-0.5980815,-1.5720091,0.9271991,0.,0.\PG=CS [SG
 (C1H1Cl1),X(F2)]\\@

 Normal termination of Gaussian 16 at Sat Apr  5 22:53:40 2025.
