 Gaussian 16, Revision C.01,

 ----------------------------------------------------------------------
 #t hf aug-cc-pvdz symm=none int=(grid=ultrafine) guess=(read,tcheck) s
 table=(opt,rrhf)
 ----------------------------------------------------------------------
 -----
 title
 -----
 Symbolic Z-matrix:
 Charge =  0 Multiplicity = 1

 SCF Done:  E(RHF) =  -535.739582690     A.U. after   12 cycles

 1\1\GINC-SE055\Stability\RHF\Aug-CC-pVDZ\C2H1Cl1\OHZDE\05-Apr-2025\0\\
 #t hf aug-cc-pvdz symm=none int=(grid=ultrafine) guess=(read,tcheck) s
 table=(opt,rrhf)\\title\\0,1\C,0,0.,0.,-0.615871\C,0,0.,0.,-1.813601\C
 l,0,0.,0.,1.02653\H,0,0.,0.,-2.874172\\Version=ES64L-G16RevC.01\HF=-53
 5.7395827\RMSD=4.198e-09\Dipole=0.,0.,-0.24535\Quadrupole=-1.925084,-1
 .925084,3.8501679,0.,0.,0.\PG=Unknown\\@
 The archive entry for this job was punched.

 Normal termination of Gaussian 16 at Sat Apr  5 22:53:36 2025.
 Gaussian 16:  ES64L-G16RevC.01  3-Jul-2019

 ----------------------------------------------------------------------
 #t hf aug-cc-pvdz iop(5/13=1,5/36=2,99/5=2) pseudo=read geom=check gue
 ss=(read,tcheck) scf=(maxcycle=1)
 ----------------------------------------------------------------------
 -----
 title
 -----
 Structure from the checkpoint file:  "chloroacetylene.chk"
 Charge =  0 Multiplicity = 1

                         Standard orientation:
 ---------------------------------------------------------------------
 Center     Atomic      Atomic             Coordinates (Angstroms)
 Number     Number       Type             X           Y           Z
 ---------------------------------------------------------------------
      1          6           0        0.000000    0.000000   -0.615871
      2          6           0        0.000000    0.000000   -1.813601
      3         17           0        0.000000    0.000000    1.026530
      4          1           0        0.000000    0.000000   -2.874172
 ---------------------------------------------------------------------

 SCF Done:  E(RHF) =  -535.786881417     A.U. after    2 cycles

 The electronic state is 1-SG.
 Alpha  occ. eigenvalues -- -103.71908 -11.31016 -11.26388 -10.75059  -8.40840
 Alpha  occ. eigenvalues --   -8.40459  -8.40459  -1.23086  -1.02948  -0.75470
 Alpha  occ. eigenvalues --   -0.68354  -0.56246  -0.56246  -0.40420  -0.40420
 Alpha virt. eigenvalues --    0.03584   0.06733   0.10126   0.10344   0.10344
 Alpha virt. eigenvalues --    0.14121   0.14121   0.16305   0.16682   0.16957
 Alpha virt. eigenvalues --    0.16957   0.22774   0.22813   0.22813   0.25860

 Mulliken charges:
               1
     1  C   -0.489274
     2  C    0.824383
     3  Cl  -0.057645
     4  H   -0.277464
 Sum of Mulliken charges =  -0.00000

 Dipole moment (field-independent basis, Debye):
    X=             -0.0000    Y=             -0.0000    Z=             -0.7076  Tot=              0.7076

 Test job not archived.
 1\1\GINC-SE055\SP\RHF\Aug-CC-pVDZ\C2H1Cl1\OHZDE\05-Apr-2025\0\\#t hf a
 ug-cc-pvdz iop(5/13=1,5/36=2,99/5=2) pseudo=read geom=check guess=(rea
 d,tcheck) scf=(maxcycle=1)\\title\\0,1\C,0,0.,0.,-0.615871\C,0,0.,0.,-
 1.813601\Cl,0,0.,0.,1.02653\H,0,0.,0.,-2.874172\\Version=ES64L-G16RevC
 .01\State=1-SG\HF=-535.7868814\RMSD=1.001e-02\Dipole=0.,0.,-0.2783823\
 Quadrupole=-1.9544164,-1.9544164,3.9088328,0.,0.,0.\PG=C*V [C*(H1C1C1C
 l1)]\\@

 Normal termination of Gaussian 16 at Sat Apr  5 22:53:39 2025.
