 Gaussian 16, Revision C.01,

 ----------------------------------------------------------------------
 #t hf aug-cc-pvdz symm=none int=(grid=ultrafine) guess=(read,tcheck) s
 table=(opt,rrhf)
 ----------------------------------------------------------------------
 -----
 title
 -----
 Symbolic Z-matrix:
 Charge =  0 Multiplicity = 1

 SCF Done:  E(RHF) =  -741.759495884     A.U. after   15 cycles
 Normal termination of Gaussian 16 at Sat Apr  5 22:53:45 2025.
 Gaussian 16:  ES64L-G16RevC.01  3-Jul-2019

 ----------------------------------------------------------------------
 #t hf aug-cc-pvdz iop(5/13=1,5/36=2,99/5=2) pseudo=read geom=check gue
 ss=(read,tcheck) scf=(maxcycle=1)
 ----------------------------------------------------------------------
 -----
 title
 -----
 Structure from the checkpoint file:  "chloroaminoacetic_acid.chk"
 Charge =  0 Multiplicity = 1

                         Standard orientation:
 ---------------------------------------------------------------------
 Center     Atomic      Atomic             Coordinates (Angstroms)
 Number     Number       Type             X           Y           Z
 ---------------------------------------------------------------------
      1         17           0        2.428631   -0.064395    0.032886
      2          8           0       -1.730300    1.196583    0.115542
      3          8           0       -2.527186   -0.891563   -0.130112
      4          7           0        0.770338    0.388259   -0.379853
      5          6           0       -0.158958   -0.592845    0.181441
      6          6           0       -1.598551   -0.146064    0.017450
      7          1           0       -0.003971   -0.777676    1.252540
      8          1           0       -0.042747   -1.538938   -0.340394
      9          1           0        0.644604    1.280659    0.086477
     10          1           0       -2.672033    1.406156    0.024511
 ---------------------------------------------------------------------

 SCF Done:  E(RHF) =  -741.866881501     A.U. after    2 cycles

 The electronic state is 1-A.
 Alpha  occ. eigenvalues -- -103.68947 -20.64914 -20.58668 -15.70580 -11.42417
 Alpha  occ. eigenvalues --  -11.31220 -10.71959  -8.37703  -8.37346  -8.37319
 Alpha  occ. eigenvalues --   -1.44981  -1.35225  -1.25636  -1.09717  -0.96349
 Alpha  occ. eigenvalues --   -0.86206  -0.74385  -0.72898  -0.70378  -0.65089
 Alpha  occ. eigenvalues --   -0.62586  -0.62227  -0.58040  -0.53612  -0.51805
 Alpha  occ. eigenvalues --   -0.49080  -0.47055  -0.41374
 Alpha virt. eigenvalues --    0.02959   0.04572   0.05261   0.05929   0.07706
 Alpha virt. eigenvalues --    0.10065   0.11043   0.11670   0.12400   0.14088
 Alpha virt. eigenvalues --    0.14816   0.14937   0.16295   0.17120   0.17271

 Mulliken charges:
               1
     1  Cl   0.171616
     2  O   -0.519969
     3  O   -0.462050
     4  N   -0.680672
     5  C    0.746149
     6  C    0.478047
     7  H    0.028284
     8  H   -0.103690
     9  H    0.152843
    10  H    0.189442
 Sum of Mulliken charges =  -0.00000

 Dipole moment (field-independent basis, Debye):
    X=             -0.5044    Y=              1.6776    Z=              1.3049  Tot=              2.1844

 Test job not archived.
 1\1\GINC-SE176\SP\RHF\Aug-CC-pVDZ\C2H4Cl1N1O2\OHZDE\05-Apr-2025\0\\#t
 hf aug-cc-pvdz iop(5/13=1,5/36=2,99/5=2) pseudo=read geom=check guess=
 (read,tcheck) scf=(maxcycle=1)\\title\\0,1\Cl,0,2.428631,-0.064395,0.0
 32886\O,0,-1.7303,1.196583,0.115542\O,0,-2.527186,-0.891563,-0.130112\
 N,0,0.770338,0.388259,-0.379853\C,0,-0.158958,-0.592845,0.181441\C,0,-
 1.598551,-0.146064,0.01745\H,0,-0.003971,-0.777676,1.25254\H,0,-0.0427
 47,-1.538938,-0.340394\H,0,0.644604,1.280659,0.086477\H,0,-2.672033,1.
 406156,0.024511\\Version=ES64L-G16RevC.01\State=1-A\HF=-741.8668815\RM

 Normal termination of Gaussian 16 at Sat Apr  5 22:53:49 2025.
