 Gaussian 16, Revision C.01,

 ----------------------------------------------------------------------
 #t hf aug-cc-pvdz symm=none int=(grid=ultrafine) guess=(read,tcheck) s
 table=(opt,rrhf)
 ----------------------------------------------------------------------
 -----
 title
 -----
 Symbolic Z-matrix:
 Charge =  0 Multiplicity = 1

 SCF Done:  E(RHF) =  -689.650757456     A.U. after   14 cycles

 1\1\GINC-SE190\Stability\RHF\Aug-CC-pVDZ\C6H5Cl1\OHZDE\05-Apr-2025\0\\
 #t hf aug-cc-pvdz symm=none int=(grid=ultrafine) guess=(read,tcheck) s
 table=(opt,rrhf)\\title\\0,1\C,0,0.,0.,-2.265776\C,0,0.,1.202168,-1.56
 8121\C,0,0.,-1.202168,-1.568121\C,0,0.,1.209985,-0.178204\C,0,0.,-1.20
 9985,-0.178204\C,0,0.,0.,0.5018\Cl,0,0.,0.,2.255827\H,0,0.,0.,-3.34703
 6\H,0,0.,2.141915,-2.103741\H,0,0.,-2.141915,-2.103741\H,0,0.,2.139131
 ,0.372605\H,0,0.,-2.139131,0.372605\\Version=ES64L-G16RevC.01\HF=-689.
 6507575\RMSD=6.036e-09\Dipole=0.,0.,-0.8020912\Quadrupole=-4.0281069,3

 Normal termination of Gaussian 16 at Sat Apr  5 22:53:49 2025.
 Gaussian 16:  ES64L-G16RevC.01  3-Jul-2019

 ----------------------------------------------------------------------
 #t hf aug-cc-pvdz iop(5/13=1,5/36=2,99/5=2) pseudo=read geom=check gue
 ss=(read,tcheck) scf=(maxcycle=1)
 ----------------------------------------------------------------------
 -----
 title
 -----
 Structure from the checkpoint file:  "chlorobenzene.chk"
 Charge =  0 Multiplicity = 1

                         Standard orientation:
 ---------------------------------------------------------------------
 Center     Atomic      Atomic             Coordinates (Angstroms)
 Number     Number       Type             X           Y           Z
 ---------------------------------------------------------------------
      1          6           0        0.000000   -0.000000   -2.265776
      2          6           0        0.000000    1.202168   -1.568121
      3          6           0       -0.000000   -1.202168   -1.568121
      4          6           0        0.000000    1.209985   -0.178204
      5          6           0       -0.000000   -1.209985   -0.178204
      6          6           0        0.000000    0.000000    0.501800
      7         17           0        0.000000    0.000000    2.255827
      8          1           0        0.000000   -0.000000   -3.347036
      9          1           0        0.000000    2.141915   -2.103741
     10          1           0       -0.000000   -2.141915   -2.103741
     11          1           0        0.000000    2.139131    0.372605
     12          1           0       -0.000000   -2.139131    0.372605
 ---------------------------------------------------------------------

 SCF Done:  E(RHF) =  -689.737993853     A.U. after    2 cycles

 The electronic state is 1-A1.
 Alpha  occ. eigenvalues -- -103.66624 -11.31459 -11.26120 -11.26114 -11.26003
 Alpha  occ. eigenvalues --  -11.25986 -11.25603 -10.69906  -8.35642  -8.35337
 Alpha  occ. eigenvalues --   -8.35320  -1.20034  -1.13624  -1.03048  -1.00591
 Alpha  occ. eigenvalues --   -0.85148  -0.82776  -0.72056  -0.65729  -0.65341
 Alpha  occ. eigenvalues --   -0.61117  -0.59887  -0.55172  -0.52301  -0.51858
 Alpha  occ. eigenvalues --   -0.47941  -0.46810  -0.35761  -0.34494
 Alpha virt. eigenvalues --    0.03263   0.03960   0.04619   0.05924   0.06354
 Alpha virt. eigenvalues --    0.09117   0.09395   0.09764   0.11753   0.11951
 Alpha virt. eigenvalues --    0.13202   0.13801   0.14323   0.14362   0.14622

 Mulliken charges:
               1
     1  C    0.235030
     2  C    0.789269
     3  C    0.789269
     4  C    0.397201
     5  C    0.397201
     6  C   -0.135072
     7  Cl  -0.375752
     8  H   -0.437159
     9  H   -0.426067
    10  H   -0.426067
    11  H   -0.403926
    12  H   -0.403926
 Sum of Mulliken charges =  -0.00000

 Dipole moment (field-independent basis, Debye):
    X=              0.0000    Y=             -0.0000    Z=             -2.1194  Tot=              2.1194

 Test job not archived.
 1\1\GINC-SE190\SP\RHF\Aug-CC-pVDZ\C6H5Cl1\OHZDE\05-Apr-2025\0\\#t hf a
 ug-cc-pvdz iop(5/13=1,5/36=2,99/5=2) pseudo=read geom=check guess=(rea
 d,tcheck) scf=(maxcycle=1)\\title\\0,1\C,0,0.,0.,-2.265776\C,0,0.,1.20
 2168,-1.568121\C,0,0.,-1.202168,-1.568121\C,0,0.,1.209985,-0.178204\C,
 0,0.,-1.209985,-0.178204\C,0,0.,0.,0.5018\Cl,0,0.,0.,2.255827\H,0,0.,0
 .,-3.347036\H,0,0.,2.141915,-2.103741\H,0,0.,-2.141915,-2.103741\H,0,0
 .,2.139131,0.372605\H,0,0.,-2.139131,0.372605\\Version=ES64L-G16RevC.0
 1\State=1-A1\HF=-689.7379939\RMSD=1.335e-02\Dipole=0.,0.,-0.8338402\Qu

 Normal termination of Gaussian 16 at Sat Apr  5 22:53:54 2025.
