 Gaussian 16, Revision C.01,

 ----------------------------------------------------------------------
 #t hf aug-cc-pvdz symm=none int=(grid=ultrafine) guess=(read,tcheck) s
 table=(opt,rrhf)
 ----------------------------------------------------------------------
 -----
 title
 -----
 Symbolic Z-matrix:
 Charge =  0 Multiplicity = 1

 SCF Done:  E(RHF) =  -610.654497224     A.U. after   13 cycles
 Normal termination of Gaussian 16 at Sat Apr  5 22:53:40 2025.
 Gaussian 16:  ES64L-G16RevC.01  3-Jul-2019

 ----------------------------------------------------------------------
 #t hf aug-cc-pvdz iop(5/13=1,5/36=2,99/5=2) pseudo=read geom=check gue
 ss=(read,tcheck) scf=(maxcycle=1)
 ----------------------------------------------------------------------
 -----
 title
 -----
 Structure from the checkpoint file:  "chloroketene.chk"
 Charge =  0 Multiplicity = 1

                         Standard orientation:
 ---------------------------------------------------------------------
 Center     Atomic      Atomic             Coordinates (Angstroms)
 Number     Number       Type             X           Y           Z
 ---------------------------------------------------------------------
      1         17           0       -1.452562   -0.235201    0.000013
      2          8           0        2.214395   -0.375124    0.000033
      3          6           0        0.002567    0.726842   -0.000115
      4          6           0        1.175372    0.139924   -0.000030
      5          1           0       -0.089246    1.798809    0.000383
 ---------------------------------------------------------------------

 SCF Done:  E(RHF) =  -610.723540863     A.U. after    2 cycles

 The electronic state is 1-A.
 Alpha  occ. eigenvalues -- -103.69090 -20.66851 -11.41891 -11.31853 -10.72256
 Alpha  occ. eigenvalues --   -8.38003  -8.37672  -8.37640  -1.46219  -1.20385
 Alpha  occ. eigenvalues --   -1.03624  -0.78798  -0.72678  -0.68430  -0.66443
 Alpha  occ. eigenvalues --   -0.59012  -0.53221  -0.48982  -0.37338
 Alpha virt. eigenvalues --    0.03223   0.05441   0.07275   0.09641   0.10701
 Alpha virt. eigenvalues --    0.11150   0.12394   0.13583   0.14554   0.15652
 Alpha virt. eigenvalues --    0.15735   0.17702   0.20099   0.20996   0.24177

 Mulliken charges:
               1
     1  Cl  -0.173771
     2  O   -0.160321
     3  C    0.504202
     4  C    0.047376
     5  H   -0.217487
 Sum of Mulliken charges =  -0.00000

 Dipole moment (field-independent basis, Debye):
    X=             -0.3716    Y=              1.6049    Z=              0.0005  Tot=              1.6474

 Test job not archived.
 1\1\GINC-SE085\SP\RHF\Aug-CC-pVDZ\C2H1Cl1O1\OHZDE\05-Apr-2025\0\\#t hf
  aug-cc-pvdz iop(5/13=1,5/36=2,99/5=2) pseudo=read geom=check guess=(r
 ead,tcheck) scf=(maxcycle=1)\\title\\0,1\Cl,0,-1.452562,-0.235201,0.00
 0013\O,0,2.214395,-0.375124,0.000033\C,0,0.002567,0.726842,-0.000115\C
 ,0,1.175372,0.139924,-0.00003\H,0,-0.089246,1.798809,0.000383\\Version
 =ES64L-G16RevC.01\State=1-A\HF=-610.7235409\RMSD=4.778e-03\Dipole=-0.1
 461932,0.6314292,0.0002143\Quadrupole=-2.6738312,2.8618323,-0.1880012,
 1.4198041,-0.000152,0.0010212\PG=C01 [X(C2H1Cl1O1)]\\@

 Normal termination of Gaussian 16 at Sat Apr  5 22:53:41 2025.
