 Gaussian 16, Revision C.01,

 ----------------------------------------------------------------------
 #t hf aug-cc-pvdz symm=none int=(grid=ultrafine) guess=(read,tcheck) s
 table=(opt,rrhf)
 ----------------------------------------------------------------------
 -----
 title
 -----
 Symbolic Z-matrix:
 Charge =  0 Multiplicity = 1

 SCF Done:  E(RHF) =  -597.982639300     A.U. after   12 cycles
 Normal termination of Gaussian 16 at Sat Apr  5 22:53:36 2025.
 Gaussian 16:  ES64L-G16RevC.01  3-Jul-2019

 ----------------------------------------------------------------------
 #t hf aug-cc-pvdz iop(5/13=1,5/36=2,99/5=2) pseudo=read geom=check gue
 ss=(read,tcheck) scf=(maxcycle=1)
 ----------------------------------------------------------------------
 -----
 title
 -----
 Structure from the checkpoint file:  "chlorofluoromethane.chk"
 Charge =  0 Multiplicity = 1

                         Standard orientation:
 ---------------------------------------------------------------------
 Center     Atomic      Atomic             Coordinates (Angstroms)
 Number     Number       Type             X           Y           Z
 ---------------------------------------------------------------------
      1         17           0        0.682538   -0.843775    0.000000
      2          9           0       -1.364381    0.762010    0.000000
      3          6           0        0.000000    0.812042    0.000000
      4          1           0        0.338141    1.306914    0.905061
      5          1           0        0.338141    1.306914   -0.905061
 ---------------------------------------------------------------------

 SCF Done:  E(RHF) =  -598.052053442     A.U. after    2 cycles

 The electronic state is 1-A'.
 Alpha  occ. eigenvalues -- -103.67120 -26.14381 -11.40482 -10.70461  -8.36178
 Alpha  occ. eigenvalues --   -8.35874  -8.35861  -1.68230  -1.18106  -0.96524
 Alpha  occ. eigenvalues --   -0.79136  -0.77834  -0.74580  -0.61722  -0.56268
 Alpha  occ. eigenvalues --   -0.48444  -0.46850
 Alpha virt. eigenvalues --    0.03384   0.05193   0.07547   0.09225   0.12896
 Alpha virt. eigenvalues --    0.15381   0.15660   0.15974   0.16291   0.21557
 Alpha virt. eigenvalues --    0.23380   0.26129   0.27022   0.29287   0.32293

 Mulliken charges:
               1
     1  Cl  -0.157434
     2  F   -0.357064
     3  C    0.528013
     4  H   -0.006757
     5  H   -0.006757
 Sum of Mulliken charges =  -0.00000

 Dipole moment (field-independent basis, Debye):
    X=              1.3400    Y=              1.8136    Z=              0.0000  Tot=              2.2550

 Test job not archived.
 1\1\GINC-SE190\SP\RHF\Aug-CC-pVDZ\C1H2Cl1F1\OHZDE\05-Apr-2025\0\\#t hf
  aug-cc-pvdz iop(5/13=1,5/36=2,99/5=2) pseudo=read geom=check guess=(r
 ead,tcheck) scf=(maxcycle=1)\\title\\0,1\Cl,0,0.682538,-0.843775,0.\F,
 0,-1.364381,0.76201,0.\C,0,0.,0.812042,0.\H,0,0.338141,1.306914,0.9050
 61\H,0,0.338141,1.306914,-0.905061\\Version=ES64L-G16RevC.01\State=1-A
 '\HF=-598.0520534\RMSD=4.259e-03\Dipole=0.5271963,0.7135332,0.\Quadrup
 ole=-2.2391815,1.5335023,0.7056792,1.3125101,0.,0.\PG=CS [SG(C1Cl1F1),
 X(H2)]\\@

 Normal termination of Gaussian 16 at Sat Apr  5 22:53:37 2025.
