 Gaussian 16, Revision C.01,

 ----------------------------------------------------------------------
 #t hf aug-cc-pvdz symm=none int=(grid=ultrafine) guess=(read,tcheck) s
 table=(opt,rrhf)
 ----------------------------------------------------------------------
 -----
 title
 -----
 Symbolic Z-matrix:
 Charge =  0 Multiplicity = 1

 SCF Done:  E(RHF) =  -499.122236900     A.U. after   11 cycles

 1\1\GINC-SE115\Stability\RHF\Aug-CC-pVDZ\C1H3Cl1\OHZDE\05-Apr-2025\0\\
 #t hf aug-cc-pvdz symm=none int=(grid=ultrafine) guess=(read,tcheck) s
 table=(opt,rrhf)\\title\\0,1\C,0,0.,0.,-1.138108\Cl,0,0.,0.,0.662444\H
 ,0,0.,1.030124,-1.477634\H,0,0.892114,-0.515062,-1.477634\H,0,-0.89211
 4,-0.515062,-1.477634\\Version=ES64L-G16RevC.01\HF=-499.1222369\RMSD=1
 .741e-09\Dipole=0.,0.0000001,-0.8800484\Quadrupole=-0.4863062,-0.48630
 76,0.9726138,0.,0.,-0.0000005\PG=Unknown\\@
 The archive entry for this job was punched.

 Normal termination of Gaussian 16 at Sat Apr  5 22:53:35 2025.
 Gaussian 16:  ES64L-G16RevC.01  3-Jul-2019

 ----------------------------------------------------------------------
 #t hf aug-cc-pvdz iop(5/13=1,5/36=2,99/5=2) pseudo=read geom=check gue
 ss=(read,tcheck) scf=(maxcycle=1)
 ----------------------------------------------------------------------
 -----
 title
 -----
 Structure from the checkpoint file:  "chloromethane.chk"
 Charge =  0 Multiplicity = 1

                         Standard orientation:
 ---------------------------------------------------------------------
 Center     Atomic      Atomic             Coordinates (Angstroms)
 Number     Number       Type             X           Y           Z
 ---------------------------------------------------------------------
      1          6           0        0.000000   -1.138108    0.000000
      2         17           0        0.000000    0.662444    0.000000
      3          1           0        1.030124   -1.477634    0.000000
      4          1           0       -0.515062   -1.477634    0.892114
      5          1           0       -0.515062   -1.477634   -0.892114
 ---------------------------------------------------------------------

 SCF Done:  E(RHF) =  -499.156257281     A.U. after    2 cycles

 The electronic state is 1-A'.
 Alpha  occ. eigenvalues -- -103.65115 -11.30416 -10.68389  -8.34112  -8.33813
 Alpha  occ. eigenvalues --   -8.33813  -1.15772  -0.92895  -0.62316  -0.62316
 Alpha  occ. eigenvalues --   -0.55403  -0.44827  -0.44827
 Alpha virt. eigenvalues --    0.03297   0.05775   0.05775   0.07626   0.13783
 Alpha virt. eigenvalues --    0.15059   0.15059   0.15789   0.16806   0.16806
 Alpha virt. eigenvalues --    0.22323   0.26706   0.26706   0.29813   0.35095

 Mulliken charges:
               1
     1  C    0.217869
     2  Cl  -0.206427
     3  H   -0.003815
     4  H   -0.003814
     5  H   -0.003814
 Sum of Mulliken charges =  -0.00000

 Dipole moment (field-independent basis, Debye):
    X=              0.0000    Y=             -2.2893    Z=              0.0000  Tot=              2.2893

 Test job not archived.
 1\1\GINC-SE115\SP\RHF\Aug-CC-pVDZ\C1H3Cl1\OHZDE\05-Apr-2025\0\\#t hf a
 ug-cc-pvdz iop(5/13=1,5/36=2,99/5=2) pseudo=read geom=check guess=(rea
 d,tcheck) scf=(maxcycle=1)\\title\\0,1\C,0,0.,0.,-1.138108\Cl,0,0.,0.,
 0.662444\H,0,0.,1.030124,-1.477634\H,0,0.892114,-0.515062,-1.477634\H,
 0,-0.892114,-0.515062,-1.477634\\Version=ES64L-G16RevC.01\State=1-A'\H
 F=-499.1562573\RMSD=2.787e-03\Dipole=0.,0.,-0.9006637\Quadrupole=-0.50
 76232,-0.5076246,1.0152479,0.,0.,-0.0000005\PG=CS [SG(C1H1Cl1),X(H2)]\
 \@

 Normal termination of Gaussian 16 at Sat Apr  5 22:53:37 2025.
