 Gaussian 16, Revision C.01,

 ----------------------------------------------------------------------
 #t hf aug-cc-pvdz symm=none int=(grid=ultrafine) guess=(read,tcheck) s
 table=(opt,rrhf)
 ----------------------------------------------------------------------
 -----
 title
 -----
 Symbolic Z-matrix:
 Charge =  0 Multiplicity = 1

 SCF Done:  E(RHF) =  -611.858883127     A.U. after   14 cycles
 Normal termination of Gaussian 16 at Sat Apr  5 22:53:11 2025.
 Gaussian 16:  ES64L-G16RevC.01  3-Jul-2019

 ----------------------------------------------------------------------
 #t hf aug-cc-pvdz iop(5/13=1,5/36=2,99/5=2) pseudo=read geom=check gue
 ss=(read,tcheck) scf=(maxcycle=1)
 ----------------------------------------------------------------------
 -----
 title
 -----
 Structure from the checkpoint file:  "chloroacetaldehyde.chk"
 Charge =  0 Multiplicity = 1

                         Standard orientation:
 ---------------------------------------------------------------------
 Center     Atomic      Atomic             Coordinates (Angstroms)
 Number     Number       Type             X           Y           Z
 ---------------------------------------------------------------------
      1          6           0        0.028542    0.674903    0.133473
      2          6           0        1.166085   -0.321837    0.199900
      3         17           0       -1.550178   -0.167557   -0.077281
      4          8           0        2.264073   -0.071400   -0.217240
      5          1           0       -0.023974    1.228514    1.070602
      6          1           0        0.172885    1.363727   -0.692610
      7          1           0        0.923765   -1.290966    0.673464
 ---------------------------------------------------------------------

 SCF Done:  E(RHF) =  -611.926288267     A.U. after    2 cycles

 The electronic state is 1-A.
 Alpha  occ. eigenvalues -- -103.67574 -20.60038 -11.37179 -11.33184 -10.70839
 Alpha  occ. eigenvalues --   -8.36561  -8.36263  -8.36251  -1.38944  -1.18774
 Alpha  occ. eigenvalues --   -0.99457  -0.83172  -0.70613  -0.67691  -0.65684
 Alpha  occ. eigenvalues --   -0.58413  -0.54990  -0.49419  -0.47127  -0.45319
 Alpha virt. eigenvalues --    0.03548   0.04671   0.05415   0.06956   0.08781
 Alpha virt. eigenvalues --    0.10439   0.12869   0.13028   0.13782   0.14668
 Alpha virt. eigenvalues --    0.15481   0.16498   0.17588   0.18181   0.19417

 Mulliken charges:
               1
     1  C   -0.166854
     2  C    0.566927
     3  Cl  -0.100243
     4  O   -0.428311
     5  H    0.114094
     6  H    0.072720
     7  H   -0.058333
 Sum of Mulliken charges =  -0.00000

 Dipole moment (field-independent basis, Debye):
    X=             -1.1865    Y=              0.6108    Z=              1.2745  Tot=              1.8453

 Test job not archived.
 1\1\GINC-SE085\SP\RHF\Aug-CC-pVDZ\C2H3Cl1O1\OHZDE\05-Apr-2025\0\\#t hf
  aug-cc-pvdz iop(5/13=1,5/36=2,99/5=2) pseudo=read geom=check guess=(r
 ead,tcheck) scf=(maxcycle=1)\\title\\0,1\C,0,0.028542,0.674903,0.13347
 3\C,0,1.166085,-0.321837,0.1999\Cl,0,-1.550178,-0.167557,-0.077281\O,0
 ,2.264073,-0.0714,-0.21724\H,0,-0.023974,1.228514,1.070602\H,0,0.17288
 5,1.363727,-0.69261\H,0,0.923765,-1.290966,0.673464\\Version=ES64L-G16
 RevC.01\State=1-A\HF=-611.9262883\RMSD=3.425e-03\Dipole=-0.4668075,0.2
 402944,0.5014423\Quadrupole=-6.1910674,3.5753624,2.615705,-0.309235,1.

 Normal termination of Gaussian 16 at Sat Apr  5 22:53:13 2025.
