 Gaussian 16, Revision C.01,

 ----------------------------------------------------------------------
 #t hf aug-cc-pvdz symm=none int=(grid=ultrafine) guess=(read,tcheck) s
 table=(opt,rrhf)
 ----------------------------------------------------------------------
 -----
 title
 -----
 Symbolic Z-matrix:
 Charge =  0 Multiplicity = 1

 SCF Done:  E(RHF) =  -538.165158826     A.U. after   12 cycles

 1\1\GINC-SE028\Stability\RHF\Aug-CC-pVDZ\C2H5Cl1\OHZDE\05-Apr-2025\0\\
 #t hf aug-cc-pvdz symm=none int=(grid=ultrafine) guess=(read,tcheck) s
 table=(opt,rrhf)\\title\\0,1\C,0,1.506018,0.680611,0.\C,0,0.,0.820714,
 0.\H,0,1.961216,1.673866,0.\H,0,1.851632,0.145961,0.883624\H,0,1.85163
 2,0.145961,-0.883624\Cl,0,-0.821829,-0.80243,0.\H,0,-0.364745,1.333788
 ,0.885068\H,0,-0.364745,1.333788,-0.885068\\Version=ES64L-G16RevC.01\H
 F=-538.1651588\RMSD=2.728e-09\Dipole=0.5127275,0.8280804,0.\Quadrupole
 =-0.5021465,0.4440586,0.0580879,-0.3181496,0.,0.\PG=Unknown\\@

 Normal termination of Gaussian 16 at Sat Apr  5 22:53:37 2025.
 Gaussian 16:  ES64L-G16RevC.01  3-Jul-2019

 ----------------------------------------------------------------------
 #t hf aug-cc-pvdz iop(5/13=1,5/36=2,99/5=2) pseudo=read geom=check gue
 ss=(read,tcheck) scf=(maxcycle=1)
 ----------------------------------------------------------------------
 -----
 title
 -----
 Structure from the checkpoint file:  "chloroethane.chk"
 Charge =  0 Multiplicity = 1

                         Standard orientation:
 ---------------------------------------------------------------------
 Center     Atomic      Atomic             Coordinates (Angstroms)
 Number     Number       Type             X           Y           Z
 ---------------------------------------------------------------------
      1          6           0        1.506018    0.680611    0.000000
      2          6           0        0.000000    0.820714    0.000000
      3          1           0        1.961216    1.673866    0.000000
      4          1           0        1.851632    0.145961    0.883624
      5          1           0        1.851632    0.145961   -0.883624
      6         17           0       -0.821829   -0.802430    0.000000
      7          1           0       -0.364745    1.333788    0.885068
      8          1           0       -0.364745    1.333788   -0.885068
 ---------------------------------------------------------------------

 SCF Done:  E(RHF) =  -538.210779508     A.U. after    2 cycles

 The electronic state is 1-A'.
 Alpha  occ. eigenvalues -- -103.64386 -11.30697 -11.24572 -10.67673  -8.33387
 Alpha  occ. eigenvalues --   -8.33105  -8.33099  -1.15678  -1.01249  -0.85025
 Alpha  occ. eigenvalues --   -0.65522  -0.61574  -0.56782  -0.53403  -0.51099
 Alpha  occ. eigenvalues --   -0.44338  -0.44218
 Alpha virt. eigenvalues --    0.03347   0.04882   0.05070   0.06042   0.07785
 Alpha virt. eigenvalues --    0.09421   0.12207   0.13220   0.14630   0.15047
 Alpha virt. eigenvalues --    0.16316   0.17628   0.18091   0.19068   0.19075

 Mulliken charges:
               1
     1  C    0.354428
     2  C   -0.115144
     3  H   -0.030057
     4  H   -0.033636
     5  H   -0.033636
     6  Cl  -0.181983
     7  H    0.020014
     8  H    0.020014
 Sum of Mulliken charges =  -0.00000

 Dipole moment (field-independent basis, Debye):
    X=              1.3397    Y=              2.1562    Z=             -0.0000  Tot=              2.5385

 Test job not archived.
 1\1\GINC-SE028\SP\RHF\Aug-CC-pVDZ\C2H5Cl1\OHZDE\05-Apr-2025\0\\#t hf a
 ug-cc-pvdz iop(5/13=1,5/36=2,99/5=2) pseudo=read geom=check guess=(rea
 d,tcheck) scf=(maxcycle=1)\\title\\0,1\C,0,1.506018,0.680611,0.\C,0,0.
 ,0.820714,0.\H,0,1.961216,1.673866,0.\H,0,1.851632,0.145961,0.883624\H
 ,0,1.851632,0.145961,-0.883624\Cl,0,-0.821829,-0.80243,0.\H,0,-0.36474
 5,1.333788,0.885068\H,0,-0.364745,1.333788,-0.885068\\Version=ES64L-G1
 6RevC.01\State=1-A'\HF=-538.2107795\RMSD=3.305e-03\Dipole=0.5270655,0.
 8483167,0.\Quadrupole=-0.5066769,0.4644496,0.0422273,-0.3073899,0.,0.\

 Normal termination of Gaussian 16 at Sat Apr  5 22:53:40 2025.
