 Gaussian 16, Revision C.01,

 ----------------------------------------------------------------------
 #t hf aug-cc-pvdz symm=none int=(grid=ultrafine) guess=(read,tcheck) s
 table=(opt,rrhf)
 ----------------------------------------------------------------------
 -----
 title
 -----
 Symbolic Z-matrix:
 Charge =  0 Multiplicity = 1

 SCF Done:  E(RHF) =  -536.967907115     A.U. after   13 cycles

 1\1\GINC-SE165\Stability\RHF\Aug-CC-pVDZ\C2H3Cl1\OHZDE\05-Apr-2025\0\\
 #t hf aug-cc-pvdz symm=none int=(grid=ultrafine) guess=(read,tcheck) s
 table=(opt,rrhf)\\title\\0,1\C,0,1.289018,1.047846,0.\C,0,0.,0.763426,
 0.\Cl,0,-0.623753,-0.866823,0.\H,0,1.603767,2.08231,0.\H,0,2.051033,0.
 282196,0.\H,0,-0.785113,1.503855,0.\\Version=ES64L-G16RevC.01\HF=-536.
 9679071\RMSD=2.016e-09\Dipole=0.3023211,0.6222077,0.\Quadrupole=0.9887
 49,1.1488569,-2.1376059,-0.103935,0.,0.\PG=Unknown\\@
 The archive entry for this job was punched.

 Normal termination of Gaussian 16 at Sat Apr  5 22:53:39 2025.
 Gaussian 16:  ES64L-G16RevC.01  3-Jul-2019

 ----------------------------------------------------------------------
 #t hf aug-cc-pvdz iop(5/13=1,5/36=2,99/5=2) pseudo=read geom=check gue
 ss=(read,tcheck) scf=(maxcycle=1)
 ----------------------------------------------------------------------
 -----
 title
 -----
 Structure from the checkpoint file:  "chloroethene.chk"
 Charge =  0 Multiplicity = 1

                         Standard orientation:
 ---------------------------------------------------------------------
 Center     Atomic      Atomic             Coordinates (Angstroms)
 Number     Number       Type             X           Y           Z
 ---------------------------------------------------------------------
      1          6           0        1.289018    1.047846    0.000000
      2          6           0        0.000000    0.763426    0.000000
      3         17           0       -0.623753   -0.866823    0.000000
      4          1           0        1.603767    2.082310    0.000000
      5          1           0        2.051033    0.282196    0.000000
      6          1           0       -0.785113    1.503855    0.000000
 ---------------------------------------------------------------------

 SCF Done:  E(RHF) =  -537.013229630     A.U. after    2 cycles

 The electronic state is 1-A'.
 Alpha  occ. eigenvalues -- -103.66720 -11.31464 -11.25999 -10.70021  -8.35752
 Alpha  occ. eigenvalues --   -8.35441  -8.35436  -1.18498  -1.02868  -0.80046
 Alpha  occ. eigenvalues --   -0.67055  -0.62555  -0.53658  -0.52039  -0.46769
 Alpha  occ. eigenvalues --   -0.38225
 Alpha virt. eigenvalues --    0.03587   0.04813   0.05620   0.09121   0.09260
 Alpha virt. eigenvalues --    0.12298   0.12390   0.14779   0.15975   0.16494
 Alpha virt. eigenvalues --    0.17032   0.18521   0.18777   0.19168   0.21571

 Mulliken charges:
               1
     1  C    0.779357
     2  C    0.156446
     3  Cl  -0.248546
     4  H   -0.219339
     5  H   -0.206553
     6  H   -0.261365
 Sum of Mulliken charges =  -0.00000

 Dipole moment (field-independent basis, Debye):
    X=              0.8131    Y=              1.6401    Z=              0.0000  Tot=              1.8306

 Test job not archived.
 1\1\GINC-SE165\SP\RHF\Aug-CC-pVDZ\C2H3Cl1\OHZDE\05-Apr-2025\0\\#t hf a
 ug-cc-pvdz iop(5/13=1,5/36=2,99/5=2) pseudo=read geom=check guess=(rea
 d,tcheck) scf=(maxcycle=1)\\title\\0,1\C,0,1.289018,1.047846,0.\C,0,0.
 ,0.763426,0.\Cl,0,-0.623753,-0.866823,0.\H,0,1.603767,2.08231,0.\H,0,2
 .051033,0.282196,0.\H,0,-0.785113,1.503855,0.\\Version=ES64L-G16RevC.0
 1\State=1-A'\HF=-537.0132296\RMSD=5.145e-03\Dipole=0.3198891,0.6452782
 ,0.\Quadrupole=0.9932583,1.1719218,-2.1651802,-0.0779972,0.,0.\PG=CS [
 SG(C2H3Cl1)]\\@

 Normal termination of Gaussian 16 at Sat Apr  5 22:53:42 2025.
