 Gaussian 16, Revision C.01,

 ----------------------------------------------------------------------
 #t hf aug-cc-pvdz symm=none int=(grid=ultrafine) guess=(read,tcheck) s
 table=(opt,rrhf)
 ----------------------------------------------------------------------
 -----
 title
 -----
 Symbolic Z-matrix:
 Charge =  0 Multiplicity = 1

 SCF Done:  E(RHF) =  -1180.52956281     A.U. after   15 cycles
 Normal termination of Gaussian 16 at Sat Apr  5 22:53:55 2025.
 Gaussian 16:  ES64L-G16RevC.01  3-Jul-2019

 ----------------------------------------------------------------------
 #t hf aug-cc-pvdz iop(5/13=1,5/36=2,99/5=2) pseudo=read geom=check gue
 ss=(read,tcheck) scf=(maxcycle=1)
 ----------------------------------------------------------------------
 -----
 title
 -----
 Structure from the checkpoint file:  "chlorochloromethylmalononitrile.chk"
 Charge =  0 Multiplicity = 1

                         Standard orientation:
 ---------------------------------------------------------------------
 Center     Atomic      Atomic             Coordinates (Angstroms)
 Number     Number       Type             X           Y           Z
 ---------------------------------------------------------------------
      1         17           0        0.454804   -1.139246    1.304813
      2         17           0       -2.281823   -0.133492   -0.404658
      3          7           0        0.212305    2.469029    0.884988
      4          7           0        2.741580   -0.189879   -1.346088
      5          6           0        0.469741    0.052344   -0.074733
      6          6           0       -0.644368   -0.282574   -1.092678
      7          6           0        0.324538    1.401661    0.476873
      8          6           0        1.759694   -0.075093   -0.761062
      9          1           0       -0.569014    0.407136   -1.929326
     10          1           0       -0.506489   -1.302670   -1.436011
 ---------------------------------------------------------------------

 SCF Done:  E(RHF) =  -1180.64128442     A.U. after    2 cycles

 The electronic state is 1-A.
 Alpha  occ. eigenvalues -- -103.71986-103.69694 -15.69759 -15.69154 -11.45081
 Alpha  occ. eigenvalues --  -11.37525 -11.34184 -11.33590 -10.75175 -10.72959
 Alpha  occ. eigenvalues --   -8.40894  -8.40557  -8.40552  -8.38688  -8.38375
 Alpha  occ. eigenvalues --   -8.38356  -1.28493  -1.24005  -1.22618  -1.20010
 Alpha  occ. eigenvalues --   -1.09361  -0.95564  -0.84057  -0.73880  -0.69709
 Alpha  occ. eigenvalues --   -0.64451  -0.61388  -0.59709  -0.59192  -0.54290
 Alpha  occ. eigenvalues --   -0.53421  -0.52047  -0.50869  -0.50610  -0.49968
 Alpha  occ. eigenvalues --   -0.49071  -0.48832
 Alpha virt. eigenvalues --    0.02943   0.04287   0.04760   0.06623   0.06737
 Alpha virt. eigenvalues --    0.08869   0.09601   0.09759   0.10786   0.11160
 Alpha virt. eigenvalues --    0.11855   0.12592   0.13374   0.14413   0.15138

 Mulliken charges:
               1
     1  Cl  -0.026713
     2  Cl  -0.038730
     3  N   -0.130835
     4  N   -0.125560
     5  C    0.256742
     6  C    0.336915
     7  C   -0.159537
     8  C   -0.202543
     9  H    0.039136
    10  H    0.051126
 Sum of Mulliken charges =  -0.00000

 Dipole moment (field-independent basis, Debye):
    X=             -1.3726    Y=             -2.0690    Z=             -1.4652  Tot=              2.8830

 Test job not archived.
 1\1\GINC-SE040\SP\RHF\Aug-CC-pVDZ\C4H2Cl2N2\OHZDE\05-Apr-2025\0\\#t hf
  aug-cc-pvdz iop(5/13=1,5/36=2,99/5=2) pseudo=read geom=check guess=(r
 ead,tcheck) scf=(maxcycle=1)\\title\\0,1\Cl,0,0.454804,-1.139246,1.304
 813\Cl,0,-2.281823,-0.133493,-0.404658\N,0,0.212304,2.469029,0.884988\
 N,0,2.74158,-0.189878,-1.346088\C,0,0.469741,0.052344,-0.074733\C,0,-0
 .644368,-0.282574,-1.092678\C,0,0.324537,1.401661,0.476873\C,0,1.75969
 4,-0.075092,-0.761062\H,0,-0.569014,0.407136,-1.929326\H,0,-0.506489,-
 1.30267,-1.436011\\Version=ES64L-G16RevC.01\State=1-A\HF=-1180.6412844

 Normal termination of Gaussian 16 at Sat Apr  5 22:54:38 2025.
