 Gaussian 16, Revision C.01,

 ----------------------------------------------------------------------
 #t hf aug-cc-pvdz symm=none int=(grid=ultrafine) guess=(read,tcheck) s
 table=(opt,rrhf)
 ----------------------------------------------------------------------
 -----
 title
 -----
 Symbolic Z-matrix:
 Charge =  0 Multiplicity = 1

 SCF Done:  E(RHF) =  -795.727379525     A.U. after   11 cycles

 1\1\GINC-SE194\Stability\RHF\Aug-CC-pVDZ\C1Cl1F3\OHZDE\05-Apr-2025\0\\
 #t hf aug-cc-pvdz symm=none int=(grid=ultrafine) guess=(read,tcheck) s
 table=(opt,rrhf)\\title\\0,1\C,0,0.,0.,-0.355296\Cl,0,0.,0.,1.420171\F
 ,0,0.,1.248182,-0.815227\F,0,1.080957,-0.624091,-0.815227\F,0,-1.08095
 7,-0.624091,-0.815227\\Version=ES64L-G16RevC.01\HF=-795.7273795\RMSD=8
 .188e-09\Dipole=0.,-0.0000003,0.2017229\Quadrupole=-0.4829326,-0.48293
 4,0.9658666,0.,0.,0.0000004\PG=Unknown\\@
 The archive entry for this job was punched.

 Normal termination of Gaussian 16 at Sat Apr  5 22:53:36 2025.
 Gaussian 16:  ES64L-G16RevC.01  3-Jul-2019

 ----------------------------------------------------------------------
 #t hf aug-cc-pvdz iop(5/13=1,5/36=2,99/5=2) pseudo=read geom=check gue
 ss=(read,tcheck) scf=(maxcycle=1)
 ----------------------------------------------------------------------
 -----
 title
 -----
 Structure from the checkpoint file:  "chlorotrifluoromethane.chk"
 Charge =  0 Multiplicity = 1

                         Standard orientation:
 ---------------------------------------------------------------------
 Center     Atomic      Atomic             Coordinates (Angstroms)
 Number     Number       Type             X           Y           Z
 ---------------------------------------------------------------------
      1          6           0        0.355296    0.000000    0.000000
      2         17           0       -1.420171    0.000000    0.000000
      3          9           0        0.815227    1.248182    0.000000
      4          9           0        0.815227   -0.624091    1.080957
      5          9           0        0.815227   -0.624091   -1.080957
 ---------------------------------------------------------------------

 SCF Done:  E(RHF) =  -795.872343015     A.U. after    2 cycles

 The electronic state is 1-A'.
 Alpha  occ. eigenvalues -- -103.71124 -26.20034 -26.20034 -26.20017 -11.60460
 Alpha  occ. eigenvalues --  -10.74498  -8.40222  -8.39868  -8.39868  -1.80322
 Alpha  occ. eigenvalues --   -1.72953  -1.72953  -1.22490  -1.03932  -0.92122
 Alpha  occ. eigenvalues --   -0.92122  -0.87681  -0.80560  -0.80560  -0.76309
 Alpha  occ. eigenvalues --   -0.76309  -0.74973  -0.62752  -0.52283  -0.52283
 Alpha virt. eigenvalues --    0.06811   0.08599   0.09736   0.09736   0.10911
 Alpha virt. eigenvalues --    0.14844   0.14844   0.19011   0.23443   0.23443
 Alpha virt. eigenvalues --    0.27816   0.29396   0.29396   0.29883   0.29883

 Mulliken charges:
               1
     1  C    0.785438
     2  Cl  -0.117448
     3  F   -0.222664
     4  F   -0.222663
     5  F   -0.222663
 Sum of Mulliken charges =  -0.00000

 Dipole moment (field-independent basis, Debye):
    X=             -0.7761    Y=             -0.0000    Z=             -0.0000  Tot=              0.7761

 Test job not archived.
 1\1\GINC-SE194\SP\RHF\Aug-CC-pVDZ\C1Cl1F3\OHZDE\05-Apr-2025\0\\#t hf a
 ug-cc-pvdz iop(5/13=1,5/36=2,99/5=2) pseudo=read geom=check guess=(rea
 d,tcheck) scf=(maxcycle=1)\\title\\0,1\C,0,0.,0.,-0.355296\Cl,0,0.,0.,
 1.420171\F,0,0.,1.248182,-0.815227\F,0,1.080957,-0.624091,-0.815227\F,
 0,-1.080957,-0.624091,-0.815227\\Version=ES64L-G16RevC.01\State=1-A'\H
 F=-795.872343\RMSD=5.959e-03\Dipole=0.,-0.0000003,0.3053406\Quadrupole
 =-0.5654495,-0.5654511,1.1309005,0.,0.,0.0000004\PG=CS [SG(C1Cl1F1),X(
 F2)]\\@

 Normal termination of Gaussian 16 at Sat Apr  5 22:53:38 2025.
