 Gaussian 16, Revision C.01,

 ----------------------------------------------------------------------
 #t hf aug-cc-pvdz symm=none int=(grid=ultrafine) guess=(read,tcheck) s
 table=(opt,rrhf)
 ----------------------------------------------------------------------
 -----
 title
 -----
 Symbolic Z-matrix:
 Charge =  0 Multiplicity = 1

 SCF Done:  E(RHF) =  -650.859450752     A.U. after   13 cycles
 Normal termination of Gaussian 16 at Sat Apr  5 22:53:41 2025.
 Gaussian 16:  ES64L-G16RevC.01  3-Jul-2019

 ----------------------------------------------------------------------
 #t hf aug-cc-pvdz iop(5/13=1,5/36=2,99/5=2) pseudo=read geom=check gue
 ss=(read,tcheck) scf=(maxcycle=1)
 ----------------------------------------------------------------------
 -----
 title
 -----
 Structure from the checkpoint file:  "chloromethyloxirane.chk"
 Charge =  0 Multiplicity = 1

                         Standard orientation:
 ---------------------------------------------------------------------
 Center     Atomic      Atomic             Coordinates (Angstroms)
 Number     Number       Type             X           Y           Z
 ---------------------------------------------------------------------
      1          6           0        0.385941   -0.723508    0.267146
      2         17           0        1.900475    0.227545   -0.033923
      3          6           0       -0.769906   -0.104546   -0.461481
      4          6           0       -1.663184    0.846606    0.196657
      5          8           0       -2.059013   -0.518958    0.002364
      6          1           0        0.215602   -0.732869    1.339395
      7          1           0        0.583531   -1.733301   -0.081694
      8          1           0       -0.670754   -0.061183   -1.541492
      9          1           0       -1.474553    1.128875    1.226754
     10          1           0       -2.206901    1.570555   -0.399129
 ---------------------------------------------------------------------

 SCF Done:  E(RHF) =  -650.938878664     A.U. after    2 cycles

 The electronic state is 1-A.
 Alpha  occ. eigenvalues -- -103.65922 -20.60116 -11.31872 -11.31767 -11.30867
 Alpha  occ. eigenvalues --  -10.69183  -8.34902  -8.34614  -8.34605  -1.39115
 Alpha  occ. eigenvalues --   -1.16996  -0.99547  -0.92450  -0.83562  -0.72526
 Alpha  occ. eigenvalues --   -0.68179  -0.62842  -0.60489  -0.56084  -0.54418
 Alpha  occ. eigenvalues --   -0.48822  -0.47041  -0.45555  -0.45276
 Alpha virt. eigenvalues --    0.03654   0.04473   0.04581   0.06427   0.07074
 Alpha virt. eigenvalues --    0.07781   0.10139   0.12093   0.13718   0.13790
 Alpha virt. eigenvalues --    0.14667   0.15144   0.16294   0.16660   0.17357

 Mulliken charges:
               1
     1  C   -0.062194
     2  Cl  -0.143976
     3  C    0.656148
     4  C    0.828727
     5  O   -0.705567
     6  H    0.028258
     7  H    0.091117
     8  H   -0.287214
     9  H   -0.206154
    10  H   -0.199144
 Sum of Mulliken charges =  -0.00000

 Dipole moment (field-independent basis, Debye):
    X=             -0.3274    Y=              0.6113    Z=              0.1264  Tot=              0.7049

 Test job not archived.
 1\1\GINC-SE183\SP\RHF\Aug-CC-pVDZ\C3H5Cl1O1\OHZDE\05-Apr-2025\0\\#t hf
  aug-cc-pvdz iop(5/13=1,5/36=2,99/5=2) pseudo=read geom=check guess=(r
 ead,tcheck) scf=(maxcycle=1)\\title\\0,1\C,0,0.385941,-0.723508,0.2671
 46\Cl,0,1.900475,0.227545,-0.033923\C,0,-0.769906,-0.104546,-0.461481\
 C,0,-1.663184,0.846606,0.196657\O,0,-2.059013,-0.518958,0.002364\H,0,0
 .215602,-0.732869,1.339395\H,0,0.583531,-1.733301,-0.081694\H,0,-0.670
 754,-0.061183,-1.541492\H,0,-1.474553,1.128875,1.226754\H,0,-2.206901,
 1.570555,-0.399129\\Version=ES64L-G16RevC.01\State=1-A\HF=-650.9388787

 Normal termination of Gaussian 16 at Sat Apr  5 22:53:44 2025.
