 Gaussian 16, Revision C.01,

 ----------------------------------------------------------------------
 #t hf aug-cc-pvdz symm=none int=(grid=ultrafine) guess=(read,tcheck) s
 table=(opt,rrhf)
 ----------------------------------------------------------------------
 -----
 title
 -----
 Symbolic Z-matrix:
 Charge =  0 Multiplicity = 1

 SCF Done:  E(RHF) =  -420.367962602     A.U. after   16 cycles
 Normal termination of Gaussian 16 at Sat Apr  5 22:55:01 2025.
 Gaussian 16:  ES64L-G16RevC.01  3-Jul-2019

 ----------------------------------------------------------------------
 #t hf aug-cc-pvdz iop(5/13=1,5/36=2,99/5=2) pseudo=read geom=check gue
 ss=(read,tcheck) scf=(maxcycle=1)
 ----------------------------------------------------------------------
 -----
 title
 -----
 Structure from the checkpoint file:  "cinnamaldehyde.chk"
 Charge =  0 Multiplicity = 1

                         Standard orientation:
 ---------------------------------------------------------------------
 Center     Atomic      Atomic             Coordinates (Angstroms)
 Number     Number       Type             X           Y           Z
 ---------------------------------------------------------------------
      1          6           0       -1.730590   -2.882390    0.000000
      2          8           0       -1.562058   -4.083390    0.000000
      3          6           0       -0.655985   -1.894403    0.000000
      4          6           0       -0.933573   -0.580286    0.000000
      5          6           0        0.000000    0.539524    0.000000
      6          6           0       -0.511516    1.844139    0.000000
      7          6           0        0.333448    2.945067    0.000000
      8          6           0        1.710603    2.761404    0.000000
      9          6           0        2.236083    1.470696    0.000000
     10          6           0        1.393141    0.372360    0.000000
     11          1           0       -2.755406   -2.457004    0.000000
     12          1           0        0.353546   -2.285206    0.000000
     13          1           0       -1.983825   -0.299778    0.000000
     14          1           0       -1.584212    1.989985    0.000000
     15          1           0       -0.081742    3.943603    0.000000
     16          1           0        2.373203    3.616136    0.000000
     17          1           0        3.307662    1.324322    0.000000
     18          1           0        1.817575   -0.621621    0.000000
 ---------------------------------------------------------------------

 SCF Done:  E(RHF) =  -420.493926231     A.U. after    2 cycles

 The electronic state is 1-A'.
 Alpha  occ. eigenvalues --  -20.56423 -11.34175 -11.28757 -11.27274 -11.26632
 Alpha  occ. eigenvalues --  -11.26484 -11.26461 -11.26120 -11.26105 -11.25635
 Alpha  occ. eigenvalues --   -1.34906  -1.17195  -1.09977  -1.03272  -1.02425
 Alpha  occ. eigenvalues --   -0.90275  -0.85397  -0.82030  -0.78377  -0.72883
 Alpha  occ. eigenvalues --   -0.68704  -0.67525  -0.64480  -0.63542  -0.61161
 Alpha  occ. eigenvalues --   -0.60827  -0.56224  -0.55542  -0.53327  -0.52651
 Alpha  occ. eigenvalues --   -0.51186  -0.43945  -0.43174  -0.36068  -0.33015
 Alpha virt. eigenvalues --    0.02723   0.03225   0.03893   0.03945   0.04993
 Alpha virt. eigenvalues --    0.05727   0.06900   0.08132   0.08546   0.09382
 Alpha virt. eigenvalues --    0.09852   0.10231   0.10835   0.11811   0.12365

 Mulliken charges:
               1
     1  C    0.608196
     2  O   -0.516050
     3  C    0.738860
     4  C    0.139285
     5  C    0.696881
     6  C    0.400713
     7  C    0.423736
     8  C    0.439729
     9  C    0.326890
    10  C    0.414725
    11  H   -0.217356
    12  H   -0.472537
    13  H   -0.529046
    14  H   -0.567667
    15  H   -0.434676
    16  H   -0.430420
    17  H   -0.461531
    18  H   -0.559733
 Sum of Mulliken charges =   0.00000

 Dipole moment (field-independent basis, Debye):
    X=              0.7785    Y=              5.2304    Z=              0.0000  Tot=              5.2880

 Test job not archived.
 1\1\GINC-SE194\SP\RHF\Aug-CC-pVDZ\C9H8O1\OHZDE\05-Apr-2025\0\\#t hf au
 g-cc-pvdz iop(5/13=1,5/36=2,99/5=2) pseudo=read geom=check guess=(read
 ,tcheck) scf=(maxcycle=1)\\title\\0,1\C,0,-1.73059,-2.88239,0.\O,0,-1.
 562058,-4.08339,0.\C,0,-0.655985,-1.894403,0.\C,0,-0.933573,-0.580286,
 0.\C,0,0.,0.539524,0.\C,0,-0.511516,1.844139,0.\C,0,0.333448,2.945067,
 0.\C,0,1.710603,2.761404,0.\C,0,2.236083,1.470696,0.\C,0,1.393141,0.37
 236,0.\H,0,-2.755406,-2.457004,0.\H,0,0.353546,-2.285206,0.\H,0,-1.983
 825,-0.299778,0.\H,0,-1.584212,1.989985,0.\H,0,-0.081742,3.943603,0.\H

 Normal termination of Gaussian 16 at Sat Apr  5 22:55:53 2025.
