 Gaussian 16, Revision C.01,

 ----------------------------------------------------------------------
 #t hf aug-cc-pvdz symm=none int=(grid=ultrafine) guess=(read,tcheck) s
 table=(opt,rrhf)
 ----------------------------------------------------------------------
 -----
 title
 -----
 Symbolic Z-matrix:
 Charge =  0 Multiplicity = 1

 SCF Done:  E(RHF) =  -234.196332471     A.U. after   11 cycles
 Normal termination of Gaussian 16 at Sat Apr  5 22:54:10 2025.
 Gaussian 16:  ES64L-G16RevC.01  3-Jul-2019

 ----------------------------------------------------------------------
 #t hf aug-cc-pvdz iop(5/13=1,5/36=2,99/5=2) pseudo=read geom=check gue
 ss=(read,tcheck) scf=(maxcycle=1)
 ----------------------------------------------------------------------
 -----
 title
 -----
 Structure from the checkpoint file:  "cis-1-3-dimethylcyclobutane.chk"
 Charge =  0 Multiplicity = 1

                         Standard orientation:
 ---------------------------------------------------------------------
 Center     Atomic      Atomic             Coordinates (Angstroms)
 Number     Number       Type             X           Y           Z
 ---------------------------------------------------------------------
      1          6           0       -1.077960    0.000000   -0.148679
      2          6           0        1.077960   -0.000000   -0.148679
      3          6           0        0.000000    1.086408   -0.403813
      4          6           0       -0.000000   -1.086408   -0.403813
      5          6           0        0.000000    2.344796    0.443912
      6          6           0       -0.000000   -2.344796    0.443912
      7          1           0       -1.394186    0.000000    0.897568
      8          1           0       -1.966460    0.000000   -0.780419
      9          1           0        1.394186   -0.000000    0.897568
     10          1           0        1.966460   -0.000000   -0.780419
     11          1           0        0.000000    1.356060   -1.462683
     12          1           0       -0.000000   -1.356060   -1.462683
     13          1           0        0.000000    2.098731    1.508187
     14          1           0       -0.000000   -2.098731    1.508187
     15          1           0        0.881667    2.958111    0.244413
     16          1           0       -0.881667    2.958111    0.244413
     17          1           0       -0.881667   -2.958111    0.244413
     18          1           0        0.881667   -2.958111    0.244413
 ---------------------------------------------------------------------

 SCF Done:  E(RHF) =  -234.270035606     A.U. after    2 cycles

 The electronic state is 1-A1.
 Alpha  occ. eigenvalues --  -11.22850 -11.22850 -11.21911 -11.21907 -11.21787
 Alpha  occ. eigenvalues --  -11.21786  -1.12341  -0.99782  -0.93260  -0.88960
 Alpha  occ. eigenvalues --   -0.79486  -0.74226  -0.65535  -0.59276  -0.58625
 Alpha  occ. eigenvalues --   -0.58194  -0.55421  -0.53483  -0.52999  -0.49072
 Alpha  occ. eigenvalues --   -0.44813  -0.44734  -0.42537  -0.41861
 Alpha virt. eigenvalues --    0.03584   0.04386   0.04573   0.04669   0.06530
 Alpha virt. eigenvalues --    0.06590   0.06677   0.06714   0.07170   0.08953
 Alpha virt. eigenvalues --    0.09153   0.09786   0.11943   0.13086   0.14792

 Mulliken charges:
               1
     1  C    0.753182
     2  C    0.753182
     3  C   -0.705876
     4  C   -0.705876
     5  C    0.617006
     6  C    0.617006
     7  H   -0.209613
     8  H   -0.134739
     9  H   -0.209613
    10  H   -0.134739
    11  H   -0.268651
    12  H   -0.268651
    13  H   -0.053927
    14  H   -0.053927
    15  H    0.001309
    16  H    0.001309
    17  H    0.001309
    18  H    0.001309
 Sum of Mulliken charges =  -0.00000

 Dipole moment (field-independent basis, Debye):
    X=              0.0000    Y=              0.0000    Z=             -0.1693  Tot=              0.1693

 Test job not archived.
 1\1\GINC-SE196\SP\RHF\Aug-CC-pVDZ\C6H12\OHZDE\05-Apr-2025\0\\#t hf aug
 -cc-pvdz iop(5/13=1,5/36=2,99/5=2) pseudo=read geom=check guess=(read,
 tcheck) scf=(maxcycle=1)\\title\\0,1\C,0,-1.07796,0.,-0.148679\C,0,1.0
 7796,0.,-0.148679\C,0,0.,1.086408,-0.403813\C,0,0.,-1.086408,-0.403813
 \C,0,0.,2.344796,0.443912\C,0,0.,-2.344796,0.443912\H,0,-1.394186,0.,0
 .897568\H,0,-1.96646,0.,-0.780419\H,0,1.394186,0.,0.897568\H,0,1.96646
 ,0.,-0.780419\H,0,0.,1.35606,-1.462683\H,0,0.,-1.35606,-1.462683\H,0,0
 .,2.098731,1.508187\H,0,0.,-2.098731,1.508187\H,0,0.881667,2.958111,0.

 Normal termination of Gaussian 16 at Sat Apr  5 22:54:37 2025.
