 Gaussian 16, Revision C.01,

 ----------------------------------------------------------------------
 #t hf aug-cc-pvdz symm=none int=(grid=ultrafine) guess=(read,tcheck) s
 table=(opt,rrhf)
 ----------------------------------------------------------------------
 -----
 title
 -----
 Symbolic Z-matrix:
 Charge =  0 Multiplicity = 1

 SCF Done:  E(RHF) =  -350.135596504     A.U. after   12 cycles
 Normal termination of Gaussian 16 at Sat Apr  5 22:55:48 2025.
 Gaussian 16:  ES64L-G16RevC.01  3-Jul-2019

 ----------------------------------------------------------------------
 #t hf aug-cc-pvdz iop(5/13=1,5/36=2,99/5=2) pseudo=read geom=check gue
 ss=(read,tcheck) scf=(maxcycle=1)
 ----------------------------------------------------------------------
 -----
 title
 -----
 Structure from the checkpoint file:  "cis-bicyclo-6-1-0-nonane.chk"
 Charge =  0 Multiplicity = 1

                         Standard orientation:
 ---------------------------------------------------------------------
 Center     Atomic      Atomic             Coordinates (Angstroms)
 Number     Number       Type             X           Y           Z
 ---------------------------------------------------------------------
      1          6           0        1.927322    0.636513   -0.258294
      2          6           0        1.743892   -0.637759    0.593827
      3          6           0        0.967529    1.802826    0.029936
      4          6           0        1.010427   -1.805008   -0.082822
      5          6           0       -0.389151   -1.492307   -0.630603
      6          6           0       -2.508959   -0.040026   -0.047710
      7          6           0       -1.316135    0.696622    0.507138
      8          6           0       -1.283474   -0.807165    0.375253
      9          6           0       -0.501762    1.619138   -0.377467
     10          1           0        1.877073    0.382557   -1.322304
     11          1           0        2.940001    1.013596   -0.097779
     12          1           0        1.232847   -0.376497    1.523302
     13          1           0        2.727826   -1.006927    0.892208
     14          1           0        1.350022    2.683406   -0.493672
     15          1           0        1.017205    2.045069    1.097068
     16          1           0        0.931656   -2.621757    0.641307
     17          1           0        1.627908   -2.187488   -0.901162
     18          1           0       -0.854124   -2.427139   -0.957440
     19          1           0       -2.696494    0.053458   -1.110254
     20          1           0       -1.427595    1.064908    1.521416
     21          1           0       -0.986303    2.600318   -0.368695
     22          1           0       -0.546416    1.282133   -1.416116
     23          1           0       -3.404364   -0.117946    0.553456
     24          1           0       -0.305848   -0.875995   -1.527448
     25          1           0       -1.381530   -1.348693    1.310563
 ---------------------------------------------------------------------

 SCF Done:  E(RHF) =  -350.242091510     A.U. after    2 cycles

 The electronic state is 1-A.
 Alpha  occ. eigenvalues --  -11.22914 -11.22847 -11.22417 -11.22263 -11.22257
 Alpha  occ. eigenvalues --  -11.22220 -11.22134 -11.22099 -11.21879  -1.13989
 Alpha  occ. eigenvalues --   -1.06343  -1.03341  -0.95253  -0.90953  -0.82361
 Alpha  occ. eigenvalues --   -0.79416  -0.77923  -0.72577  -0.67128  -0.63189
 Alpha  occ. eigenvalues --   -0.62529  -0.59389  -0.58231  -0.56876  -0.54744
 Alpha  occ. eigenvalues --   -0.52311  -0.50735  -0.49786  -0.48058  -0.47822
 Alpha  occ. eigenvalues --   -0.45219  -0.44934  -0.43882  -0.39329  -0.38625
 Alpha virt. eigenvalues --    0.03514   0.04066   0.04094   0.04283   0.05770
 Alpha virt. eigenvalues --    0.05909   0.06241   0.06332   0.06479   0.08393
 Alpha virt. eigenvalues --    0.08512   0.08672   0.09081   0.09170   0.09472

 Mulliken charges:
               1
     1  C    0.357852
     2  C    0.474871
     3  C    0.282684
     4  C    0.239720
     5  C    0.087588
     6  C    1.068098
     7  C    0.163892
     8  C    0.329117
     9  C    0.220354
    10  H   -0.156322
    11  H   -0.160074
    12  H   -0.133975
    13  H   -0.141149
    14  H   -0.108603
    15  H   -0.130727
    16  H   -0.094869
    17  H   -0.083513
    18  H   -0.112875
    19  H   -0.371364
    20  H   -0.479728
    21  H   -0.133324
    22  H   -0.090810
    23  H   -0.376512
    24  H   -0.107768
    25  H   -0.542563
 Sum of Mulliken charges =   0.00000

 Dipole moment (field-independent basis, Debye):
    X=              0.1477    Y=              0.0379    Z=              0.0538  Tot=              0.1617

 Test job not archived.
 1\1\GINC-SE232\SP\RHF\Aug-CC-pVDZ\C9H16\OHZDE\05-Apr-2025\0\\#t hf aug
 -cc-pvdz iop(5/13=1,5/36=2,99/5=2) pseudo=read geom=check guess=(read,
 tcheck) scf=(maxcycle=1)\\title\\0,1\C,0,1.927322,0.636513,-0.258294\C
 ,0,1.743892,-0.637759,0.593827\C,0,0.967529,1.802826,0.029936\C,0,1.01
 0427,-1.805008,-0.082822\C,0,-0.389151,-1.492307,-0.630603\C,0,-2.5089
 59,-0.040026,-0.04771\C,0,-1.316135,0.696622,0.507138\C,0,-1.283474,-0
 .807165,0.375253\C,0,-0.501762,1.619138,-0.377467\H,0,1.877073,0.38255
 7,-1.322304\H,0,2.940001,1.013596,-0.097779\H,0,1.232847,-0.376497,1.5

 Normal termination of Gaussian 16 at Sat Apr  5 22:56:06 2025.
