 Gaussian 16, Revision C.01,

 ----------------------------------------------------------------------
 #t hf aug-cc-pvdz symm=none int=(grid=ultrafine) guess=(read,tcheck) s
 table=(opt,rrhf)
 ----------------------------------------------------------------------
 -----
 title
 -----
 Symbolic Z-matrix:
 Charge =  0 Multiplicity = 1

 SCF Done:  E(RHF) =  -234.192901591     A.U. after   11 cycles
 Normal termination of Gaussian 16 at Sat Apr  5 22:54:11 2025.
 Gaussian 16:  ES64L-G16RevC.01  3-Jul-2019

 ----------------------------------------------------------------------
 #t hf aug-cc-pvdz iop(5/13=1,5/36=2,99/5=2) pseudo=read geom=check gue
 ss=(read,tcheck) scf=(maxcycle=1)
 ----------------------------------------------------------------------
 -----
 title
 -----
 Structure from the checkpoint file:  "cis-1-2-dimethylcyclobutane.chk"
 Charge =  0 Multiplicity = 1

                         Standard orientation:
 ---------------------------------------------------------------------
 Center     Atomic      Atomic             Coordinates (Angstroms)
 Number     Number       Type             X           Y           Z
 ---------------------------------------------------------------------
      1          6           0        0.636065    0.415283    0.571630
      2          6           0       -0.713037   -0.368475    0.430685
      3          6           0        1.364965   -0.856683    0.052791
      4          6           0        0.013200   -1.382989   -0.489869
      5          6           0        0.802735    1.630562   -0.331113
      6          6           0       -1.968744    0.323549   -0.068200
      7          1           0        0.880376    0.697694    1.597241
      8          1           0       -0.928293   -0.850203    1.387512
      9          1           0        2.167047   -0.700311   -0.668994
     10          1           0       -0.125626   -1.141655   -1.544800
     11          1           0        1.747856   -1.473016    0.866030
     12          1           0       -0.212001   -2.439705   -0.348512
     13          1           0        0.603423    1.391862   -1.377604
     14          1           0       -1.805638    0.816530   -1.027783
     15          1           0        0.132470    2.442392   -0.042514
     16          1           0        1.825302    2.008700   -0.271645
     17          1           0       -2.318826    1.078652    0.639323
     18          1           0       -2.777199   -0.398427   -0.203797
 ---------------------------------------------------------------------

 SCF Done:  E(RHF) =  -234.266433471     A.U. after    2 cycles

 The electronic state is 1-A.
 Alpha  occ. eigenvalues --  -11.22728 -11.22678 -11.22032 -11.21973 -11.21873
 Alpha  occ. eigenvalues --  -11.21736  -1.12205  -0.97957  -0.96384  -0.84683
 Alpha  occ. eigenvalues --   -0.83698  -0.71370  -0.66488  -0.61157  -0.59198
 Alpha  occ. eigenvalues --   -0.56885  -0.54464  -0.53412  -0.51992  -0.50518
 Alpha  occ. eigenvalues --   -0.45565  -0.44290  -0.41856  -0.41652
 Alpha virt. eigenvalues --    0.03563   0.04392   0.04579   0.04645   0.06523
 Alpha virt. eigenvalues --    0.06657   0.06776   0.06837   0.06920   0.09165
 Alpha virt. eigenvalues --    0.09532   0.09609   0.12733   0.13620   0.13840

 Mulliken charges:
               1
     1  C   -0.399717
     2  C   -0.505178
     3  C    0.737516
     4  C    0.558914
     5  C    0.630251
     6  C    0.588557
     7  H   -0.285603
     8  H   -0.227504
     9  H   -0.224233
    10  H   -0.242171
    11  H   -0.214507
    12  H   -0.184767
    13  H   -0.048762
    14  H   -0.021597
    15  H   -0.035421
    16  H   -0.093992
    17  H    0.002745
    18  H   -0.034532
 Sum of Mulliken charges =  -0.00000

 Dipole moment (field-independent basis, Debye):
    X=             -0.0297    Y=              0.0158    Z=              0.1462  Tot=              0.1500

 Test job not archived.
 1\1\GINC-SE196\SP\RHF\Aug-CC-pVDZ\C6H12\OHZDE\05-Apr-2025\0\\#t hf aug
 -cc-pvdz iop(5/13=1,5/36=2,99/5=2) pseudo=read geom=check guess=(read,
 tcheck) scf=(maxcycle=1)\\title\\0,1\C,0,0.636065,0.415283,0.57163\C,0
 ,-0.713037,-0.368475,0.430685\C,0,1.364965,-0.856683,0.052791\C,0,0.01
 32,-1.382989,-0.489869\C,0,0.802735,1.630562,-0.331113\C,0,-1.968744,0
 .323549,-0.0682\H,0,0.880376,0.697694,1.597241\H,0,-0.928293,-0.850203
 ,1.387512\H,0,2.167047,-0.700311,-0.668994\H,0,-0.125626,-1.141655,-1.
 5448\H,0,1.747856,-1.473016,0.86603\H,0,-0.212001,-2.439705,-0.348512\

 Normal termination of Gaussian 16 at Sat Apr  5 22:54:40 2025.
