 Gaussian 16, Revision C.01,

 ----------------------------------------------------------------------
 #t hf aug-cc-pvdz symm=none int=(grid=ultrafine) guess=(read,tcheck) s
 table=(opt,rrhf)
 ----------------------------------------------------------------------
 -----
 title
 -----
 Symbolic Z-matrix:
 Charge =  0 Multiplicity = 1

 SCF Done:  E(RHF) =  -231.794280115     A.U. after   12 cycles
 Normal termination of Gaussian 16 at Sat Apr  5 22:53:55 2025.
 Gaussian 16:  ES64L-G16RevC.01  3-Jul-2019

 ----------------------------------------------------------------------
 #t hf aug-cc-pvdz iop(5/13=1,5/36=2,99/5=2) pseudo=read geom=check gue
 ss=(read,tcheck) scf=(maxcycle=1)
 ----------------------------------------------------------------------
 -----
 title
 -----
 Structure from the checkpoint file:  "cis-2-3-4-hexatriene.chk"
 Charge =  0 Multiplicity = 1

                         Standard orientation:
 ---------------------------------------------------------------------
 Center     Atomic      Atomic             Coordinates (Angstroms)
 Number     Number       Type             X           Y           Z
 ---------------------------------------------------------------------
      1          1           0        0.000000    2.213829    1.634446
      2          1           0        0.877402    3.463699    0.738497
      3          1           0       -0.877402    3.463699    0.738497
      4          1           0       -0.000000   -2.213829    1.634446
      5          1           0        0.877402   -3.463699    0.738497
      6          1           0       -0.877402   -3.463699    0.738497
      7          6           0        0.000000    2.811524    0.725249
      8          6           0       -0.000000   -2.811524    0.725249
      9          1           0        0.000000    2.459711   -1.459498
     10          1           0       -0.000000   -2.459711   -1.459498
     11          6           0        0.000000   -0.631593   -0.499294
     12          6           0        0.000000    0.631593   -0.499294
     13          6           0        0.000000    1.946711   -0.501278
     14          6           0       -0.000000   -1.946711   -0.501278
 ---------------------------------------------------------------------

 SCF Done:  E(RHF) =  -231.869668318     A.U. after    2 cycles

 The electronic state is 1-A1.
 Alpha  occ. eigenvalues --  -11.26091 -11.26080 -11.25329 -11.25070 -11.23875
 Alpha  occ. eigenvalues --  -11.23875  -1.09086  -1.05058  -0.97605  -0.90366
 Alpha  occ. eigenvalues --   -0.83826  -0.68328  -0.66430  -0.58614  -0.57866
 Alpha  occ. eigenvalues --   -0.57707  -0.57368  -0.53236  -0.53128  -0.45662
 Alpha  occ. eigenvalues --   -0.36684  -0.31139
 Alpha virt. eigenvalues --    0.03527   0.03818   0.04725   0.05781   0.05923
 Alpha virt. eigenvalues --    0.06333   0.06393   0.08433   0.08945   0.10650
 Alpha virt. eigenvalues --    0.12181   0.12607   0.13370   0.13702   0.13943

 Mulliken charges:
               1
     1  H   -0.160160
     2  H    0.027775
     3  H    0.027775
     4  H   -0.160160
     5  H    0.027775
     6  H    0.027775
     7  C    0.231457
     8  C    0.231457
     9  H   -0.289260
    10  H   -0.289260
    11  C   -0.234739
    12  C   -0.234739
    13  C    0.397153
    14  C    0.397153
 Sum of Mulliken charges =  -0.00000

 Dipole moment (field-independent basis, Debye):
    X=             -0.0000    Y=             -0.0000    Z=              0.4162  Tot=              0.4162

 Test job not archived.
 1\1\GINC-SE231\SP\RHF\Aug-CC-pVDZ\C6H8\OHZDE\05-Apr-2025\0\\#t hf aug-
 cc-pvdz iop(5/13=1,5/36=2,99/5=2) pseudo=read geom=check guess=(read,t
 check) scf=(maxcycle=1)\\title\\0,1\H,0,0.,2.213829,1.634446\H,0,0.877
 402,3.463699,0.738497\H,0,-0.877402,3.463699,0.738497\H,0,0.,-2.213829
 ,1.634446\H,0,0.877402,-3.463699,0.738497\H,0,-0.877402,-3.463699,0.73
 8497\C,0,0.,2.811524,0.725249\C,0,0.,-2.811524,0.725249\H,0,0.,2.45971
 1,-1.459498\H,0,0.,-2.459711,-1.459498\C,0,0.,-0.631593,-0.499294\C,0,
 0.,0.631593,-0.499294\C,0,0.,1.946711,-0.501278\C,0,0.,-1.946711,-0.50

 Normal termination of Gaussian 16 at Sat Apr  5 22:53:59 2025.
