 Gaussian 16, Revision C.01,

 ----------------------------------------------------------------------
 #t hf aug-cc-pvdz symm=none int=(grid=ultrafine) guess=(read,tcheck) s
 table=(opt,rrhf)
 ----------------------------------------------------------------------
 -----
 title
 -----
 Symbolic Z-matrix:
 Charge =  0 Multiplicity = 1

 SCF Done:  E(RHF) =  -304.742669837     A.U. after   14 cycles
 Normal termination of Gaussian 16 at Sat Apr  5 22:53:47 2025.
 Gaussian 16:  ES64L-G16RevC.01  3-Jul-2019

 ----------------------------------------------------------------------
 #t hf aug-cc-pvdz iop(5/13=1,5/36=2,99/5=2) pseudo=read geom=check gue
 ss=(read,tcheck) scf=(maxcycle=1)
 ----------------------------------------------------------------------
 -----
 title
 -----
 Structure from the checkpoint file:  "crotonoic_acid.chk"
 Charge =  0 Multiplicity = 1

                         Standard orientation:
 ---------------------------------------------------------------------
 Center     Atomic      Atomic             Coordinates (Angstroms)
 Number     Number       Type             X           Y           Z
 ---------------------------------------------------------------------
      1          6           0       -2.749597   -0.147991    0.000003
      2          6           0       -1.333822    0.314316    0.000006
      3          6           0       -0.264018   -0.479484   -0.000015
      4          6           0        1.099386    0.081029   -0.000004
      5          8           0        1.398388    1.251758   -0.000006
      6          8           0        2.037208   -0.903645    0.000010
      7          1           0       -2.827857   -1.234217   -0.000022
      8          1           0       -3.278292    0.239886    0.874582
      9          1           0       -3.278303    0.239927   -0.874551
     10          1           0       -1.161440    1.385990    0.000028
     11          1           0       -0.351243   -1.557948   -0.000032
     12          1           0        2.900674   -0.465762    0.000017
 ---------------------------------------------------------------------

 SCF Done:  E(RHF) =  -304.840422832     A.U. after    2 cycles

 The electronic state is 1-A.
 Alpha  occ. eigenvalues --  -20.62165 -20.55700 -11.39844 -11.27860 -11.25248
 Alpha  occ. eigenvalues --  -11.25100  -1.41944  -1.32043  -1.09607  -0.98530
 Alpha  occ. eigenvalues --   -0.87301  -0.76336  -0.71722  -0.71177  -0.64298
 Alpha  occ. eigenvalues --   -0.62285  -0.60999  -0.58957  -0.56104  -0.52940
 Alpha  occ. eigenvalues --   -0.50432  -0.46977  -0.38811
 Alpha virt. eigenvalues --    0.03220   0.04193   0.04875   0.05547   0.06283
 Alpha virt. eigenvalues --    0.07739   0.08425   0.11186   0.11399   0.11923
 Alpha virt. eigenvalues --    0.13048   0.13181   0.14872   0.15538   0.16346

 Mulliken charges:
               1
     1  C    0.284861
     2  C    0.062951
     3  C    0.891798
     4  C    0.284510
     5  O   -0.494158
     6  O   -0.527911
     7  H   -0.103971
     8  H    0.077094
     9  H    0.077094
    10  H   -0.385409
    11  H   -0.382602
    12  H    0.215742
 Sum of Mulliken charges =  -0.00000

 Dipole moment (field-independent basis, Debye):
    X=             -1.9871    Y=             -1.4408    Z=              0.0000  Tot=              2.4545

 Test job not archived.
 1\1\GINC-SE180\SP\RHF\Aug-CC-pVDZ\C4H6O2\OHZDE\05-Apr-2025\0\\#t hf au
 g-cc-pvdz iop(5/13=1,5/36=2,99/5=2) pseudo=read geom=check guess=(read
 ,tcheck) scf=(maxcycle=1)\\title\\0,1\C,0,-2.749597,-0.147991,0.000003
 \C,0,-1.333822,0.314316,0.000006\C,0,-0.264018,-0.479484,-0.000015\C,0
 ,1.099386,0.081029,-0.000004\O,0,1.398388,1.251758,-0.000006\O,0,2.037
 208,-0.903645,0.00001\H,0,-2.827857,-1.234217,-0.000022\H,0,-3.278292,
 0.239886,0.874582\H,0,-3.278303,0.239927,-0.874551\H,0,-1.16144,1.3859
 9,0.000028\H,0,-0.351243,-1.557948,-0.000032\H,0,2.900674,-0.465762,0.

 Normal termination of Gaussian 16 at Sat Apr  5 22:53:51 2025.
