 Gaussian 16, Revision C.01,

 ----------------------------------------------------------------------
 #t hf aug-cc-pvdz symm=none int=(grid=ultrafine) guess=(read,tcheck) s
 table=(opt,rrhf)
 ----------------------------------------------------------------------
 -----
 title
 -----
 Symbolic Z-matrix:
 Charge =  0 Multiplicity = 1

 SCF Done:  E(RHF) =  -307.424632065     A.U. after   10 cycles
 Normal termination of Gaussian 16 at Sat Apr  5 22:54:32 2025.
 Gaussian 16:  ES64L-G16RevC.01  3-Jul-2019

 ----------------------------------------------------------------------
 #t hf aug-cc-pvdz iop(5/13=1,5/36=2,99/5=2) pseudo=read geom=check gue
 ss=(read,tcheck) scf=(maxcycle=1)
 ----------------------------------------------------------------------
 -----
 title
 -----
 Structure from the checkpoint file:  "cubane.chk"
 Charge =  0 Multiplicity = 1

                         Standard orientation:
 ---------------------------------------------------------------------
 Center     Atomic      Atomic             Coordinates (Angstroms)
 Number     Number       Type             X           Y           Z
 ---------------------------------------------------------------------
      1          6           0        0.783809    0.783809    0.783809
      2          6           0       -0.783809    0.783809    0.783809
      3          6           0        0.783809    0.783809   -0.783809
      4          6           0       -0.783809    0.783809   -0.783809
      5          6           0        0.783809   -0.783809    0.783809
      6          6           0       -0.783809   -0.783809    0.783809
      7          6           0        0.783809   -0.783809   -0.783809
      8          6           0       -0.783809   -0.783809   -0.783809
      9          1           0        1.410999    1.410999    1.410999
     10          1           0       -1.410999    1.410999    1.410999
     11          1           0        1.410999    1.410999   -1.410999
     12          1           0       -1.410999    1.410999   -1.410999
     13          1           0        1.410999   -1.410999    1.410999
     14          1           0       -1.410999   -1.410999    1.410999
     15          1           0        1.410999   -1.410999   -1.410999
     16          1           0       -1.410999   -1.410999   -1.410999
 ---------------------------------------------------------------------

 SCF Done:  E(RHF) =  -307.508061142     A.U. after    2 cycles

 The electronic state is 1-A1G.
 Alpha  occ. eigenvalues --  -11.22901 -11.22863 -11.22863 -11.22863 -11.22840
 Alpha  occ. eigenvalues --  -11.22840 -11.22840 -11.22796  -1.23093  -0.97209
 Alpha  occ. eigenvalues --   -0.97209  -0.97209  -0.76755  -0.76755  -0.76755
 Alpha  occ. eigenvalues --   -0.71357  -0.64318  -0.58331  -0.58331  -0.58331
 Alpha  occ. eigenvalues --   -0.58244  -0.58244  -0.39374  -0.39374  -0.39374
 Alpha  occ. eigenvalues --   -0.38696  -0.38696  -0.38696
 Alpha virt. eigenvalues --    0.03293   0.04212   0.04212   0.04212   0.05846
 Alpha virt. eigenvalues --    0.05846   0.05846   0.08515   0.11757   0.11757
 Alpha virt. eigenvalues --    0.11757   0.12175   0.12175   0.14926   0.15046

 Mulliken charges:
               1
     1  C    0.376177
     2  C    0.376177
     3  C    0.376177
     4  C    0.376177
     5  C    0.376177
     6  C    0.376177
     7  C    0.376177
     8  C    0.376177
     9  H   -0.376177
    10  H   -0.376177
    11  H   -0.376177
    12  H   -0.376177
    13  H   -0.376177
    14  H   -0.376177
    15  H   -0.376177
    16  H   -0.376177
 Sum of Mulliken charges =   0.00000

 Dipole moment (field-independent basis, Debye):
    X=              0.0000    Y=             -0.0000    Z=             -0.0000  Tot=              0.0000

 Test job not archived.
 1\1\GINC-SE225\SP\RHF\Aug-CC-pVDZ\C8H8\OHZDE\05-Apr-2025\0\\#t hf aug-
 cc-pvdz iop(5/13=1,5/36=2,99/5=2) pseudo=read geom=check guess=(read,t
 check) scf=(maxcycle=1)\\title\\0,1\C,0,0.783809,0.783809,0.783809\C,0
 ,-0.783809,0.783809,0.783809\C,0,0.783809,0.783809,-0.783809\C,0,-0.78
 3809,0.783809,-0.783809\C,0,0.783809,-0.783809,0.783809\C,0,-0.783809,
 -0.783809,0.783809\C,0,0.783809,-0.783809,-0.783809\C,0,-0.783809,-0.7
 83809,-0.783809\H,0,1.410999,1.410999,1.410999\H,0,-1.410999,1.410999,
 1.410999\H,0,1.410999,1.410999,-1.410999\H,0,-1.410999,1.410999,-1.410

 Normal termination of Gaussian 16 at Sat Apr  5 22:54:38 2025.
