 Gaussian 16, Revision C.01,

 ----------------------------------------------------------------------
 #t hf aug-cc-pvdz symm=none int=(grid=ultrafine) guess=(read,tcheck) s
 table=(opt,rrhf)
 ----------------------------------------------------------------------
 -----
 title
 -----
 Symbolic Z-matrix:
 Charge =  0 Multiplicity = 1

 SCF Done:  E(RHF) =  -167.753026488     A.U. after   13 cycles
 Normal termination of Gaussian 16 at Sat Apr  5 22:53:36 2025.
 Gaussian 16:  ES64L-G16RevC.01  3-Jul-2019

 ----------------------------------------------------------------------
 #t hf aug-cc-pvdz iop(5/13=1,5/36=2,99/5=2) pseudo=read geom=check gue
 ss=(read,tcheck) scf=(maxcycle=1)
 ----------------------------------------------------------------------
 -----
 title
 -----
 Structure from the checkpoint file:  "cyanic_acid.chk"
 Charge =  0 Multiplicity = 1

                         Standard orientation:
 ---------------------------------------------------------------------
 Center     Atomic      Atomic             Coordinates (Angstroms)
 Number     Number       Type             X           Y           Z
 ---------------------------------------------------------------------
      1          7           0        0.042434    1.333654   -0.000000
      2          6           0        0.000000    0.181234   -0.000000
      3          8           0       -0.128988   -1.109677    0.000000
      4          1           0        0.734865   -1.545562    0.000000
 ---------------------------------------------------------------------

 SCF Done:  E(RHF) =  -167.807000793     A.U. after    2 cycles

 The electronic state is 1-A'.
 Alpha  occ. eigenvalues --  -20.69794 -15.64710 -11.36350  -1.46355  -1.20104
 Alpha  occ. eigenvalues --   -0.89714  -0.73595  -0.69051  -0.56150  -0.47602
 Alpha  occ. eigenvalues --   -0.46090
 Alpha virt. eigenvalues --    0.01612   0.08586   0.08838   0.09028   0.11381
 Alpha virt. eigenvalues --    0.17167   0.18170   0.18702   0.20121   0.23295
 Alpha virt. eigenvalues --    0.23863   0.27393   0.27888   0.29126   0.30069

 Mulliken charges:
               1
     1  N   -0.055333
     2  C    0.040326
     3  O   -0.229341
     4  H    0.244348
 Sum of Mulliken charges =  -0.00000

 Dipole moment (field-independent basis, Debye):
    X=              1.5529    Y=             -3.6401    Z=              0.0000  Tot=              3.9575

 Test job not archived.
 1\1\GINC-SE106\SP\RHF\Aug-CC-pVDZ\C1H1N1O1\OHZDE\05-Apr-2025\0\\#t hf
 aug-cc-pvdz iop(5/13=1,5/36=2,99/5=2) pseudo=read geom=check guess=(re
 ad,tcheck) scf=(maxcycle=1)\\title\\0,1\N,0,0.042436,1.333654,0.\C,0,0
 .,0.181234,0.\O,0,-0.12899,-1.109677,0.\H,0,0.734862,-1.545563,0.\\Ver
 sion=ES64L-G16RevC.01\State=1-A'\HF=-167.8070008\RMSD=2.770e-03\Dipole
 =0.6109501,-1.4321348,0.\Quadrupole=1.2546139,-1.2785416,0.0239277,-2.
 3964519,0.,0.\PG=CS [SG(C1H1N1O1)]\\@

 Normal termination of Gaussian 16 at Sat Apr  5 22:53:37 2025.
