 Gaussian 16, Revision C.01,

 ----------------------------------------------------------------------
 #t hf aug-cc-pvdz symm=none int=(grid=ultrafine) guess=(read,tcheck) s
 table=(opt,rrhf)
 ----------------------------------------------------------------------
 -----
 title
 -----
 Symbolic Z-matrix:
 Charge =  0 Multiplicity = 1

 SCF Done:  E(RHF) =  -831.004208198     A.U. after   15 cycles
 Normal termination of Gaussian 16 at Sat Apr  5 22:54:30 2025.
 Gaussian 16:  ES64L-G16RevC.01  3-Jul-2019

 ----------------------------------------------------------------------
 #t hf aug-cc-pvdz iop(5/13=1,5/36=2,99/5=2) pseudo=read geom=check gue
 ss=(read,tcheck) scf=(maxcycle=1)
 ----------------------------------------------------------------------
 -----
 title
 -----
 Structure from the checkpoint file:  "cyanomethylsulfanylhydroxyacetic_acid.chk"
 Charge =  0 Multiplicity = 1

                         Standard orientation:
 ---------------------------------------------------------------------
 Center     Atomic      Atomic             Coordinates (Angstroms)
 Number     Number       Type             X           Y           Z
 ---------------------------------------------------------------------
      1         16           0       -0.536792   -0.543833   -0.276416
      2          8           0        0.866478    1.705968    0.049598
      3          8           0        2.489216   -1.419387    0.583107
      4          8           0        2.845768    0.218453   -0.891343
      5          7           0       -4.192497   -0.407208   -0.402880
      6          6           0        0.859914    0.349946    0.489306
      7          6           0        2.146941   -0.391213    0.076767
      8          6           0       -1.899041    0.431745    0.492309
      9          6           0       -3.177957   -0.037706   -0.008686
     10          1           0        1.217959    2.266909    0.750986
     11          1           0        2.393223    1.045651   -1.126008
     12          1           0        0.773010    0.288303    1.574137
     13          1           0       -1.868393    0.311523    1.575605
     14          1           0       -1.770497    1.482491    0.239021
 ---------------------------------------------------------------------

 SCF Done:  E(RHF) =  -831.157631982     A.U. after    2 cycles

 The electronic state is 1-A.
 Alpha  occ. eigenvalues --  -93.58490 -20.65058 -20.64547 -20.58628 -15.65907
 Alpha  occ. eigenvalues --  -11.42673 -11.38848 -11.34473 -11.30874  -8.88179
 Alpha  occ. eigenvalues --   -6.22334  -6.22093  -6.21707  -1.45041  -1.39716
 Alpha  occ. eigenvalues --   -1.35798  -1.21619  -1.11225  -1.03753  -0.90375
 Alpha  occ. eigenvalues --   -0.85722  -0.79745  -0.78531  -0.72398  -0.70186
 Alpha  occ. eigenvalues --   -0.67966  -0.67471  -0.64302  -0.62202  -0.59235
 Alpha  occ. eigenvalues --   -0.58310  -0.56246  -0.52259  -0.50564  -0.48268
 Alpha  occ. eigenvalues --   -0.47923  -0.46453  -0.39579
 Alpha virt. eigenvalues --    0.01134   0.03445   0.04144   0.05018   0.06349
 Alpha virt. eigenvalues --    0.07734   0.08422   0.09268   0.10224   0.10622
 Alpha virt. eigenvalues --    0.10820   0.11972   0.12261   0.13392   0.13646

 Mulliken charges:
               1
     1  S    0.508569
     2  O   -0.634331
     3  O   -0.437374
     4  O   -0.470760
     5  N   -0.114667
     6  C    0.255280
     7  C    0.649551
     8  C    0.268324
     9  C   -0.408475
    10  H    0.194148
    11  H    0.237422
    12  H   -0.103786
    13  H   -0.002650
    14  H    0.058750
 Sum of Mulliken charges =  -0.00000

 Dipole moment (field-independent basis, Debye):
    X=              1.2346    Y=              5.7733    Z=              2.8908  Tot=              6.5736

 Test job not archived.
 1\1\GINC-SE188\SP\RHF\Aug-CC-pVDZ\C4H5N1O3S1\OHZDE\05-Apr-2025\0\\#t h
 f aug-cc-pvdz iop(5/13=1,5/36=2,99/5=2) pseudo=read geom=check guess=(
 read,tcheck) scf=(maxcycle=1)\\title\\0,1\S,0,-0.536792,-0.543833,-0.2
 76416\O,0,0.866478,1.705968,0.049598\O,0,2.489216,-1.419387,0.583107\O
 ,0,2.845768,0.218453,-0.891343\N,0,-4.192497,-0.407208,-0.40288\C,0,0.
 859914,0.349946,0.489306\C,0,2.146941,-0.391213,0.076767\C,0,-1.899041
 ,0.431745,0.492309\C,0,-3.177957,-0.037706,-0.008686\H,0,1.217959,2.26
 6909,0.750986\H,0,2.393223,1.045651,-1.126008\H,0,0.77301,0.288303,1.5

 Normal termination of Gaussian 16 at Sat Apr  5 22:54:39 2025.
