 Gaussian 16, Revision C.01,

 ----------------------------------------------------------------------
 #t hf aug-cc-pvdz symm=none int=(grid=ultrafine) guess=(read,tcheck) s
 table=(opt,rrhf)
 ----------------------------------------------------------------------
 -----
 title
 -----
 Symbolic Z-matrix:
 Charge =  0 Multiplicity = 1

 SCF Done:  E(RHF) =  -411.318218191     A.U. after   15 cycles
 Normal termination of Gaussian 16 at Sat Apr  5 22:53:52 2025.
 Gaussian 16:  ES64L-G16RevC.01  3-Jul-2019

 ----------------------------------------------------------------------
 #t hf aug-cc-pvdz iop(5/13=1,5/36=2,99/5=2) pseudo=read geom=check gue
 ss=(read,tcheck) scf=(maxcycle=1)
 ----------------------------------------------------------------------
 -----
 title
 -----
 Structure from the checkpoint file:  "cyanoacetyl_isocyanate.chk"
 Charge =  0 Multiplicity = 1

                         Standard orientation:
 ---------------------------------------------------------------------
 Center     Atomic      Atomic             Coordinates (Angstroms)
 Number     Number       Type             X           Y           Z
 ---------------------------------------------------------------------
      1          8           0       -0.110702    1.322911   -0.000131
      2          8           0        3.466618    0.112051   -0.000002
      3          7           0        1.198390   -0.579867    0.000060
      4          7           0       -3.543633    0.280825   -0.000038
      5          6           0       -1.194850   -0.840419    0.000081
      6          6           0       -0.022543    0.130129   -0.000013
      7          6           0       -2.498057   -0.193546    0.000012
      8          6           0        2.344250   -0.163499    0.000022
      9          1           0       -1.101710   -1.491289   -0.872483
     10          1           0       -1.101714   -1.491113    0.872777
 ---------------------------------------------------------------------

 SCF Done:  E(RHF) =  -411.444645195     A.U. after    2 cycles

 The electronic state is 1-A.
 Alpha  occ. eigenvalues --  -20.68680 -20.61515 -15.69858 -15.65705 -11.47920
 Alpha  occ. eigenvalues --  -11.44561 -11.33486 -11.30557  -1.49211  -1.42865
 Alpha  occ. eigenvalues --   -1.28250  -1.21382  -1.10073  -0.94321  -0.79828
 Alpha  occ. eigenvalues --   -0.76237  -0.74753  -0.72361  -0.69879  -0.68670
 Alpha  occ. eigenvalues --   -0.68507  -0.59768  -0.56360  -0.54821  -0.49762
 Alpha  occ. eigenvalues --   -0.48795  -0.47942  -0.47709
 Alpha virt. eigenvalues --    0.02285   0.03896   0.05173   0.06909   0.07624
 Alpha virt. eigenvalues --    0.08583   0.08831   0.09389   0.11106   0.11135
 Alpha virt. eigenvalues --    0.11706   0.12609   0.13543   0.14343   0.15274

 Mulliken charges:
               1
     1  O   -0.380123
     2  O   -0.122984
     3  N   -0.106392
     4  N   -0.173099
     5  C    0.289668
     6  C    0.470089
     7  C   -0.134875
     8  C   -0.125776
     9  H    0.141746
    10  H    0.141747
 Sum of Mulliken charges =  -0.00000

 Dipole moment (field-independent basis, Debye):
    X=              2.2449    Y=             -4.0389    Z=              0.0004  Tot=              4.6209

 Test job not archived.
 1\1\GINC-SE108\SP\RHF\Aug-CC-pVDZ\C4H2N2O2\OHZDE\05-Apr-2025\0\\#t hf
 aug-cc-pvdz iop(5/13=1,5/36=2,99/5=2) pseudo=read geom=check guess=(re
 ad,tcheck) scf=(maxcycle=1)\\title\\0,1\O,0,-0.110702,1.322911,-0.0001
 31\O,0,3.466618,0.112051,-0.000002\N,0,1.19839,-0.579867,0.00006\N,0,-
 3.543633,0.280825,-0.000038\C,0,-1.19485,-0.840419,0.000081\C,0,-0.022
 543,0.130129,-0.000013\C,0,-2.498057,-0.193546,0.000012\C,0,2.34425,-0
 .163499,0.000022\H,0,-1.10171,-1.491289,-0.872483\H,0,-1.101714,-1.491
 113,0.872777\\Version=ES64L-G16RevC.01\State=1-A\HF=-411.4446452\RMSD=

 Normal termination of Gaussian 16 at Sat Apr  5 22:53:56 2025.
