 Gaussian 16, Revision C.01,

 ----------------------------------------------------------------------
 #t hf aug-cc-pvdz symm=none int=(grid=ultrafine) guess=(read,tcheck) s
 table=(opt,rrhf)
 ----------------------------------------------------------------------
 -----
 title
 -----
 Symbolic Z-matrix:
 Charge =  0 Multiplicity = 1

 SCF Done:  E(RHF) =  -147.935561219     A.U. after   12 cycles
 Normal termination of Gaussian 16 at Sat Apr  5 22:53:39 2025.
 Gaussian 16:  ES64L-G16RevC.01  3-Jul-2019

 ----------------------------------------------------------------------
 #t hf aug-cc-pvdz iop(5/13=1,5/36=2,99/5=2) pseudo=read geom=check gue
 ss=(read,tcheck) scf=(maxcycle=1)
 ----------------------------------------------------------------------
 -----
 title
 -----
 Structure from the checkpoint file:  "cyanamide.chk"
 Charge =  0 Multiplicity = 1

                         Standard orientation:
 ---------------------------------------------------------------------
 Center     Atomic      Atomic             Coordinates (Angstroms)
 Number     Number       Type             X           Y           Z
 ---------------------------------------------------------------------
      1          7           0       -1.375785    0.000002    0.012410
      2          7           0        1.116606    0.000001   -0.079764
      3          6           0       -0.221237   -0.000004   -0.000219
      4          1           0        1.570840    0.843614    0.236395
      5          1           0        1.570840   -0.843611    0.236395
 ---------------------------------------------------------------------

 SCF Done:  E(RHF) =  -147.981023155     A.U. after    2 cycles

 The electronic state is 1-A.
 Alpha  occ. eigenvalues --  -15.69735 -15.63152 -11.32304  -1.25217  -1.16437
 Alpha  occ. eigenvalues --   -0.79731  -0.74611  -0.57510  -0.54560  -0.46550
 Alpha  occ. eigenvalues --   -0.41189
 Alpha virt. eigenvalues --    0.01932   0.04200   0.08941   0.09291   0.11707
 Alpha virt. eigenvalues --    0.12406   0.15612   0.16719   0.18177   0.19030
 Alpha virt. eigenvalues --    0.21221   0.22909   0.26162   0.27059   0.29416

 Mulliken charges:
               1
     1  N   -0.100081
     2  N   -0.008922
     3  C   -0.067985
     4  H    0.088494
     5  H    0.088494
 Sum of Mulliken charges =  -0.00000

 Dipole moment (field-independent basis, Debye):
    X=              4.5971    Y=             -0.0000    Z=              0.9692  Tot=              4.6982

 Test job not archived.
 1\1\GINC-SE225\SP\RHF\Aug-CC-pVDZ\C1H2N2\OHZDE\05-Apr-2025\0\\#t hf au
 g-cc-pvdz iop(5/13=1,5/36=2,99/5=2) pseudo=read geom=check guess=(read
 ,tcheck) scf=(maxcycle=1)\\title\\0,1\N,0,-1.375785,0.000002,0.01241\N
 ,0,1.116606,0.000001,-0.079764\C,0,-0.221237,-0.000004,-0.000219\H,0,1
 .57084,0.843614,0.236395\H,0,1.57084,-0.843611,0.236395\\Version=ES64L
 -G16RevC.01\State=1-A\HF=-147.9810232\RMSD=2.306e-03\Dipole=1.8086414,
 -0.0000006,0.3813265\Quadrupole=-0.9549452,1.7768114,-0.8218662,0.0000
 079,1.4106145,0.0000013\PG=C01 [X(C1H2N2)]\\@

 Normal termination of Gaussian 16 at Sat Apr  5 22:53:41 2025.
