 Gaussian 16, Revision C.01,

 ----------------------------------------------------------------------
 #t hf aug-cc-pvdz symm=none int=(grid=ultrafine) guess=(read,tcheck) s
 table=(opt,rrhf)
 ----------------------------------------------------------------------
 -----
 title
 -----
 Symbolic Z-matrix:
 Charge =  0 Multiplicity = 1

 SCF Done:  E(RHF) =  -184.611153465     A.U. after   10 cycles
 Normal termination of Gaussian 16 at Sat Apr  5 22:53:39 2025.
 Gaussian 16:  ES64L-G16RevC.01  3-Jul-2019

 ----------------------------------------------------------------------
 #t hf aug-cc-pvdz iop(5/13=1,5/36=2,99/5=2) pseudo=read geom=check gue
 ss=(read,tcheck) scf=(maxcycle=1)
 ----------------------------------------------------------------------
 -----
 title
 -----
 Structure from the checkpoint file:  "cyanogen.chk"
 Charge =  0 Multiplicity = 1

                         Standard orientation:
 ---------------------------------------------------------------------
 Center     Atomic      Atomic             Coordinates (Angstroms)
 Number     Number       Type             X           Y           Z
 ---------------------------------------------------------------------
      1          6           0        0.000000    0.000000    0.687813
      2          6           0        0.000000    0.000000   -0.687813
      3          7           0        0.000000    0.000000    1.839967
      4          7           0        0.000000    0.000000   -1.839967
 ---------------------------------------------------------------------

 SCF Done:  E(RHF) =  -184.665548777     A.U. after    2 cycles

 The electronic state is 1-SGG.
 Alpha  occ. eigenvalues --  -15.72396 -15.72394 -11.36843 -11.36739  -1.27772
 Alpha  occ. eigenvalues --   -1.25075  -0.98044  -0.62761  -0.61341  -0.60342
 Alpha  occ. eigenvalues --   -0.60342  -0.49583  -0.49583
 Alpha virt. eigenvalues --    0.05522   0.05522   0.05822   0.07202   0.09370
 Alpha virt. eigenvalues --    0.09370   0.12274   0.12382   0.12382   0.19908
 Alpha virt. eigenvalues --    0.21263   0.23438   0.23438   0.25280   0.25280

 Mulliken charges:
               1
     1  C    0.074863
     2  C    0.074863
     3  N   -0.074863
     4  N   -0.074863
 Sum of Mulliken charges =   0.00000

 Dipole moment (field-independent basis, Debye):
    X=              0.0000    Y=              0.0000    Z=             -0.0000  Tot=              0.0000

 Test job not archived.
 1\1\GINC-SE145\SP\RHF\Aug-CC-pVDZ\C2N2\OHZDE\05-Apr-2025\0\\#t hf aug-
 cc-pvdz iop(5/13=1,5/36=2,99/5=2) pseudo=read geom=check guess=(read,t
 check) scf=(maxcycle=1)\\title\\0,1\C,0,0.,0.,0.687813\C,0,0.,0.,-0.68
 7813\N,0,0.,0.,1.839967\N,0,0.,0.,-1.839967\\Version=ES64L-G16RevC.01\
 State=1-SGG\HF=-184.6655488\RMSD=1.175e-02\Dipole=0.,0.,0.\Quadrupole=
 2.2527326,2.2527326,-4.5054652,0.,0.,0.\PG=D*H [C*(N1C1.C1N1)]\\@

 Normal termination of Gaussian 16 at Sat Apr  5 22:53:41 2025.
