 Gaussian 16, Revision C.01,

 ----------------------------------------------------------------------
 #t hf aug-cc-pvdz symm=none int=(grid=ultrafine) guess=(read,tcheck) s
 table=(opt,rrhf)
 ----------------------------------------------------------------------
 -----
 title
 -----
 Symbolic Z-matrix:
 Charge =  0 Multiplicity = 1

 SCF Done:  E(RHF) =  -551.795905064     A.U. after   12 cycles

 1\1\GINC-SE187\Stability\RHF\Aug-CC-pVDZ\C1Cl1N1\OHZDE\05-Apr-2025\0\\
 #t hf aug-cc-pvdz symm=none int=(grid=ultrafine) guess=(read,tcheck) s
 table=(opt,rrhf)\\title\\0,1\Cl,0,0.,0.,0.978264\C,0,0.,0.,-0.658524\N
 ,0,0.,0.,-1.811335\\Version=ES64L-G16RevC.01\HF=-551.7959051\RMSD=1.29
 8e-09\Dipole=0.,0.,1.1995822\Quadrupole=0.9945298,0.9945298,-1.9890595
 ,0.,0.,0.\PG=Unknown\\@
 The archive entry for this job was punched.

 Normal termination of Gaussian 16 at Sat Apr  5 22:53:36 2025.
 Gaussian 16:  ES64L-G16RevC.01  3-Jul-2019

 ----------------------------------------------------------------------
 #t hf aug-cc-pvdz iop(5/13=1,5/36=2,99/5=2) pseudo=read geom=check gue
 ss=(read,tcheck) scf=(maxcycle=1)
 ----------------------------------------------------------------------
 -----
 title
 -----
 Structure from the checkpoint file:  "cyanogen_chloride.chk"
 Charge =  0 Multiplicity = 1

                         Standard orientation:
 ---------------------------------------------------------------------
 Center     Atomic      Atomic             Coordinates (Angstroms)
 Number     Number       Type             X           Y           Z
 ---------------------------------------------------------------------
      1         17           0        0.000000    0.000000    0.978264
      2          6           0        0.000000    0.000000   -0.658524
      3          7           0        0.000000    0.000000   -1.811335
 ---------------------------------------------------------------------

 SCF Done:  E(RHF) =  -551.844611273     A.U. after    2 cycles

 The electronic state is 1-SG.
 Alpha  occ. eigenvalues -- -103.76136 -15.67465 -11.36065 -10.79298  -8.45079
 Alpha  occ. eigenvalues --   -8.44668  -8.44668  -1.28455  -1.20260  -0.76865
 Alpha  occ. eigenvalues --   -0.60889  -0.60889  -0.57769  -0.47240  -0.47240
 Alpha virt. eigenvalues --    0.04743   0.08735   0.10414   0.10414   0.11865
 Alpha virt. eigenvalues --    0.14223   0.14223   0.16315   0.16315   0.17382
 Alpha virt. eigenvalues --    0.22872   0.26524   0.26524   0.28512   0.33030

 Mulliken charges:
               1
     1  Cl   0.214159
     2  C   -0.140610
     3  N   -0.073550
 Sum of Mulliken charges =  -0.00000

 Dipole moment (field-independent basis, Debye):
    X=             -0.0000    Y=             -0.0000    Z=              2.8512  Tot=              2.8512

 Test job not archived.
 1\1\GINC-SE187\SP\RHF\Aug-CC-pVDZ\C1Cl1N1\OHZDE\05-Apr-2025\0\\#t hf a
 ug-cc-pvdz iop(5/13=1,5/36=2,99/5=2) pseudo=read geom=check guess=(rea
 d,tcheck) scf=(maxcycle=1)\\title\\0,1\Cl,0,0.,0.,0.978264\C,0,0.,0.,-
 0.658524\N,0,0.,0.,-1.811335\\Version=ES64L-G16RevC.01\State=1-SG\HF=-
 551.8446113\RMSD=2.980e-03\Dipole=0.,0.,1.1217425\Quadrupole=0.9257699
 ,0.9257699,-1.8515397,0.,0.,0.\PG=C*V [C*(N1C1Cl1)]\\@

 Normal termination of Gaussian 16 at Sat Apr  5 22:53:37 2025.
