 Gaussian 16, Revision C.01,

 ----------------------------------------------------------------------
 #t hf aug-cc-pvdz symm=none int=(grid=ultrafine) guess=(read,tcheck) s
 table=(opt,rrhf)
 ----------------------------------------------------------------------
 -----
 title
 -----
 Symbolic Z-matrix:
 Charge =  0 Multiplicity = 1

 SCF Done:  E(RHF) =  -191.721432591     A.U. after   11 cycles
 Normal termination of Gaussian 16 at Sat Apr  5 22:53:36 2025.
 Gaussian 16:  ES64L-G16RevC.01  3-Jul-2019

 ----------------------------------------------------------------------
 #t hf aug-cc-pvdz iop(5/13=1,5/36=2,99/5=2) pseudo=read geom=check gue
 ss=(read,tcheck) scf=(maxcycle=1)
 ----------------------------------------------------------------------
 -----
 title
 -----
 Structure from the checkpoint file:  "cyanic_fluoride.chk"
 Charge =  0 Multiplicity = 1

                         Standard orientation:
 ---------------------------------------------------------------------
 Center     Atomic      Atomic             Coordinates (Angstroms)
 Number     Number       Type             X           Y           Z
 ---------------------------------------------------------------------
      1          6           0        0.000000    0.000000   -0.151984
      2          9           0        0.000000    0.000000    1.114358
      3          7           0        0.000000    0.000000   -1.302474
 ---------------------------------------------------------------------

 SCF Done:  E(RHF) =  -191.789565330     A.U. after    2 cycles

 The electronic state is 1-SG.
 Alpha  occ. eigenvalues --  -26.26524 -15.67900 -11.41426  -1.81409  -1.23663
 Alpha  occ. eigenvalues --   -0.98377  -0.87328  -0.87328  -0.58971  -0.50826
 Alpha  occ. eigenvalues --   -0.50826
 Alpha virt. eigenvalues --    0.05090   0.08675   0.08675   0.08949   0.17276
 Alpha virt. eigenvalues --    0.17276   0.17860   0.22366   0.24839   0.24839
 Alpha virt. eigenvalues --    0.28345   0.30221   0.30221   0.35239   0.41350

 Mulliken charges:
               1
     1  C    0.020992
     2  F   -0.065012
     3  N    0.044019
 Sum of Mulliken charges =   0.00000

 Dipole moment (field-independent basis, Debye):
    X=              0.0000    Y=              0.0000    Z=              1.9166  Tot=              1.9166

 Test job not archived.
 1\1\GINC-SE108\SP\RHF\Aug-CC-pVDZ\C1F1N1\OHZDE\05-Apr-2025\0\\#t hf au
 g-cc-pvdz iop(5/13=1,5/36=2,99/5=2) pseudo=read geom=check guess=(read
 ,tcheck) scf=(maxcycle=1)\\title\\0,1\C,0,0.,0.,-0.151984\F,0,0.,0.,1.
 114358\N,0,0.,0.,-1.302474\\Version=ES64L-G16RevC.01\State=1-SG\HF=-19
 1.7895653\RMSD=6.833e-03\Dipole=0.,0.,0.7540461\Quadrupole=1.0650026,1
 .0650026,-2.1300052,0.,0.,0.\PG=C*V [C*(N1C1F1)]\\@

 Normal termination of Gaussian 16 at Sat Apr  5 22:53:37 2025.
