 Gaussian 16, Revision C.01,

 ----------------------------------------------------------------------
 #t hf aug-cc-pvdz symm=none int=(grid=ultrafine) guess=(read,tcheck) s
 table=(opt,rrhf)
 ----------------------------------------------------------------------
 -----
 title
 -----
 Symbolic Z-matrix:
 Charge =  0 Multiplicity = 1

 SCF Done:  E(RHF) =  -286.930239760     A.U. after   14 cycles
 Normal termination of Gaussian 16 at Sat Apr  5 22:55:16 2025.
 Gaussian 16:  ES64L-G16RevC.01  3-Jul-2019

 ----------------------------------------------------------------------
 #t hf aug-cc-pvdz iop(5/13=1,5/36=2,99/5=2) pseudo=read geom=check gue
 ss=(read,tcheck) scf=(maxcycle=1)
 ----------------------------------------------------------------------
 -----
 title
 -----
 Structure from the checkpoint file:  "cyclopentanecarbonitrile.chk"
 Charge =  0 Multiplicity = 1

                         Standard orientation:
 ---------------------------------------------------------------------
 Center     Atomic      Atomic             Coordinates (Angstroms)
 Number     Number       Type             X           Y           Z
 ---------------------------------------------------------------------
      1          6           0        1.602438    0.009053   -0.031364
      2          6           0       -1.371859    0.746330   -0.653168
      3          6           0       -1.307418   -0.806205   -0.645590
      4          6           0       -0.501396    1.220231    0.531175
      5          6           0       -0.485334   -1.190374    0.598276
      6          6           0        0.432357    0.028014    0.847230
      7          7           0        2.515785   -0.006019   -0.731269
      8          1           0       -0.984080    1.137519   -1.592694
      9          1           0       -2.392524    1.113594   -0.555555
     10          1           0       -2.295941   -1.262646   -0.625195
     11          1           0       -0.810388   -1.165675   -1.546124
     12          1           0        0.045306    2.137508    0.322211
     13          1           0       -1.117683    1.398437    1.413455
     14          1           0       -1.132932   -1.299095    1.469966
     15          1           0        0.067826   -2.119975    0.478891
     16          1           0        0.797203    0.060175    1.874581
 ---------------------------------------------------------------------

 SCF Done:  E(RHF) =  -287.015747725     A.U. after    2 cycles

 The electronic state is 1-A.
 Alpha  occ. eigenvalues --  -15.63107 -11.28796 -11.27944 -11.25372 -11.25363
 Alpha  occ. eigenvalues --  -11.24147 -11.24095  -1.19308  -1.13605  -1.00000
 Alpha  occ. eigenvalues --   -0.98195  -0.84558  -0.79631  -0.70318  -0.68362
 Alpha  occ. eigenvalues --   -0.63495  -0.60783  -0.55041  -0.53115  -0.52490
 Alpha  occ. eigenvalues --   -0.51302  -0.50175  -0.49300  -0.47798  -0.44928
 Alpha  occ. eigenvalues --   -0.44308
 Alpha virt. eigenvalues --    0.02668   0.04026   0.04279   0.04921   0.06365
 Alpha virt. eigenvalues --    0.06522   0.06592   0.06782   0.09104   0.09789
 Alpha virt. eigenvalues --    0.12197   0.12867   0.13088   0.14171   0.14213

 Mulliken charges:
               1
     1  C   -0.572716
     2  C    0.282965
     3  C    0.295554
     4  C    0.521438
     5  C    0.546095
     6  C    0.243042
     7  N   -0.177553
     8  H   -0.110386
     9  H   -0.111428
    10  H   -0.119125
    11  H   -0.153810
    12  H   -0.191121
    13  H   -0.104033
    14  H   -0.102946
    15  H   -0.173507
    16  H   -0.072469
 Sum of Mulliken charges =  -0.00000

 Dipole moment (field-independent basis, Debye):
    X=             -3.7700    Y=              0.0383    Z=              2.1901  Tot=              4.3601

 Test job not archived.
 1\1\GINC-SE168\SP\RHF\Aug-CC-pVDZ\C6H9N1\OHZDE\05-Apr-2025\0\\#t hf au
 g-cc-pvdz iop(5/13=1,5/36=2,99/5=2) pseudo=read geom=check guess=(read
 ,tcheck) scf=(maxcycle=1)\\title\\0,1\C,0,1.602438,0.009053,-0.031364\
 C,0,-1.371859,0.74633,-0.653168\C,0,-1.307418,-0.806205,-0.64559\C,0,-
 0.501396,1.220231,0.531175\C,0,-0.485334,-1.190374,0.598276\C,0,0.4323
 57,0.028014,0.84723\N,0,2.515785,-0.006019,-0.731269\H,0,-0.98408,1.13
 7519,-1.592694\H,0,-2.392524,1.113594,-0.555555\H,0,-2.295941,-1.26264
 6,-0.625195\H,0,-0.810388,-1.165675,-1.546124\H,0,0.045306,2.137508,0.

 Normal termination of Gaussian 16 at Sat Apr  5 22:55:50 2025.
