 Gaussian 16, Revision C.01,

 ----------------------------------------------------------------------
 #t hf aug-cc-pvdz symm=none int=(grid=ultrafine) guess=(read,tcheck) s
 table=(opt,rrhf)
 ----------------------------------------------------------------------
 -----
 title
 -----
 Symbolic Z-matrix:
 Charge =  0 Multiplicity = 1

 SCF Done:  E(RHF) =  -234.232279177     A.U. after   10 cycles
 Normal termination of Gaussian 16 at Sat Apr  5 22:55:09 2025.
 Gaussian 16:  ES64L-G16RevC.01  3-Jul-2019

 ----------------------------------------------------------------------
 #t hf aug-cc-pvdz iop(5/13=1,5/36=2,99/5=2) pseudo=read geom=check gue
 ss=(read,tcheck) scf=(maxcycle=1)
 ----------------------------------------------------------------------
 -----
 title
 -----
 Structure from the checkpoint file:  "cyclohexane.chk"
 Charge =  0 Multiplicity = 1

                         Standard orientation:
 ---------------------------------------------------------------------
 Center     Atomic      Atomic             Coordinates (Angstroms)
 Number     Number       Type             X           Y           Z
 ---------------------------------------------------------------------
      1          6           0        0.227515    0.731652    1.267259
      2          6           0       -0.227515    1.463304    0.000000
      3          6           0       -0.227515   -0.731652    1.267259
      4          6           0        0.227515   -1.463304    0.000000
      5          6           0       -0.227515   -0.731652   -1.267259
      6          6           0        0.227515    0.731652   -1.267259
      7          1           0       -0.149267    1.244327   -2.155238
      8          1           0       -0.149267    1.244327    2.155238
      9          1           0        0.149267    2.488655    0.000000
     10          1           0        0.149267   -1.244327   -2.155238
     11          1           0       -1.320511   -0.767324   -1.329045
     12          1           0       -1.320511   -0.767324    1.329045
     13          1           0       -1.320511    1.534649    0.000000
     14          1           0       -0.149267   -2.488655    0.000000
     15          1           0        1.320511   -1.534649    0.000000
     16          1           0        0.149267   -1.244327    2.155238
     17          1           0        1.320511    0.767324    1.329045
     18          1           0        1.320511    0.767324   -1.329045
 ---------------------------------------------------------------------

 SCF Done:  E(RHF) =  -234.304820185     A.U. after    2 cycles

 The electronic state is 1-AG.
 Alpha  occ. eigenvalues --  -11.22084 -11.22066 -11.22066 -11.22014 -11.22014
 Alpha  occ. eigenvalues --  -11.21975  -1.09973  -0.99196  -0.99196  -0.82559
 Alpha  occ. eigenvalues --   -0.82559  -0.74854  -0.64834  -0.60749  -0.59641
 Alpha  occ. eigenvalues --   -0.59640  -0.52534  -0.52534  -0.51489  -0.48064
 Alpha  occ. eigenvalues --   -0.48064  -0.44907  -0.42747  -0.42747
 Alpha virt. eigenvalues --    0.03646   0.04464   0.04464   0.04622   0.06438
 Alpha virt. eigenvalues --    0.06438   0.06873   0.06975   0.06975   0.09172
 Alpha virt. eigenvalues --    0.09287   0.09287   0.13540   0.14619   0.14704

 Mulliken charges:
               1
     1  C    0.224009
     2  C    0.224005
     3  C    0.224009
     4  C    0.224005
     5  C    0.224009
     6  C    0.224009
     7  H   -0.124188
     8  H   -0.124188
     9  H   -0.124187
    10  H   -0.124188
    11  H   -0.099819
    12  H   -0.099819
    13  H   -0.099820
    14  H   -0.124187
    15  H   -0.099820
    16  H   -0.124188
    17  H   -0.099819
    18  H   -0.099819
 Sum of Mulliken charges =  -0.00000

 Dipole moment (field-independent basis, Debye):
    X=             -0.0000    Y=              0.0000    Z=              0.0000  Tot=              0.0000

 Test job not archived.
 1\1\GINC-SE055\SP\RHF\Aug-CC-pVDZ\C6H12\OHZDE\05-Apr-2025\0\\#t hf aug
 -cc-pvdz iop(5/13=1,5/36=2,99/5=2) pseudo=read geom=check guess=(read,
 tcheck) scf=(maxcycle=1)\\title\\0,1\C,0,-1.267259,0.731652,0.227515\C
 ,0,0.,1.463304,-0.227515\C,0,-1.267259,-0.731652,-0.227515\C,0,0.,-1.4
 63304,0.227515\C,0,1.267259,-0.731652,-0.227515\C,0,1.267259,0.731652,
 0.227515\H,0,2.155238,1.244327,-0.149267\H,0,-2.155238,1.244327,-0.149
 267\H,0,0.,2.488655,0.149267\H,0,2.155238,-1.244327,0.149267\H,0,1.329
 045,-0.767324,-1.320511\H,0,-1.329045,-0.767324,-1.320511\H,0,0.,1.534

 Normal termination of Gaussian 16 at Sat Apr  5 22:55:49 2025.
