 Gaussian 16, Revision C.01,

 ----------------------------------------------------------------------
 #t hf aug-cc-pvdz symm=none int=(grid=ultrafine) guess=(read,tcheck) s
 table=(opt,rrhf)
 ----------------------------------------------------------------------
 -----
 title
 -----
 Symbolic Z-matrix:
 Charge =  0 Multiplicity = 1

 SCF Done:  E(RHF) =  -154.917343715     A.U. after   11 cycles
 Normal termination of Gaussian 16 at Sat Apr  5 22:53:39 2025.
 Gaussian 16:  ES64L-G16RevC.01  3-Jul-2019

 ----------------------------------------------------------------------
 #t hf aug-cc-pvdz iop(5/13=1,5/36=2,99/5=2) pseudo=read geom=check gue
 ss=(read,tcheck) scf=(maxcycle=1)
 ----------------------------------------------------------------------
 -----
 title
 -----
 Structure from the checkpoint file:  "cyclobutene.chk"
 Charge =  0 Multiplicity = 1

                         Standard orientation:
 ---------------------------------------------------------------------
 Center     Atomic      Atomic             Coordinates (Angstroms)
 Number     Number       Type             X           Y           Z
 ---------------------------------------------------------------------
      1          6           0        0.000000    0.667446    0.812417
      2          6           0       -0.000000   -0.667446    0.812417
      3          6           0        0.000000    0.784886   -0.698476
      4          6           0       -0.000000   -0.784886   -0.698476
      5          1           0        0.000000    1.411038    1.598258
      6          1           0       -0.000000   -1.411038    1.598258
      7          1           0        0.886543    1.242452   -1.140953
      8          1           0       -0.886543   -1.242452   -1.140953
      9          1           0       -0.886543    1.242452   -1.140953
     10          1           0        0.886543   -1.242452   -1.140953
 ---------------------------------------------------------------------

 SCF Done:  E(RHF) =  -154.965743201     A.U. after    2 cycles

 The electronic state is 1-A1.
 Alpha  occ. eigenvalues --  -11.23668 -11.23517 -11.23488 -11.23438  -1.13677
 Alpha  occ. eigenvalues --   -0.89602  -0.87505  -0.70878  -0.67910  -0.62556
 Alpha  occ. eigenvalues --   -0.53749  -0.50846  -0.46625  -0.45910  -0.35370
 Alpha virt. eigenvalues --    0.03775   0.04555   0.04831   0.05317   0.06596
 Alpha virt. eigenvalues --    0.07287   0.11374   0.12283   0.12659   0.13497
 Alpha virt. eigenvalues --    0.13725   0.14589   0.14817   0.17032   0.17129

 Mulliken charges:
               1
     1  C    0.096470
     2  C    0.096470
     3  C    0.383393
     4  C    0.383393
     5  H   -0.234326
     6  H   -0.234326
     7  H   -0.122769
     8  H   -0.122769
     9  H   -0.122769
    10  H   -0.122769
 Sum of Mulliken charges =   0.00000

 Dipole moment (field-independent basis, Debye):
    X=              0.0000    Y=             -0.0000    Z=             -0.1135  Tot=              0.1135

 Test job not archived.
 1\1\GINC-SE014\SP\RHF\Aug-CC-pVDZ\C4H6\OHZDE\05-Apr-2025\0\\#t hf aug-
 cc-pvdz iop(5/13=1,5/36=2,99/5=2) pseudo=read geom=check guess=(read,t
 check) scf=(maxcycle=1)\\title\\0,1\C,0,0.,0.667446,0.812417\C,0,0.,-0
 .667446,0.812417\C,0,0.,0.784886,-0.698476\C,0,0.,-0.784886,-0.698476\
 H,0,0.,1.411038,1.598258\H,0,0.,-1.411038,1.598258\H,0,0.886543,1.2424
 52,-1.140953\H,0,-0.886543,-1.242452,-1.140953\H,0,-0.886543,1.242452,
 -1.140953\H,0,0.886543,-1.242452,-1.140953\\Version=ES64L-G16RevC.01\S
 tate=1-A1\HF=-154.9657432\RMSD=9.144e-03\Dipole=0.,0.,-0.0446409\Quadr

 Normal termination of Gaussian 16 at Sat Apr  5 22:53:42 2025.
