 Gaussian 16, Revision C.01,

 ----------------------------------------------------------------------
 #t hf aug-cc-pvdz symm=none int=(grid=ultrafine) guess=(read,tcheck) s
 table=(opt,rrhf)
 ----------------------------------------------------------------------
 -----
 title
 -----
 Symbolic Z-matrix:
 Charge =  0 Multiplicity = 1

 SCF Done:  E(RHF) =  -156.113163665     A.U. after   10 cycles
 Normal termination of Gaussian 16 at Sat Apr  5 22:53:42 2025.
 Gaussian 16:  ES64L-G16RevC.01  3-Jul-2019

 ----------------------------------------------------------------------
 #t hf aug-cc-pvdz iop(5/13=1,5/36=2,99/5=2) pseudo=read geom=check gue
 ss=(read,tcheck) scf=(maxcycle=1)
 ----------------------------------------------------------------------
 -----
 title
 -----
 Structure from the checkpoint file:  "cyclobutane.chk"
 Charge =  0 Multiplicity = 1

                         Standard orientation:
 ---------------------------------------------------------------------
 Center     Atomic      Atomic             Coordinates (Angstroms)
 Number     Number       Type             X           Y           Z
 ---------------------------------------------------------------------
      1          6           0        0.000000    1.082580    0.123180
      2          6           0        1.082580   -0.000000   -0.123180
      3          6           0       -1.082580    0.000000   -0.123180
      4          6           0       -0.000000   -1.082580    0.123180
      5          1           0        0.000000   -1.957007   -0.526411
      6          1           0        1.957007   -0.000000    0.526411
      7          1           0       -1.957007    0.000000    0.526411
      8          1           0        0.000000    1.957007   -0.526411
      9          1           0        0.000000    1.422103    1.159302
     10          1           0       -1.422103    0.000000   -1.159302
     11          1           0        1.422103   -0.000000   -1.159302
     12          1           0       -0.000000   -1.422103    1.159302
 ---------------------------------------------------------------------

 SCF Done:  E(RHF) =  -156.162768514     A.U. after    2 cycles

 The electronic state is 1-A1.
 Alpha  occ. eigenvalues --  -11.22433 -11.22390 -11.22390 -11.22341  -1.11001
 Alpha  occ. eigenvalues --   -0.88891  -0.88891  -0.74862  -0.64993  -0.64272
 Alpha  occ. eigenvalues --   -0.53741  -0.53741  -0.48695  -0.45228  -0.43718
 Alpha  occ. eigenvalues --   -0.43718
 Alpha virt. eigenvalues --    0.03821   0.04723   0.04911   0.04911   0.07117
 Alpha virt. eigenvalues --    0.07294   0.07294   0.07555   0.12425   0.13844
 Alpha virt. eigenvalues --    0.13844   0.14012   0.14531   0.16073   0.16073

 Mulliken charges:
               1
     1  C    0.390477
     2  C    0.390477
     3  C    0.390477
     4  C    0.390477
     5  H   -0.185955
     6  H   -0.185955
     7  H   -0.185955
     8  H   -0.185955
     9  H   -0.204522
    10  H   -0.204522
    11  H   -0.204522
    12  H   -0.204522
 Sum of Mulliken charges =  -0.00000

 Dipole moment (field-independent basis, Debye):
    X=             -0.0000    Y=             -0.0000    Z=              0.0000  Tot=              0.0000

 Test job not archived.
 1\1\GINC-SE199\SP\RHF\Aug-CC-pVDZ\C4H8\OHZDE\05-Apr-2025\0\\#t hf aug-
 cc-pvdz iop(5/13=1,5/36=2,99/5=2) pseudo=read geom=check guess=(read,t
 check) scf=(maxcycle=1)\\title\\0,1\C,0,0.,1.08258,0.12318\C,0,1.08258
 ,0.,-0.12318\C,0,-1.08258,0.,-0.12318\C,0,0.,-1.08258,0.12318\H,0,0.,-
 1.957007,-0.526411\H,0,1.957007,0.,0.526411\H,0,-1.957007,0.,0.526411\
 H,0,0.,1.957007,-0.526411\H,0,0.,1.422103,1.159302\H,0,-1.422103,0.,-1
 .159302\H,0,1.422103,0.,-1.159302\H,0,0.,-1.422103,1.159302\\Version=E
 S64L-G16RevC.01\State=1-A1\HF=-156.1627685\RMSD=7.524e-03\Dipole=0.,0.

 Normal termination of Gaussian 16 at Sat Apr  5 22:53:45 2025.
