 Gaussian 16, Revision C.01,

 ----------------------------------------------------------------------
 #t hf aug-cc-pvdz symm=none int=(grid=ultrafine) guess=(read,tcheck) s
 table=(opt,rrhf)
 ----------------------------------------------------------------------
 -----
 title
 -----
 Symbolic Z-matrix:
 Charge =  0 Multiplicity = 1

 SCF Done:  E(RHF) =  -312.288848937     A.U. after   11 cycles
 Normal termination of Gaussian 16 at Sat Apr  5 22:56:17 2025.
 Gaussian 16:  ES64L-G16RevC.01  3-Jul-2019

 ----------------------------------------------------------------------
 #t hf aug-cc-pvdz iop(5/13=1,5/36=2,99/5=2) pseudo=read geom=check gue
 ss=(read,tcheck) scf=(maxcycle=1)
 ----------------------------------------------------------------------
 -----
 title
 -----
 Structure from the checkpoint file:  "cyclooctane.chk"
 Charge =  0 Multiplicity = 1

                         Standard orientation:
 ---------------------------------------------------------------------
 Center     Atomic      Atomic             Coordinates (Angstroms)
 Number     Number       Type             X           Y           Z
 ---------------------------------------------------------------------
      1          6           0       -0.924984    1.455665    0.000000
      2          6           0       -0.134405    1.385461    1.310207
      3          6           0       -0.134405    1.385461   -1.310207
      4          6           0        0.629237    0.082662    1.610338
      5          6           0        0.629237    0.082662   -1.610338
      6          6           0       -0.134405   -1.227318    1.323869
      7          6           0       -0.134405   -1.227318   -1.323869
      8          6           0        0.207639   -1.929091   -0.000000
      9          1           0       -1.479369    2.398329    0.000000
     10          1           0        0.570283    2.221967    1.352098
     11          1           0        0.570283    2.221967   -1.352098
     12          1           0       -0.845053    1.554786    2.124992
     13          1           0       -0.845053    1.554786   -2.124992
     14          1           0       -1.689785    0.675570    0.000000
     15          1           0        0.902756    0.108766    2.667617
     16          1           0        0.902756    0.108766   -2.667617
     17          1           0        1.576536    0.069346    1.069122
     18          1           0        1.576536    0.069346   -1.069122
     19          1           0       -1.212799   -1.052435    1.383389
     20          1           0       -1.212799   -1.052435   -1.383389
     21          1           0        0.088126   -1.939415    2.121981
     22          1           0        0.088126   -1.939415   -2.121981
     23          1           0        1.281288   -2.147303   -0.000000
     24          1           0       -0.292875   -2.901727   -0.000000
 ---------------------------------------------------------------------

 SCF Done:  E(RHF) =  -312.385039996     A.U. after    2 cycles

 The electronic state is 1-A'.
 Alpha  occ. eigenvalues --  -11.22186 -11.22086 -11.22085 -11.22075 -11.22058
 Alpha  occ. eigenvalues --  -11.21931 -11.21931 -11.21883  -1.09031  -1.03011
 Alpha  occ. eigenvalues --   -1.02806  -0.91557  -0.91193  -0.79367  -0.79149
 Alpha  occ. eigenvalues --   -0.73758  -0.64699  -0.63249  -0.59995  -0.59335
 Alpha  occ. eigenvalues --   -0.57602  -0.57008  -0.55355  -0.51010  -0.48867
 Alpha  occ. eigenvalues --   -0.48397  -0.47136  -0.46774  -0.46291  -0.43631
 Alpha  occ. eigenvalues --   -0.42878  -0.42017
 Alpha virt. eigenvalues --    0.03563   0.04156   0.04220   0.04393   0.05974
 Alpha virt. eigenvalues --    0.06050   0.06360   0.06420   0.06778   0.08577
 Alpha virt. eigenvalues --    0.08713   0.08977   0.09052   0.09261   0.09761

 Mulliken charges:
               1
     1  C    0.073240
     2  C    0.259130
     3  C    0.259130
     4  C    0.257366
     5  C    0.257366
     6  C    0.412733
     7  C    0.412733
     8  C    0.043996
     9  H   -0.153602
    10  H   -0.088397
    11  H   -0.088397
    12  H   -0.093675
    13  H   -0.093675
    14  H   -0.102525
    15  H   -0.130739
    16  H   -0.130739
    17  H   -0.177354
    18  H   -0.177354
    19  H   -0.115997
    20  H   -0.115997
    21  H   -0.175198
    22  H   -0.175198
    23  H   -0.043472
    24  H   -0.113373
 Sum of Mulliken charges =  -0.00000

 Dipole moment (field-independent basis, Debye):
    X=             -0.0152    Y=             -0.0325    Z=              0.0000  Tot=              0.0359

 Test job not archived.
 1\1\GINC-SE199\SP\RHF\Aug-CC-pVDZ\C8H16\OHZDE\05-Apr-2025\0\\#t hf aug
 -cc-pvdz iop(5/13=1,5/36=2,99/5=2) pseudo=read geom=check guess=(read,
 tcheck) scf=(maxcycle=1)\\title\\0,1\C,0,-0.924984,1.455665,0.\C,0,-0.
 134405,1.385461,1.310207\C,0,-0.134405,1.385461,-1.310207\C,0,0.629237
 ,0.082662,1.610338\C,0,0.629237,0.082662,-1.610338\C,0,-0.134405,-1.22
 7318,1.323869\C,0,-0.134405,-1.227318,-1.323869\C,0,0.207639,-1.929091
 ,0.\H,0,-1.479369,2.398329,0.\H,0,0.570283,2.221967,1.352098\H,0,0.570
 283,2.221967,-1.352098\H,0,-0.845053,1.554786,2.124992\H,0,-0.845053,1

 Normal termination of Gaussian 16 at Sat Apr  5 22:56:26 2025.
