 Gaussian 16, Revision C.01,

 ----------------------------------------------------------------------
 #t hf aug-cc-pvdz symm=none int=(grid=ultrafine) guess=(read,tcheck) s
 table=(opt,rrhf)
 ----------------------------------------------------------------------
 -----
 title
 -----
 Symbolic Z-matrix:
 Charge =  0 Multiplicity = 1

 SCF Done:  E(RHF) =  -192.752686818     A.U. after   13 cycles
 Normal termination of Gaussian 16 at Sat Apr  5 22:54:45 2025.
 Gaussian 16:  ES64L-G16RevC.01  3-Jul-2019

 ----------------------------------------------------------------------
 #t hf aug-cc-pvdz iop(5/13=1,5/36=2,99/5=2) pseudo=read geom=check gue
 ss=(read,tcheck) scf=(maxcycle=1)
 ----------------------------------------------------------------------
 -----
 title
 -----
 Structure from the checkpoint file:  "cyclopropylacetylene.chk"
 Charge =  0 Multiplicity = 1

                         Standard orientation:
 ---------------------------------------------------------------------
 Center     Atomic      Atomic             Coordinates (Angstroms)
 Number     Number       Type             X           Y           Z
 ---------------------------------------------------------------------
      1          6           0        0.611276    0.150433    0.000000
      2          6           0       -0.558771    0.979132   -0.000000
      3          1           0        1.547692    0.693190    0.000000
      4          6           0        0.611276   -1.169532    0.748025
      5          6           0        0.611276   -1.169532   -0.748025
      6          6           0       -1.538704    1.673681   -0.000000
      7          1           0       -2.403449    2.288355   -0.000000
      8          1           0        1.520070   -1.440716    1.265675
      9          1           0       -0.301248   -1.442601    1.256473
     10          1           0        1.520070   -1.440716   -1.265675
     11          1           0       -0.301248   -1.442601   -1.256473
 ---------------------------------------------------------------------

 SCF Done:  E(RHF) =  -192.815008380     A.U. after    2 cycles

 The electronic state is 1-A'.
 Alpha  occ. eigenvalues --  -11.26753 -11.24927 -11.24869 -11.24532 -11.23075
 Alpha  occ. eigenvalues --   -1.15284  -1.01782  -0.86882  -0.83407  -0.72623
 Alpha  occ. eigenvalues --   -0.68935  -0.65727  -0.56237  -0.53110  -0.48243
 Alpha  occ. eigenvalues --   -0.46329  -0.38476  -0.36297
 Alpha virt. eigenvalues --    0.03561   0.04030   0.04952   0.05109   0.06319
 Alpha virt. eigenvalues --    0.07303   0.10146   0.10974   0.11235   0.12695
 Alpha virt. eigenvalues --    0.12888   0.12940   0.14751   0.15556   0.16253

 Mulliken charges:
               1
     1  C    0.500685
     2  C   -0.929404
     3  H   -0.302610
     4  C    0.712620
     5  C    0.712620
     6  C    1.125781
     7  H   -0.537459
     8  H   -0.293861
     9  H   -0.347257
    10  H   -0.293861
    11  H   -0.347257
 Sum of Mulliken charges =  -0.00000

 Dipole moment (field-independent basis, Debye):
    X=              0.6136    Y=             -0.7622    Z=             -0.0000  Tot=              0.9785

 Test job not archived.
 1\1\GINC-SE220\SP\RHF\Aug-CC-pVDZ\C5H6\OHZDE\05-Apr-2025\0\\#t hf aug-
 cc-pvdz iop(5/13=1,5/36=2,99/5=2) pseudo=read geom=check guess=(read,t
 check) scf=(maxcycle=1)\\title\\0,1\C,0,0.611276,0.150433,0.\C,0,-0.55
 8771,0.979132,0.\H,0,1.547692,0.69319,0.\C,0,0.611276,-1.169532,0.7480
 25\C,0,0.611276,-1.169532,-0.748025\C,0,-1.538704,1.673681,0.\H,0,-2.4
 03449,2.288355,0.\H,0,1.52007,-1.440716,1.265675\H,0,-0.301248,-1.4426
 01,1.256473\H,0,1.52007,-1.440716,-1.265675\H,0,-0.301248,-1.442601,-1
 .256473\\Version=ES64L-G16RevC.01\State=1-A'\HF=-192.8150084\RMSD=7.89

 Normal termination of Gaussian 16 at Sat Apr  5 22:54:48 2025.
