 Gaussian 16, Revision C.01,

 ----------------------------------------------------------------------
 #t hf aug-cc-pvdz symm=none int=(grid=ultrafine) guess=(read,tcheck) s
 table=(opt,rrhf)
 ----------------------------------------------------------------------
 -----
 title
 -----
 Symbolic Z-matrix:
 Charge =  0 Multiplicity = 1

 SCF Done:  E(RHF) =  -289.268718044     A.U. after   12 cycles

 1\1\GINC-SE198\Stability\RHF\Aug-CC-pVDZ\C6H13N1\OHZDE\05-Apr-2025\0\\
 #t hf aug-cc-pvdz symm=none int=(grid=ultrafine) guess=(read,tcheck) s
 table=(opt,rrhf)\\title\\0,1\C,0,-0.974235,1.501801,0.\C,0,-0.31371,0.
 943702,1.264192\C,0,-0.31371,0.943702,-1.264192\C,0,-0.31371,-0.588507
 ,1.262787\C,0,-0.31371,-0.588507,-1.262787\C,0,0.322144,-1.187508,0.\N
 ,0,1.768888,-0.919814,0.\H,0,-2.037859,1.237524,0.\H,0,-0.926534,2.593
 057,0.\H,0,0.714983,1.30509,1.322149\H,0,-0.829805,1.310092,2.154594\H
 ,0,-0.829805,1.310092,-2.154594\H,0,0.714983,1.30509,-1.322149\H,0,0.2

 Normal termination of Gaussian 16 at Sat Apr  5 22:55:29 2025.
 Gaussian 16:  ES64L-G16RevC.01  3-Jul-2019

 ----------------------------------------------------------------------
 #t hf aug-cc-pvdz iop(5/13=1,5/36=2,99/5=2) pseudo=read geom=check gue
 ss=(read,tcheck) scf=(maxcycle=1)
 ----------------------------------------------------------------------
 -----
 title
 -----
 Structure from the checkpoint file:  "cyclohexylamine.chk"
 Charge =  0 Multiplicity = 1

                         Standard orientation:
 ---------------------------------------------------------------------
 Center     Atomic      Atomic             Coordinates (Angstroms)
 Number     Number       Type             X           Y           Z
 ---------------------------------------------------------------------
      1          6           0       -0.974235    1.501801   -0.000000
      2          6           0       -0.313710    0.943702    1.264192
      3          6           0       -0.313710    0.943702   -1.264192
      4          6           0       -0.313710   -0.588507    1.262787
      5          6           0       -0.313710   -0.588507   -1.262787
      6          6           0        0.322144   -1.187508    0.000000
      7          7           0        1.768888   -0.919814    0.000000
      8          1           0       -2.037859    1.237524   -0.000000
      9          1           0       -0.926534    2.593057   -0.000000
     10          1           0        0.714983    1.305090    1.322149
     11          1           0       -0.829805    1.310092    2.154594
     12          1           0       -0.829805    1.310092   -2.154594
     13          1           0        0.714983    1.305090   -1.322149
     14          1           0        0.204080   -0.970114    2.147778
     15          1           0       -1.343580   -0.952418    1.329721
     16          1           0       -1.343580   -0.952418   -1.329721
     17          1           0        0.204080   -0.970114   -2.147778
     18          1           0        0.112103   -2.266434    0.000000
     19          1           0        2.210148   -1.329430   -0.814645
     20          1           0        2.210148   -1.329430    0.814645
 ---------------------------------------------------------------------

 SCF Done:  E(RHF) =  -289.356468180     A.U. after    2 cycles

 The electronic state is 1-A'.
 Alpha  occ. eigenvalues --  -15.59811 -11.25618 -11.22050 -11.22041 -11.21643
 Alpha  occ. eigenvalues --  -11.21467 -11.21453  -1.15604  -1.07025  -0.99137
 Alpha  occ. eigenvalues --   -0.96603  -0.82868  -0.81416  -0.73335  -0.65333
 Alpha  occ. eigenvalues --   -0.65147  -0.61904  -0.59995  -0.57673  -0.53598
 Alpha  occ. eigenvalues --   -0.52221  -0.50839  -0.49987  -0.47580  -0.45635
 Alpha  occ. eigenvalues --   -0.43459  -0.42495  -0.37537
 Alpha virt. eigenvalues --    0.03381   0.04252   0.04271   0.04420   0.06293
 Alpha virt. eigenvalues --    0.06309   0.06522   0.07096   0.07146   0.09008
 Alpha virt. eigenvalues --    0.09197   0.09409   0.09582   0.13415   0.14493

 Mulliken charges:
               1
     1  C    0.239094
     2  C    0.369877
     3  C    0.369877
     4  C    0.396221
     5  C    0.396221
     6  C   -0.182803
     7  N   -0.273516
     8  H   -0.121582
     9  H   -0.129234
    10  H   -0.107089
    11  H   -0.108030
    12  H   -0.108030
    13  H   -0.107089
    14  H   -0.148481
    15  H   -0.075937
    16  H   -0.075937
    17  H   -0.148481
    18  H   -0.121155
    19  H   -0.031963
    20  H   -0.031963
 Sum of Mulliken charges =  -0.00000

 Dipole moment (field-independent basis, Debye):
    X=             -0.0238    Y=             -1.1812    Z=             -0.0000  Tot=              1.1815

 Test job not archived.
 1\1\GINC-SE198\SP\RHF\Aug-CC-pVDZ\C6H13N1\OHZDE\05-Apr-2025\0\\#t hf a
 ug-cc-pvdz iop(5/13=1,5/36=2,99/5=2) pseudo=read geom=check guess=(rea
 d,tcheck) scf=(maxcycle=1)\\title\\0,1\C,0,-0.974235,1.501801,0.\C,0,-
 0.31371,0.943702,1.264192\C,0,-0.31371,0.943702,-1.264192\C,0,-0.31371
 ,-0.588507,1.262787\C,0,-0.31371,-0.588507,-1.262787\C,0,0.322144,-1.1
 87508,0.\N,0,1.768888,-0.919814,0.\H,0,-2.037859,1.237524,0.\H,0,-0.92
 6534,2.593057,0.\H,0,0.714983,1.30509,1.322149\H,0,-0.829805,1.310092,
 2.154594\H,0,-0.829805,1.310092,-2.154594\H,0,0.714983,1.30509,-1.3221

 Normal termination of Gaussian 16 at Sat Apr  5 22:55:50 2025.
