 Gaussian 16, Revision C.01,

 ----------------------------------------------------------------------
 #t hf aug-cc-pvdz symm=none int=(grid=ultrafine) guess=(read,tcheck) s
 table=(opt,rrhf)
 ----------------------------------------------------------------------
 -----
 title
 -----
 Symbolic Z-matrix:
 Charge =  0 Multiplicity = 1

 SCF Done:  E(RHF) =  -172.109951274     A.U. after   12 cycles
 Normal termination of Gaussian 16 at Sat Apr  5 22:54:42 2025.
 Gaussian 16:  ES64L-G16RevC.01  3-Jul-2019

 ----------------------------------------------------------------------
 #t hf aug-cc-pvdz iop(5/13=1,5/36=2,99/5=2) pseudo=read geom=check gue
 ss=(read,tcheck) scf=(maxcycle=1)
 ----------------------------------------------------------------------
 -----
 title
 -----
 Structure from the checkpoint file:  "cyclopropylamine.chk"
 Charge =  0 Multiplicity = 1

                         Standard orientation:
 ---------------------------------------------------------------------
 Center     Atomic      Atomic             Coordinates (Angstroms)
 Number     Number       Type             X           Y           Z
 ---------------------------------------------------------------------
      1          6           0       -0.320050    0.416085   -0.000000
      2          1           0       -1.260116    0.962973   -0.000000
      3          7           0        0.903346    1.179214   -0.000000
      4          6           0       -0.320050   -0.882833    0.753840
      5          6           0       -0.320050   -0.882833   -0.753840
      6          1           0        0.970739    1.771825    0.818204
      7          1           0        0.970739    1.771825   -0.818204
      8          1           0       -1.223024   -1.176047    1.270152
      9          1           0       -1.223024   -1.176047   -1.270152
     10          1           0        0.601086   -1.155773    1.247962
     11          1           0        0.601086   -1.155773   -1.247962
 ---------------------------------------------------------------------

 SCF Done:  E(RHF) =  -172.164818083     A.U. after    2 cycles

 The electronic state is 1-A'.
 Alpha  occ. eigenvalues --  -15.60701 -11.26271 -11.22716 -11.22663  -1.17435
 Alpha  occ. eigenvalues --   -1.07053  -0.81950  -0.78926  -0.68308  -0.64482
 Alpha  occ. eigenvalues --   -0.62583  -0.54855  -0.51216  -0.44320  -0.41223
 Alpha  occ. eigenvalues --   -0.37884
 Alpha virt. eigenvalues --    0.03647   0.04637   0.04687   0.04958   0.07084
 Alpha virt. eigenvalues --    0.07226   0.08051   0.11409   0.12504   0.13585
 Alpha virt. eigenvalues --    0.14707   0.15760   0.16025   0.16404   0.17811

 Mulliken charges:
               1
     1  C    0.827363
     2  H   -0.293273
     3  N   -0.427841
     4  C    0.562338
     5  C    0.562338
     6  H    0.001113
     7  H    0.001113
     8  H   -0.315052
     9  H   -0.315052
    10  H   -0.301524
    11  H   -0.301524
 Sum of Mulliken charges =  -0.00000

 Dipole moment (field-independent basis, Debye):
    X=             -0.8342    Y=              0.9880    Z=              0.0000  Tot=              1.2930

 Test job not archived.
 1\1\GINC-SE221\SP\RHF\Aug-CC-pVDZ\C3H7N1\OHZDE\05-Apr-2025\0\\#t hf au
 g-cc-pvdz iop(5/13=1,5/36=2,99/5=2) pseudo=read geom=check guess=(read
 ,tcheck) scf=(maxcycle=1)\\title\\0,1\C,0,-0.32005,0.416085,0.\H,0,-1.
 260116,0.962973,0.\N,0,0.903346,1.179214,0.\C,0,-0.32005,-0.882833,0.7
 5384\C,0,-0.32005,-0.882833,-0.75384\H,0,0.970739,1.771825,0.818204\H,
 0,0.970739,1.771825,-0.818204\H,0,-1.223024,-1.176047,1.270152\H,0,-1.
 223024,-1.176047,-1.270152\H,0,0.601086,-1.155773,1.247962\H,0,0.60108
 6,-1.155773,-1.247962\\Version=ES64L-G16RevC.01\State=1-A'\HF=-172.164

 Normal termination of Gaussian 16 at Sat Apr  5 22:54:44 2025.
