 Gaussian 16, Revision C.01,

 ----------------------------------------------------------------------
 #t hf aug-cc-pvdz symm=none int=(grid=ultrafine) guess=(read,tcheck) s
 table=(opt,rrhf)
 ----------------------------------------------------------------------
 -----
 title
 -----
 Symbolic Z-matrix:
 Charge =  0 Multiplicity = 1

 SCF Done:  E(RHF) =  -193.999133794     A.U. after   11 cycles
 Normal termination of Gaussian 16 at Sat Apr  5 22:54:50 2025.
 Gaussian 16:  ES64L-G16RevC.01  3-Jul-2019

 ----------------------------------------------------------------------
 #t hf aug-cc-pvdz iop(5/13=1,5/36=2,99/5=2) pseudo=read geom=check gue
 ss=(read,tcheck) scf=(maxcycle=1)
 ----------------------------------------------------------------------
 -----
 title
 -----
 Structure from the checkpoint file:  "cyclopentene.chk"
 Charge =  0 Multiplicity = 1

                         Standard orientation:
 ---------------------------------------------------------------------
 Center     Atomic      Atomic             Coordinates (Angstroms)
 Number     Number       Type             X           Y           Z
 ---------------------------------------------------------------------
      1          6           0       -0.063692    1.072090    0.664505
      2          6           0       -0.063692    1.072090   -0.664505
      3          6           0       -0.063692   -0.324395    1.233989
      4          6           0       -0.063692   -0.324395   -1.233989
      5          6           0        0.247090   -1.207905   -0.000000
      6          1           0       -0.098837    1.958513    1.283789
      7          1           0       -0.098837    1.958513   -1.283789
      8          1           0        0.667358   -0.455946    2.034338
      9          1           0       -1.041041   -0.560191    1.669221
     10          1           0       -1.041041   -0.560191   -1.669221
     11          1           0        0.667358   -0.455946   -2.034338
     12          1           0        1.305988   -1.468869   -0.000000
     13          1           0       -0.314874   -2.140795   -0.000000
 ---------------------------------------------------------------------

 SCF Done:  E(RHF) =  -194.058940475     A.U. after    2 cycles

 The electronic state is 1-A'.
 Alpha  occ. eigenvalues --  -11.22938 -11.22913 -11.22882 -11.22738 -11.22656
 Alpha  occ. eigenvalues --   -1.11800  -0.95821  -0.95034  -0.78688  -0.72354
 Alpha  occ. eigenvalues --   -0.67572  -0.63594  -0.55173  -0.53597  -0.49219
 Alpha  occ. eigenvalues --   -0.49070  -0.48590  -0.47567  -0.34301
 Alpha virt. eigenvalues --    0.03667   0.04687   0.04715   0.05075   0.06542
 Alpha virt. eigenvalues --    0.06917   0.07028   0.07612   0.12317   0.12985
 Alpha virt. eigenvalues --    0.13288   0.13882   0.15135   0.15207   0.16143

 Mulliken charges:
               1
     1  C    0.135643
     2  C    0.135643
     3  C    0.184775
     4  C    0.184775
     5  C    0.308220
     6  H   -0.299567
     7  H   -0.299567
     8  H   -0.041174
     9  H   -0.033304
    10  H   -0.033304
    11  H   -0.041174
    12  H   -0.128959
    13  H   -0.072006
 Sum of Mulliken charges =  -0.00000

 Dipole moment (field-independent basis, Debye):
    X=             -0.0671    Y=             -0.2271    Z=              0.0000  Tot=              0.2368

 Test job not archived.
 1\1\GINC-SE152\SP\RHF\Aug-CC-pVDZ\C5H8\OHZDE\05-Apr-2025\0\\#t hf aug-
 cc-pvdz iop(5/13=1,5/36=2,99/5=2) pseudo=read geom=check guess=(read,t
 check) scf=(maxcycle=1)\\title\\0,1\C,0,-0.063692,1.07209,0.664505\C,0
 ,-0.063692,1.07209,-0.664505\C,0,-0.063692,-0.324395,1.233989\C,0,-0.0
 63692,-0.324395,-1.233989\C,0,0.24709,-1.207905,0.\H,0,-0.098837,1.958
 513,1.283789\H,0,-0.098837,1.958513,-1.283789\H,0,0.667358,-0.455946,2
 .034338\H,0,-1.041041,-0.560191,1.669221\H,0,-1.041041,-0.560191,-1.66
 9221\H,0,0.667358,-0.455946,-2.034338\H,0,1.305988,-1.468869,0.\H,0,-0

 Normal termination of Gaussian 16 at Sat Apr  5 22:54:53 2025.
