 Gaussian 16, Revision C.01,

 ----------------------------------------------------------------------
 #t hf aug-cc-pvdz symm=none int=(grid=ultrafine) guess=(read,tcheck) s
 table=(opt,rrhf)
 ----------------------------------------------------------------------
 -----
 title
 -----
 Symbolic Z-matrix:
 Charge =  0 Multiplicity = 1

 SCF Done:  E(RHF) =  -273.258642816     A.U. after   11 cycles
 Normal termination of Gaussian 16 at Sat Apr  5 22:54:38 2025.
 Gaussian 16:  ES64L-G16RevC.01  3-Jul-2019

 ----------------------------------------------------------------------
 #t hf aug-cc-pvdz iop(5/13=1,5/36=2,99/5=2) pseudo=read geom=check gue
 ss=(read,tcheck) scf=(maxcycle=1)
 ----------------------------------------------------------------------
 -----
 title
 -----
 Structure from the checkpoint file:  "cycloheptane.chk"
 Charge =  0 Multiplicity = 1

                         Standard orientation:
 ---------------------------------------------------------------------
 Center     Atomic      Atomic             Coordinates (Angstroms)
 Number     Number       Type             X           Y           Z
 ---------------------------------------------------------------------
      1          6           0        0.000000   -0.000000    1.772157
      2          6           0        0.703601    1.107660    0.968327
      3          6           0       -0.703601   -1.107660    0.968327
      4          6           0       -0.000000    1.576287   -0.314065
      5          6           0       -0.000000   -1.576287   -0.314065
      6          6           0        0.302469    0.703389   -1.539522
      7          6           0       -0.302469   -0.703389   -1.539522
      8          1           0       -0.742021    0.456246    2.433052
      9          1           0        0.742021   -0.456246    2.433052
     10          1           0        1.710243    0.776893    0.696626
     11          1           0       -1.710243   -0.776893    0.696626
     12          1           0        0.847619    1.961484    1.634661
     13          1           0       -0.847619   -1.961484    1.634661
     14          1           0        0.331829    2.593009   -0.538454
     15          1           0       -0.331829   -2.593009   -0.538454
     16          1           0       -1.081166    1.642958   -0.154172
     17          1           0        1.081166   -1.642958   -0.154172
     18          1           0        1.390576    0.624307   -1.637984
     19          1           0       -1.390576   -0.624307   -1.637984
     20          1           0       -0.042785    1.221357   -2.438645
     21          1           0        0.042785   -1.221357   -2.438645
 ---------------------------------------------------------------------

 SCF Done:  E(RHF) =  -273.343058821     A.U. after    2 cycles

 The electronic state is 1-A.
 Alpha  occ. eigenvalues --  -11.22100 -11.22094 -11.22070 -11.22053 -11.22014
 Alpha  occ. eigenvalues --  -11.21985 -11.21969  -1.09209  -1.01540  -1.01464
 Alpha  occ. eigenvalues --   -0.87667  -0.87607  -0.76459  -0.74706  -0.64688
 Alpha  occ. eigenvalues --   -0.62147  -0.61099  -0.58930  -0.55651  -0.55194
 Alpha  occ. eigenvalues --   -0.52194  -0.51726  -0.46339  -0.46202  -0.45602
 Alpha  occ. eigenvalues --   -0.44200  -0.43502  -0.43452
 Alpha virt. eigenvalues --    0.03609   0.04201   0.04362   0.04566   0.06179
 Alpha virt. eigenvalues --    0.06242   0.06614   0.06751   0.06939   0.08917
 Alpha virt. eigenvalues --    0.08987   0.09114   0.09420   0.09458   0.13651

 Mulliken charges:
               1
     1  C    0.055514
     2  C    0.167136
     3  C    0.167136
     4  C    0.462663
     5  C    0.462663
     6  C    0.133483
     7  C    0.133483
     8  H   -0.070550
     9  H   -0.070550
    10  H   -0.136595
    11  H   -0.136595
    12  H   -0.133651
    13  H   -0.133651
    14  H   -0.139431
    15  H   -0.139431
    16  H   -0.117872
    17  H   -0.117872
    18  H   -0.074182
    19  H   -0.074182
    20  H   -0.118758
    21  H   -0.118758
 Sum of Mulliken charges =  -0.00000

 Dipole moment (field-independent basis, Debye):
    X=             -0.0000    Y=             -0.0000    Z=             -0.0071  Tot=              0.0071

 Test job not archived.
 1\1\GINC-SE046\SP\RHF\Aug-CC-pVDZ\C7H14\OHZDE\05-Apr-2025\0\\#t hf aug
 -cc-pvdz iop(5/13=1,5/36=2,99/5=2) pseudo=read geom=check guess=(read,
 tcheck) scf=(maxcycle=1)\\title\\0,1\C,0,0.,0.,1.772157\C,0,0.703601,1
 .10766,0.968327\C,0,-0.703601,-1.10766,0.968327\C,0,0.,1.576287,-0.314
 065\C,0,0.,-1.576287,-0.314065\C,0,0.302469,0.703389,-1.539522\C,0,-0.
 302469,-0.703389,-1.539522\H,0,-0.742021,0.456246,2.433052\H,0,0.74202
 1,-0.456246,2.433052\H,0,1.710243,0.776893,0.696626\H,0,-1.710243,-0.7
 76893,0.696626\H,0,0.847619,1.961484,1.634661\H,0,-0.847619,-1.961484,

 Normal termination of Gaussian 16 at Sat Apr  5 22:54:44 2025.
