 Gaussian 16, Revision C.01,

 ----------------------------------------------------------------------
 #t hf aug-cc-pvdz symm=none int=(grid=ultrafine) guess=(read,tcheck) s
 table=(opt,rrhf)
 ----------------------------------------------------------------------
 -----
 title
 -----
 Symbolic Z-matrix:
 Charge =  0 Multiplicity = 1

 SCF Done:  E(RHF) =  -229.827238494     A.U. after   13 cycles
 Normal termination of Gaussian 16 at Sat Apr  5 22:53:42 2025.
 Gaussian 16:  ES64L-G16RevC.01  3-Jul-2019

 ----------------------------------------------------------------------
 #t hf aug-cc-pvdz iop(5/13=1,5/36=2,99/5=2) pseudo=read geom=check gue
 ss=(read,tcheck) scf=(maxcycle=1)
 ----------------------------------------------------------------------
 -----
 title
 -----
 Structure from the checkpoint file:  "cyclobutanone.chk"
 Charge =  0 Multiplicity = 1

                         Standard orientation:
 ---------------------------------------------------------------------
 Center     Atomic      Atomic             Coordinates (Angstroms)
 Number     Number       Type             X           Y           Z
 ---------------------------------------------------------------------
      1          1           0       -0.839567   -2.094249    0.000000
      2          1           0        0.927182   -2.122428    0.000000
      3          6           0        0.054138   -1.475036    0.000000
      4          8           0       -0.153392    1.866794   -0.000000
      5          6           0       -0.034224    0.676084   -0.000000
      6          1           0        0.974306   -0.304588    1.688889
      7          1           0        0.974306   -0.304588   -1.688889
      8          1           0       -0.789114   -0.376716    1.798667
      9          1           0       -0.789114   -0.376716   -1.798667
     10          6           0        0.054138   -0.380113    1.107874
     11          6           0        0.054138   -0.380113   -1.107874
 ---------------------------------------------------------------------

 SCF Done:  E(RHF) =  -229.898539275     A.U. after    2 cycles

 The electronic state is 1-A'.
 Alpha  occ. eigenvalues --  -20.56871 -11.34384 -11.25147 -11.25031 -11.25018
 Alpha  occ. eigenvalues --   -1.36025  -1.12687  -0.93311  -0.86790  -0.73184
 Alpha  occ. eigenvalues --   -0.67903  -0.67102  -0.63074  -0.56949  -0.55293
 Alpha  occ. eigenvalues --   -0.51364  -0.48991  -0.48845  -0.41006
 Alpha virt. eigenvalues --    0.03253   0.04430   0.04673   0.05117   0.06629
 Alpha virt. eigenvalues --    0.07267   0.09004   0.11587   0.11765   0.12323
 Alpha virt. eigenvalues --    0.13675   0.14095   0.15397   0.15584   0.15709

 Mulliken charges:
               1
     1  H   -0.154755
     2  H   -0.179189
     3  C    0.538039
     4  O   -0.454773
     5  C    0.121017
     6  H   -0.062470
     7  H   -0.062470
     8  H   -0.103445
     9  H   -0.103445
    10  C    0.230745
    11  C    0.230745
 Sum of Mulliken charges =  -0.00000

 Dipole moment (field-independent basis, Debye):
    X=              0.3623    Y=             -3.6701    Z=              0.0000  Tot=              3.6879

 Test job not archived.
 1\1\GINC-SE012\SP\RHF\Aug-CC-pVDZ\C4H6O1\OHZDE\05-Apr-2025\0\\#t hf au
 g-cc-pvdz iop(5/13=1,5/36=2,99/5=2) pseudo=read geom=check guess=(read
 ,tcheck) scf=(maxcycle=1)\\title\\0,1\H,0,-0.839567,-2.094249,0.\H,0,0
 .927182,-2.122428,0.\C,0,0.054138,-1.475036,0.\O,0,-0.153392,1.866794,
 0.\C,0,-0.034224,0.676084,0.\H,0,0.974306,-0.304588,1.688889\H,0,0.974
 306,-0.304588,-1.688889\H,0,-0.789114,-0.376716,1.798667\H,0,-0.789114
 ,-0.376716,-1.798667\C,0,0.054138,-0.380113,1.107874\C,0,0.054138,-0.3
 80113,-1.107874\\Version=ES64L-G16RevC.01\State=1-A'\HF=-229.8985393\R

 Normal termination of Gaussian 16 at Sat Apr  5 22:53:46 2025.
