 Gaussian 16, Revision C.01,

 ----------------------------------------------------------------------
 #t hf aug-cc-pvdz symm=none int=(grid=ultrafine) guess=(read,tcheck) s
 table=(opt,rrhf)
 ----------------------------------------------------------------------
 -----
 title
 -----
 Symbolic Z-matrix:
 Charge =  0 Multiplicity = 1

 SCF Done:  E(RHF) =  -268.899919965     A.U. after   14 cycles
 Normal termination of Gaussian 16 at Sat Apr  5 22:55:00 2025.
 Gaussian 16:  ES64L-G16RevC.01  3-Jul-2019

 ----------------------------------------------------------------------
 #t hf aug-cc-pvdz iop(5/13=1,5/36=2,99/5=2) pseudo=read geom=check gue
 ss=(read,tcheck) scf=(maxcycle=1)
 ----------------------------------------------------------------------
 -----
 title
 -----
 Structure from the checkpoint file:  "cyclopentanone.chk"
 Charge =  0 Multiplicity = 1

                         Standard orientation:
 ---------------------------------------------------------------------
 Center     Atomic      Atomic             Coordinates (Angstroms)
 Number     Number       Type             X           Y           Z
 ---------------------------------------------------------------------
      1          6           0        0.000000    0.771638   -1.378323
      2          1           0       -0.624422    1.190682   -2.165746
      3          1           0        1.015837    1.139927   -1.539367
      4          6           0       -0.000000   -0.771638   -1.378323
      5          1           0        0.624422   -1.190682   -2.165746
      6          1           0       -1.015837   -1.139927   -1.539367
      7          6           0        0.473205   -1.145341    0.031186
      8          1           0        1.566143   -1.166083    0.089614
      9          1           0        0.115834   -2.102523    0.407428
     10          6           0       -0.473205    1.145341    0.031186
     11          1           0       -0.115834    2.102523    0.407428
     12          1           0       -1.566143    1.166083    0.089614
     13          6           0        0.000000   -0.000000    0.924314
     14          8           0        0.000000   -0.000000    2.129486
 ---------------------------------------------------------------------

 SCF Done:  E(RHF) =  -268.982419185     A.U. after    2 cycles

 The electronic state is 1-A.
 Alpha  occ. eigenvalues --  -20.55827 -11.33841 -11.24605 -11.24560 -11.24470
 Alpha  occ. eigenvalues --  -11.24468  -1.35083  -1.12162  -0.98754  -0.93674
 Alpha  occ. eigenvalues --   -0.81206  -0.73816  -0.67567  -0.67389  -0.60654
 Alpha  occ. eigenvalues --   -0.59666  -0.57488  -0.56519  -0.51078  -0.49602
 Alpha  occ. eigenvalues --   -0.48851  -0.48411  -0.40697
 Alpha virt. eigenvalues --    0.03148   0.04204   0.04375   0.04924   0.06616
 Alpha virt. eigenvalues --    0.06746   0.06940   0.07404   0.09499   0.11949
 Alpha virt. eigenvalues --    0.13932   0.14034   0.14350   0.14654   0.15348

 Mulliken charges:
               1
     1  C    0.398165
     2  H   -0.074394
     3  H   -0.146064
     4  C    0.398165
     5  H   -0.074394
     6  H   -0.146064
     7  C    0.110878
     8  H    0.011311
     9  H   -0.045033
    10  C    0.110878
    11  H   -0.045033
    12  H    0.011311
    13  C    0.015947
    14  O   -0.525675
 Sum of Mulliken charges =  -0.00000

 Dipole moment (field-independent basis, Debye):
    X=             -0.0000    Y=              0.0000    Z=             -3.8334  Tot=              3.8334

 Test job not archived.
 1\1\GINC-SE152\SP\RHF\Aug-CC-pVDZ\C5H8O1\OHZDE\05-Apr-2025\0\\#t hf au
 g-cc-pvdz iop(5/13=1,5/36=2,99/5=2) pseudo=read geom=check guess=(read
 ,tcheck) scf=(maxcycle=1)\\title\\0,1\C,0,0.,0.771638,-1.378323\H,0,-0
 .624422,1.190682,-2.165746\H,0,1.015837,1.139927,-1.539367\C,0,0.,-0.7
 71638,-1.378323\H,0,0.624422,-1.190682,-2.165746\H,0,-1.015837,-1.1399
 27,-1.539367\C,0,0.473205,-1.145341,0.031186\H,0,1.566143,-1.166083,0.
 089614\H,0,0.115834,-2.102523,0.407428\C,0,-0.473205,1.145341,0.031186
 \H,0,-0.115834,2.102523,0.407428\H,0,-1.566143,1.166083,0.089614\C,0,0

 Normal termination of Gaussian 16 at Sat Apr  5 22:55:48 2025.
