 Gaussian 16, Revision C.01,

 ----------------------------------------------------------------------
 #t hf aug-cc-pvdz symm=none int=(grid=ultrafine) guess=(read,tcheck) s
 table=(opt,rrhf)
 ----------------------------------------------------------------------
 -----
 title
 -----
 Symbolic Z-matrix:
 Charge =  0 Multiplicity = 1

 SCF Done:  E(RHF) =  -230.984854925     A.U. after   12 cycles
 Normal termination of Gaussian 16 at Sat Apr  5 22:53:49 2025.
 Gaussian 16:  ES64L-G16RevC.01  3-Jul-2019

 ----------------------------------------------------------------------
 #t hf aug-cc-pvdz iop(5/13=1,5/36=2,99/5=2) pseudo=read geom=check gue
 ss=(read,tcheck) scf=(maxcycle=1)
 ----------------------------------------------------------------------
 -----
 title
 -----
 Structure from the checkpoint file:  "cyclobutanol.chk"
 Charge =  0 Multiplicity = 1

                         Standard orientation:
 ---------------------------------------------------------------------
 Center     Atomic      Atomic             Coordinates (Angstroms)
 Number     Number       Type             X           Y           Z
 ---------------------------------------------------------------------
      1          1           0       -1.297824    0.008644   -1.543899
      2          1           0       -2.422921    0.029181   -0.180212
      3          6           0       -1.370643    0.014803   -0.458265
      4          1           0       -0.900800    1.519610    1.097315
      5          1           0       -0.113750    1.903984   -0.444735
      6          6           0       -0.464979    1.093290    0.193316
      7          1           0        0.987868   -0.008659    1.529152
      8          6           0        0.579115   -0.009257    0.514978
      9          1           0       -0.932014   -1.492737    1.105684
     10          1           0       -0.141293   -1.892778   -0.431151
     11          6           0       -0.487824   -1.078003    0.201469
     12          1           0        2.214363    0.655067   -0.337686
     13          8           0        1.634045   -0.105913   -0.437932
 ---------------------------------------------------------------------

 SCF Done:  E(RHF) =  -231.056958434     A.U. after    2 cycles

 The electronic state is 1-A.
 Alpha  occ. eigenvalues --  -20.56934 -11.28556 -11.22762 -11.22651 -11.22422
 Alpha  occ. eigenvalues --   -1.31896  -1.10409  -0.90172  -0.88535  -0.75555
 Alpha  occ. eigenvalues --   -0.70416  -0.66001  -0.62900  -0.57837  -0.53948
 Alpha  occ. eigenvalues --   -0.52984  -0.48014  -0.47269  -0.43756  -0.42081
 Alpha virt. eigenvalues --    0.03542   0.04560   0.04749   0.05222   0.06755
 Alpha virt. eigenvalues --    0.06796   0.07183   0.08097   0.11942   0.12861
 Alpha virt. eigenvalues --    0.13263   0.13968   0.15193   0.15272   0.15935

 Mulliken charges:
               1
     1  H   -0.170353
     2  H   -0.214857
     3  C    0.456242
     4  H   -0.150993
     5  H   -0.193695
     6  C    0.316067
     7  H   -0.214897
     8  C    0.590105
     9  H   -0.156293
    10  H   -0.158338
    11  C    0.357875
    12  H    0.142517
    13  O   -0.603380
 Sum of Mulliken charges =   0.00000

 Dipole moment (field-independent basis, Debye):
    X=             -0.3521    Y=              1.2750    Z=              1.1244  Tot=              1.7360

 Test job not archived.
 1\1\GINC-SE011\SP\RHF\Aug-CC-pVDZ\C4H8O1\OHZDE\05-Apr-2025\0\\#t hf au
 g-cc-pvdz iop(5/13=1,5/36=2,99/5=2) pseudo=read geom=check guess=(read
 ,tcheck) scf=(maxcycle=1)\\title\\0,1\H,0,-1.297824,0.008644,-1.543899
 \H,0,-2.422921,0.029181,-0.180212\C,0,-1.370643,0.014803,-0.458265\H,0
 ,-0.9008,1.51961,1.097315\H,0,-0.11375,1.903984,-0.444735\C,0,-0.46497
 9,1.09329,0.193316\H,0,0.987868,-0.008659,1.529152\C,0,0.579115,-0.009
 257,0.514978\H,0,-0.932014,-1.492737,1.105684\H,0,-0.141293,-1.892778,
 -0.431151\C,0,-0.487824,-1.078003,0.201469\H,0,2.214363,0.655067,-0.33

 Normal termination of Gaussian 16 at Sat Apr  5 22:53:53 2025.
