 Gaussian 16, Revision C.01,

 ----------------------------------------------------------------------
 #t hf aug-cc-pvdz symm=none int=(grid=ultrafine) guess=(read,tcheck) s
 table=(opt,rrhf)
 ----------------------------------------------------------------------
 -----
 title
 -----
 Symbolic Z-matrix:
 Charge =  0 Multiplicity = 1

 SCF Done:  E(RHF) =  -307.559574478     A.U. after   11 cycles
 Normal termination of Gaussian 16 at Sat Apr  5 22:55:17 2025.
 Gaussian 16:  ES64L-G16RevC.01  3-Jul-2019

 ----------------------------------------------------------------------
 #t hf aug-cc-pvdz iop(5/13=1,5/36=2,99/5=2) pseudo=read geom=check gue
 ss=(read,tcheck) scf=(maxcycle=1)
 ----------------------------------------------------------------------
 -----
 title
 -----
 Structure from the checkpoint file:  "cyclooctatetraene.chk"
 Charge =  0 Multiplicity = 1

                         Standard orientation:
 ---------------------------------------------------------------------
 Center     Atomic      Atomic             Coordinates (Angstroms)
 Number     Number       Type             X           Y           Z
 ---------------------------------------------------------------------
      1          6           0        0.667787    1.563913    0.371103
      2          6           0       -0.667787    1.563913    0.371103
      3          6           0        0.667787   -1.563913    0.371103
      4          6           0       -0.667787   -1.563913    0.371103
      5          6           0        1.563913    0.667787   -0.371103
      6          6           0       -1.563913    0.667787   -0.371103
      7          6           0        1.563913   -0.667787   -0.371103
      8          6           0       -1.563913   -0.667787   -0.371103
      9          1           0        1.166556    2.358559    0.918777
     10          1           0       -1.166556    2.358559    0.918777
     11          1           0        1.166556   -2.358559    0.918777
     12          1           0       -1.166556   -2.358559    0.918777
     13          1           0        2.358559    1.166556   -0.918777
     14          1           0       -2.358559    1.166556   -0.918777
     15          1           0        2.358559   -1.166556   -0.918777
     16          1           0       -2.358559   -1.166556   -0.918777
 ---------------------------------------------------------------------

 SCF Done:  E(RHF) =  -307.651714327     A.U. after    2 cycles

 The electronic state is 1-A1.
 Alpha  occ. eigenvalues --  -11.24731 -11.24709 -11.24709 -11.24664 -11.24582
 Alpha  occ. eigenvalues --  -11.24529 -11.24529 -11.24501  -1.12039  -1.05426
 Alpha  occ. eigenvalues --   -1.05426  -0.95405  -0.89597  -0.77884  -0.77884
 Alpha  occ. eigenvalues --   -0.69485  -0.63590  -0.63269  -0.63269  -0.62995
 Alpha  occ. eigenvalues --   -0.59112  -0.51709  -0.51709  -0.48183  -0.44417
 Alpha  occ. eigenvalues --   -0.37890  -0.37890  -0.30239
 Alpha virt. eigenvalues --    0.03442   0.04105   0.04105   0.04833   0.05513
 Alpha virt. eigenvalues --    0.06320   0.06320   0.07480   0.08314   0.11886
 Alpha virt. eigenvalues --    0.11886   0.12277   0.14042   0.15055   0.15055

 Mulliken charges:
               1
     1  C    0.404361
     2  C    0.404361
     3  C    0.404361
     4  C    0.404361
     5  C    0.404361
     6  C    0.404361
     7  C    0.404361
     8  C    0.404361
     9  H   -0.404361
    10  H   -0.404361
    11  H   -0.404361
    12  H   -0.404361
    13  H   -0.404361
    14  H   -0.404361
    15  H   -0.404361
    16  H   -0.404361
 Sum of Mulliken charges =  -0.00000

 Dipole moment (field-independent basis, Debye):
    X=             -0.0000    Y=              0.0000    Z=             -0.0000  Tot=              0.0000

 Test job not archived.
 1\1\GINC-SE107\SP\RHF\Aug-CC-pVDZ\C8H8\OHZDE\05-Apr-2025\0\\#t hf aug-
 cc-pvdz iop(5/13=1,5/36=2,99/5=2) pseudo=read geom=check guess=(read,t
 check) scf=(maxcycle=1)\\title\\0,1\C,0,0.667787,1.563913,0.371103\C,0
 ,-0.667787,1.563913,0.371103\C,0,0.667787,-1.563913,0.371103\C,0,-0.66
 7787,-1.563913,0.371103\C,0,1.563913,0.667787,-0.371103\C,0,-1.563913,
 0.667787,-0.371103\C,0,1.563913,-0.667787,-0.371103\C,0,-1.563913,-0.6
 67787,-0.371103\H,0,1.166556,2.358559,0.918777\H,0,-1.166556,2.358559,
 0.918777\H,0,1.166556,-2.358559,0.918777\H,0,-1.166556,-2.358559,0.918

 Normal termination of Gaussian 16 at Sat Apr  5 22:55:49 2025.
