 Gaussian 16, Revision C.01,

 ----------------------------------------------------------------------
 #t hf aug-cc-pvdz symm=none int=(grid=ultrafine) guess=(read,tcheck) s
 table=(opt,rrhf)
 ----------------------------------------------------------------------
 -----
 title
 -----
 Symbolic Z-matrix:
 Charge =  0 Multiplicity = 1

 SCF Done:  E(RHF) =  -208.817796322     A.U. after   14 cycles
 Normal termination of Gaussian 16 at Sat Apr  5 22:54:43 2025.
 Gaussian 16:  ES64L-G16RevC.01  3-Jul-2019

 ----------------------------------------------------------------------
 #t hf aug-cc-pvdz iop(5/13=1,5/36=2,99/5=2) pseudo=read geom=check gue
 ss=(read,tcheck) scf=(maxcycle=1)
 ----------------------------------------------------------------------
 -----
 title
 -----
 Structure from the checkpoint file:  "cyclopropanecarbonitrile.chk"
 Charge =  0 Multiplicity = 1

                         Standard orientation:
 ---------------------------------------------------------------------
 Center     Atomic      Atomic             Coordinates (Angstroms)
 Number     Number       Type             X           Y           Z
 ---------------------------------------------------------------------
      1          1           0        0.336332    2.019953    1.266776
      2          1           0        0.336332    2.019953   -1.266776
      3          1           0       -1.118471    0.924048   -1.256429
      4          1           0       -1.118471    0.924048    1.256429
      5          1           0        1.651115    0.325415   -0.000000
      6          6           0        0.575980    0.213094   -0.000000
      7          7           0       -0.228299   -2.244511    0.000000
      8          6           0        0.132495   -1.150808    0.000000
      9          6           0       -0.228299    1.260370    0.746697
     10          6           0       -0.228299    1.260370   -0.746697
 ---------------------------------------------------------------------

 SCF Done:  E(RHF) =  -208.882082032     A.U. after    2 cycles

 The electronic state is 1-A'.
 Alpha  occ. eigenvalues --  -15.63395 -11.29735 -11.28623 -11.27430 -11.27371
 Alpha  occ. eigenvalues --   -1.20183  -1.16266  -0.91707  -0.85759  -0.74188
 Alpha  occ. eigenvalues --   -0.68901  -0.60110  -0.55464  -0.54205  -0.52499
 Alpha  occ. eigenvalues --   -0.49968  -0.44435  -0.41911
 Alpha virt. eigenvalues --    0.02702   0.04207   0.04362   0.05310   0.06870
 Alpha virt. eigenvalues --    0.09285   0.10108   0.11102   0.11244   0.13528
 Alpha virt. eigenvalues --    0.14385   0.15139   0.15203   0.15370   0.15730

 Mulliken charges:
               1
     1  H   -0.288486
     2  H   -0.288486
     3  H   -0.333063
     4  H   -0.333063
     5  H   -0.300514
     6  C    0.982137
     7  N   -0.127541
     8  C   -0.766555
     9  C    0.727785
    10  C    0.727785
 Sum of Mulliken charges =   0.00000

 Dipole moment (field-independent basis, Debye):
    X=              0.9078    Y=              4.4274    Z=              0.0000  Tot=              4.5195

 Test job not archived.
 1\1\GINC-SE154\SP\RHF\Aug-CC-pVDZ\C4H5N1\OHZDE\05-Apr-2025\0\\#t hf au
 g-cc-pvdz iop(5/13=1,5/36=2,99/5=2) pseudo=read geom=check guess=(read
 ,tcheck) scf=(maxcycle=1)\\title\\0,1\H,0,0.336332,2.019953,1.266776\H
 ,0,0.336332,2.019953,-1.266776\H,0,-1.118471,0.924048,-1.256429\H,0,-1
 .118471,0.924048,1.256429\H,0,1.651115,0.325415,0.\C,0,0.57598,0.21309
 4,0.\N,0,-0.228299,-2.244511,0.\C,0,0.132495,-1.150808,0.\C,0,-0.22829
 9,1.26037,0.746697\C,0,-0.228299,1.26037,-0.746697\\Version=ES64L-G16R
 evC.01\State=1-A'\HF=-208.882082\RMSD=4.393e-03\Dipole=0.3571621,1.741

 Normal termination of Gaussian 16 at Sat Apr  5 22:54:45 2025.
