 Gaussian 16, Revision C.01,

 ----------------------------------------------------------------------
 #t hf aug-cc-pvdz symm=none int=(grid=ultrafine) guess=(read,tcheck) s
 table=(opt,rrhf)
 ----------------------------------------------------------------------
 -----
 title
 -----
 Symbolic Z-matrix:
 Charge =  0 Multiplicity = 1

 SCF Done:  E(RHF) =  -592.718638495     A.U. after   12 cycles

 1\1\GINC-SE169\Stability\RHF\Aug-CC-pVDZ\C5H10S1\OHZDE\05-Apr-2025\0\\
 #t hf aug-cc-pvdz symm=none int=(grid=ultrafine) guess=(read,tcheck) s
 table=(opt,rrhf)\\title\\0,1\H,0,-2.590075,1.232318,-0.681766\H,0,-2.2
 38693,1.10127,1.02853\C,0,-1.912106,0.776892,0.039228\H,0,-2.427878,-1
 .128437,-0.935303\H,0,-2.435411,-1.206457,0.811001\C,0,-1.913085,-0.77
 5183,-0.042566\H,0,-0.116781,-1.457884,-1.078076\H,0,-0.224491,-2.0762
 59,0.562195\C,0,-0.425486,-1.206167,-0.060963\H,0,-0.202025,2.158408,0
 .251061\H,0,-0.233592,1.261134,-1.263701\C,0,-0.451026,1.195668,-0.195

 Normal termination of Gaussian 16 at Sat Apr  5 22:55:08 2025.
 Gaussian 16:  ES64L-G16RevC.01  3-Jul-2019

 ----------------------------------------------------------------------
 #t hf aug-cc-pvdz iop(5/13=1,5/36=2,99/5=2) pseudo=read geom=check gue
 ss=(read,tcheck) scf=(maxcycle=1)
 ----------------------------------------------------------------------
 -----
 title
 -----
 Structure from the checkpoint file:  "cyclopentanethiol.chk"
 Charge =  0 Multiplicity = 1

                         Standard orientation:
 ---------------------------------------------------------------------
 Center     Atomic      Atomic             Coordinates (Angstroms)
 Number     Number       Type             X           Y           Z
 ---------------------------------------------------------------------
      1          1           0       -2.590075    1.232318   -0.681766
      2          1           0       -2.238693    1.101270    1.028530
      3          6           0       -1.912106    0.776892    0.039228
      4          1           0       -2.427878   -1.128437   -0.935303
      5          1           0       -2.435411   -1.206457    0.811001
      6          6           0       -1.913085   -0.775183   -0.042566
      7          1           0       -0.116781   -1.457884   -1.078076
      8          1           0       -0.224491   -2.076259    0.562195
      9          6           0       -0.425486   -1.206167   -0.060963
     10          1           0       -0.202025    2.158408    0.251061
     11          1           0       -0.233592    1.261134   -1.263701
     12          6           0       -0.451026    1.195668   -0.195623
     13          1           0        0.319079    0.094769    1.494721
     14          6           0        0.345505    0.036292    0.405726
     15          1           0        2.525374    1.067170    0.480115
     16         16           0        2.110105   -0.075690   -0.096475
 ---------------------------------------------------------------------

 SCF Done:  E(RHF) =  -592.797255522     A.U. after    2 cycles

 The electronic state is 1-A.
 Alpha  occ. eigenvalues --  -93.52738 -11.26994 -11.23544 -11.23316 -11.23258
 Alpha  occ. eigenvalues --  -11.23203  -8.82471  -6.16657  -6.16429  -6.16090
 Alpha  occ. eigenvalues --   -1.12588  -1.00169  -0.96699  -0.89693  -0.78603
 Alpha  occ. eigenvalues --   -0.77179  -0.66774  -0.63658  -0.59381  -0.58550
 Alpha  occ. eigenvalues --   -0.52660  -0.49236  -0.48610  -0.48151  -0.47168
 Alpha  occ. eigenvalues --   -0.46474  -0.43420  -0.34953
 Alpha virt. eigenvalues --    0.03444   0.04355   0.04578   0.04985   0.06569
 Alpha virt. eigenvalues --    0.06805   0.06885   0.07287   0.07391   0.09256
 Alpha virt. eigenvalues --    0.10746   0.12321   0.13964   0.14116   0.14412

 Mulliken charges:
               1
     1  H   -0.123512
     2  H   -0.152872
     3  C    0.290881
     4  H   -0.089714
     5  H   -0.095765
     6  C    0.288076
     7  H   -0.161056
     8  H   -0.130742
     9  C    0.352761
    10  H   -0.131027
    11  H   -0.129386
    12  C    0.340050
    13  H   -0.226695
    14  C   -0.435261
    15  H    0.020101
    16  S    0.384161
 Sum of Mulliken charges =  -0.00000

 Dipole moment (field-independent basis, Debye):
    X=             -1.6886    Y=              0.7048    Z=              0.6844  Tot=              1.9536

 Test job not archived.
 1\1\GINC-SE169\SP\RHF\Aug-CC-pVDZ\C5H10S1\OHZDE\05-Apr-2025\0\\#t hf a
 ug-cc-pvdz iop(5/13=1,5/36=2,99/5=2) pseudo=read geom=check guess=(rea
 d,tcheck) scf=(maxcycle=1)\\title\\0,1\H,0,-2.590075,1.232318,-0.68176
 6\H,0,-2.238693,1.10127,1.02853\C,0,-1.912106,0.776892,0.039228\H,0,-2
 .427878,-1.128437,-0.935303\H,0,-2.435411,-1.206457,0.811001\C,0,-1.91
 3085,-0.775183,-0.042566\H,0,-0.116781,-1.457884,-1.078076\H,0,-0.2244
 91,-2.076259,0.562195\C,0,-0.425486,-1.206167,-0.060963\H,0,-0.202025,
 2.158408,0.251061\H,0,-0.233592,1.261134,-1.263701\C,0,-0.451026,1.195

 Normal termination of Gaussian 16 at Sat Apr  5 22:55:50 2025.
