 Gaussian 16, Revision C.01,

 ----------------------------------------------------------------------
 #t hf aug-cc-pvdz symm=none int=(grid=ultrafine) guess=(read,tcheck) s
 table=(opt,rrhf)
 ----------------------------------------------------------------------
 -----
 title
 -----
 Symbolic Z-matrix:
 Charge =  0 Multiplicity = 1

 SCF Done:  E(RHF) =  -115.836539130     A.U. after   11 cycles
 Normal termination of Gaussian 16 at Sat Apr  5 22:54:39 2025.
 Gaussian 16:  ES64L-G16RevC.01  3-Jul-2019

 ----------------------------------------------------------------------
 #t hf aug-cc-pvdz iop(5/13=1,5/36=2,99/5=2) pseudo=read geom=check gue
 ss=(read,tcheck) scf=(maxcycle=1)
 ----------------------------------------------------------------------
 -----
 title
 -----
 Structure from the checkpoint file:  "cyclopropene.chk"
 Charge =  0 Multiplicity = 1

                         Standard orientation:
 ---------------------------------------------------------------------
 Center     Atomic      Atomic             Coordinates (Angstroms)
 Number     Number       Type             X           Y           Z
 ---------------------------------------------------------------------
      1          6           0        0.000000    0.000000    0.861410
      2          6           0        0.000000    0.643280   -0.499979
      3          6           0       -0.000000   -0.643280   -0.499979
      4          1           0        0.000000    1.571117   -1.041246
      5          1           0       -0.000000   -1.571117   -1.041246
      6          1           0        0.910708   -0.000000    1.456887
      7          1           0       -0.910708    0.000000    1.456887
 ---------------------------------------------------------------------

 SCF Done:  E(RHF) =  -115.874911199     A.U. after    2 cycles

 The electronic state is 1-A1.
 Alpha  occ. eigenvalues --  -11.25492 -11.25271 -11.24865  -1.15225  -0.82485
 Alpha  occ. eigenvalues --   -0.76753  -0.68627  -0.59994  -0.49838  -0.42356
 Alpha  occ. eigenvalues --   -0.36208
 Alpha virt. eigenvalues --    0.03808   0.04420   0.05036   0.05713   0.10184
 Alpha virt. eigenvalues --    0.10713   0.10865   0.13133   0.13414   0.15735
 Alpha virt. eigenvalues --    0.16078   0.16247   0.18413   0.18845   0.20995

 Mulliken charges:
               1
     1  C    0.558868
     2  C    0.214268
     3  C    0.214268
     4  H   -0.283081
     5  H   -0.283081
     6  H   -0.210621
     7  H   -0.210621
 Sum of Mulliken charges =   0.00000

 Dipole moment (field-independent basis, Debye):
    X=             -0.0000    Y=             -0.0000    Z=             -0.4865  Tot=              0.4865

 Test job not archived.
 1\1\GINC-SE203\SP\RHF\Aug-CC-pVDZ\C3H4\OHZDE\05-Apr-2025\0\\#t hf aug-
 cc-pvdz iop(5/13=1,5/36=2,99/5=2) pseudo=read geom=check guess=(read,t
 check) scf=(maxcycle=1)\\title\\0,1\C,0,0.,0.,0.86141\C,0,0.,0.64328,-
 0.499979\C,0,0.,-0.64328,-0.499979\H,0,0.,1.571117,-1.041246\H,0,0.,-1
 .571117,-1.041246\H,0,0.910708,0.,1.456887\H,0,-0.910708,0.,1.456887\\
 Version=ES64L-G16RevC.01\State=1-A1\HF=-115.8749112\RMSD=7.402e-03\Dip
 ole=0.,0.,-0.1914171\Quadrupole=-1.0240543,1.2423986,-0.2183443,0.,0.,
 0.\PG=C02V [C2(C1),SGV(C2H2),SGV'(H2)]\\@

 Normal termination of Gaussian 16 at Sat Apr  5 22:54:41 2025.
