 Gaussian 16, Revision C.01,

 ----------------------------------------------------------------------
 #t hf aug-cc-pvdz symm=none int=(grid=ultrafine) guess=(read,tcheck) s
 table=(opt,rrhf)
 ----------------------------------------------------------------------
 -----
 title
 -----
 Symbolic Z-matrix:
 Charge =  0 Multiplicity = 1

 SCF Done:  E(RHF) =  -383.873946311     A.U. after   13 cycles

 1\1\GINC-SE085\Stability\RHF\Aug-CC-pVDZ\C6H12O2\OHZDE\05-Apr-2025\0\\
 #t hf aug-cc-pvdz symm=none int=(grid=ultrafine) guess=(read,tcheck) s
 table=(opt,rrhf)\\title\\0,1\C,0,2.273854,0.274215,-0.203952\C,0,1.762
 908,-1.084479,0.283467\C,0,0.328202,-1.357217,-0.186256\C,0,-0.603815,
 -0.222061,0.229009\C,0,-0.109581,1.12903,-0.279562\C,0,1.321941,1.4042
 84,0.197425\O,0,-1.885928,-0.581152,-0.300631\O,0,-2.882481,0.292841,0
 .300204\H,0,3.273677,0.463179,0.192478\H,0,2.36937,0.253715,-1.294443\
 H,0,1.79563,-1.111497,1.377231\H,0,2.418338,-1.885041,-0.064459\H,0,-0

 Normal termination of Gaussian 16 at Sat Apr  5 22:55:53 2025.
 Gaussian 16:  ES64L-G16RevC.01  3-Jul-2019

 ----------------------------------------------------------------------
 #t hf aug-cc-pvdz iop(5/13=1,5/36=2,99/5=2) pseudo=read geom=check gue
 ss=(read,tcheck) scf=(maxcycle=1)
 ----------------------------------------------------------------------
 -----
 title
 -----
 Structure from the checkpoint file:  "cyclohexyl_hydroperoxide.chk"
 Charge =  0 Multiplicity = 1

                         Standard orientation:
 ---------------------------------------------------------------------
 Center     Atomic      Atomic             Coordinates (Angstroms)
 Number     Number       Type             X           Y           Z
 ---------------------------------------------------------------------
      1          6           0        2.273854    0.274215   -0.203952
      2          6           0        1.762908   -1.084479    0.283467
      3          6           0        0.328202   -1.357217   -0.186256
      4          6           0       -0.603815   -0.222061    0.229009
      5          6           0       -0.109581    1.129030   -0.279562
      6          6           0        1.321941    1.404284    0.197425
      7          8           0       -1.885928   -0.581152   -0.300631
      8          8           0       -2.882481    0.292841    0.300204
      9          1           0        3.273677    0.463179    0.192478
     10          1           0        2.369370    0.253715   -1.294443
     11          1           0        1.795630   -1.111497    1.377231
     12          1           0        2.418338   -1.885041   -0.064459
     13          1           0       -0.041640   -2.299048    0.220652
     14          1           0        0.306159   -1.447044   -1.276226
     15          1           0       -0.688027   -0.199332    1.321058
     16          1           0       -0.139153    1.116756   -1.373872
     17          1           0       -0.781503    1.918852    0.057557
     18          1           0        1.326109    1.510541    1.287156
     19          1           0        1.670130    2.357427   -0.205005
     20          1           0       -3.202874    0.765346   -0.479497
 ---------------------------------------------------------------------

 SCF Done:  E(RHF) =  -383.992252676     A.U. after    2 cycles

 The electronic state is 1-A.
 Alpha  occ. eigenvalues --  -20.63089 -20.63052 -11.28856 -11.23229 -11.23219
 Alpha  occ. eigenvalues --  -11.23041 -11.22964 -11.22854  -1.41440  -1.20548
 Alpha  occ. eigenvalues --   -1.10060  -1.00533  -0.98372  -0.84356  -0.82767
 Alpha  occ. eigenvalues --   -0.77186  -0.72305  -0.67921  -0.64424  -0.64014
 Alpha  occ. eigenvalues --   -0.61480  -0.60271  -0.57557  -0.53753  -0.53356
 Alpha  occ. eigenvalues --   -0.51463  -0.49626  -0.49288  -0.47281  -0.46693
 Alpha  occ. eigenvalues --   -0.44875  -0.43190
 Alpha virt. eigenvalues --    0.03399   0.04012   0.04403   0.04553   0.05943
 Alpha virt. eigenvalues --    0.06395   0.06650   0.06973   0.07175   0.08794
 Alpha virt. eigenvalues --    0.09013   0.09188   0.13266   0.13696   0.14089

 Mulliken charges:
               1
     1  C    0.238421
     2  C    0.297147
     3  C    0.283441
     4  C    0.449384
     5  C    0.126068
     6  C    0.299220
     7  O   -0.517110
     8  O   -0.324352
     9  H   -0.107852
    10  H   -0.098209
    11  H   -0.085166
    12  H   -0.117144
    13  H   -0.088957
    14  H   -0.027822
    15  H   -0.236548
    16  H    0.009548
    17  H   -0.112783
    18  H   -0.078522
    19  H   -0.125749
    20  H    0.216985
 Sum of Mulliken charges =   0.00000

 Dipole moment (field-independent basis, Debye):
    X=              1.6209    Y=              1.2611    Z=             -0.7068  Tot=              2.1719

 Test job not archived.
 1\1\GINC-SE085\SP\RHF\Aug-CC-pVDZ\C6H12O2\OHZDE\05-Apr-2025\0\\#t hf a
 ug-cc-pvdz iop(5/13=1,5/36=2,99/5=2) pseudo=read geom=check guess=(rea
 d,tcheck) scf=(maxcycle=1)\\title\\0,1\C,0,2.273854,0.274215,-0.203952
 \C,0,1.762908,-1.084479,0.283467\C,0,0.328202,-1.357217,-0.186256\C,0,
 -0.603815,-0.222061,0.229009\C,0,-0.109581,1.12903,-0.279562\C,0,1.321
 941,1.404284,0.197425\O,0,-1.885928,-0.581152,-0.300631\O,0,-2.882481,
 0.292841,0.300204\H,0,3.273677,0.463179,0.192478\H,0,2.36937,0.253715,
 -1.294443\H,0,1.79563,-1.111497,1.377231\H,0,2.418338,-1.885041,-0.064

 Normal termination of Gaussian 16 at Sat Apr  5 22:56:03 2025.
