 Gaussian 16, Revision C.01,

 ----------------------------------------------------------------------
 #t hf aug-cc-pvdz symm=none int=(grid=ultrafine) guess=(read,tcheck) s
 table=(opt,rrhf)
 ----------------------------------------------------------------------
 -----
 title
 -----
 Symbolic Z-matrix:
 Charge =  0 Multiplicity = 1

 SCF Done:  E(RHF) =  -269.712399223     A.U. after   13 cycles
 Normal termination of Gaussian 16 at Sat Apr  5 22:55:06 2025.
 Gaussian 16:  ES64L-G16RevC.01  3-Jul-2019

 ----------------------------------------------------------------------
 #t hf aug-cc-pvdz iop(5/13=1,5/36=2,99/5=2) pseudo=read geom=check gue
 ss=(read,tcheck) scf=(maxcycle=1)
 ----------------------------------------------------------------------
 -----
 title
 -----
 Structure from the checkpoint file:  "cycloheptatriene.chk"
 Charge =  0 Multiplicity = 1

                         Standard orientation:
 ---------------------------------------------------------------------
 Center     Atomic      Atomic             Coordinates (Angstroms)
 Number     Number       Type             X           Y           Z
 ---------------------------------------------------------------------
      1          6           0       -0.252782   -1.416887    0.679421
      2          6           0       -0.252782   -1.416887   -0.679421
      3          6           0        0.246301   -0.359998    1.524391
      4          6           0        0.246301   -0.359998   -1.524391
      5          6           0        0.246301    0.949673    1.219657
      6          6           0        0.246301    0.949673   -1.219657
      7          6           0       -0.452117    1.486050    0.000000
      8          1           0       -0.530553   -2.340484    1.174711
      9          1           0       -0.530553   -2.340484   -1.174711
     10          1           0        0.673266   -0.666831    2.473189
     11          1           0        0.673266   -0.666831   -2.473189
     12          1           0        0.749061    1.649053    1.876836
     13          1           0        0.749061    1.649053   -1.876836
     14          1           0       -1.495770    1.152463    0.000000
     15          1           0       -0.452905    2.574307    0.000000
 ---------------------------------------------------------------------

 SCF Done:  E(RHF) =  -269.793436237     A.U. after    2 cycles

 The electronic state is 1-A'.
 Alpha  occ. eigenvalues --  -11.24692 -11.24689 -11.24520 -11.24379 -11.24015
 Alpha  occ. eigenvalues --  -11.23596 -11.23592  -1.12528  -1.03498  -1.03165
 Alpha  occ. eigenvalues --   -0.90361  -0.85848  -0.73827  -0.69985  -0.69281
 Alpha  occ. eigenvalues --   -0.62216  -0.61997  -0.59278  -0.53424  -0.53027
 Alpha  occ. eigenvalues --   -0.50720  -0.48930  -0.44067  -0.35537  -0.30586
 Alpha virt. eigenvalues --    0.03454   0.04053   0.04313   0.05260   0.05733
 Alpha virt. eigenvalues --    0.06381   0.07410   0.07523   0.08584   0.11557
 Alpha virt. eigenvalues --    0.11942   0.12590   0.14358   0.14928   0.15018

 Mulliken charges:
               1
     1  C    0.082490
     2  C    0.082490
     3  C    0.430546
     4  C    0.430546
     5  C    0.599385
     6  C    0.599385
     7  C    0.338618
     8  H   -0.428416
     9  H   -0.428416
    10  H   -0.439665
    11  H   -0.439665
    12  H   -0.391534
    13  H   -0.391534
    14  H    0.033363
    15  H   -0.077595
 Sum of Mulliken charges =  -0.00000

 Dipole moment (field-independent basis, Debye):
    X=              0.1124    Y=              0.3794    Z=              0.0000  Tot=              0.3957

 Test job not archived.
 1\1\GINC-SE014\SP\RHF\Aug-CC-pVDZ\C7H8\OHZDE\05-Apr-2025\0\\#t hf aug-
 cc-pvdz iop(5/13=1,5/36=2,99/5=2) pseudo=read geom=check guess=(read,t
 check) scf=(maxcycle=1)\\title\\0,1\C,0,-0.252782,-1.416887,0.679421\C
 ,0,-0.252782,-1.416887,-0.679421\C,0,0.246301,-0.359998,1.524391\C,0,0
 .246301,-0.359998,-1.524391\C,0,0.246301,0.949673,1.219657\C,0,0.24630
 1,0.949673,-1.219657\C,0,-0.452117,1.48605,0.\H,0,-0.530553,-2.340484,
 1.174711\H,0,-0.530553,-2.340484,-1.174711\H,0,0.673266,-0.666831,2.47
 3189\H,0,0.673266,-0.666831,-2.473189\H,0,0.749061,1.649053,1.876836\H

 Normal termination of Gaussian 16 at Sat Apr  5 22:55:48 2025.
