 Gaussian 16, Revision C.01,

 ----------------------------------------------------------------------
 #t hf aug-cc-pvdz symm=none int=(grid=ultrafine) guess=(read,tcheck) s
 table=(opt,rrhf)
 ----------------------------------------------------------------------
 -----
 title
 -----
 Symbolic Z-matrix:
 Charge =  0 Multiplicity = 1

 SCF Done:  E(RHF) =  -250.221894148     A.U. after   12 cycles

 1\1\GINC-SE171\Stability\RHF\Aug-CC-pVDZ\C5H11N1\OHZDE\05-Apr-2025\0\\
 #t hf aug-cc-pvdz symm=none int=(grid=ultrafine) guess=(read,tcheck) s
 table=(opt,rrhf)\\title\\0,1\N,0,0.137512,2.151652,0.\C,0,0.448122,0.7
 21591,0.\H,0,1.532762,0.530144,0.\H,0,0.53356,2.608259,0.8131\H,0,0.53
 356,2.608259,-0.8131\C,0,-0.167084,-1.496898,0.778524\C,0,-0.167084,-1
 .496898,-0.778524\C,0,-0.167084,-0.013012,-1.194728\C,0,-0.167084,-0.0
 13012,1.194728\H,0,-1.025406,-2.027487,-1.189237\H,0,-1.025406,-2.0274
 87,1.189237\H,0,0.721946,-2.002668,1.157019\H,0,0.721946,-2.002668,-1.

 Normal termination of Gaussian 16 at Sat Apr  5 22:55:08 2025.
 Gaussian 16:  ES64L-G16RevC.01  3-Jul-2019

 ----------------------------------------------------------------------
 #t hf aug-cc-pvdz iop(5/13=1,5/36=2,99/5=2) pseudo=read geom=check gue
 ss=(read,tcheck) scf=(maxcycle=1)
 ----------------------------------------------------------------------
 -----
 title
 -----
 Structure from the checkpoint file:  "cyclopentanamine.chk"
 Charge =  0 Multiplicity = 1

                         Standard orientation:
 ---------------------------------------------------------------------
 Center     Atomic      Atomic             Coordinates (Angstroms)
 Number     Number       Type             X           Y           Z
 ---------------------------------------------------------------------
      1          7           0        0.137512    2.151652    0.000000
      2          6           0        0.448122    0.721591    0.000000
      3          1           0        1.532762    0.530144    0.000000
      4          1           0        0.533560    2.608259    0.813100
      5          1           0        0.533560    2.608259   -0.813100
      6          6           0       -0.167084   -1.496898    0.778524
      7          6           0       -0.167084   -1.496898   -0.778524
      8          6           0       -0.167084   -0.013012   -1.194728
      9          6           0       -0.167084   -0.013012    1.194728
     10          1           0       -1.025406   -2.027487   -1.189237
     11          1           0       -1.025406   -2.027487    1.189237
     12          1           0        0.721946   -2.002668    1.157019
     13          1           0        0.721946   -2.002668   -1.157019
     14          1           0       -1.187175    0.355253   -1.326931
     15          1           0       -1.187175    0.355253    1.326931
     16          1           0        0.370046    0.165478   -2.127734
     17          1           0        0.370046    0.165478    2.127734
 ---------------------------------------------------------------------

 SCF Done:  E(RHF) =  -250.297994796     A.U. after    2 cycles

 The electronic state is 1-A'.
 Alpha  occ. eigenvalues --  -15.60065 -11.25452 -11.22239 -11.22196 -11.21820
 Alpha  occ. eigenvalues --  -11.21810  -1.15748  -1.07483  -0.95440  -0.92516
 Alpha  occ. eigenvalues --   -0.77635  -0.76551  -0.66288  -0.64084  -0.63537
 Alpha  occ. eigenvalues --   -0.59368  -0.56846  -0.49939  -0.47914  -0.47575
 Alpha  occ. eigenvalues --   -0.46926  -0.45520  -0.45166  -0.37997
 Alpha virt. eigenvalues --    0.03485   0.04298   0.04426   0.04712   0.06443
 Alpha virt. eigenvalues --    0.06868   0.07083   0.07203   0.07444   0.09265
 Alpha virt. eigenvalues --    0.09540   0.12841   0.14478   0.14602   0.14937

 Mulliken charges:
               1
     1  N   -0.308799
     2  C    0.055982
     3  H   -0.159090
     4  H   -0.019566
     5  H   -0.019566
     6  C    0.283225
     7  C    0.283225
     8  C    0.372259
     9  C    0.372259
    10  H   -0.112418
    11  H   -0.112418
    12  H   -0.117167
    13  H   -0.117167
    14  H   -0.075822
    15  H   -0.075822
    16  H   -0.124557
    17  H   -0.124557
 Sum of Mulliken charges =  -0.00000

 Dipole moment (field-independent basis, Debye):
    X=              1.2529    Y=             -0.1189    Z=              0.0000  Tot=              1.2586

 Test job not archived.
 1\1\GINC-SE171\SP\RHF\Aug-CC-pVDZ\C5H11N1\OHZDE\05-Apr-2025\0\\#t hf a
 ug-cc-pvdz iop(5/13=1,5/36=2,99/5=2) pseudo=read geom=check guess=(rea
 d,tcheck) scf=(maxcycle=1)\\title\\0,1\N,0,0.137512,2.151652,0.\C,0,0.
 448122,0.721591,0.\H,0,1.532762,0.530144,0.\H,0,0.53356,2.608259,0.813
 1\H,0,0.53356,2.608259,-0.8131\C,0,-0.167084,-1.496898,0.778524\C,0,-0
 .167084,-1.496898,-0.778524\C,0,-0.167084,-0.013012,-1.194728\C,0,-0.1
 67084,-0.013012,1.194728\H,0,-1.025406,-2.027487,-1.189237\H,0,-1.0254
 06,-2.027487,1.189237\H,0,0.721946,-2.002668,1.157019\H,0,0.721946,-2.

 Normal termination of Gaussian 16 at Sat Apr  5 22:55:48 2025.
