 Gaussian 16, Revision C.01,

 ----------------------------------------------------------------------
 #t hf aug-cc-pvdz symm=none int=(grid=ultrafine) guess=(read,tcheck) s
 table=(opt,rrhf)
 ----------------------------------------------------------------------
 -----
 title
 -----
 Symbolic Z-matrix:
 Charge =  0 Multiplicity = 1

 SCF Done:  E(RHF) =  -247.859840760     A.U. after   14 cycles
 Normal termination of Gaussian 16 at Sat Apr  5 22:53:57 2025.
 Gaussian 16:  ES64L-G16RevC.01  3-Jul-2019

 ----------------------------------------------------------------------
 #t hf aug-cc-pvdz iop(5/13=1,5/36=2,99/5=2) pseudo=read geom=check gue
 ss=(read,tcheck) scf=(maxcycle=1)
 ----------------------------------------------------------------------
 -----
 title
 -----
 Structure from the checkpoint file:  "cyclobutanecarbonitrile.chk"
 Charge =  0 Multiplicity = 1

                         Standard orientation:
 ---------------------------------------------------------------------
 Center     Atomic      Atomic             Coordinates (Angstroms)
 Number     Number       Type             X           Y           Z
 ---------------------------------------------------------------------
      1          1           0        1.757205   -0.189555    1.463765
      2          1           0        0.080822   -0.525541    1.928692
      3          6           0        0.759101   -0.406803    1.087809
      4          1           0       -0.167443   -2.080157   -0.000000
      5          1           0        1.596662   -2.202628   -0.000000
      6          6           0        0.759101   -1.508440   -0.000000
      7          1           0        0.080822   -0.525541   -1.928692
      8          1           0        1.757205   -0.189555   -1.463765
      9          6           0        0.759101   -0.406803   -1.087809
     10          1           0        0.914383    1.569711    0.000000
     11          6           0        0.347469    0.639812    0.000000
     12          7           0       -2.193925    1.206944    0.000000
     13          6           0       -1.068470    0.964678    0.000000
 ---------------------------------------------------------------------

 SCF Done:  E(RHF) =  -247.934156823     A.U. after    2 cycles

 The electronic state is 1-A'.
 Alpha  occ. eigenvalues --  -15.63200 -11.29035 -11.28143 -11.25974 -11.25973
 Alpha  occ. eigenvalues --  -11.24998  -1.19455  -1.14516  -0.95940  -0.92502
 Alpha  occ. eigenvalues --   -0.80714  -0.70680  -0.68589  -0.61644  -0.57835
 Alpha  occ. eigenvalues --   -0.54875  -0.54375  -0.50549  -0.49436  -0.48153
 Alpha  occ. eigenvalues --   -0.44010  -0.43846
 Alpha virt. eigenvalues --    0.02685   0.04000   0.04353   0.05006   0.06482
 Alpha virt. eigenvalues --    0.06729   0.07175   0.09878   0.11242   0.11743
 Alpha virt. eigenvalues --    0.12662   0.12770   0.14202   0.14686   0.15089

 Mulliken charges:
               1
     1  H   -0.158206
     2  H   -0.241356
     3  C    0.560705
     4  H   -0.192249
     5  H   -0.198421
     6  C    0.452298
     7  H   -0.241356
     8  H   -0.158206
     9  C    0.560705
    10  H   -0.190882
    11  C    0.532472
    12  N   -0.158406
    13  C   -0.567097
 Sum of Mulliken charges =  -0.00000

 Dipole moment (field-independent basis, Debye):
    X=              4.2115    Y=             -1.4440    Z=             -0.0000  Tot=              4.4522

 Test job not archived.
 1\1\GINC-SE009\SP\RHF\Aug-CC-pVDZ\C5H7N1\OHZDE\05-Apr-2025\0\\#t hf au
 g-cc-pvdz iop(5/13=1,5/36=2,99/5=2) pseudo=read geom=check guess=(read
 ,tcheck) scf=(maxcycle=1)\\title\\0,1\H,0,1.757205,-0.189555,1.463765\
 H,0,0.080822,-0.525541,1.928692\C,0,0.759101,-0.406803,1.087809\H,0,-0
 .167443,-2.080157,0.\H,0,1.596662,-2.202628,0.\C,0,0.759101,-1.50844,0
 .\H,0,0.080822,-0.525541,-1.928692\H,0,1.757205,-0.189555,-1.463765\C,
 0,0.759101,-0.406803,-1.087809\H,0,0.914383,1.569711,0.\C,0,0.347469,0
 .639812,0.\N,0,-2.193925,1.206944,0.\C,0,-1.06847,0.964678,0.\\Version

 Normal termination of Gaussian 16 at Sat Apr  5 22:54:36 2025.
