 Gaussian 16, Revision C.01,

 ----------------------------------------------------------------------
 #t hf aug-cc-pvdz symm=none int=(grid=ultrafine) guess=(read,tcheck) s
 table=(opt,rrhf)
 ----------------------------------------------------------------------
 -----
 title
 -----
 Symbolic Z-matrix:
 Charge =  0 Multiplicity = 1

 SCF Done:  E(RHF) =  -233.045372858     A.U. after   11 cycles
 Normal termination of Gaussian 16 at Sat Apr  5 22:55:03 2025.
 Gaussian 16:  ES64L-G16RevC.01  3-Jul-2019

 ----------------------------------------------------------------------
 #t hf aug-cc-pvdz iop(5/13=1,5/36=2,99/5=2) pseudo=read geom=check gue
 ss=(read,tcheck) scf=(maxcycle=1)
 ----------------------------------------------------------------------
 -----
 title
 -----
 Structure from the checkpoint file:  "cyclohexene.chk"
 Charge =  0 Multiplicity = 1

                         Standard orientation:
 ---------------------------------------------------------------------
 Center     Atomic      Atomic             Coordinates (Angstroms)
 Number     Number       Type             X           Y           Z
 ---------------------------------------------------------------------
      1          6           0        0.005646    0.665273    1.302124
      2          6           0       -0.005646   -0.665273    1.302124
      3          6           0       -0.005646    1.497566    0.048624
      4          6           0        0.005646   -1.497566    0.048624
      5          6           0       -0.367769    0.670959   -1.190000
      6          6           0        0.367769   -0.670959   -1.190000
      7          1           0        0.020501    1.196537    2.247558
      8          1           0       -0.020501   -1.196537    2.247558
      9          1           0       -0.708445    2.326979    0.166811
     10          1           0        0.977019    1.965639   -0.085347
     11          1           0        0.708445   -2.326979    0.166811
     12          1           0       -0.977019   -1.965639   -0.085347
     13          1           0       -1.446378    0.487192   -1.195721
     14          1           0       -0.141259    1.233380   -2.097788
     15          1           0        1.446378   -0.487192   -1.195721
     16          1           0        0.141259   -1.233380   -2.097788
 ---------------------------------------------------------------------

 SCF Done:  E(RHF) =  -233.116830740     A.U. after    2 cycles

 The electronic state is 1-A.
 Alpha  occ. eigenvalues --  -11.22895 -11.22883 -11.22835 -11.22684 -11.22505
 Alpha  occ. eigenvalues --  -11.22451  -1.10805  -0.99830  -0.99507  -0.84584
 Alpha  occ. eigenvalues --   -0.81567  -0.69863  -0.67031  -0.61555  -0.58537
 Alpha  occ. eigenvalues --   -0.56999  -0.54155  -0.53087  -0.52659  -0.46533
 Alpha  occ. eigenvalues --   -0.45329  -0.43868  -0.34357
 Alpha virt. eigenvalues --    0.03582   0.04418   0.04451   0.04870   0.06079
 Alpha virt. eigenvalues --    0.06499   0.06862   0.07185   0.08253   0.08886
 Alpha virt. eigenvalues --    0.13249   0.13865   0.14277   0.14331   0.14488

 Mulliken charges:
               1
     1  C    0.087043
     2  C    0.087043
     3  C    0.119492
     4  C    0.119492
     5  C    0.409669
     6  C    0.409669
     7  H   -0.415680
     8  H   -0.415680
     9  H   -0.001589
    10  H    0.017098
    11  H   -0.001589
    12  H    0.017098
    13  H   -0.157336
    14  H   -0.058697
    15  H   -0.157336
    16  H   -0.058697
 Sum of Mulliken charges =   0.00000

 Dipole moment (field-independent basis, Debye):
    X=             -0.0000    Y=              0.0000    Z=             -0.3461  Tot=              0.3461

 Test job not archived.
 1\1\GINC-SE011\SP\RHF\Aug-CC-pVDZ\C6H10\OHZDE\05-Apr-2025\0\\#t hf aug
 -cc-pvdz iop(5/13=1,5/36=2,99/5=2) pseudo=read geom=check guess=(read,
 tcheck) scf=(maxcycle=1)\\title\\0,1\C,0,0.005646,0.665273,1.302124\C,
 0,-0.005646,-0.665273,1.302124\C,0,-0.005646,1.497566,0.048624\C,0,0.0
 05646,-1.497566,0.048624\C,0,-0.367769,0.670959,-1.19\C,0,0.367769,-0.
 670959,-1.19\H,0,0.020501,1.196537,2.247558\H,0,-0.020501,-1.196537,2.
 247558\H,0,-0.708445,2.326979,0.166811\H,0,0.977019,1.965639,-0.085347
 \H,0,0.708445,-2.326979,0.166811\H,0,-0.977019,-1.965639,-0.085347\H,0

 Normal termination of Gaussian 16 at Sat Apr  5 22:55:48 2025.
