 Gaussian 16, Revision C.01,

 ----------------------------------------------------------------------
 #t hf aug-cc-pvdz symm=none int=(grid=ultrafine) guess=(read,tcheck) s
 table=(opt,rrhf)
 ----------------------------------------------------------------------
 -----
 title
 -----
 Symbolic Z-matrix:
 Charge =  0 Multiplicity = 1

 SCF Done:  E(RHF) =  -211.151547250     A.U. after   12 cycles
 Normal termination of Gaussian 16 at Sat Apr  5 22:53:54 2025.
 Gaussian 16:  ES64L-G16RevC.01  3-Jul-2019

 ----------------------------------------------------------------------
 #t hf aug-cc-pvdz iop(5/13=1,5/36=2,99/5=2) pseudo=read geom=check gue
 ss=(read,tcheck) scf=(maxcycle=1)
 ----------------------------------------------------------------------
 -----
 title
 -----
 Structure from the checkpoint file:  "cyclobutylamine.chk"
 Charge =  0 Multiplicity = 1

                         Standard orientation:
 ---------------------------------------------------------------------
 Center     Atomic      Atomic             Coordinates (Angstroms)
 Number     Number       Type             X           Y           Z
 ---------------------------------------------------------------------
      1          7           0       -1.392026    0.964971   -0.000000
      2          1           0       -1.686104    1.489839    0.815536
      3          1           0       -1.686104    1.489839   -0.815536
      4          6           0        0.483446   -0.254439   -1.082525
      5          1           0       -0.198668   -0.373542   -1.923807
      6          1           0        1.483527   -0.047564   -1.463346
      7          6           0        0.483446   -0.254439    1.082525
      8          1           0       -0.198668   -0.373542    1.923807
      9          1           0        1.483527   -0.047564    1.463346
     10          6           0        0.057064    0.770920   -0.000000
     11          1           0        0.619951    1.711232   -0.000000
     12          6           0        0.483446   -1.364057    0.000000
     13          1           0        1.324266   -2.055871    0.000000
     14          1           0       -0.441946   -1.935530    0.000000
 ---------------------------------------------------------------------

 SCF Done:  E(RHF) =  -211.216572607     A.U. after    2 cycles

 The electronic state is 1-A'.
 Alpha  occ. eigenvalues --  -15.60237 -11.25737 -11.22110 -11.22104 -11.21991
 Alpha  occ. eigenvalues --   -1.16318  -1.06646  -0.89267  -0.86522  -0.73363
 Alpha  occ. eigenvalues --   -0.66661  -0.64523  -0.63580  -0.56413  -0.53472
 Alpha  occ. eigenvalues --   -0.47835  -0.46615  -0.45672  -0.43140  -0.37514
 Alpha virt. eigenvalues --    0.03570   0.04490   0.04697   0.04715   0.06816
 Alpha virt. eigenvalues --    0.07073   0.07110   0.08029   0.08052   0.12877
 Alpha virt. eigenvalues --    0.13745   0.13827   0.14287   0.15051   0.15222

 Mulliken charges:
               1
     1  N   -0.407055
     2  H   -0.007265
     3  H   -0.007265
     4  C    0.457876
     5  H   -0.192284
     6  H   -0.182274
     7  C    0.457876
     8  H   -0.192284
     9  H   -0.182274
    10  C    0.407668
    11  H   -0.192184
    12  C    0.440070
    13  H   -0.218317
    14  H   -0.182290
 Sum of Mulliken charges =  -0.00000

 Dipole moment (field-independent basis, Debye):
    X=              0.4512    Y=              1.1688    Z=             -0.0000  Tot=              1.2528

 Test job not archived.
 1\1\GINC-SE045\SP\RHF\Aug-CC-pVDZ\C4H9N1\OHZDE\05-Apr-2025\0\\#t hf au
 g-cc-pvdz iop(5/13=1,5/36=2,99/5=2) pseudo=read geom=check guess=(read
 ,tcheck) scf=(maxcycle=1)\\title\\0,1\N,0,-1.392026,0.964971,0.\H,0,-1
 .686104,1.489839,0.815536\H,0,-1.686104,1.489839,-0.815536\C,0,0.48344
 6,-0.254439,-1.082525\H,0,-0.198668,-0.373542,-1.923807\H,0,1.483527,-
 0.047564,-1.463346\C,0,0.483446,-0.254439,1.082525\H,0,-0.198668,-0.37
 3542,1.923807\H,0,1.483527,-0.047564,1.463346\C,0,0.057064,0.77092,0.\
 H,0,0.619951,1.711232,0.\C,0,0.483446,-1.364057,0.\H,0,1.324266,-2.055

 Normal termination of Gaussian 16 at Sat Apr  5 22:53:59 2025.
