 Gaussian 16, Revision C.01,

 ----------------------------------------------------------------------
 #t hf aug-cc-pvdz symm=none int=(grid=ultrafine) guess=(read,tcheck) s
 table=(opt,rrhf)
 ----------------------------------------------------------------------
 -----
 title
 -----
 Symbolic Z-matrix:
 Charge =  0 Multiplicity = 1

 SCF Done:  E(RHF) =  -270.056265165     A.U. after   12 cycles

 1\1\GINC-SE151\Stability\RHF\Aug-CC-pVDZ\C5H10O1\OHZDE\05-Apr-2025\0\\
 #t hf aug-cc-pvdz symm=none int=(grid=ultrafine) guess=(read,tcheck) s
 table=(opt,rrhf)\\title\\0,1\C,0,1.478824,0.602081,-0.167602\C,0,1.131
 874,-0.871035,-0.441609\C,0,0.138007,1.266828,0.236745\C,0,-0.007005,-
 1.147497,0.545787\C,0,-0.865878,0.122768,0.481642\O,0,-1.764277,0.1003
 55,-0.639892\H,0,2.191316,0.663706,0.657603\H,0,1.942541,1.089472,-1.0
 24485\H,0,0.768396,-0.991211,-1.463462\H,0,1.983364,-1.539018,-0.31224
 4\H,0,0.250934,1.884221,1.127542\H,0,-0.256769,1.906427,-0.551166\H,0,

 Normal termination of Gaussian 16 at Sat Apr  5 22:55:04 2025.
 Gaussian 16:  ES64L-G16RevC.01  3-Jul-2019

 ----------------------------------------------------------------------
 #t hf aug-cc-pvdz iop(5/13=1,5/36=2,99/5=2) pseudo=read geom=check gue
 ss=(read,tcheck) scf=(maxcycle=1)
 ----------------------------------------------------------------------
 -----
 title
 -----
 Structure from the checkpoint file:  "cyclopentanol.chk"
 Charge =  0 Multiplicity = 1

                         Standard orientation:
 ---------------------------------------------------------------------
 Center     Atomic      Atomic             Coordinates (Angstroms)
 Number     Number       Type             X           Y           Z
 ---------------------------------------------------------------------
      1          6           0        1.478824    0.602081   -0.167602
      2          6           0        1.131874   -0.871035   -0.441609
      3          6           0        0.138007    1.266828    0.236745
      4          6           0       -0.007005   -1.147497    0.545787
      5          6           0       -0.865878    0.122768    0.481642
      6          8           0       -1.764277    0.100356   -0.639892
      7          1           0        2.191316    0.663706    0.657603
      8          1           0        1.942541    1.089472   -1.024485
      9          1           0        0.768396   -0.991211   -1.463462
     10          1           0        1.983364   -1.539018   -0.312244
     11          1           0        0.250935    1.884221    1.127542
     12          1           0       -0.256768    1.906427   -0.551166
     13          1           0       -0.583006   -2.047024    0.320771
     14          1           0        0.393171   -1.259290    1.558075
     15          1           0       -1.443380    0.274161    1.398057
     16          1           0       -2.387285   -0.623159   -0.521332
 ---------------------------------------------------------------------

 SCF Done:  E(RHF) =  -270.139441676     A.U. after    2 cycles

 The electronic state is 1-A.
 Alpha  occ. eigenvalues --  -20.56500 -11.28364 -11.22643 -11.22307 -11.22212
 Alpha  occ. eigenvalues --  -11.22065  -1.31345  -1.09968  -0.95968  -0.94652
 Alpha  occ. eigenvalues --   -0.79018  -0.77199  -0.69620  -0.66002  -0.64461
 Alpha  occ. eigenvalues --   -0.59025  -0.55462  -0.54180  -0.50259  -0.47922
 Alpha  occ. eigenvalues --   -0.47274  -0.46590  -0.45584  -0.43952
 Alpha virt. eigenvalues --    0.03439   0.04504   0.04614   0.05016   0.06550
 Alpha virt. eigenvalues --    0.06621   0.06968   0.07269   0.07466   0.09161
 Alpha virt. eigenvalues --    0.13200   0.13461   0.14361   0.14805   0.15072

 Mulliken charges:
               1
     1  C    0.279947
     2  C    0.331636
     3  C    0.251936
     4  C    0.311641
     5  C    0.317010
     6  O   -0.596558
     7  H   -0.157089
     8  H   -0.117266
     9  H   -0.136811
    10  H   -0.090542
    11  H   -0.052867
    12  H   -0.070529
    13  H   -0.110239
    14  H   -0.110186
    15  H   -0.186853
    16  H    0.136770
 Sum of Mulliken charges =  -0.00000

 Dipole moment (field-independent basis, Debye):
    X=              0.1770    Y=             -1.0862    Z=              1.3290  Tot=              1.7255

 Test job not archived.
 1\1\GINC-SE151\SP\RHF\Aug-CC-pVDZ\C5H10O1\OHZDE\05-Apr-2025\0\\#t hf a
 ug-cc-pvdz iop(5/13=1,5/36=2,99/5=2) pseudo=read geom=check guess=(rea
 d,tcheck) scf=(maxcycle=1)\\title\\0,1\C,0,1.478824,0.602081,-0.167602
 \C,0,1.131874,-0.871035,-0.441609\C,0,0.138007,1.266828,0.236745\C,0,-
 0.007005,-1.147497,0.545787\C,0,-0.865878,0.122768,0.481642\O,0,-1.764
 277,0.100355,-0.639892\H,0,2.191316,0.663706,0.657603\H,0,1.942541,1.0
 89472,-1.024485\H,0,0.768396,-0.991211,-1.463462\H,0,1.983364,-1.53901
 8,-0.312244\H,0,0.250934,1.884221,1.127542\H,0,-0.256769,1.906427,-0.5

 Normal termination of Gaussian 16 at Sat Apr  5 22:55:50 2025.
