 Gaussian 16, Revision C.01,

 ----------------------------------------------------------------------
 #t hf aug-cc-pvdz symm=none int=(grid=ultrafine) guess=(read,tcheck) s
 table=(opt,rrhf)
 ----------------------------------------------------------------------
 -----
 title
 -----
 Symbolic Z-matrix:
 Charge =  0 Multiplicity = 1

 SCF Done:  E(RHF) =  -307.943883290     A.U. after   13 cycles

 1\1\GINC-SE187\Stability\RHF\Aug-CC-pVDZ\C6H10O1\OHZDE\05-Apr-2025\0\\
 #t hf aug-cc-pvdz symm=none int=(grid=ultrafine) guess=(read,tcheck) s
 table=(opt,rrhf)\\title\\0,1\C,0,-0.407739,1.083702,0.\C,0,0.155829,0.
 499472,1.282325\C,0,0.155829,0.499472,-1.282325\C,0,0.155829,-1.039311
 ,1.263183\C,0,0.155829,-1.039311,-1.263183\C,0,0.820538,-1.590283,0.\O
 ,0,-1.249483,1.95449,0.\H,0,1.188471,0.854961,1.375218\H,0,-0.408079,0
 .898882,2.123656\H,0,-0.408079,0.898882,-2.123656\H,0,1.188471,0.85496
 1,-1.375218\H,0,0.657166,-1.415176,2.156695\H,0,-0.876952,-1.39618,1.3

 Normal termination of Gaussian 16 at Sat Apr  5 22:55:17 2025.
 Gaussian 16:  ES64L-G16RevC.01  3-Jul-2019

 ----------------------------------------------------------------------
 #t hf aug-cc-pvdz iop(5/13=1,5/36=2,99/5=2) pseudo=read geom=check gue
 ss=(read,tcheck) scf=(maxcycle=1)
 ----------------------------------------------------------------------
 -----
 title
 -----
 Structure from the checkpoint file:  "cyclohexanone.chk"
 Charge =  0 Multiplicity = 1

                         Standard orientation:
 ---------------------------------------------------------------------
 Center     Atomic      Atomic             Coordinates (Angstroms)
 Number     Number       Type             X           Y           Z
 ---------------------------------------------------------------------
      1          6           0       -0.407739    1.083702   -0.000000
      2          6           0        0.155829    0.499472    1.282325
      3          6           0        0.155829    0.499472   -1.282325
      4          6           0        0.155829   -1.039311    1.263183
      5          6           0        0.155829   -1.039311   -1.263183
      6          6           0        0.820538   -1.590283    0.000000
      7          8           0       -1.249483    1.954490   -0.000000
      8          1           0        1.188471    0.854961    1.375218
      9          1           0       -0.408079    0.898882    2.123656
     10          1           0       -0.408079    0.898882   -2.123656
     11          1           0        1.188471    0.854961   -1.375218
     12          1           0        0.657166   -1.415176    2.156695
     13          1           0       -0.876952   -1.396180    1.313350
     14          1           0       -0.876952   -1.396180   -1.313350
     15          1           0        0.657166   -1.415176   -2.156695
     16          1           0        1.882221   -1.322209    0.000000
     17          1           0        0.775740   -2.681122    0.000000
 ---------------------------------------------------------------------

 SCF Done:  E(RHF) =  -308.038013848     A.U. after    2 cycles

 The electronic state is 1-A'.
 Alpha  occ. eigenvalues --  -20.55646 -11.33460 -11.24518 -11.24516 -11.24305
 Alpha  occ. eigenvalues --  -11.24299 -11.24121  -1.34705  -1.11333  -1.02069
 Alpha  occ. eigenvalues --   -0.98513  -0.86254  -0.81474  -0.73509  -0.66989
 Alpha  occ. eigenvalues --   -0.64692  -0.63472  -0.60740  -0.59414  -0.57738
 Alpha  occ. eigenvalues --   -0.54991  -0.51358  -0.50857  -0.48133  -0.47712
 Alpha  occ. eigenvalues --   -0.46904  -0.40737
 Alpha virt. eigenvalues --    0.03037   0.03970   0.04137   0.04854   0.06318
 Alpha virt. eigenvalues --    0.06513   0.06612   0.07045   0.07761   0.09030
 Alpha virt. eigenvalues --    0.10904   0.12514   0.13617   0.13908   0.14128

 Mulliken charges:
               1
     1  C    0.027013
     2  C    0.291279
     3  C    0.291279
     4  C    0.242410
     5  C    0.242410
     6  C    0.292094
     7  O   -0.524550
     8  H    0.016087
     9  H   -0.132155
    10  H   -0.132155
    11  H    0.016087
    12  H   -0.105491
    13  H   -0.105106
    14  H   -0.105106
    15  H   -0.105491
    16  H   -0.118701
    17  H   -0.089905
 Sum of Mulliken charges =  -0.00000

 Dipole moment (field-independent basis, Debye):
    X=              2.5651    Y=             -2.9905    Z=             -0.0000  Tot=              3.9399

 Test job not archived.
 1\1\GINC-SE187\SP\RHF\Aug-CC-pVDZ\C6H10O1\OHZDE\05-Apr-2025\0\\#t hf a
 ug-cc-pvdz iop(5/13=1,5/36=2,99/5=2) pseudo=read geom=check guess=(rea
 d,tcheck) scf=(maxcycle=1)\\title\\0,1\C,0,-0.407739,1.083702,0.\C,0,0
 .155829,0.499472,1.282325\C,0,0.155829,0.499472,-1.282325\C,0,0.155829
 ,-1.039311,1.263183\C,0,0.155829,-1.039311,-1.263183\C,0,0.820538,-1.5
 90283,0.\O,0,-1.249483,1.95449,0.\H,0,1.188471,0.854961,1.375218\H,0,-
 0.408079,0.898882,2.123656\H,0,-0.408079,0.898882,-2.123656\H,0,1.1884
 71,0.854961,-1.375218\H,0,0.657166,-1.415176,2.156695\H,0,-0.876952,-1

 Normal termination of Gaussian 16 at Sat Apr  5 22:55:49 2025.
