 Gaussian 16, Revision C.01,

 ----------------------------------------------------------------------
 #t hf aug-cc-pvdz symm=none int=(grid=ultrafine) guess=(read,tcheck) s
 table=(opt,rrhf)
 ----------------------------------------------------------------------
 -----
 title
 -----
 Symbolic Z-matrix:
 Charge =  0 Multiplicity = 1

 SCF Done:  E(RHF) =  -153.661898498     A.U. after   10 cycles
 Normal termination of Gaussian 16 at Sat Apr  5 22:53:38 2025.
 Gaussian 16:  ES64L-G16RevC.01  3-Jul-2019

 ----------------------------------------------------------------------
 #t hf aug-cc-pvdz iop(5/13=1,5/36=2,99/5=2) pseudo=read geom=check gue
 ss=(read,tcheck) scf=(maxcycle=1)
 ----------------------------------------------------------------------
 -----
 title
 -----
 Structure from the checkpoint file:  "cyclobutadiene.chk"
 Charge =  0 Multiplicity = 1

                         Standard orientation:
 ---------------------------------------------------------------------
 Center     Atomic      Atomic             Coordinates (Angstroms)
 Number     Number       Type             X           Y           Z
 ---------------------------------------------------------------------
      1          6           0        0.000000    0.664652    0.787189
      2          6           0        0.000000    0.664652   -0.787189
      3          6           0       -0.000000   -0.664652    0.787189
      4          6           0       -0.000000   -0.664652   -0.787189
      5          1           0        0.000000    1.428618    1.548923
      6          1           0        0.000000    1.428618   -1.548923
      7          1           0       -0.000000   -1.428618    1.548923
      8          1           0       -0.000000   -1.428618   -1.548923
 ---------------------------------------------------------------------

 SCF Done:  E(RHF) =  -153.708552818     A.U. after    2 cycles

 The electronic state is 1-AG.
 Alpha  occ. eigenvalues --  -11.25366 -11.25340 -11.25207 -11.25164  -1.15306
 Alpha  occ. eigenvalues --   -0.91686  -0.82318  -0.70341  -0.70230  -0.56371
 Alpha  occ. eigenvalues --   -0.54495  -0.48072  -0.45712  -0.28430
 Alpha virt. eigenvalues --    0.03747   0.04257   0.04401   0.05813   0.06520
 Alpha virt. eigenvalues --    0.11979   0.12402   0.13002   0.13461   0.14406
 Alpha virt. eigenvalues --    0.14591   0.15215   0.16019   0.16702   0.16964

 Mulliken charges:
               1
     1  C    0.219377
     2  C    0.219377
     3  C    0.219377
     4  C    0.219377
     5  H   -0.219377
     6  H   -0.219377
     7  H   -0.219377
     8  H   -0.219377
 Sum of Mulliken charges =   0.00000

 Dipole moment (field-independent basis, Debye):
    X=              0.0000    Y=             -0.0000    Z=             -0.0000  Tot=              0.0000

 Test job not archived.
 1\1\GINC-SE198\SP\RHF\Aug-CC-pVDZ\C4H4\OHZDE\05-Apr-2025\0\\#t hf aug-
 cc-pvdz iop(5/13=1,5/36=2,99/5=2) pseudo=read geom=check guess=(read,t
 check) scf=(maxcycle=1)\\title\\0,1\C,0,0.,0.664652,0.787189\C,0,0.,0.
 664652,-0.787189\C,0,0.,-0.664652,0.787189\C,0,0.,-0.664652,-0.787189\
 H,0,0.,1.428618,1.548923\H,0,0.,1.428618,-1.548923\H,0,0.,-1.428618,1.
 548923\H,0,0.,-1.428618,-1.548923\\Version=ES64L-G16RevC.01\State=1-AG
 \HF=-153.7085528\RMSD=1.033e-02\Dipole=0.,0.,0.\Quadrupole=-3.0332635,
 2.2707239,0.7625396,0.,0.,0.\PG=D02H [SG(C4H4)]\\@

 Normal termination of Gaussian 16 at Sat Apr  5 22:53:40 2025.
