 Gaussian 16, Revision C.01,

 ----------------------------------------------------------------------
 #t hf aug-cc-pvdz symm=none int=(grid=ultrafine) guess=(read,tcheck) s
 table=(opt,rrhf)
 ----------------------------------------------------------------------
 -----
 title
 -----
 Symbolic Z-matrix:
 Charge =  0 Multiplicity = 1

 SCF Done:  E(RHF) =  -381.651089816     A.U. after   12 cycles
 Normal termination of Gaussian 16 at Sat Apr  5 22:55:15 2025.
 Gaussian 16:  ES64L-G16RevC.01  3-Jul-2019

 ----------------------------------------------------------------------
 #t hf aug-cc-pvdz iop(5/13=1,5/36=2,99/5=2) pseudo=read geom=check gue
 ss=(read,tcheck) scf=(maxcycle=1)
 ----------------------------------------------------------------------
 -----
 title
 -----
 Structure from the checkpoint file:  "cyclohexane-1-4-dione.chk"
 Charge =  0 Multiplicity = 1

                         Standard orientation:
 ---------------------------------------------------------------------
 Center     Atomic      Atomic             Coordinates (Angstroms)
 Number     Number       Type             X           Y           Z
 ---------------------------------------------------------------------
      1          6           0       -0.061344    1.463150   -0.000000
      2          6           0        0.061344   -1.463150   -0.000000
      3          6           0       -0.332830    0.695697    1.281972
      4          6           0       -0.332830    0.695697   -1.281972
      5          6           0        0.332830   -0.695697    1.281972
      6          6           0        0.332830   -0.695697   -1.281972
      7          8           0        0.332830    2.606139   -0.000000
      8          8           0       -0.332830   -2.606139   -0.000000
      9          1           0       -0.003435    1.294970    2.128181
     10          1           0       -1.417638    0.571706    1.364952
     11          1           0       -1.417638    0.571706   -1.364952
     12          1           0       -0.003435    1.294970   -2.128181
     13          1           0        0.003435   -1.294970    2.128181
     14          1           0        1.417638   -0.571706    1.364952
     15          1           0        1.417638   -0.571706   -1.364952
     16          1           0        0.003435   -1.294970   -2.128181
 ---------------------------------------------------------------------

 SCF Done:  E(RHF) =  -381.766791483     A.U. after    2 cycles

 The electronic state is 1-AG.
 Alpha  occ. eigenvalues --  -20.57686 -20.57686 -11.35541 -11.35540 -11.26785
 Alpha  occ. eigenvalues --  -11.26779 -11.26735 -11.26728  -1.36927  -1.36687
 Alpha  occ. eigenvalues --   -1.12199  -1.04857  -0.97414  -0.89790  -0.79202
 Alpha  occ. eigenvalues --   -0.73765  -0.68952  -0.66983  -0.66816  -0.65343
 Alpha  occ. eigenvalues --   -0.62552  -0.61869  -0.57481  -0.56406  -0.53763
 Alpha  occ. eigenvalues --   -0.53311  -0.53263  -0.49895  -0.43602  -0.42558
 Alpha virt. eigenvalues --    0.03077   0.03772   0.03959   0.05562   0.05928
 Alpha virt. eigenvalues --    0.06088   0.06583   0.08756   0.09190   0.10494
 Alpha virt. eigenvalues --    0.11161   0.11765   0.13105   0.13411   0.13615

 Mulliken charges:
               1
     1  C    0.061213
     2  C    0.061213
     3  C    0.320693
     4  C    0.320693
     5  C    0.320693
     6  C    0.320693
     7  O   -0.518597
     8  O   -0.518597
     9  H   -0.111103
    10  H    0.019103
    11  H    0.019103
    12  H   -0.111103
    13  H   -0.111103
    14  H    0.019103
    15  H    0.019103
    16  H   -0.111103
 Sum of Mulliken charges =  -0.00000

 Dipole moment (field-independent basis, Debye):
    X=              0.0000    Y=             -0.0000    Z=             -0.0000  Tot=              0.0000

 Test job not archived.
 1\1\GINC-SE045\SP\RHF\Aug-CC-pVDZ\C6H8O2\OHZDE\05-Apr-2025\0\\#t hf au
 g-cc-pvdz iop(5/13=1,5/36=2,99/5=2) pseudo=read geom=check guess=(read
 ,tcheck) scf=(maxcycle=1)\\title\\0,1\C,0,-0.061344,1.46315,0.\C,0,0.0
 61344,-1.46315,0.\C,0,-0.33283,0.695697,1.281972\C,0,-0.33283,0.695697
 ,-1.281972\C,0,0.33283,-0.695697,1.281972\C,0,0.33283,-0.695697,-1.281
 972\O,0,0.33283,2.606139,0.\O,0,-0.33283,-2.606139,0.\H,0,-0.003435,1.
 29497,2.128181\H,0,-1.417638,0.571706,1.364952\H,0,-1.417638,0.571706,
 -1.364952\H,0,-0.003435,1.29497,-2.128181\H,0,0.003435,-1.29497,2.1281

 Normal termination of Gaussian 16 at Sat Apr  5 22:55:49 2025.
