 Gaussian 16, Revision C.01,

 ----------------------------------------------------------------------
 #t hf aug-cc-pvdz symm=none int=(grid=ultrafine) guess=(read,tcheck) s
 table=(opt,rrhf)
 ----------------------------------------------------------------------
 -----
 title
 -----
 Symbolic Z-matrix:
 Charge =  0 Multiplicity = 1

 SCF Done:  E(RHF) =  -117.071369667     A.U. after   10 cycles
 Normal termination of Gaussian 16 at Sat Apr  5 22:54:39 2025.
 Gaussian 16:  ES64L-G16RevC.01  3-Jul-2019

 ----------------------------------------------------------------------
 #t hf aug-cc-pvdz iop(5/13=1,5/36=2,99/5=2) pseudo=read geom=check gue
 ss=(read,tcheck) scf=(maxcycle=1)
 ----------------------------------------------------------------------
 -----
 title
 -----
 Structure from the checkpoint file:  "cyclopropane.chk"
 Charge =  0 Multiplicity = 1

                         Standard orientation:
 ---------------------------------------------------------------------
 Center     Atomic      Atomic             Coordinates (Angstroms)
 Number     Number       Type             X           Y           Z
 ---------------------------------------------------------------------
      1          6           0        0.000000    0.000000    0.868264
      2          6           0        0.000000    0.751939   -0.434132
      3          6           0       -0.000000   -0.751939   -0.434132
      4          1           0       -0.907443   -1.260331   -0.727653
      5          1           0       -0.907443    0.000000    1.455305
      6          1           0        0.907443   -1.260331   -0.727653
      7          1           0       -0.907443    1.260331   -0.727653
      8          1           0        0.907443    1.260331   -0.727653
      9          1           0        0.907443   -0.000000    1.455305
 ---------------------------------------------------------------------

 SCF Done:  E(RHF) =  -117.110815236     A.U. after    2 cycles

 The electronic state is 1-A1.
 Alpha  occ. eigenvalues --  -11.23197 -11.23115 -11.23115  -1.12295  -0.81750
 Alpha  occ. eigenvalues --   -0.81750  -0.67087  -0.63210  -0.51401  -0.51401
 Alpha  occ. eigenvalues --   -0.42277  -0.42277
 Alpha virt. eigenvalues --    0.03998   0.04846   0.05149   0.05149   0.07435
 Alpha virt. eigenvalues --    0.07435   0.11843   0.11932   0.11932   0.15468
 Alpha virt. eigenvalues --    0.15468   0.15923   0.16975   0.18607   0.19863

 Mulliken charges:
               1
     1  C    0.641469
     2  C    0.641469
     3  C    0.641469
     4  H   -0.320734
     5  H   -0.320734
     6  H   -0.320734
     7  H   -0.320734
     8  H   -0.320734
     9  H   -0.320734
 Sum of Mulliken charges =  -0.00000

 Dipole moment (field-independent basis, Debye):
    X=             -0.0000    Y=             -0.0000    Z=             -0.0000  Tot=              0.0000

 Test job not archived.
 1\1\GINC-SE153\SP\RHF\Aug-CC-pVDZ\C3H6\OHZDE\05-Apr-2025\0\\#t hf aug-
 cc-pvdz iop(5/13=1,5/36=2,99/5=2) pseudo=read geom=check guess=(read,t
 check) scf=(maxcycle=1)\\title\\0,1\C,0,0.,0.868264,0.\C,0,-0.751939,-
 0.434132,0.\C,0,0.751939,-0.434132,0.\H,0,1.260331,-0.727653,0.907443\
 H,0,0.,1.455305,0.907443\H,0,1.260331,-0.727653,-0.907443\H,0,-1.26033
 1,-0.727653,0.907443\H,0,-1.260331,-0.727653,-0.907443\H,0,0.,1.455305
 ,-0.907443\\Version=ES64L-G16RevC.01\State=1-A1\HF=-117.1108152\RMSD=4
 .059e-03\Dipole=0.,0.,0.\Quadrupole=-0.579024,-0.57902,1.158044,0.,0.,

 Normal termination of Gaussian 16 at Sat Apr  5 22:54:41 2025.
