 Gaussian 16, Revision C.01,

 ----------------------------------------------------------------------
 #t hf aug-cc-pvdz symm=none int=(grid=ultrafine) guess=(read,tcheck) s
 table=(opt,rrhf)
 ----------------------------------------------------------------------
 -----
 title
 -----
 Symbolic Z-matrix:
 Charge =  0 Multiplicity = 1

 SCF Done:  E(RHF) =  -304.727555914     A.U. after   14 cycles
 Normal termination of Gaussian 16 at Sat Apr  5 22:54:48 2025.
 Gaussian 16:  ES64L-G16RevC.01  3-Jul-2019

 ----------------------------------------------------------------------
 #t hf aug-cc-pvdz iop(5/13=1,5/36=2,99/5=2) pseudo=read geom=check gue
 ss=(read,tcheck) scf=(maxcycle=1)
 ----------------------------------------------------------------------
 -----
 title
 -----
 Structure from the checkpoint file:  "cyclopropanecarboxylic_acid.chk"
 Charge =  0 Multiplicity = 1

                         Standard orientation:
 ---------------------------------------------------------------------
 Center     Atomic      Atomic             Coordinates (Angstroms)
 Number     Number       Type             X           Y           Z
 ---------------------------------------------------------------------
      1          6           0       -0.270459   -0.778426    0.000000
      2          6           0        0.336510    1.596630    0.743093
      3          6           0        0.336510    1.596630   -0.743093
      4          6           0        0.710072    0.327080    0.000000
      5          8           0       -1.472192   -0.658476    0.000000
      6          8           0        0.336510   -1.992090    0.000000
      7          1           0        1.135578    2.100682    1.266594
      8          1           0       -0.620002    1.590351    1.244203
      9          1           0       -0.620002    1.590351   -1.244203
     10          1           0        1.135578    2.100682   -1.266594
     11          1           0        1.746444    0.027754    0.000000
     12          1           0       -0.367938   -2.656783    0.000000
 ---------------------------------------------------------------------

 SCF Done:  E(RHF) =  -304.824734258     A.U. after    2 cycles

 The electronic state is 1-A'.
 Alpha  occ. eigenvalues --  -20.62514 -20.55999 -11.40034 -11.26212 -11.25607
 Alpha  occ. eigenvalues --  -11.25546  -1.42347  -1.32458  -1.15588  -0.93834
 Alpha  occ. eigenvalues --   -0.83926  -0.79117  -0.73195  -0.71453  -0.65668
 Alpha  occ. eigenvalues --   -0.64561  -0.62809  -0.56941  -0.53769  -0.50506
 Alpha  occ. eigenvalues --   -0.47509  -0.45244  -0.43641
 Alpha virt. eigenvalues --    0.03369   0.04254   0.04871   0.05132   0.06589
 Alpha virt. eigenvalues --    0.07428   0.10087   0.11427   0.11438   0.13276
 Alpha virt. eigenvalues --    0.13370   0.14748   0.14816   0.15287   0.16145

 Mulliken charges:
               1
     1  C    0.291299
     2  C    0.676130
     3  C    0.676130
     4  C    0.759772
     5  O   -0.493441
     6  O   -0.500941
     7  H   -0.317393
     8  H   -0.306826
     9  H   -0.306826
    10  H   -0.317393
    11  H   -0.361435
    12  H    0.200924
 Sum of Mulliken charges =  -0.00000

 Dipole moment (field-independent basis, Debye):
    X=              1.9449    Y=              0.5169    Z=              0.0000  Tot=              2.0124

 Test job not archived.
 1\1\GINC-SE205\SP\RHF\Aug-CC-pVDZ\C4H6O2\OHZDE\05-Apr-2025\0\\#t hf au
 g-cc-pvdz iop(5/13=1,5/36=2,99/5=2) pseudo=read geom=check guess=(read
 ,tcheck) scf=(maxcycle=1)\\title\\0,1\C,0,-0.270459,-0.778426,0.\C,0,0
 .33651,1.59663,0.743093\C,0,0.33651,1.59663,-0.743093\C,0,0.710072,0.3
 2708,0.\O,0,-1.472192,-0.658476,0.\O,0,0.33651,-1.99209,0.\H,0,1.13557
 8,2.100682,1.266594\H,0,-0.620002,1.590351,1.244203\H,0,-0.620002,1.59
 0351,-1.244203\H,0,1.135578,2.100682,-1.266594\H,0,1.746444,0.027754,0
 .\H,0,-0.367938,-2.656783,0.\\Version=ES64L-G16RevC.01\State=1-A'\HF=-

 Normal termination of Gaussian 16 at Sat Apr  5 22:54:52 2025.
