 Gaussian 16, Revision C.01,

 ----------------------------------------------------------------------
 #t hf aug-cc-pvdz symm=none int=(grid=ultrafine) guess=(read,tcheck) s
 table=(opt,rrhf)
 ----------------------------------------------------------------------
 -----
 title
 -----
 Symbolic Z-matrix:
 Charge =  0 Multiplicity = 1

 SCF Done:  E(RHF) =  -190.751062823     A.U. after   13 cycles
 Normal termination of Gaussian 16 at Sat Apr  5 22:54:39 2025.
 Gaussian 16:  ES64L-G16RevC.01  3-Jul-2019

 ----------------------------------------------------------------------
 #t hf aug-cc-pvdz iop(5/13=1,5/36=2,99/5=2) pseudo=read geom=check gue
 ss=(read,tcheck) scf=(maxcycle=1)
 ----------------------------------------------------------------------
 -----
 title
 -----
 Structure from the checkpoint file:  "cyclopropanone.chk"
 Charge =  0 Multiplicity = 1

                         Standard orientation:
 ---------------------------------------------------------------------
 Center     Atomic      Atomic             Coordinates (Angstroms)
 Number     Number       Type             X           Y           Z
 ---------------------------------------------------------------------
      1          6           0        0.000000   -0.000000    0.381094
      2          8           0        0.000000   -0.000000    1.576449
      3          6           0        0.000000    0.785897   -0.855963
      4          6           0       -0.000000   -0.785897   -0.855963
      5          1           0        0.911746    1.287106   -1.156649
      6          1           0       -0.911746    1.287106   -1.156649
      7          1           0       -0.911746   -1.287106   -1.156649
      8          1           0        0.911746   -1.287106   -1.156649
 ---------------------------------------------------------------------

 SCF Done:  E(RHF) =  -190.812153008     A.U. after    2 cycles

 The electronic state is 1-A1.
 Alpha  occ. eigenvalues --  -20.58424 -11.36255 -11.26610 -11.26583  -1.36993
 Alpha  occ. eigenvalues --   -1.14907  -0.86786  -0.76517  -0.68689  -0.68245
 Alpha  occ. eigenvalues --   -0.62727  -0.55421  -0.53352  -0.47202  -0.40105
 Alpha virt. eigenvalues --    0.03212   0.04375   0.04586   0.06848   0.07533
 Alpha virt. eigenvalues --    0.10884   0.11274   0.11468   0.12239   0.13966
 Alpha virt. eigenvalues --    0.14524   0.15627   0.16585   0.16926   0.19317

 Mulliken charges:
               1
     1  C   -0.055256
     2  O   -0.366438
     3  C    0.581446
     4  C    0.581446
     5  H   -0.185300
     6  H   -0.185300
     7  H   -0.185300
     8  H   -0.185300
 Sum of Mulliken charges =   0.00000

 Dipole moment (field-independent basis, Debye):
    X=              0.0000    Y=              0.0000    Z=             -3.6600  Tot=              3.6600

 Test job not archived.
 1\1\GINC-SE202\SP\RHF\Aug-CC-pVDZ\C3H4O1\OHZDE\05-Apr-2025\0\\#t hf au
 g-cc-pvdz iop(5/13=1,5/36=2,99/5=2) pseudo=read geom=check guess=(read
 ,tcheck) scf=(maxcycle=1)\\title\\0,1\C,0,0.,0.,0.381094\O,0,0.,0.,1.5
 76449\C,0,0.,0.785897,-0.855963\C,0,0.,-0.785897,-0.855963\H,0,0.91174
 6,1.287106,-1.156649\H,0,-0.911746,1.287106,-1.156649\H,0,-0.911746,-1
 .287106,-1.156649\H,0,0.911746,-1.287106,-1.156649\\Version=ES64L-G16R
 evC.01\State=1-A1\HF=-190.812153\RMSD=5.280e-03\Dipole=0.,0.,-1.439944
 8\Quadrupole=2.2447651,1.3152424,-3.5600075,0.,0.,0.\PG=C02V [C2(C1O1)

 Normal termination of Gaussian 16 at Sat Apr  5 22:54:41 2025.
