 Gaussian 16, Revision C.01,

 ----------------------------------------------------------------------
 #t hf aug-cc-pvdz symm=none int=(grid=ultrafine) guess=(read,tcheck) s
 table=(opt,rrhf)
 ----------------------------------------------------------------------
 -----
 title
 -----
 Symbolic Z-matrix:
 Charge =  0 Multiplicity = 1

 SCF Done:  E(RHF) =  -719.453041133     A.U. after   14 cycles
 Normal termination of Gaussian 16 at Sat Apr  5 22:55:08 2025.
 Gaussian 16:  ES64L-G16RevC.01  3-Jul-2019

 ----------------------------------------------------------------------
 #t hf aug-cc-pvdz iop(5/13=1,5/36=2,99/5=2) pseudo=read geom=check gue
 ss=(read,tcheck) scf=(maxcycle=1)
 ----------------------------------------------------------------------
 -----
 title
 -----
 Structure from the checkpoint file:  "cysteine.chk"
 Charge =  0 Multiplicity = 1

                         Standard orientation:
 ---------------------------------------------------------------------
 Center     Atomic      Atomic             Coordinates (Angstroms)
 Number     Number       Type             X           Y           Z
 ---------------------------------------------------------------------
      1          7           0        0.132502    1.611883    0.297686
      2          6           0        0.232379    0.161878    0.470580
      3          6           0        1.642693   -0.320889    0.078786
      4          8           0        2.061362   -1.407821    0.371619
      5          8           0        2.340267    0.562288   -0.647593
      6          1           0        1.773757    1.361340   -0.710982
      7          6           0       -0.766023   -0.575233   -0.432100
      8         16           0       -2.526785   -0.165977   -0.120311
      9          1           0        0.072670   -0.163602    1.501691
     10          1           0       -0.615582   -1.646562   -0.340585
     11          1           0       -0.604235   -0.298474   -1.474310
     12          1           0       -2.603154   -0.697517    1.114290
     13          1           0       -0.830276    1.882258    0.128698
     14          1           0        0.440533    2.104739    1.126558
 ---------------------------------------------------------------------

 SCF Done:  E(RHF) =  -719.572662538     A.U. after    2 cycles

 The electronic state is 1-A.
 Alpha  occ. eigenvalues --  -93.55845 -20.61911 -20.56103 -15.65073 -11.39782
 Alpha  occ. eigenvalues --  -11.31427 -11.30069  -8.85569  -6.19740  -6.19521
 Alpha  occ. eigenvalues --   -6.19199  -1.42134  -1.33218  -1.20271  -1.06510
 Alpha  occ. eigenvalues --   -0.96859  -0.86295  -0.82568  -0.74613  -0.71669
 Alpha  occ. eigenvalues --   -0.68973  -0.65495  -0.63882  -0.60457  -0.59283
 Alpha  occ. eigenvalues --   -0.56561  -0.53671  -0.49994  -0.49025  -0.46299
 Alpha  occ. eigenvalues --   -0.43352  -0.38193
 Alpha virt. eigenvalues --    0.02652   0.03956   0.04226   0.05202   0.06646
 Alpha virt. eigenvalues --    0.06815   0.07838   0.09250   0.10527   0.11583
 Alpha virt. eigenvalues --    0.12517   0.12945   0.13483   0.14245   0.15195

 Mulliken charges:
               1
     1  N   -0.438396
     2  C    0.260705
     3  C    0.647784
     4  O   -0.495269
     5  O   -0.485381
     6  H    0.265680
     7  C   -0.104468
     8  S    0.301444
     9  H   -0.085477
    10  H   -0.066715
    11  H    0.011145
    12  H    0.055671
    13  H    0.115658
    14  H    0.017619
 Sum of Mulliken charges =   0.00000

 Dipole moment (field-independent basis, Debye):
    X=             -3.2278    Y=              2.9857    Z=              1.3264  Tot=              4.5926

 Test job not archived.
 1\1\GINC-SE222\SP\RHF\Aug-CC-pVDZ\C3H7N1O2S1\OHZDE\05-Apr-2025\0\\#t h
 f aug-cc-pvdz iop(5/13=1,5/36=2,99/5=2) pseudo=read geom=check guess=(
 read,tcheck) scf=(maxcycle=1)\\title\\0,1\N,0,0.132502,1.611883,0.2976
 86\C,0,0.232379,0.161878,0.47058\C,0,1.642693,-0.320889,0.078786\O,0,2
 .061362,-1.407821,0.371619\O,0,2.340267,0.562288,-0.647593\H,0,1.77375
 7,1.36134,-0.710982\C,0,-0.766023,-0.575233,-0.4321\S,0,-2.526785,-0.1
 65977,-0.120311\H,0,0.07267,-0.163602,1.501691\H,0,-0.615582,-1.646562
 ,-0.340585\H,0,-0.604235,-0.298474,-1.47431\H,0,-2.603154,-0.697517,1.

 Normal termination of Gaussian 16 at Sat Apr  5 22:55:50 2025.
