 Gaussian 16, Revision C.01,

 ----------------------------------------------------------------------
 #t hf aug-cc-pvdz symm=none int=(grid=ultrafine) guess=(read,tcheck) s
 table=(opt,rrhf)
 ----------------------------------------------------------------------
 -----
 title
 -----
 Symbolic Z-matrix:
 Charge =  0 Multiplicity = 1

 SCF Done:  E(RHF) =  -392.678308357     A.U. after   15 cycles
 Normal termination of Gaussian 16 at Sat Apr  5 22:55:09 2025.
 Gaussian 16:  ES64L-G16RevC.01  3-Jul-2019

 ----------------------------------------------------------------------
 #t hf aug-cc-pvdz iop(5/13=1,5/36=2,99/5=2) pseudo=read geom=check gue
 ss=(read,tcheck) scf=(maxcycle=1)
 ----------------------------------------------------------------------
 -----
 title
 -----
 Structure from the checkpoint file:  "cytosine.chk"
 Charge =  0 Multiplicity = 1

                         Standard orientation:
 ---------------------------------------------------------------------
 Center     Atomic      Atomic             Coordinates (Angstroms)
 Number     Number       Type             X           Y           Z
 ---------------------------------------------------------------------
      1          7           0       -1.278679    0.891680    0.000794
      2          6           0       -1.183279   -0.527836   -0.000005
      3          8           0       -2.212368   -1.174968    0.000543
      4          7           0        0.081477   -1.045063    0.000860
      5          6           0        1.129520   -0.251037   -0.001356
      6          7           0        2.350160   -0.839822   -0.016923
      7          6           0        1.044869    1.182278   -0.000701
      8          6           0       -0.202442    1.706311    0.000829
      9          1           0       -2.216305    1.259538    0.001831
     10          1           0        2.393103   -1.842117    0.040782
     11          1           0        3.193278   -0.305790    0.070447
     12          1           0        1.919772    1.812089   -0.004556
     13          1           0       -0.393620    2.770157    0.001442
 ---------------------------------------------------------------------

 SCF Done:  E(RHF) =  -392.797046559     A.U. after    2 cycles

 The electronic state is 1-A.
 Alpha  occ. eigenvalues --  -20.51766 -15.68428 -15.66125 -15.60463 -11.38375
 Alpha  occ. eigenvalues --  -11.36599 -11.34038 -11.25456  -1.35185  -1.27236
 Alpha  occ. eigenvalues --   -1.23281  -1.14189  -1.05644  -0.90038  -0.87897
 Alpha  occ. eigenvalues --   -0.76562  -0.76438  -0.72231  -0.68358  -0.63423
 Alpha  occ. eigenvalues --   -0.62892  -0.61331  -0.60327  -0.53817  -0.49912
 Alpha  occ. eigenvalues --   -0.45485  -0.41847  -0.38149  -0.34694
 Alpha virt. eigenvalues --    0.01841   0.02656   0.04433   0.06047   0.06959
 Alpha virt. eigenvalues --    0.07497   0.09373   0.10633   0.11576   0.12235
 Alpha virt. eigenvalues --    0.12314   0.12947   0.13084   0.13447   0.15110

 Mulliken charges:
               1
     1  N   -0.437822
     2  C    0.679115
     3  O   -0.503588
     4  N   -0.598403
     5  C    0.406760
     6  N   -0.162046
     7  C    0.996013
     8  C    0.565095
     9  H   -0.052408
    10  H   -0.022505
    11  H   -0.030239
    12  H   -0.532998
    13  H   -0.306974
 Sum of Mulliken charges =  -0.00000

 Dipole moment (field-independent basis, Debye):
    X=              4.8751    Y=              5.6016    Z=              0.2150  Tot=              7.4290

 Test job not archived.
 1\1\GINC-SE222\SP\RHF\Aug-CC-pVDZ\C4H5N3O1\OHZDE\05-Apr-2025\0\\#t hf
 aug-cc-pvdz iop(5/13=1,5/36=2,99/5=2) pseudo=read geom=check guess=(re
 ad,tcheck) scf=(maxcycle=1)\\title\\0,1\N,0,-1.278679,0.89168,0.000794
 \C,0,-1.183279,-0.527836,-0.000005\O,0,-2.212368,-1.174968,0.000543\N,
 0,0.081477,-1.045063,0.00086\C,0,1.12952,-0.251037,-0.001356\N,0,2.350
 16,-0.839822,-0.016923\C,0,1.044869,1.182278,-0.000701\C,0,-0.202442,1
 .706311,0.000829\H,0,-2.216305,1.259538,0.001831\H,0,2.393103,-1.84211
 7,0.040782\H,0,3.193278,-0.30579,0.070447\H,0,1.919772,1.812089,-0.004

 Normal termination of Gaussian 16 at Sat Apr  5 22:55:49 2025.
