 Gaussian 16, Revision C.01,

 ----------------------------------------------------------------------
 #t hf aug-cc-pvdz symm=none int=(grid=ultrafine) guess=(read,tcheck) s
 table=(opt,rrhf)
 ----------------------------------------------------------------------
 -----
 title
 -----
 Symbolic Z-matrix:
 Charge =  0 Multiplicity = 1

 SCF Done:  E(RHF) =  -391.548021700     A.U. after   11 cycles
 Normal termination of Gaussian 16 at Sat Apr  5 22:58:53 2025.
 Gaussian 16:  ES64L-G16RevC.01  3-Jul-2019

 ----------------------------------------------------------------------
 #t hf aug-cc-pvdz iop(5/13=1,5/36=2,99/5=2) pseudo=read geom=check gue
 ss=(read,tcheck) scf=(maxcycle=1)
 ----------------------------------------------------------------------
 -----
 title
 -----
 Structure from the checkpoint file:  "decane.chk"
 Charge =  0 Multiplicity = 1

                         Standard orientation:
 ---------------------------------------------------------------------
 Center     Atomic      Atomic             Coordinates (Angstroms)
 Number     Number       Type             X           Y           Z
 ---------------------------------------------------------------------
      1          6           0        2.789368    5.050688    0.000000
      2          6           0       -2.789368   -5.050688    0.000000
      3          6           0        2.800552    3.522861    0.000000
      4          6           0       -2.800552   -3.522861    0.000000
      5          6           0        1.400494    2.907631    0.000000
      6          6           0       -1.400494   -2.907631    0.000000
      7          6           0        1.400494    1.378640    0.000000
      8          6           0       -1.400494   -1.378640    0.000000
      9          6           0       -0.000057    0.764608    0.000000
     10          6           0        0.000057   -0.764608    0.000000
     11          1           0        3.801408    5.458123    0.000000
     12          1           0        2.275152    5.441067    0.880579
     13          1           0        2.275152    5.441067   -0.880579
     14          1           0       -3.801408   -5.458123    0.000000
     15          1           0       -2.275152   -5.441067   -0.880579
     16          1           0       -2.275152   -5.441067    0.880579
     17          1           0        3.351669    3.162311    0.873843
     18          1           0        3.351669    3.162311   -0.873843
     19          1           0       -3.351669   -3.162311    0.873843
     20          1           0       -3.351669   -3.162311   -0.873843
     21          1           0        0.848853    3.269313   -0.874391
     22          1           0        0.848853    3.269313    0.874391
     23          1           0       -0.848853   -3.269313   -0.874391
     24          1           0       -0.848853   -3.269313    0.874391
     25          1           0        1.952511    1.017990    0.874412
     26          1           0        1.952511    1.017990   -0.874412
     27          1           0       -1.952511   -1.017990    0.874412
     28          1           0       -1.952511   -1.017990   -0.874412
     29          1           0       -0.551998    1.125266   -0.874385
     30          1           0       -0.551998    1.125266    0.874385
     31          1           0        0.551998   -1.125266    0.874385
     32          1           0        0.551998   -1.125266   -0.874385
 ---------------------------------------------------------------------

 SCF Done:  E(RHF) =  -391.673296502     A.U. after    2 cycles

 The electronic state is 1-AG.
 Alpha  occ. eigenvalues --  -11.22319 -11.22319 -11.22102 -11.22093 -11.22075
 Alpha  occ. eigenvalues --  -11.22051 -11.22026 -11.22003 -11.21859 -11.21859
 Alpha  occ. eigenvalues --   -1.08375  -1.06461  -1.03306  -0.99027  -0.93809
 Alpha  occ. eigenvalues --   -0.88011  -0.82452  -0.78988  -0.78534  -0.78139
 Alpha  occ. eigenvalues --   -0.66074  -0.64304  -0.61508  -0.59630  -0.58782
 Alpha  occ. eigenvalues --   -0.57982  -0.57306  -0.54220  -0.54173  -0.53601
 Alpha  occ. eigenvalues --   -0.50648  -0.50522  -0.47958  -0.47881  -0.47666
 Alpha  occ. eigenvalues --   -0.46400  -0.46296  -0.45828  -0.45812  -0.45661
 Alpha  occ. eigenvalues --   -0.42626
 Alpha virt. eigenvalues --    0.03504   0.03649   0.04273   0.04457   0.04670
 Alpha virt. eigenvalues --    0.05271   0.05468   0.06260   0.06521   0.06736
 Alpha virt. eigenvalues --    0.06972   0.07710   0.08223   0.09074   0.09144

 Mulliken charges:
               1
     1  C    0.677586
     2  C    0.677586
     3  C    0.551477
     4  C    0.551477
     5  C    0.265054
     6  C    0.265054
     7  C    0.235090
     8  C    0.235090
     9  C    0.160395
    10  C    0.160395
    11  H   -0.070793
    12  H   -0.097180
    13  H   -0.097180
    14  H   -0.070793
    15  H   -0.097180
    16  H   -0.097180
    17  H   -0.172819
    18  H   -0.172819
    19  H   -0.172819
    20  H   -0.172819
    21  H   -0.205964
    22  H   -0.205964
    23  H   -0.205964
    24  H   -0.205964
    25  H   -0.225354
    26  H   -0.225354
    27  H   -0.225354
    28  H   -0.225354
    29  H   -0.208088
    30  H   -0.208088
    31  H   -0.208088
    32  H   -0.208088
 Sum of Mulliken charges =  -0.00000

 Dipole moment (field-independent basis, Debye):
    X=              0.0000    Y=             -0.0000    Z=              0.0000  Tot=              0.0000

 Test job not archived.
 1\1\GINC-SE212\SP\RHF\Aug-CC-pVDZ\C10H22\OHZDE\05-Apr-2025\0\\#t hf au
 g-cc-pvdz iop(5/13=1,5/36=2,99/5=2) pseudo=read geom=check guess=(read
 ,tcheck) scf=(maxcycle=1)\\title\\0,1\C,0,2.789368,5.050688,0.\C,0,-2.
 789368,-5.050688,0.\C,0,2.800552,3.522861,0.\C,0,-2.800552,-3.522861,0
 .\C,0,1.400494,2.907631,0.\C,0,-1.400494,-2.907631,0.\C,0,1.400494,1.3
 7864,0.\C,0,-1.400494,-1.37864,0.\C,0,-0.000057,0.764608,0.\C,0,0.0000
 57,-0.764608,0.\H,0,3.801408,5.458123,0.\H,0,2.275152,5.441067,0.88057
 9\H,0,2.275152,5.441067,-0.880579\H,0,-3.801408,-5.458123,0.\H,0,-2.27

 Normal termination of Gaussian 16 at Sat Apr  5 22:59:03 2025.
