 Gaussian 16, Revision C.01,

 ----------------------------------------------------------------------
 #t hf aug-cc-pvdz symm=none int=(grid=ultrafine) guess=(read,tcheck) s
 table=(opt,rrhf)
 ----------------------------------------------------------------------
 -----
 title
 -----
 Symbolic Z-matrix:
 Charge =  0 Multiplicity = 1

 SCF Done:  E(RHF) =  -454.989128565     A.U. after   14 cycles
 Normal termination of Gaussian 16 at Sat Apr  5 22:55:23 2025.
 Gaussian 16:  ES64L-G16RevC.01  3-Jul-2019

 ----------------------------------------------------------------------
 #t hf aug-cc-pvdz iop(5/13=1,5/36=2,99/5=2) pseudo=read geom=check gue
 ss=(read,tcheck) scf=(maxcycle=1)
 ----------------------------------------------------------------------
 -----
 title
 -----
 Structure from the checkpoint file:  "di-2-propyn-1-yltrioxidane.chk"
 Charge =  0 Multiplicity = 1

                         Standard orientation:
 ---------------------------------------------------------------------
 Center     Atomic      Atomic             Coordinates (Angstroms)
 Number     Number       Type             X           Y           Z
 ---------------------------------------------------------------------
      1          8           0        0.000000    1.471034   -0.000000
      2          8           0       -1.045393    0.632131    0.498632
      3          8           0        1.045393    0.632130   -0.498632
      4          6           0       -1.857587    0.241250   -0.631137
      5          6           0        1.857587    0.241251    0.631137
      6          6           0       -2.930054   -0.597279   -0.127689
      7          6           0        2.930054   -0.597279    0.127689
      8          6           0       -3.820304   -1.289211    0.276887
      9          6           0        3.820303   -1.289212   -0.276887
     10          1           0       -2.252972    1.138284   -1.112154
     11          1           0       -1.237646   -0.305795   -1.343916
     12          1           0        2.252972    1.138285    1.112154
     13          1           0        1.237646   -0.305794    1.343917
     14          1           0       -4.609105   -1.902231    0.635967
     15          1           0        4.609104   -1.902232   -0.635966
 ---------------------------------------------------------------------

 SCF Done:  E(RHF) =  -455.135019436     A.U. after    2 cycles

 The electronic state is 1-A.
 Alpha  occ. eigenvalues --  -20.71504 -20.66443 -20.66437 -11.33373 -11.33372
 Alpha  occ. eigenvalues --  -11.26183 -11.26183 -11.25569 -11.25569  -1.49809
 Alpha  occ. eigenvalues --   -1.34977  -1.17249  -1.06236  -1.04318  -0.96838
 Alpha  occ. eigenvalues --   -0.93671  -0.76971  -0.74644  -0.74223  -0.73786
 Alpha  occ. eigenvalues --   -0.71637  -0.67364  -0.66485  -0.64086  -0.60831
 Alpha  occ. eigenvalues --   -0.60050  -0.51971  -0.51036  -0.50688  -0.41890
 Alpha  occ. eigenvalues --   -0.41747  -0.40819  -0.40668
 Alpha virt. eigenvalues --    0.03376   0.03640   0.04511   0.04997   0.05999
 Alpha virt. eigenvalues --    0.06426   0.09823   0.09918   0.10361   0.10595
 Alpha virt. eigenvalues --    0.11151   0.11161   0.11857   0.12412   0.13807

 Mulliken charges:
               1
     1  O   -0.232046
     2  O   -0.405482
     3  O   -0.405481
     4  C    0.711204
     5  C    0.711202
     6  C   -0.711337
     7  C   -0.711338
     8  C    1.154651
     9  C    1.154654
    10  H   -0.058098
    11  H   -0.054697
    12  H   -0.058099
    13  H   -0.054696
    14  H   -0.520218
    15  H   -0.520219
 Sum of Mulliken charges =  -0.00000

 Dipole moment (field-independent basis, Debye):
    X=             -0.0000    Y=             -1.3028    Z=              0.0000  Tot=              1.3028

 Test job not archived.
 1\1\GINC-SE213\SP\RHF\Aug-CC-pVDZ\C6H6O3\OHZDE\05-Apr-2025\0\\#t hf au
 g-cc-pvdz iop(5/13=1,5/36=2,99/5=2) pseudo=read geom=check guess=(read
 ,tcheck) scf=(maxcycle=1)\\title\\0,1\O,0,0.,1.471034,0.\O,0,-1.045393
 ,0.632131,0.498632\O,0,1.045393,0.63213,-0.498632\C,0,-1.857587,0.2412
 5,-0.631137\C,0,1.857587,0.241251,0.631137\C,0,-2.930054,-0.597279,-0.
 127689\C,0,2.930054,-0.597279,0.127689\C,0,-3.820304,-1.289211,0.27688
 7\C,0,3.820303,-1.289212,-0.276887\H,0,-2.252972,1.138284,-1.112154\H,
 0,-1.237646,-0.305795,-1.343916\H,0,2.252972,1.138285,1.112154\H,0,1.2

 Normal termination of Gaussian 16 at Sat Apr  5 22:55:50 2025.
