 Gaussian 16, Revision C.01,

 ----------------------------------------------------------------------
 #t hf aug-cc-pvdz symm=none int=(grid=ultrafine) guess=(read,tcheck) s
 table=(opt,rrhf)
 ----------------------------------------------------------------------
 -----
 title
 -----
 Symbolic Z-matrix:
 Charge =  0 Multiplicity = 1

 SCF Done:  E(RHF) =  -1150.02256832     A.U. after   12 cycles
 Normal termination of Gaussian 16 at Sat Apr  5 22:55:25 2025.
 Gaussian 16:  ES64L-G16RevC.01  3-Jul-2019

 ----------------------------------------------------------------------
 #t hf aug-cc-pvdz iop(5/13=1,5/36=2,99/5=2) pseudo=read geom=check gue
 ss=(read,tcheck) scf=(maxcycle=1)
 ----------------------------------------------------------------------
 -----
 title
 -----
 Structure from the checkpoint file:  "di-2-chloroethylether.chk"
 Charge =  0 Multiplicity = 1

                         Standard orientation:
 ---------------------------------------------------------------------
 Center     Atomic      Atomic             Coordinates (Angstroms)
 Number     Number       Type             X           Y           Z
 ---------------------------------------------------------------------
      1          6           0        0.595129    1.129270    1.179795
      2          6           0        0.595129    1.129270   -1.179795
      3          6           0       -0.195354    0.681761    2.384225
      4          6           0       -0.195354    0.681761   -2.384225
      5          8           0       -0.097253    0.782414    0.000000
      6         17           0       -0.195354   -1.116216    2.587045
      7         17           0       -0.195354   -1.116216   -2.587045
      8          1           0        0.715987    2.221674    1.242336
      9          1           0        1.594518    0.679296    1.190046
     10          1           0        1.594518    0.679296   -1.190046
     11          1           0        0.715987    2.221674   -1.242336
     12          1           0        0.235929    1.094093    3.292028
     13          1           0       -1.235057    0.984758    2.300171
     14          1           0       -1.235057    0.984758   -2.300171
     15          1           0        0.235929    1.094093   -3.292028
 ---------------------------------------------------------------------

 SCF Done:  E(RHF) =  -1150.13319230     A.U. after    2 cycles

 The electronic state is 1-A'.
 Alpha  occ. eigenvalues -- -103.64555-103.64555 -20.59042 -11.31284 -11.31256
 Alpha  occ. eigenvalues --  -11.30919 -11.30916 -10.67831 -10.67829  -8.33552
 Alpha  occ. eigenvalues --   -8.33550  -8.33264  -8.33261  -8.33252  -8.33251
 Alpha  occ. eigenvalues --   -1.36051  -1.16408  -1.15491  -1.03957  -0.97867
 Alpha  occ. eigenvalues --   -0.85617  -0.84598  -0.71197  -0.70871  -0.65573
 Alpha  occ. eigenvalues --   -0.62994  -0.62145  -0.58502  -0.55937  -0.55229
 Alpha  occ. eigenvalues --   -0.51686  -0.51667  -0.45949  -0.44796  -0.44397
 Alpha  occ. eigenvalues --   -0.44128  -0.44085
 Alpha virt. eigenvalues --    0.02822   0.03895   0.04463   0.05361   0.06027
 Alpha virt. eigenvalues --    0.06229   0.07319   0.08738   0.08932   0.10769
 Alpha virt. eigenvalues --    0.11709   0.12836   0.14758   0.14993   0.15125

 Mulliken charges:
               1
     1  C    0.537594
     2  C    0.537594
     3  C    0.087581
     4  C    0.087581
     5  O   -0.554028
     6  Cl  -0.134277
     7  Cl  -0.134277
     8  H   -0.104593
     9  H   -0.132029
    10  H   -0.132029
    11  H   -0.104593
    12  H    0.022794
    13  H   -0.000056
    14  H   -0.000056
    15  H    0.022794
 Sum of Mulliken charges =   0.00000

 Dipole moment (field-independent basis, Debye):
    X=              1.3901    Y=              5.0957    Z=              0.0000  Tot=              5.2819

 Test job not archived.
 1\1\GINC-SE210\SP\RHF\Aug-CC-pVDZ\C4H8Cl2O1\OHZDE\05-Apr-2025\0\\#t hf
  aug-cc-pvdz iop(5/13=1,5/36=2,99/5=2) pseudo=read geom=check guess=(r
 ead,tcheck) scf=(maxcycle=1)\\title\\0,1\C,0,0.595129,1.12927,1.179795
 \C,0,0.595129,1.12927,-1.179795\C,0,-0.195354,0.681761,2.384225\C,0,-0
 .195354,0.681761,-2.384225\O,0,-0.097253,0.782414,0.\Cl,0,-0.195354,-1
 .116216,2.587045\Cl,0,-0.195354,-1.116216,-2.587045\H,0,0.715987,2.221
 674,1.242336\H,0,1.594518,0.679296,1.190046\H,0,1.594518,0.679296,-1.1
 90046\H,0,0.715987,2.221674,-1.242336\H,0,0.235929,1.094093,3.292028\H

 Normal termination of Gaussian 16 at Sat Apr  5 22:55:49 2025.
