 Gaussian 16, Revision C.01,

 ----------------------------------------------------------------------
 #t hf aug-cc-pvdz symm=none int=(grid=ultrafine) guess=(read,tcheck) s
 table=(opt,rrhf)
 ----------------------------------------------------------------------
 -----
 title
 -----
 Symbolic Z-matrix:
 Charge =  0 Multiplicity = 1

 SCF Done:  E(RHF) =  -785.803158284     A.U. after   15 cycles
 Normal termination of Gaussian 16 at Sat Apr  5 23:00:02 2025.
 Gaussian 16:  ES64L-G16RevC.01  3-Jul-2019

 ----------------------------------------------------------------------
 #t hf aug-cc-pvdz iop(5/13=1,5/36=2,99/5=2) pseudo=read geom=check gue
 ss=(read,tcheck) scf=(maxcycle=1)
 ----------------------------------------------------------------------
 -----
 title
 -----
 Structure from the checkpoint file:  "di-t-butyl_sulfoxide.chk"
 Charge =  0 Multiplicity = 1

                         Standard orientation:
 ---------------------------------------------------------------------
 Center     Atomic      Atomic             Coordinates (Angstroms)
 Number     Number       Type             X           Y           Z
 ---------------------------------------------------------------------
      1          6           0        2.663848   -0.782766   -0.312447
      2          6           0        1.574850    0.243819    0.027897
      3         16           0        0.003172   -0.652999   -0.591505
      4          8           0       -0.020248   -1.977073    0.141990
      5          6           0        1.557609    0.507360    1.528193
      6          6           0        1.785704    1.512671   -0.796723
      7          6           0       -1.573874    0.251467    0.029249
      8          6           0       -1.560609    1.730836   -0.336792
      9          6           0       -1.776120    0.006480    1.519693
     10          6           0       -2.659747   -0.480531   -0.773418
     11          1           0        2.509176   -1.714151    0.227716
     12          1           0        2.686446   -1.005976   -1.380264
     13          1           0        3.635357   -0.369465   -0.033555
     14          1           0        1.255380   -0.384375    2.076591
     15          1           0        0.895101    1.328817    1.794977
     16          1           0        2.563900    0.776586    1.859022
     17          1           0        1.684867    1.314388   -1.864966
     18          1           0        2.799008    1.883799   -0.626678
     19          1           0        1.096530    2.309355   -0.528584
     20          1           0       -1.282606    1.890906   -1.379789
     21          1           0       -0.889760    2.308180    0.296527
     22          1           0       -2.565562    2.138481   -0.202592
     23          1           0       -1.549414   -1.030527    1.766119
     24          1           0       -2.819894    0.198857    1.778581
     25          1           0       -1.156770    0.655303    2.134375
     26          1           0       -2.534148   -0.333472   -1.846700
     27          1           0       -2.647862   -1.549896   -0.566985
     28          1           0       -3.638489   -0.088261   -0.489546
 ---------------------------------------------------------------------

 SCF Done:  E(RHF) =  -785.961290232     A.U. after    2 cycles

 The electronic state is 1-A.
 Alpha  occ. eigenvalues --  -93.62972 -20.50250 -11.28592 -11.28539 -11.24347
 Alpha  occ. eigenvalues --  -11.24045 -11.23437 -11.23199 -11.22871 -11.22610
 Alpha  occ. eigenvalues --   -8.91452  -6.25703  -6.25596  -6.25253  -1.27646
 Alpha  occ. eigenvalues --   -1.10636  -1.09331  -0.95357  -0.94715  -0.94186
 Alpha  occ. eigenvalues --   -0.93702  -0.89347  -0.77119  -0.72594  -0.65544
 Alpha  occ. eigenvalues --   -0.63823  -0.62338  -0.61973  -0.61152  -0.60534
 Alpha  occ. eigenvalues --   -0.57710  -0.55908  -0.55409  -0.54539  -0.53377
 Alpha  occ. eigenvalues --   -0.52770  -0.52384  -0.51461  -0.50401  -0.49286
 Alpha  occ. eigenvalues --   -0.48762  -0.48618  -0.47567  -0.39142  -0.34802
 Alpha virt. eigenvalues --    0.03068   0.03837   0.04274   0.04638   0.05512
 Alpha virt. eigenvalues --    0.05727   0.05745   0.06820   0.06903   0.07857
 Alpha virt. eigenvalues --    0.08194   0.08407   0.08649   0.08947   0.09587

 Mulliken charges:
               1
     1  C    1.310363
     2  C   -2.864716
     3  S    1.388896
     4  O   -1.214738
     5  C    0.920149
     6  C    1.012921
     7  C   -2.769763
     8  C    0.916588
     9  C    0.953009
    10  C    1.318834
    11  H    0.029544
    12  H   -0.016632
    13  H   -0.093976
    14  H   -0.004589
    15  H   -0.122612
    16  H   -0.054754
    17  H   -0.034578
    18  H    0.039948
    19  H   -0.207805
    20  H   -0.052625
    21  H   -0.104506
    22  H   -0.044866
    23  H    0.000618
    24  H    0.017740
    25  H   -0.210189
    26  H   -0.015600
    27  H    0.016325
    28  H   -0.112984
 Sum of Mulliken charges =  -0.00000

 Dipole moment (field-independent basis, Debye):
    X=              0.0478    Y=              4.4553    Z=             -0.1436  Tot=              4.4579

 Test job not archived.
 1\1\GINC-SE052\SP\RHF\Aug-CC-pVDZ\C8H18O1S1\OHZDE\05-Apr-2025\0\\#t hf
  aug-cc-pvdz iop(5/13=1,5/36=2,99/5=2) pseudo=read geom=check guess=(r
 ead,tcheck) scf=(maxcycle=1)\\title\\0,1\C,0,2.663848,-0.782766,-0.312
 447\C,0,1.57485,0.243819,0.027897\S,0,0.003172,-0.652999,-0.591505\O,0
 ,-0.020248,-1.977073,0.14199\C,0,1.557609,0.50736,1.528193\C,0,1.78570
 4,1.512671,-0.796723\C,0,-1.573874,0.251467,0.029249\C,0,-1.560609,1.7
 30836,-0.336792\C,0,-1.77612,0.00648,1.519693\C,0,-2.659747,-0.480531,
 -0.773418\H,0,2.509176,-1.714151,0.227716\H,0,2.686446,-1.005976,-1.38

 Normal termination of Gaussian 16 at Sat Apr  5 23:00:28 2025.
