 Gaussian 16, Revision C.01,

 ----------------------------------------------------------------------
 #t hf aug-cc-pvdz symm=none int=(grid=ultrafine) guess=(read,tcheck) s
 table=(opt,rrhf)
 ----------------------------------------------------------------------
 -----
 title
 -----
 Symbolic Z-matrix:
 Charge =  0 Multiplicity = 1

 SCF Done:  E(RHF) =  -463.113080261     A.U. after   13 cycles

 1\1\GINC-SE045\Stability\RHF\Aug-CC-pVDZ\C8H18O2\OHZDE\05-Apr-2025\0\\
 #t hf aug-cc-pvdz symm=none int=(grid=ultrafine) guess=(read,tcheck) s
 table=(opt,rrhf)\\title\\0,1\O,0,0.57355,-0.456962,-0.218509\O,0,-0.57
 355,0.456962,-0.218509\C,0,-0.08017,1.796241,-0.00302\C,0,0.884776,2.1
 95036,-1.121036\C,0,-1.367264,2.619106,-0.073034\C,0,0.57355,1.917363,
 1.374169\C,0,0.08017,-1.796241,-0.00302\C,0,-0.884776,-2.195036,-1.121
 036\C,0,1.367264,-2.619106,-0.073034\C,0,-0.57355,-1.917363,1.374169\H
 ,0,0.409795,2.068957,-2.094034\H,0,1.176355,3.240428,-1.01102\H,0,1.78

 Normal termination of Gaussian 16 at Sat Apr  5 22:58:47 2025.
 Gaussian 16:  ES64L-G16RevC.01  3-Jul-2019

 ----------------------------------------------------------------------
 #t hf aug-cc-pvdz iop(5/13=1,5/36=2,99/5=2) pseudo=read geom=check gue
 ss=(read,tcheck) scf=(maxcycle=1)
 ----------------------------------------------------------------------
 -----
 title
 -----
 Structure from the checkpoint file:  "di-t-butyl_peroxide.chk"
 Charge =  0 Multiplicity = 1

                         Standard orientation:
 ---------------------------------------------------------------------
 Center     Atomic      Atomic             Coordinates (Angstroms)
 Number     Number       Type             X           Y           Z
 ---------------------------------------------------------------------
      1          8           0        0.573550   -0.456962   -0.218509
      2          8           0       -0.573550    0.456962   -0.218509
      3          6           0       -0.080170    1.796241   -0.003020
      4          6           0        0.884776    2.195036   -1.121036
      5          6           0       -1.367264    2.619106   -0.073034
      6          6           0        0.573550    1.917363    1.374169
      7          6           0        0.080170   -1.796241   -0.003020
      8          6           0       -0.884776   -2.195036   -1.121036
      9          6           0        1.367264   -2.619106   -0.073034
     10          6           0       -0.573550   -1.917363    1.374169
     11          1           0        0.409795    2.068957   -2.094034
     12          1           0        1.176355    3.240428   -1.011020
     13          1           0        1.784373    1.583641   -1.095314
     14          1           0       -2.069771    2.304245    0.698415
     15          1           0       -1.138092    3.673801    0.079206
     16          1           0       -1.845273    2.506130   -1.045680
     17          1           0        1.459710    1.289466    1.438562
     18          1           0        0.871203    2.950204    1.559960
     19          1           0       -0.124150    1.615244    2.155502
     20          1           0       -0.409795   -2.068957   -2.094034
     21          1           0       -1.176355   -3.240428   -1.011020
     22          1           0       -1.784373   -1.583641   -1.095314
     23          1           0        2.069771   -2.304245    0.698415
     24          1           0        1.138092   -3.673801    0.079206
     25          1           0        1.845273   -2.506130   -1.045680
     26          1           0       -1.459710   -1.289466    1.438562
     27          1           0       -0.871203   -2.950204    1.559960
     28          1           0        0.124150   -1.615244    2.155502
 ---------------------------------------------------------------------

 SCF Done:  E(RHF) =  -463.260044101     A.U. after    2 cycles

 The electronic state is 1-A.
 Alpha  occ. eigenvalues --  -20.61547 -20.61520 -11.29529 -11.29529 -11.22343
 Alpha  occ. eigenvalues --  -11.22343 -11.21770 -11.21769 -11.21633 -11.21633
 Alpha  occ. eigenvalues --   -1.40030  -1.21851  -1.06008  -1.02821  -0.93684
 Alpha  occ. eigenvalues --   -0.93414  -0.93244  -0.93064  -0.77013  -0.76018
 Alpha  occ. eigenvalues --   -0.66703  -0.66256  -0.66252  -0.61905  -0.59989
 Alpha  occ. eigenvalues --   -0.59425  -0.58066  -0.56913  -0.55012  -0.54243
 Alpha  occ. eigenvalues --   -0.52676  -0.52610  -0.52505  -0.51682  -0.51561
 Alpha  occ. eigenvalues --   -0.50555  -0.49696  -0.48043  -0.46027  -0.44832
 Alpha  occ. eigenvalues --   -0.42021
 Alpha virt. eigenvalues --    0.03513   0.04257   0.04664   0.04696   0.05632
 Alpha virt. eigenvalues --    0.05689   0.05744   0.06488   0.06509   0.07820
 Alpha virt. eigenvalues --    0.08113   0.08378   0.08819   0.08895   0.09547

 Mulliken charges:
               1
     1  O   -0.192193
     2  O   -0.192193
     3  C   -2.749153
     4  C    1.072195
     5  C    0.982406
     6  C    1.007526
     7  C   -2.749153
     8  C    1.072195
     9  C    0.982406
    10  C    1.007526
    11  H   -0.001342
    12  H   -0.007589
    13  H   -0.056348
    14  H   -0.022664
    15  H    0.048242
    16  H   -0.047862
    17  H   -0.008537
    18  H   -0.021388
    19  H   -0.003295
    20  H   -0.001342
    21  H   -0.007589
    22  H   -0.056348
    23  H   -0.022664
    24  H    0.048242
    25  H   -0.047862
    26  H   -0.008537
    27  H   -0.021388
    28  H   -0.003295
 Sum of Mulliken charges =  -0.00000

 Dipole moment (field-independent basis, Debye):
    X=              0.0000    Y=             -0.0000    Z=              0.4996  Tot=              0.4996

 Test job not archived.
 1\1\GINC-SE045\SP\RHF\Aug-CC-pVDZ\C8H18O2\OHZDE\05-Apr-2025\0\\#t hf a
 ug-cc-pvdz iop(5/13=1,5/36=2,99/5=2) pseudo=read geom=check guess=(rea
 d,tcheck) scf=(maxcycle=1)\\title\\0,1\O,0,0.57355,-0.456962,-0.218509
 \O,0,-0.57355,0.456962,-0.218509\C,0,-0.08017,1.796241,-0.00302\C,0,0.
 884776,2.195036,-1.121036\C,0,-1.367264,2.619106,-0.073034\C,0,0.57355
 ,1.917363,1.374169\C,0,0.08017,-1.796241,-0.00302\C,0,-0.884776,-2.195
 036,-1.121036\C,0,1.367264,-2.619106,-0.073034\C,0,-0.57355,-1.917363,
 1.374169\H,0,0.409795,2.068957,-2.094034\H,0,1.176355,3.240428,-1.0110

 Normal termination of Gaussian 16 at Sat Apr  5 22:59:00 2025.
