 Gaussian 16, Revision C.01,

 ----------------------------------------------------------------------
 #t hf aug-cc-pvdz symm=none int=(grid=ultrafine) guess=(read,tcheck) s
 table=(opt,rrhf)
 ----------------------------------------------------------------------
 -----
 title
 -----
 Symbolic Z-matrix:
 Charge =  0 Multiplicity = 1

 SCF Done:  E(RHF) =  -152.512714741     A.U. after   11 cycles
 Normal termination of Gaussian 16 at Sat Apr  5 22:55:49 2025.
 Gaussian 16:  ES64L-G16RevC.01  3-Jul-2019

 ----------------------------------------------------------------------
 #t hf aug-cc-pvdz iop(5/13=1,5/36=2,99/5=2) pseudo=read geom=check gue
 ss=(read,tcheck) scf=(maxcycle=1)
 ----------------------------------------------------------------------
 -----
 title
 -----
 Structure from the checkpoint file:  "diacetylene.chk"
 Charge =  0 Multiplicity = 1

                         Standard orientation:
 ---------------------------------------------------------------------
 Center     Atomic      Atomic             Coordinates (Angstroms)
 Number     Number       Type             X           Y           Z
 ---------------------------------------------------------------------
      1          6           0        0.000000    0.000000    0.681680
      2          6           0        0.000000    0.000000   -0.681680
      3          6           0        0.000000    0.000000    1.885975
      4          6           0        0.000000    0.000000   -1.885975
      5          1           0        0.000000    0.000000    2.946942
      6          1           0        0.000000    0.000000   -2.946942
 ---------------------------------------------------------------------

 SCF Done:  E(RHF) =  -152.563716432     A.U. after    2 cycles

 The electronic state is 1-SGG.
 Alpha  occ. eigenvalues --  -11.28002 -11.27918 -11.27136 -11.27108  -1.08817
 Alpha  occ. eigenvalues --   -1.02101  -0.85555  -0.73726  -0.71112  -0.49905
 Alpha  occ. eigenvalues --   -0.49905  -0.37478  -0.37478
 Alpha virt. eigenvalues --    0.03446   0.03483   0.08026   0.08026   0.08908
 Alpha virt. eigenvalues --    0.10954   0.10954   0.11678   0.12948   0.12948
 Alpha virt. eigenvalues --    0.13905   0.16377   0.19735   0.19735   0.20469

 Mulliken charges:
               1
     1  C    0.272139
     2  C    0.272139
     3  C    0.294416
     4  C    0.294416
     5  H   -0.566555
     6  H   -0.566555
 Sum of Mulliken charges =  -0.00000

 Dipole moment (field-independent basis, Debye):
    X=              0.0000    Y=              0.0000    Z=             -0.0000  Tot=              0.0000

 Test job not archived.
 1\1\GINC-SE028\SP\RHF\Aug-CC-pVDZ\C4H2\OHZDE\05-Apr-2025\0\\#t hf aug-
 cc-pvdz iop(5/13=1,5/36=2,99/5=2) pseudo=read geom=check guess=(read,t
 check) scf=(maxcycle=1)\\title\\0,1\C,0,0.,0.,0.68168\C,0,0.,0.,-0.681
 68\C,0,0.,0.,1.885975\C,0,0.,0.,-1.885975\H,0,0.,0.,2.946942\H,0,0.,0.
 ,-2.946942\\Version=ES64L-G16RevC.01\State=1-SGG\HF=-152.5637164\RMSD=
 1.646e-02\Dipole=0.,0.,0.\Quadrupole=-3.5085827,-3.5085827,7.0171655,0
 .,0.,0.\PG=D*H [C*(H1C1C1.C1C1H1)]\\@

 Normal termination of Gaussian 16 at Sat Apr  5 22:55:52 2025.
