 Gaussian 16, Revision C.01,

 ----------------------------------------------------------------------
 #t hf aug-cc-pvdz symm=none int=(grid=ultrafine) guess=(read,tcheck) s
 table=(opt,rrhf)
 ----------------------------------------------------------------------
 -----
 title
 -----
 Symbolic Z-matrix:
 Charge =  0 Multiplicity = 1

 SCF Done:  E(RHF) =  -186.908830924     A.U. after   12 cycles
 Normal termination of Gaussian 16 at Sat Apr  5 22:55:49 2025.
 Gaussian 16:  ES64L-G16RevC.01  3-Jul-2019

 ----------------------------------------------------------------------
 #t hf aug-cc-pvdz iop(5/13=1,5/36=2,99/5=2) pseudo=read geom=check gue
 ss=(read,tcheck) scf=(maxcycle=1)
 ----------------------------------------------------------------------
 -----
 title
 -----
 Structure from the checkpoint file:  "diaminoethyne.chk"
 Charge =  0 Multiplicity = 1

                         Standard orientation:
 ---------------------------------------------------------------------
 Center     Atomic      Atomic             Coordinates (Angstroms)
 Number     Number       Type             X           Y           Z
 ---------------------------------------------------------------------
      1          7           0       -1.948870   -0.047511    0.054375
      2          7           0        1.948870   -0.047536   -0.054353
      3          6           0       -0.602828    0.001551    0.003804
      4          6           0        0.602828    0.001550   -0.003806
      5          1           0       -2.420980   -0.433572   -0.748716
      6          1           0       -2.421589    0.756865    0.436515
      7          1           0        2.420977   -0.433234    0.748914
      8          1           0        2.421590    0.756668   -0.436853
 ---------------------------------------------------------------------

 SCF Done:  E(RHF) =  -186.969389364     A.U. after    2 cycles

 The electronic state is 1-A.
 Alpha  occ. eigenvalues --  -15.64339 -15.64336 -11.25015 -11.24637  -1.18471
 Alpha  occ. eigenvalues --   -1.16860  -0.96612  -0.74618  -0.69590  -0.68965
 Alpha  occ. eigenvalues --   -0.68926  -0.50338  -0.50246  -0.32745  -0.32718
 Alpha virt. eigenvalues --    0.03155   0.03729   0.05594   0.05624   0.12468
 Alpha virt. eigenvalues --    0.12717   0.12949   0.13258   0.15278   0.17294
 Alpha virt. eigenvalues --    0.17875   0.17899   0.21054   0.21259   0.22031

 Mulliken charges:
               1
     1  N   -0.063474
     2  N   -0.063474
     3  C    0.018736
     4  C    0.018735
     5  H    0.024642
     6  H    0.020096
     7  H    0.024642
     8  H    0.020096
 Sum of Mulliken charges =  -0.00000

 Dipole moment (field-independent basis, Debye):
    X=             -0.0000    Y=              1.2843    Z=             -0.0003  Tot=              1.2843

 Test job not archived.
 1\1\GINC-SE040\SP\RHF\Aug-CC-pVDZ\C2H4N2\OHZDE\05-Apr-2025\0\\#t hf au
 g-cc-pvdz iop(5/13=1,5/36=2,99/5=2) pseudo=read geom=check guess=(read
 ,tcheck) scf=(maxcycle=1)\\title\\0,1\N,0,-1.94887,-0.047511,0.054375\
 N,0,1.94887,-0.047536,-0.054353\C,0,-0.602828,0.001551,0.003804\C,0,0.
 602828,0.00155,-0.003806\H,0,-2.42098,-0.433572,-0.748716\H,0,-2.42158
 9,0.756865,0.436515\H,0,2.420977,-0.433234,0.748914\H,0,2.42159,0.7566
 68,-0.436853\\Version=ES64L-G16RevC.01\State=1-A\HF=-186.9693894\RMSD=
 5.200e-03\Dipole=-0.0000014,0.505288,-0.0001109\Quadrupole=5.1408881,-

 Normal termination of Gaussian 16 at Sat Apr  5 22:55:51 2025.
