 Gaussian 16, Revision C.01,

 ----------------------------------------------------------------------
 #t hf aug-cc-pvdz symm=none int=(grid=ultrafine) guess=(read,tcheck) s
 table=(opt,rrhf)
 ----------------------------------------------------------------------
 -----
 title
 -----
 Symbolic Z-matrix:
 Charge =  0 Multiplicity = 1

 SCF Done:  E(RHF) =  -150.273203361     A.U. after   11 cycles
 Normal termination of Gaussian 16 at Sat Apr  5 22:55:02 2025.
 Gaussian 16:  ES64L-G16RevC.01  3-Jul-2019

 ----------------------------------------------------------------------
 #t hf aug-cc-pvdz iop(5/13=1,5/36=2,99/5=2) pseudo=read geom=check gue
 ss=(read,tcheck) scf=(maxcycle=1)
 ----------------------------------------------------------------------
 -----
 title
 -----
 Structure from the checkpoint file:  "diaminomethane.chk"
 Charge =  0 Multiplicity = 1

                         Standard orientation:
 ---------------------------------------------------------------------
 Center     Atomic      Atomic             Coordinates (Angstroms)
 Number     Number       Type             X           Y           Z
 ---------------------------------------------------------------------
      1          6           0        0.000000   -0.000000    0.550170
      2          7           0        0.000000    1.261601   -0.185123
      3          7           0       -0.000000   -1.261601   -0.185123
      4          1           0        0.876907   -0.000000    1.198167
      5          1           0       -0.876907    0.000000    1.198167
      6          1           0        0.817663    1.348464   -0.776410
      7          1           0       -0.817663    1.348464   -0.776410
      8          1           0       -0.817663   -1.348464   -0.776410
      9          1           0        0.817663   -1.348464   -0.776410
 ---------------------------------------------------------------------

 SCF Done:  E(RHF) =  -150.321009960     A.U. after    2 cycles

 The electronic state is 1-A1.
 Alpha  occ. eigenvalues --  -15.60649 -15.60647 -11.28732  -1.18205  -1.08962
 Alpha  occ. eigenvalues --   -0.86526  -0.69919  -0.62546  -0.62168  -0.57430
 Alpha  occ. eigenvalues --   -0.50555  -0.43114  -0.37218
 Alpha virt. eigenvalues --    0.03290   0.04154   0.04887   0.05262   0.08137
 Alpha virt. eigenvalues --    0.08553   0.12233   0.12323   0.16153   0.16984
 Alpha virt. eigenvalues --    0.17520   0.18686   0.19088   0.21748   0.22746

 Mulliken charges:
               1
     1  C    1.008939
     2  N   -0.338580
     3  N   -0.338580
     4  H   -0.137217
     5  H   -0.137217
     6  H   -0.014336
     7  H   -0.014336
     8  H   -0.014336
     9  H   -0.014336
 Sum of Mulliken charges =  -0.00000

 Dipole moment (field-independent basis, Debye):
    X=              0.0000    Y=              0.0000    Z=             -1.8343  Tot=              1.8343

 Test job not archived.
 1\1\GINC-SE042\SP\RHF\Aug-CC-pVDZ\C1H6N2\OHZDE\05-Apr-2025\0\\#t hf au
 g-cc-pvdz iop(5/13=1,5/36=2,99/5=2) pseudo=read geom=check guess=(read
 ,tcheck) scf=(maxcycle=1)\\title\\0,1\C,0,0.,0.,0.55017\N,0,0.,1.26160
 1,-0.185123\N,0,0.,-1.261601,-0.185123\H,0,0.876907,0.,1.198167\H,0,-0
 .876907,0.,1.198167\H,0,0.817663,1.348464,-0.77641\H,0,-0.817663,1.348
 464,-0.77641\H,0,-0.817663,-1.348464,-0.77641\H,0,0.817663,-1.348464,-
 0.77641\\Version=ES64L-G16RevC.01\State=1-A1\HF=-150.32101\RMSD=1.738e
 -03\Dipole=0.,0.,-0.7216574\Quadrupole=2.812856,-4.3481758,1.5353198,0

 Normal termination of Gaussian 16 at Sat Apr  5 22:55:47 2025.
