 Gaussian 16, Revision C.01,

 ----------------------------------------------------------------------
 #t hf aug-cc-pvdz symm=none int=(grid=ultrafine) guess=(read,tcheck) s
 table=(opt,rrhf)
 ----------------------------------------------------------------------
 -----
 title
 -----
 Symbolic Z-matrix:
 Charge =  0 Multiplicity = 1

 SCF Done:  E(RHF) =  -336.690702679     A.U. after   15 cycles
 Normal termination of Gaussian 16 at Sat Apr  5 22:55:07 2025.
 Gaussian 16:  ES64L-G16RevC.01  3-Jul-2019

 ----------------------------------------------------------------------
 #t hf aug-cc-pvdz iop(5/13=1,5/36=2,99/5=2) pseudo=read geom=check gue
 ss=(read,tcheck) scf=(maxcycle=1)
 ----------------------------------------------------------------------
 -----
 title
 -----
 Structure from the checkpoint file:  "diazenylacetic_acid.chk"
 Charge =  0 Multiplicity = 1

                         Standard orientation:
 ---------------------------------------------------------------------
 Center     Atomic      Atomic             Coordinates (Angstroms)
 Number     Number       Type             X           Y           Z
 ---------------------------------------------------------------------
      1          8           0       -2.011808   -0.775896   -0.227722
      2          8           0       -1.126265    1.260042   -0.024183
      3          7           0        1.364084    0.336361    0.181249
      4          7           0        2.444806    0.013050   -0.303623
      5          6           0       -1.063326   -0.080407   -0.006367
      6          6           0        0.305241   -0.661369    0.352535
      7          1           0       -0.236965    1.621218    0.140319
      8          1           0        2.475277   -1.001924   -0.544358
      9          1           0        0.269739   -0.910304    1.417114
     10          1           0        0.482809   -1.577382   -0.218226
 ---------------------------------------------------------------------

 SCF Done:  E(RHF) =  -336.792886125     A.U. after    2 cycles

 The electronic state is 1-A.
 Alpha  occ. eigenvalues --  -20.63514 -20.57469 -15.73969 -15.72969 -11.41830
 Alpha  occ. eigenvalues --  -11.32328  -1.43696  -1.36219  -1.34717  -1.07951
 Alpha  occ. eigenvalues --   -0.89643  -0.85118  -0.77936  -0.73597  -0.70087
 Alpha  occ. eigenvalues --   -0.67813  -0.63242  -0.60636  -0.57856  -0.53577
 Alpha  occ. eigenvalues --   -0.50602  -0.47747  -0.42537
 Alpha virt. eigenvalues --    0.02602   0.03723   0.04833   0.05637   0.08012
 Alpha virt. eigenvalues --    0.09641   0.10635   0.11969   0.12393   0.12524
 Alpha virt. eigenvalues --    0.14396   0.15335   0.15860   0.16263   0.17830

 Mulliken charges:
               1
     1  O   -0.430795
     2  O   -0.464525
     3  N   -0.333067
     4  N   -0.067063
     5  C    0.456115
     6  C    0.565321
     7  H    0.233316
     8  H    0.038292
     9  H    0.069697
    10  H   -0.067291
 Sum of Mulliken charges =  -0.00000

 Dipole moment (field-independent basis, Debye):
    X=              3.5617    Y=             -1.4367    Z=              0.9870  Tot=              3.9653

 Test job not archived.
 1\1\GINC-SE168\SP\RHF\Aug-CC-pVDZ\C2H4N2O2\OHZDE\05-Apr-2025\0\\#t hf
 aug-cc-pvdz iop(5/13=1,5/36=2,99/5=2) pseudo=read geom=check guess=(re
 ad,tcheck) scf=(maxcycle=1)\\title\\0,1\O,0,-2.011808,-0.775896,-0.227
 722\O,0,-1.126265,1.260042,-0.024183\N,0,1.364084,0.336361,0.181249\N,
 0,2.444806,0.01305,-0.303623\C,0,-1.063326,-0.080407,-0.006367\C,0,0.3
 05241,-0.661369,0.352535\H,0,-0.236965,1.621218,0.140319\H,0,2.475277,
 -1.001924,-0.544358\H,0,0.269739,-0.910304,1.417114\H,0,0.482809,-1.57
 7382,-0.218226\\Version=ES64L-G16RevC.01\State=1-A\HF=-336.7928861\RMS

 Normal termination of Gaussian 16 at Sat Apr  5 22:55:48 2025.
