 Gaussian 16, Revision C.01,

 ----------------------------------------------------------------------
 #t hf aug-cc-pvdz symm=none int=(grid=ultrafine) guess=(read,tcheck) s
 table=(opt,rrhf)
 ----------------------------------------------------------------------
 -----
 title
 -----
 Symbolic Z-matrix:
 Charge =  0 Multiplicity = 1

 SCF Done:  E(RHF) =  -147.866712481     A.U. after   13 cycles
 Normal termination of Gaussian 16 at Sat Apr  5 22:55:00 2025.
 Gaussian 16:  ES64L-G16RevC.01  3-Jul-2019

 ----------------------------------------------------------------------
 #t hf aug-cc-pvdz iop(5/13=1,5/36=2,99/5=2) pseudo=read geom=check gue
 ss=(read,tcheck) scf=(maxcycle=1)
 ----------------------------------------------------------------------
 -----
 title
 -----
 Structure from the checkpoint file:  "diazomethane.chk"
 Charge =  0 Multiplicity = 1

                         Standard orientation:
 ---------------------------------------------------------------------
 Center     Atomic      Atomic             Coordinates (Angstroms)
 Number     Number       Type             X           Y           Z
 ---------------------------------------------------------------------
      1          6           0        0.000100   -1.136474    0.000000
      2          7           0        0.000000    0.155349   -0.000000
      3          7           0       -0.000113    1.287404   -0.000000
      4          1           0        0.000096   -1.640214    0.950280
      5          1           0        0.000096   -1.640214   -0.950280
 ---------------------------------------------------------------------

 SCF Done:  E(RHF) =  -147.913612639     A.U. after    2 cycles

 The electronic state is 1-A'.
 Alpha  occ. eigenvalues --  -15.80535 -15.72509 -11.27897  -1.41438  -1.11271
 Alpha  occ. eigenvalues --   -0.75497  -0.69703  -0.65826  -0.64455  -0.53900
 Alpha  occ. eigenvalues --   -0.32856
 Alpha virt. eigenvalues --    0.03503   0.04628   0.07996   0.08129   0.11056
 Alpha virt. eigenvalues --    0.12039   0.16211   0.16357   0.18071   0.20287
 Alpha virt. eigenvalues --    0.20615   0.24164   0.25875   0.26015   0.26762

 Mulliken charges:
               1
     1  C    0.563193
     2  N    0.171271
     3  N   -0.240097
     4  H   -0.247184
     5  H   -0.247184
 Sum of Mulliken charges =  -0.00000

 Dipole moment (field-independent basis, Debye):
    X=              0.0000    Y=             -1.4131    Z=              0.0000  Tot=              1.4131

 Test job not archived.
 1\1\GINC-SE009\SP\RHF\Aug-CC-pVDZ\C1H2N2\OHZDE\05-Apr-2025\0\\#t hf au
 g-cc-pvdz iop(5/13=1,5/36=2,99/5=2) pseudo=read geom=check guess=(read
 ,tcheck) scf=(maxcycle=1)\\title\\0,1\C,0,0.0001,-1.136474,0.\N,0,0.,0
 .155349,0.\N,0,-0.000113,1.287404,0.\H,0,0.000095,-1.640214,0.95028\H,
 0,0.000095,-1.640214,-0.95028\\Version=ES64L-G16RevC.01\State=1-A'\HF=
 -147.9136126\RMSD=3.930e-03\Dipole=0.0000026,-0.5559619,0.\Quadrupole=
 -1.1179629,-0.683742,1.8017049,0.0001397,0.,0.\PG=CS [SG(C1N2),X(H2)]\
 \@

 Normal termination of Gaussian 16 at Sat Apr  5 22:55:46 2025.
