 Gaussian 16, Revision C.01,

 ----------------------------------------------------------------------
 #t hf aug-cc-pvdz symm=none int=(grid=ultrafine) guess=(read,tcheck) s
 table=(opt,rrhf)
 ----------------------------------------------------------------------
 -----
 title
 -----
 Symbolic Z-matrix:
 Charge =  0 Multiplicity = 1

 SCF Done:  E(RHF) =  -149.031149781     A.U. after   11 cycles
 Normal termination of Gaussian 16 at Sat Apr  5 22:55:00 2025.
 Gaussian 16:  ES64L-G16RevC.01  3-Jul-2019

 ----------------------------------------------------------------------
 #t hf aug-cc-pvdz iop(5/13=1,5/36=2,99/5=2) pseudo=read geom=check gue
 ss=(read,tcheck) scf=(maxcycle=1)
 ----------------------------------------------------------------------
 -----
 title
 -----
 Structure from the checkpoint file:  "diaziridine.chk"
 Charge =  0 Multiplicity = 1

                         Standard orientation:
 ---------------------------------------------------------------------
 Center     Atomic      Atomic             Coordinates (Angstroms)
 Number     Number       Type             X           Y           Z
 ---------------------------------------------------------------------
      1          6           0        0.000000    0.000000    0.794985
      2          7           0       -0.000000    0.748957   -0.440025
      3          7           0       -0.000000   -0.748957   -0.440025
      4          1           0        0.911241    0.078114    1.376716
      5          1           0       -0.911241   -0.078114    1.376716
      6          1           0       -0.955168    0.999325   -0.681494
      7          1           0        0.955168   -0.999325   -0.681494
 ---------------------------------------------------------------------

 SCF Done:  E(RHF) =  -149.071800342     A.U. after    2 cycles

 The electronic state is 1-A.
 Alpha  occ. eigenvalues --  -15.65930 -15.65904 -11.30534  -1.30879  -0.96499
 Alpha  occ. eigenvalues --   -0.87722  -0.69895  -0.67395  -0.53084  -0.50158
 Alpha  occ. eigenvalues --   -0.44140  -0.40991
 Alpha virt. eigenvalues --    0.03566   0.04021   0.05074   0.05882   0.09958
 Alpha virt. eigenvalues --    0.12271   0.15095   0.16752   0.17122   0.17258
 Alpha virt. eigenvalues --    0.18670   0.20050   0.20609   0.22837   0.28573

 Mulliken charges:
               1
     1  C    1.125569
     2  N   -0.381530
     3  N   -0.381530
     4  H   -0.233532
     5  H   -0.233532
     6  H    0.052277
     7  H    0.052277
 Sum of Mulliken charges =  -0.00000

 Dipole moment (field-independent basis, Debye):
    X=             -0.0000    Y=             -0.0000    Z=              1.4295  Tot=              1.4295

 Test job not archived.
 1\1\GINC-SE185\SP\RHF\Aug-CC-pVDZ\C1H4N2\OHZDE\05-Apr-2025\0\\#t hf au
 g-cc-pvdz iop(5/13=1,5/36=2,99/5=2) pseudo=read geom=check guess=(read
 ,tcheck) scf=(maxcycle=1)\\title\\0,1\C,0,0.,0.,0.794985\N,0,0.,0.7489
 57,-0.440025\N,0,0.,-0.748957,-0.440025\H,0,0.911241,0.078114,1.376716
 \H,0,-0.911241,-0.078114,1.376716\H,0,-0.955168,0.999325,-0.681494\H,0
 ,0.955168,-0.999325,-0.681494\\Version=ES64L-G16RevC.01\State=1-A\HF=-
 149.0718003\RMSD=1.905e-03\Dipole=0.,0.,0.5624152\Quadrupole=1.51835,-
 1.8004249,0.2820748,-2.7314676,0.,0.\PG=C02 [C2(C1),X(H4N2)]\\@

 Normal termination of Gaussian 16 at Sat Apr  5 22:55:46 2025.
