 Gaussian 16, Revision C.01,

 ----------------------------------------------------------------------
 #t hf aug-cc-pvdz symm=none int=(grid=ultrafine) guess=(read,tcheck) s
 table=(opt,rrhf)
 ----------------------------------------------------------------------
 -----
 title
 -----
 Symbolic Z-matrix:
 Charge =  0 Multiplicity = 1

 SCF Done:  E(RHF) =  -1070.77392947     A.U. after   13 cycles
 Normal termination of Gaussian 16 at Sat Apr  5 22:55:03 2025.
 Gaussian 16:  ES64L-G16RevC.01  3-Jul-2019

 ----------------------------------------------------------------------
 #t hf aug-cc-pvdz iop(5/13=1,5/36=2,99/5=2) pseudo=read geom=check gue
 ss=(read,tcheck) scf=(maxcycle=1)
 ----------------------------------------------------------------------
 -----
 title
 -----
 Structure from the checkpoint file:  "dichloroacetaldehyde.chk"
 Charge =  0 Multiplicity = 1

                         Standard orientation:
 ---------------------------------------------------------------------
 Center     Atomic      Atomic             Coordinates (Angstroms)
 Number     Number       Type             X           Y           Z
 ---------------------------------------------------------------------
      1          6           0        0.392398   -0.014823    0.000000
      2          6           0       -0.171128    1.398319   -0.000000
      3          1           0        1.474917   -0.012492    0.000000
      4         17           0       -0.171128   -0.843017    1.485142
      5         17           0       -0.171128   -0.843017   -1.485142
      6          8           0        0.536130    2.365239   -0.000000
      7          1           0       -1.273222    1.452187   -0.000000
 ---------------------------------------------------------------------

 SCF Done:  E(RHF) =  -1070.85862404     A.U. after    2 cycles

 The electronic state is 1-A'.
 Alpha  occ. eigenvalues -- -103.69714-103.69714 -20.61532 -11.40212 -11.38678
 Alpha  occ. eigenvalues --  -10.72990 -10.72985  -8.38709  -8.38705  -8.38388
 Alpha  occ. eigenvalues --   -8.38386  -8.38378  -8.38377  -1.40536  -1.24281
 Alpha  occ. eigenvalues --   -1.16394  -0.98249  -0.84552  -0.71667  -0.70426
 Alpha  occ. eigenvalues --   -0.64016  -0.63835  -0.56534  -0.52873  -0.50613
 Alpha  occ. eigenvalues --   -0.49299  -0.48106  -0.46158
 Alpha virt. eigenvalues --    0.04183   0.04530   0.06308   0.07147   0.09616
 Alpha virt. eigenvalues --    0.09881   0.11565   0.11646   0.12996   0.14284
 Alpha virt. eigenvalues --    0.15116   0.15865   0.16840   0.17590   0.17894

 Mulliken charges:
               1
     1  C   -0.387701
     2  C    0.794285
     3  H    0.053081
     4  Cl  -0.029459
     5  Cl  -0.029459
     6  O   -0.377738
     7  H   -0.023010
 Sum of Mulliken charges =  -0.00000

 Dipole moment (field-independent basis, Debye):
    X=             -0.5974    Y=             -1.1164    Z=             -0.0000  Tot=              1.2662

 Test job not archived.
 1\1\GINC-SE085\SP\RHF\Aug-CC-pVDZ\C2H2Cl2O1\OHZDE\05-Apr-2025\0\\#t hf
  aug-cc-pvdz iop(5/13=1,5/36=2,99/5=2) pseudo=read geom=check guess=(r
 ead,tcheck) scf=(maxcycle=1)\\title\\0,1\C,0,0.392398,-0.014823,0.\C,0
 ,-0.171128,1.398319,0.\H,0,1.474917,-0.012492,0.\Cl,0,-0.171128,-0.843
 017,1.485142\Cl,0,-0.171128,-0.843017,-1.485142\O,0,0.53613,2.365239,0
 .\H,0,-1.273222,1.452187,0.\\Version=ES64L-G16RevC.01\State=1-A'\HF=-1
 070.858624\RMSD=4.061e-03\Dipole=-0.2350549,-0.4392137,0.\Quadrupole=2
 .992565,-4.2353737,1.2428087,-2.8605198,0.,0.\PG=CS [SG(C2H2O1),X(Cl2)

 Normal termination of Gaussian 16 at Sat Apr  5 22:55:47 2025.
