 Gaussian 16, Revision C.01,

 ----------------------------------------------------------------------
 #t hf aug-cc-pvdz symm=none int=(grid=ultrafine) guess=(read,tcheck) s
 table=(opt,rrhf)
 ----------------------------------------------------------------------
 -----
 title
 -----
 Symbolic Z-matrix:
 Charge =  0 Multiplicity = 1

 SCF Done:  E(RHF) =  -1155.76453131     A.U. after   12 cycles

 1\1\GINC-SE187\Stability\RHF\Aug-CC-pVDZ\C1Cl2F2\OHZDE\05-Apr-2025\0\\
 #t hf aug-cc-pvdz symm=none int=(grid=ultrafine) guess=(read,tcheck) s
 table=(opt,rrhf)\\title\\0,1\C,0,0.,0.,0.34234\F,0,0.,1.079325,1.12641
 4\F,0,0.,-1.079325,1.126414\Cl,0,1.472567,0.,-0.65675\Cl,0,-1.472567,0
 .,-0.65675\\Version=ES64L-G16RevC.01\HF=-1155.7645313\RMSD=1.547e-09\D
 ipole=0.,0.,-0.2214838\Quadrupole=1.293451,-1.0448934,-0.2485576,0.,0.
 ,0.\PG=Unknown\\@
 The archive entry for this job was punched.

 Normal termination of Gaussian 16 at Sat Apr  5 22:55:02 2025.
 Gaussian 16:  ES64L-G16RevC.01  3-Jul-2019

 ----------------------------------------------------------------------
 #t hf aug-cc-pvdz iop(5/13=1,5/36=2,99/5=2) pseudo=read geom=check gue
 ss=(read,tcheck) scf=(maxcycle=1)
 ----------------------------------------------------------------------
 -----
 title
 -----
 Structure from the checkpoint file:  "dichlorodifluoromethane.chk"
 Charge =  0 Multiplicity = 1

                         Standard orientation:
 ---------------------------------------------------------------------
 Center     Atomic      Atomic             Coordinates (Angstroms)
 Number     Number       Type             X           Y           Z
 ---------------------------------------------------------------------
      1          6           0       -0.000000    0.000000    0.342340
      2          9           0       -0.000000    1.079325    1.126414
      3          9           0       -0.000000   -1.079325    1.126414
      4         17           0        1.472567   -0.000000   -0.656750
      5         17           0       -1.472567    0.000000   -0.656750
 ---------------------------------------------------------------------

 SCF Done:  E(RHF) =  -1155.88960913     A.U. after    2 cycles

 The electronic state is 1-A1.
 Alpha  occ. eigenvalues -- -103.70876-103.70875 -26.19750 -26.19738 -11.57390
 Alpha  occ. eigenvalues --  -10.74245 -10.74232  -8.39963  -8.39956  -8.39606
 Alpha  occ. eigenvalues --   -8.39604  -8.39604  -8.39604  -1.77559  -1.72384
 Alpha  occ. eigenvalues --   -1.24864  -1.18621  -1.00097  -0.88910  -0.85222
 Alpha  occ. eigenvalues --   -0.85221  -0.78841  -0.75406  -0.69409  -0.59404
 Alpha  occ. eigenvalues --   -0.54031  -0.52947  -0.51041  -0.49207
 Alpha virt. eigenvalues --    0.06155   0.07966   0.09049   0.10006   0.10712
 Alpha virt. eigenvalues --    0.11899   0.14335   0.14514   0.15462   0.18167
 Alpha virt. eigenvalues --    0.19091   0.21361   0.25631   0.25764   0.29152

 Mulliken charges:
               1
     1  C    0.413015
     2  F   -0.215865
     3  F   -0.215865
     4  Cl   0.009357
     5  Cl   0.009357
 Sum of Mulliken charges =   0.00000

 Dipole moment (field-independent basis, Debye):
    X=              0.0000    Y=              0.0000    Z=             -0.8518  Tot=              0.8518

 Test job not archived.
 1\1\GINC-SE187\SP\RHF\Aug-CC-pVDZ\C1Cl2F2\OHZDE\05-Apr-2025\0\\#t hf a
 ug-cc-pvdz iop(5/13=1,5/36=2,99/5=2) pseudo=read geom=check guess=(rea
 d,tcheck) scf=(maxcycle=1)\\title\\0,1\C,0,0.,0.,0.34234\F,0,0.,1.0793
 25,1.126414\F,0,0.,-1.079325,1.126414\Cl,0,1.472567,0.,-0.65675\Cl,0,-
 1.472567,0.,-0.65675\\Version=ES64L-G16RevC.01\State=1-A1\HF=-1155.889
 6091\RMSD=4.825e-03\Dipole=0.,0.,-0.3351336\Quadrupole=1.5675808,-1.22
 06893,-0.3468915,0.,0.,0.\PG=C02V [C2(C1),SGV(F2),SGV'(Cl2)]\\@

 Normal termination of Gaussian 16 at Sat Apr  5 22:55:46 2025.
