 Gaussian 16, Revision C.01,

 ----------------------------------------------------------------------
 #t hf aug-cc-pvdz symm=none int=(grid=ultrafine) guess=(read,tcheck) s
 table=(opt,rrhf)
 ----------------------------------------------------------------------
 -----
 title
 -----
 Symbolic Z-matrix:
 Charge =  0 Multiplicity = 1

 SCF Done:  E(RHF) =  -958.039510263     A.U. after   11 cycles

 1\1\GINC-SE196\Stability\RHF\Aug-CC-pVDZ\C1H2Cl2\OHZDE\05-Apr-2025\0\\
 #t hf aug-cc-pvdz symm=none int=(grid=ultrafine) guess=(read,tcheck) s
 table=(opt,rrhf)\\title\\0,1\Cl,0,0.,1.489376,-0.216532\Cl,0,0.,-1.489
 376,-0.216532\C,0,0.,0.,0.769333\H,0,-0.896869,0.,1.373046\H,0,0.89686
 9,0.,1.373046\\Version=ES64L-G16RevC.01\HF=-958.0395103\RMSD=6.974e-09
 \Dipole=0.,0.,0.746973\Quadrupole=0.2644597,-1.8865593,1.6220996,0.,0.
 ,0.\PG=Unknown\\@
 The archive entry for this job was punched.

 Normal termination of Gaussian 16 at Sat Apr  5 22:55:47 2025.
 Gaussian 16:  ES64L-G16RevC.01  3-Jul-2019

 ----------------------------------------------------------------------
 #t hf aug-cc-pvdz iop(5/13=1,5/36=2,99/5=2) pseudo=read geom=check gue
 ss=(read,tcheck) scf=(maxcycle=1)
 ----------------------------------------------------------------------
 -----
 title
 -----
 Structure from the checkpoint file:  "dichloromethane.chk"
 Charge =  0 Multiplicity = 1

                         Standard orientation:
 ---------------------------------------------------------------------
 Center     Atomic      Atomic             Coordinates (Angstroms)
 Number     Number       Type             X           Y           Z
 ---------------------------------------------------------------------
      1         17           0        0.000000    1.489376   -0.216532
      2         17           0       -0.000000   -1.489376   -0.216532
      3          6           0       -0.000000   -0.000000    0.769333
      4          1           0       -0.896869    0.000000    1.373046
      5          1           0        0.896869   -0.000000    1.373046
 ---------------------------------------------------------------------

 SCF Done:  E(RHF) =  -958.091072681     A.U. after    2 cycles

 The electronic state is 1-A1.
 Alpha  occ. eigenvalues -- -103.67634-103.67634 -11.37935 -10.70938 -10.70932
 Alpha  occ. eigenvalues --   -8.36659  -8.36654  -8.36341  -8.36339  -8.36330
 Alpha  occ. eigenvalues --   -8.36329  -1.21827  -1.14376  -0.91666  -0.68437
 Alpha  occ. eigenvalues --   -0.62500  -0.59747  -0.48815  -0.48378  -0.46364
 Alpha  occ. eigenvalues --   -0.46059
 Alpha virt. eigenvalues --    0.03474   0.05238   0.07340   0.07866   0.12505
 Alpha virt. eigenvalues --    0.13635   0.14103   0.15889   0.16104   0.16132
 Alpha virt. eigenvalues --    0.17876   0.18030   0.20812   0.21857   0.27264

 Mulliken charges:
               1
     1  Cl  -0.069361
     2  Cl  -0.069361
     3  C   -0.122968
     4  H    0.130845
     5  H    0.130845
 Sum of Mulliken charges =   0.00000

 Dipole moment (field-independent basis, Debye):
    X=              0.0000    Y=             -0.0000    Z=              1.9482  Tot=              1.9482

 Test job not archived.
 1\1\GINC-SE196\SP\RHF\Aug-CC-pVDZ\C1H2Cl2\OHZDE\05-Apr-2025\0\\#t hf a
 ug-cc-pvdz iop(5/13=1,5/36=2,99/5=2) pseudo=read geom=check guess=(rea
 d,tcheck) scf=(maxcycle=1)\\title\\0,1\Cl,0,0.,1.489376,-0.216532\Cl,0
 ,0.,-1.489376,-0.216532\C,0,0.,0.,0.769333\H,0,-0.896869,0.,1.373046\H
 ,0,0.896869,0.,1.373046\\Version=ES64L-G16RevC.01\State=1-A1\HF=-958.0
 910727\RMSD=2.858e-03\Dipole=0.,0.,0.7664852\Quadrupole=0.251343,-1.90
 02085,1.6488655,0.,0.,0.\PG=C02V [C2(C1),SGV(Cl2),SGV'(H2)]\\@

 Normal termination of Gaussian 16 at Sat Apr  5 22:55:49 2025.
