 Gaussian 16, Revision C.01,

 ----------------------------------------------------------------------
 #t hf aug-cc-pvdz symm=none int=(grid=ultrafine) guess=(read,tcheck) s
 table=(opt,rrhf)
 ----------------------------------------------------------------------
 -----
 title
 -----
 Symbolic Z-matrix:
 Charge =  0 Multiplicity = 1

 SCF Done:  E(RHF) =  -994.647884286     A.U. after   11 cycles
 Normal termination of Gaussian 16 at Sat Apr  5 22:55:01 2025.
 Gaussian 16:  ES64L-G16RevC.01  3-Jul-2019

 ----------------------------------------------------------------------
 #t hf aug-cc-pvdz iop(5/13=1,5/36=2,99/5=2) pseudo=read geom=check gue
 ss=(read,tcheck) scf=(maxcycle=1)
 ----------------------------------------------------------------------
 -----
 title
 -----
 Structure from the checkpoint file:  "dichloroacetylene.chk"
 Charge =  0 Multiplicity = 1

                         Standard orientation:
 ---------------------------------------------------------------------
 Center     Atomic      Atomic             Coordinates (Angstroms)
 Number     Number       Type             X           Y           Z
 ---------------------------------------------------------------------
      1          6           0        0.000000    0.000000    0.599276
      2          6           0        0.000000    0.000000   -0.599276
      3         17           0        0.000000    0.000000    2.241149
      4         17           0        0.000000    0.000000   -2.241149
 ---------------------------------------------------------------------

 SCF Done:  E(RHF) =  -994.715569458     A.U. after    2 cycles

 The electronic state is 1-SGG.
 Alpha  occ. eigenvalues -- -103.72420-103.72418 -11.32080 -11.31680 -10.75553
 Alpha  occ. eigenvalues --  -10.75547  -8.41335  -8.41331  -8.40947  -8.40947
 Alpha  occ. eigenvalues --   -8.40946  -8.40946  -1.24231  -1.22849  -1.02827
 Alpha  occ. eigenvalues --   -0.73489  -0.68431  -0.58767  -0.58767  -0.54263
 Alpha  occ. eigenvalues --   -0.54263  -0.39471  -0.39471
 Alpha virt. eigenvalues --    0.05838   0.06537   0.11562   0.11873   0.11873
 Alpha virt. eigenvalues --    0.12117   0.14183   0.14183   0.16370   0.16370
 Alpha virt. eigenvalues --    0.18133   0.18133   0.18941   0.18992   0.24648

 Mulliken charges:
               1
     1  C   -0.002777
     2  C   -0.002777
     3  Cl   0.002777
     4  Cl   0.002777
 Sum of Mulliken charges =   0.00000

 Dipole moment (field-independent basis, Debye):
    X=              0.0000    Y=              0.0000    Z=              0.0000  Tot=              0.0000

 Test job not archived.
 1\1\GINC-SE165\SP\RHF\Aug-CC-pVDZ\C2Cl2\OHZDE\05-Apr-2025\0\\#t hf aug
 -cc-pvdz iop(5/13=1,5/36=2,99/5=2) pseudo=read geom=check guess=(read,
 tcheck) scf=(maxcycle=1)\\title\\0,1\C,0,0.,0.,0.599276\C,0,0.,0.,-0.5
 99276\Cl,0,0.,0.,2.241149\Cl,0,0.,0.,-2.241149\\Version=ES64L-G16RevC.
 01\State=1-SGG\HF=-994.7155695\RMSD=8.538e-03\Dipole=0.,0.,0.\Quadrupo
 le=-1.3182979,-1.3182979,2.6365959,0.,0.,0.\PG=D*H [C*(Cl1C1.C1Cl1)]\\
 @

 Normal termination of Gaussian 16 at Sat Apr  5 22:55:46 2025.
