 Gaussian 16, Revision C.01,

 ----------------------------------------------------------------------
 #t hf aug-cc-pvdz symm=none int=(grid=ultrafine) guess=(read,tcheck) s
 table=(opt,rrhf)
 ----------------------------------------------------------------------
 -----
 title
 -----
 Symbolic Z-matrix:
 Charge =  0 Multiplicity = 1

 SCF Done:  E(RHF) =  -1056.89901147     A.U. after   12 cycles
 Normal termination of Gaussian 16 at Sat Apr  5 22:55:49 2025.
 Gaussian 16:  ES64L-G16RevC.01  3-Jul-2019

 ----------------------------------------------------------------------
 #t hf aug-cc-pvdz iop(5/13=1,5/36=2,99/5=2) pseudo=read geom=check gue
 ss=(read,tcheck) scf=(maxcycle=1)
 ----------------------------------------------------------------------
 -----
 title
 -----
 Structure from the checkpoint file:  "dichlorofluoromethane.chk"
 Charge =  0 Multiplicity = 1

                         Standard orientation:
 ---------------------------------------------------------------------
 Center     Atomic      Atomic             Coordinates (Angstroms)
 Number     Number       Type             X           Y           Z
 ---------------------------------------------------------------------
      1          6           0       -0.178150    0.524281   -0.000000
      2          1           0       -1.074887    1.131933   -0.000000
      3          9           0        0.911211    1.319595   -0.000000
      4         17           0       -0.178150   -0.475117    1.474553
      5         17           0       -0.178150   -0.475117   -1.474553
 ---------------------------------------------------------------------

 SCF Done:  E(RHF) =  -1056.98656386     A.U. after    2 cycles

 The electronic state is 1-A'.
 Alpha  occ. eigenvalues -- -103.69277-103.69276 -26.17326 -11.47737 -10.72629
 Alpha  occ. eigenvalues --  -10.72621  -8.38346  -8.38341  -8.38011  -8.38010
 Alpha  occ. eigenvalues --   -8.38005  -8.38005  -1.71839  -1.23458  -1.16501
 Alpha  occ. eigenvalues --   -0.96086  -0.82438  -0.79743  -0.76665  -0.63105
 Alpha  occ. eigenvalues --   -0.59492  -0.52087  -0.49897  -0.49101  -0.47768
 Alpha virt. eigenvalues --    0.03712   0.07118   0.07903   0.10074   0.11407
 Alpha virt. eigenvalues --    0.12819   0.14165   0.15184   0.15782   0.15900
 Alpha virt. eigenvalues --    0.17988   0.20542   0.21035   0.24839   0.27003

 Mulliken charges:
               1
     1  C    0.233991
     2  H    0.111532
     3  F   -0.298800
     4  Cl  -0.023362
     5  Cl  -0.023362
 Sum of Mulliken charges =   0.00000

 Dipole moment (field-independent basis, Debye):
    X=             -1.5166    Y=              0.4762    Z=             -0.0000  Tot=              1.5896

 Test job not archived.
 1\1\GINC-SE188\SP\RHF\Aug-CC-pVDZ\C1H1Cl2F1\OHZDE\05-Apr-2025\0\\#t hf
  aug-cc-pvdz iop(5/13=1,5/36=2,99/5=2) pseudo=read geom=check guess=(r
 ead,tcheck) scf=(maxcycle=1)\\title\\0,1\C,0,-0.17815,0.524281,0.\H,0,
 -1.074887,1.131933,0.\F,0,0.911211,1.319595,0.\Cl,0,-0.17815,-0.475117
 ,1.474553\Cl,0,-0.17815,-0.475117,-1.474553\\Version=ES64L-G16RevC.01\
 State=1-A'\HF=-1056.9865639\RMSD=4.011e-03\Dipole=-0.5966587,0.1873634
 ,0.\Quadrupole=-0.1191603,0.1655119,-0.0463516,-1.868077,0.,0.\PG=CS [
 SG(C1H1F1),X(Cl2)]\\@

 Normal termination of Gaussian 16 at Sat Apr  5 22:55:52 2025.
