 Gaussian 16, Revision C.01,

 ----------------------------------------------------------------------
 #t hf aug-cc-pvdz symm=none int=(grid=ultrafine) guess=(read,tcheck) s
 table=(opt,rrhf)
 ----------------------------------------------------------------------
 -----
 title
 -----
 Symbolic Z-matrix:
 Charge =  0 Multiplicity = 1

 SCF Done:  E(RHF) =  -298.525435495     A.U. after   14 cycles
 Normal termination of Gaussian 16 at Sat Apr  5 22:55:52 2025.
 Gaussian 16:  ES64L-G16RevC.01  3-Jul-2019

 ----------------------------------------------------------------------
 #t hf aug-cc-pvdz iop(5/13=1,5/36=2,99/5=2) pseudo=read geom=check gue
 ss=(read,tcheck) scf=(maxcycle=1)
 ----------------------------------------------------------------------
 -----
 title
 -----
 Structure from the checkpoint file:  "dicyanomethanol.chk"
 Charge =  0 Multiplicity = 1

                         Standard orientation:
 ---------------------------------------------------------------------
 Center     Atomic      Atomic             Coordinates (Angstroms)
 Number     Number       Type             X           Y           Z
 ---------------------------------------------------------------------
      1          8           0       -0.023151    1.622923   -0.280281
      2          7           0       -2.199831   -0.919309   -0.166719
      3          7           0        2.157942   -0.992833   -0.172002
      4          6           0       -0.002614    0.387114    0.400860
      5          6           0       -1.233688   -0.342601    0.060384
      6          6           0        1.190268   -0.419958    0.063748
      7          1           0        0.756685    2.130316   -0.026335
      8          1           0       -0.002056    0.523963    1.489685
 ---------------------------------------------------------------------

 SCF Done:  E(RHF) =  -298.614557466     A.U. after    2 cycles

 The electronic state is 1-A.
 Alpha  occ. eigenvalues --  -20.65372 -15.68618 -15.68072 -11.43233 -11.32789
 Alpha  occ. eigenvalues --  -11.32414  -1.41289  -1.23891  -1.22852  -1.08136
 Alpha  occ. eigenvalues --   -0.84349  -0.77825  -0.76221  -0.64532  -0.59585
 Alpha  occ. eigenvalues --   -0.58189  -0.57014  -0.51996  -0.51167  -0.49882
 Alpha  occ. eigenvalues --   -0.49759
 Alpha virt. eigenvalues --    0.01637   0.03826   0.06912   0.07068   0.08939
 Alpha virt. eigenvalues --    0.10388   0.10921   0.11646   0.12072   0.12402
 Alpha virt. eigenvalues --    0.13283   0.14190   0.14505   0.16340   0.17109

 Mulliken charges:
               1
     1  O   -0.531331
     2  N   -0.111940
     3  N   -0.109058
     4  C    1.232883
     5  C   -0.355372
     6  C   -0.399635
     7  H    0.175454
     8  H    0.099000
 Sum of Mulliken charges =  -0.00000

 Dipole moment (field-independent basis, Debye):
    X=              1.3693    Y=              3.1552    Z=              2.5402  Tot=              4.2759

 Test job not archived.
 1\1\GINC-SE199\SP\RHF\Aug-CC-pVDZ\C3H2N2O1\OHZDE\05-Apr-2025\0\\#t hf
 aug-cc-pvdz iop(5/13=1,5/36=2,99/5=2) pseudo=read geom=check guess=(re
 ad,tcheck) scf=(maxcycle=1)\\title\\0,1\O,0,-0.023151,1.622923,-0.2802
 81\N,0,-2.199831,-0.919309,-0.166719\N,0,2.157942,-0.992833,-0.172002\
 C,0,-0.002614,0.387114,0.40086\C,0,-1.233688,-0.342601,0.060384\C,0,1.
 190268,-0.419958,0.063748\H,0,0.756685,2.130316,-0.026335\H,0,-0.00205
 6,0.523963,1.489685\\Version=ES64L-G16RevC.01\State=1-A\HF=-298.614557
 5\RMSD=4.000e-03\Dipole=0.5387327,1.2413508,0.9994001\Quadrupole=-6.26

 Normal termination of Gaussian 16 at Sat Apr  5 22:55:54 2025.
