 Gaussian 16, Revision C.01,

 ----------------------------------------------------------------------
 #t hf aug-cc-pvdz symm=none int=(grid=ultrafine) guess=(read,tcheck) s
 table=(opt,rrhf)
 ----------------------------------------------------------------------
 -----
 title
 -----
 Symbolic Z-matrix:
 Charge =  0 Multiplicity = 1

 SCF Done:  E(RHF) =  -223.670486693     A.U. after   12 cycles
 Normal termination of Gaussian 16 at Sat Apr  5 22:55:02 2025.
 Gaussian 16:  ES64L-G16RevC.01  3-Jul-2019

 ----------------------------------------------------------------------
 #t hf aug-cc-pvdz iop(5/13=1,5/36=2,99/5=2) pseudo=read geom=check gue
 ss=(read,tcheck) scf=(maxcycle=1)
 ----------------------------------------------------------------------
 -----
 title
 -----
 Structure from the checkpoint file:  "dicyanomethane.chk"
 Charge =  0 Multiplicity = 1

                         Standard orientation:
 ---------------------------------------------------------------------
 Center     Atomic      Atomic             Coordinates (Angstroms)
 Number     Number       Type             X           Y           Z
 ---------------------------------------------------------------------
      1          6           0        0.000000   -0.000000    0.828233
      2          6           0        0.000000    1.221205    0.021726
      3          6           0       -0.000000   -1.221205    0.021726
      4          1           0        0.879349   -0.000000    1.476388
      5          1           0       -0.879349    0.000000    1.476388
      6          7           0        0.000000    2.195867   -0.584492
      7          7           0       -0.000000   -2.195867   -0.584492
 ---------------------------------------------------------------------

 SCF Done:  E(RHF) =  -223.736597536     A.U. after    2 cycles

 The electronic state is 1-A1.
 Alpha  occ. eigenvalues --  -15.67450 -15.67450 -11.36992 -11.32423 -11.32418
 Alpha  occ. eigenvalues --   -1.23917  -1.22332  -1.10703  -0.79446  -0.73514
 Alpha  occ. eigenvalues --   -0.70152  -0.58219  -0.57733  -0.51079  -0.50720
 Alpha  occ. eigenvalues --   -0.49537  -0.48456
 Alpha virt. eigenvalues --    0.01937   0.03890   0.06809   0.07069   0.10598
 Alpha virt. eigenvalues --    0.10799   0.10975   0.12012   0.12179   0.12907
 Alpha virt. eigenvalues --    0.14485   0.14710   0.14855   0.16332   0.16453

 Mulliken charges:
               1
     1  C    0.456453
     2  C   -0.245480
     3  C   -0.245480
     4  H    0.167856
     5  H    0.167856
     6  N   -0.150602
     7  N   -0.150602
 Sum of Mulliken charges =   0.00000

 Dipole moment (field-independent basis, Debye):
    X=             -0.0000    Y=             -0.0000    Z=              3.9605  Tot=              3.9605

 Test job not archived.
 1\1\GINC-SE198\SP\RHF\Aug-CC-pVDZ\C3H2N2\OHZDE\05-Apr-2025\0\\#t hf au
 g-cc-pvdz iop(5/13=1,5/36=2,99/5=2) pseudo=read geom=check guess=(read
 ,tcheck) scf=(maxcycle=1)\\title\\0,1\C,0,0.,0.,0.828233\C,0,0.,1.2212
 05,0.021726\C,0,0.,-1.221205,0.021726\H,0,0.879349,0.,1.476388\H,0,-0.
 879349,0.,1.476388\N,0,0.,2.195867,-0.584492\N,0,0.,-2.195867,-0.58449
 2\\Version=ES64L-G16RevC.01\State=1-A1\HF=-223.7365975\RMSD=3.757e-03\
 Dipole=0.,0.,1.5581922\Quadrupole=4.0125072,-8.0792048,4.0666976,0.,0.
 ,0.\PG=C02V [C2(C1),SGV(C2N2),SGV'(H2)]\\@

 Normal termination of Gaussian 16 at Sat Apr  5 22:55:46 2025.
