 Gaussian 16, Revision C.01,

 ----------------------------------------------------------------------
 #t hf aug-cc-pvdz symm=none int=(grid=ultrafine) guess=(read,tcheck) s
 table=(opt,rrhf)
 ----------------------------------------------------------------------
 -----
 title
 -----
 Symbolic Z-matrix:
 Charge =  0 Multiplicity = 1

 SCF Done:  E(RHF) =  -610.674415827     A.U. after   13 cycles

 1\1\GINC-SE046\Stability\RHF\Aug-CC-pVDZ\C8H14O4\OHZDE\05-Apr-2025\0\\
 #t hf aug-cc-pvdz symm=none int=(grid=ultrafine) guess=(read,tcheck) s
 table=(opt,rrhf)\\title\\0,1\C,0,0.188348,1.924575,-0.056731\C,0,-0.18
 8348,-1.924575,-0.056731\C,0,-1.353289,5.221305,0.159863\C,0,1.353289,
 -5.221305,0.159863\C,0,-0.494217,0.577874,-0.004149\C,0,0.494217,-0.57
 7874,-0.004149\C,0,-0.188348,4.271183,0.002037\C,0,0.188348,-4.271183,
 0.002037\O,0,1.374196,2.105516,-0.191402\O,0,-1.374196,-2.105516,-0.19
 1402\O,0,-0.708999,2.92163,0.057961\O,0,0.708999,-2.92163,0.057961\H,0

 Normal termination of Gaussian 16 at Sat Apr  5 22:59:57 2025.
 Gaussian 16:  ES64L-G16RevC.01  3-Jul-2019

 ----------------------------------------------------------------------
 #t hf aug-cc-pvdz iop(5/13=1,5/36=2,99/5=2) pseudo=read geom=check gue
 ss=(read,tcheck) scf=(maxcycle=1)
 ----------------------------------------------------------------------
 -----
 title
 -----
 Structure from the checkpoint file:  "diethyl_butanedioate.chk"
 Charge =  0 Multiplicity = 1

                         Standard orientation:
 ---------------------------------------------------------------------
 Center     Atomic      Atomic             Coordinates (Angstroms)
 Number     Number       Type             X           Y           Z
 ---------------------------------------------------------------------
      1          6           0        0.188348    1.924575   -0.056731
      2          6           0       -0.188348   -1.924575   -0.056731
      3          6           0       -1.353289    5.221305    0.159863
      4          6           0        1.353289   -5.221305    0.159863
      5          6           0       -0.494217    0.577874   -0.004149
      6          6           0        0.494217   -0.577874   -0.004149
      7          6           0       -0.188348    4.271183    0.002037
      8          6           0        0.188348   -4.271183    0.002037
      9          8           0        1.374196    2.105516   -0.191402
     10          8           0       -1.374196   -2.105516   -0.191402
     11          8           0       -0.708999    2.921630    0.057961
     12          8           0        0.708999   -2.921630    0.057961
     13          1           0       -0.993955    6.250306    0.122700
     14          1           0       -2.082017    5.084576   -0.638821
     15          1           0       -1.856365    5.069159    1.114540
     16          1           0        0.993955   -6.250306    0.122700
     17          1           0        2.082017   -5.084576   -0.638821
     18          1           0        1.856365   -5.069159    1.114540
     19          1           0       -1.172064    0.507988   -0.856621
     20          1           0       -1.139461    0.549023    0.874561
     21          1           0        1.139461   -0.549023    0.874561
     22          1           0        1.172064   -0.507988   -0.856621
     23          1           0        0.548903    4.392492    0.795533
     24          1           0        0.323949    4.406624   -0.950483
     25          1           0       -0.548903   -4.392492    0.795533
     26          1           0       -0.323949   -4.406624   -0.950483
 ---------------------------------------------------------------------

 SCF Done:  E(RHF) =  -610.870197310     A.U. after    2 cycles

 The electronic state is 1-A.
 Alpha  occ. eigenvalues --  -20.61456 -20.61456 -20.56187 -20.56186 -11.39445
 Alpha  occ. eigenvalues --  -11.39445 -11.30092 -11.30092 -11.25727 -11.25671
 Alpha  occ. eigenvalues --  -11.23657 -11.23656  -1.41986  -1.41901  -1.32550
 Alpha  occ. eigenvalues --   -1.32495  -1.08622  -1.04820  -1.03019  -0.94821
 Alpha  occ. eigenvalues --   -0.87795  -0.84845  -0.79297  -0.77802  -0.72872
 Alpha  occ. eigenvalues --   -0.70366  -0.69816  -0.69427  -0.68038  -0.66771
 Alpha  occ. eigenvalues --   -0.64631  -0.60188  -0.58923  -0.57517  -0.56837
 Alpha  occ. eigenvalues --   -0.56126  -0.55768  -0.53326  -0.52899  -0.52119
 Alpha  occ. eigenvalues --   -0.52008  -0.51439  -0.50482  -0.47495  -0.47371
 Alpha  occ. eigenvalues --   -0.46643  -0.46585
 Alpha virt. eigenvalues --    0.03329   0.03676   0.04637   0.04820   0.04841
 Alpha virt. eigenvalues --    0.05294   0.05323   0.06423   0.07079   0.07167
 Alpha virt. eigenvalues --    0.07462   0.08052   0.08271   0.09730   0.11041

 Mulliken charges:
               1
     1  C    0.047151
     2  C    0.047151
     3  C    0.300549
     4  C    0.300549
     5  C    0.572434
     6  C    0.572434
     7  C    0.686493
     8  C    0.686493
     9  O   -0.449437
    10  O   -0.449437
    11  O   -0.496594
    12  O   -0.496594
    13  H   -0.033493
    14  H   -0.045621
    15  H   -0.045075
    16  H   -0.033493
    17  H   -0.045621
    18  H   -0.045075
    19  H   -0.082769
    20  H   -0.128567
    21  H   -0.128567
    22  H   -0.082769
    23  H   -0.164508
    24  H   -0.160562
    25  H   -0.164508
    26  H   -0.160562
 Sum of Mulliken charges =  -0.00000

 Dipole moment (field-independent basis, Debye):
    X=             -0.0000    Y=             -0.0000    Z=              0.4417  Tot=              0.4417

 Test job not archived.
 1\1\GINC-SE046\SP\RHF\Aug-CC-pVDZ\C8H14O4\OHZDE\05-Apr-2025\0\\#t hf a
 ug-cc-pvdz iop(5/13=1,5/36=2,99/5=2) pseudo=read geom=check guess=(rea
 d,tcheck) scf=(maxcycle=1)\\title\\0,1\C,0,0.188348,1.924575,-0.056731
 \C,0,-0.188348,-1.924575,-0.056731\C,0,-1.353289,5.221305,0.159863\C,0
 ,1.353289,-5.221305,0.159863\C,0,-0.494217,0.577874,-0.004149\C,0,0.49
 4217,-0.577874,-0.004149\C,0,-0.188348,4.271183,0.002037\C,0,0.188348,
 -4.271183,0.002037\O,0,1.374196,2.105516,-0.191402\O,0,-1.374196,-2.10
 5516,-0.191402\O,0,-0.708999,2.92163,0.057961\O,0,0.708999,-2.92163,0.

 Normal termination of Gaussian 16 at Sat Apr  5 23:00:08 2025.
