 Gaussian 16, Revision C.01,

 ----------------------------------------------------------------------
 #t hf aug-cc-pvdz symm=none int=(grid=ultrafine) guess=(read,tcheck) s
 table=(opt,rrhf)
 ----------------------------------------------------------------------
 -----
 title
 -----
 Symbolic Z-matrix:
 Charge =  0 Multiplicity = 1

 SCF Done:  E(RHF) =  -704.513697478     A.U. after   13 cycles
 Normal termination of Gaussian 16 at Sat Apr  5 22:55:46 2025.
 Gaussian 16:  ES64L-G16RevC.01  3-Jul-2019

 ----------------------------------------------------------------------
 #t hf aug-cc-pvdz iop(5/13=1,5/36=2,99/5=2) pseudo=read geom=check gue
 ss=(read,tcheck) scf=(maxcycle=1)
 ----------------------------------------------------------------------
 -----
 title
 -----
 Structure from the checkpoint file:  "diethyl_sulfone.chk"
 Charge =  0 Multiplicity = 1

                         Standard orientation:
 ---------------------------------------------------------------------
 Center     Atomic      Atomic             Coordinates (Angstroms)
 Number     Number       Type             X           Y           Z
 ---------------------------------------------------------------------
      1          8           0        0.424779    2.021733    0.000000
      2         16           0        0.358890    0.561255    0.000000
      3          6           0       -0.613205    0.101793    1.471297
      4          6           0       -0.613205   -1.376626    1.826915
      5          6           0       -0.613205    0.101793   -1.471297
      6          6           0       -0.613205   -1.376626   -1.826915
      7          8           0        1.592893   -0.223650   -0.000000
      8          1           0       -1.610423    0.511825    1.314449
      9          1           0       -0.127133    0.701508    2.241547
     10          1           0        0.402605   -1.766402    1.849066
     11          1           0       -1.195297   -1.970903    1.125329
     12          1           0       -1.053100   -1.509402    2.815892
     13          1           0       -0.127133    0.701508   -2.241547
     14          1           0       -1.610423    0.511825   -1.314449
     15          1           0        0.402605   -1.766402   -1.849066
     16          1           0       -1.053100   -1.509402   -2.815892
     17          1           0       -1.195297   -1.970903   -1.125329
 ---------------------------------------------------------------------

 SCF Done:  E(RHF) =  -704.682378794     A.U. after    2 cycles

 The electronic state is 1-A'.
 Alpha  occ. eigenvalues --  -93.76825 -20.54963 -20.54725 -11.29030 -11.29019
 Alpha  occ. eigenvalues --  -11.25542 -11.25541  -9.03642  -6.38256  -6.38028
 Alpha  occ. eigenvalues --   -6.37977  -1.40164  -1.28859  -1.08533  -1.06010
 Alpha  occ. eigenvalues --   -0.93772  -0.89235  -0.79209  -0.69173  -0.68854
 Alpha  occ. eigenvalues --   -0.66153  -0.63993  -0.62363  -0.59638  -0.58506
 Alpha  occ. eigenvalues --   -0.56155  -0.55208  -0.54112  -0.52203  -0.50332
 Alpha  occ. eigenvalues --   -0.49457  -0.48015  -0.43303
 Alpha virt. eigenvalues --    0.02641   0.03675   0.04372   0.05063   0.06079
 Alpha virt. eigenvalues --    0.06479   0.06539   0.07582   0.08868   0.09603
 Alpha virt. eigenvalues --    0.10887   0.11815   0.13654   0.13919   0.14408

 Mulliken charges:
               1
     1  O   -1.141447
     2  S    2.534316
     3  C   -0.242790
     4  C    0.449045
     5  C   -0.242790
     6  C    0.449045
     7  O   -1.211066
     8  H   -0.075502
     9  H   -0.000397
    10  H   -0.018866
    11  H   -0.172706
    12  H   -0.029685
    13  H   -0.000397
    14  H   -0.075502
    15  H   -0.018866
    16  H   -0.029685
    17  H   -0.172706
 Sum of Mulliken charges =  -0.00000

 Dipole moment (field-independent basis, Debye):
    X=             -4.7662    Y=             -3.0334    Z=              0.0000  Tot=              5.6496

 Test job not archived.
 1\1\GINC-SE107\SP\RHF\Aug-CC-pVDZ\C4H10O2S1\OHZDE\05-Apr-2025\0\\#t hf
  aug-cc-pvdz iop(5/13=1,5/36=2,99/5=2) pseudo=read geom=check guess=(r
 ead,tcheck) scf=(maxcycle=1)\\title\\0,1\O,0,0.424779,2.021733,0.\S,0,
 0.35889,0.561255,0.\C,0,-0.613205,0.101793,1.471297\C,0,-0.613205,-1.3
 76626,1.826915\C,0,-0.613205,0.101793,-1.471297\C,0,-0.613205,-1.37662
 6,-1.826915\O,0,1.592893,-0.22365,0.\H,0,-1.610423,0.511825,1.314449\H
 ,0,-0.127133,0.701508,2.241547\H,0,0.402605,-1.766402,1.849066\H,0,-1.
 195297,-1.970903,1.125329\H,0,-1.0531,-1.509402,2.815892\H,0,-0.127133

 Normal termination of Gaussian 16 at Sat Apr  5 22:55:50 2025.
