 Gaussian 16, Revision C.01,

 ----------------------------------------------------------------------
 #t hf aug-cc-pvdz symm=none int=(grid=ultrafine) guess=(read,tcheck) s
 table=(opt,rrhf)
 ----------------------------------------------------------------------
 -----
 title
 -----
 Symbolic Z-matrix:
 Charge =  0 Multiplicity = 1

 SCF Done:  E(RHF) =  -571.629205049     A.U. after   14 cycles

 1\1\GINC-SE214\Stability\RHF\Aug-CC-pVDZ\C7H12O4\OHZDE\05-Apr-2025\0\\
 #t hf aug-cc-pvdz symm=none int=(grid=ultrafine) guess=(read,tcheck) s
 table=(opt,rrhf)\\title\\0,1\C,0,1.306354,0.956233,-0.134176\C,0,-1.04
 4968,0.127302,0.167328\C,0,3.886887,-1.608049,-0.254851\C,0,-4.599276,
 -0.443312,-0.394492\C,0,-0.088316,0.90624,-0.718617\C,0,3.316527,-0.26
 954,0.15353\C,0,-3.305169,-0.571942,0.375011\O,0,1.744359,1.881556,0.4
 99819\O,0,-0.757253,-0.411532,1.203966\O,0,1.990697,-0.161001,-0.42097
 1\O,0,-2.276334,0.126892,-0.371097\H,0,4.887123,-1.722217,0.164487\H,0

 Normal termination of Gaussian 16 at Sat Apr  5 22:58:18 2025.
 Gaussian 16:  ES64L-G16RevC.01  3-Jul-2019

 ----------------------------------------------------------------------
 #t hf aug-cc-pvdz iop(5/13=1,5/36=2,99/5=2) pseudo=read geom=check gue
 ss=(read,tcheck) scf=(maxcycle=1)
 ----------------------------------------------------------------------
 -----
 title
 -----
 Structure from the checkpoint file:  "diethyl_malonate.chk"
 Charge =  0 Multiplicity = 1

                         Standard orientation:
 ---------------------------------------------------------------------
 Center     Atomic      Atomic             Coordinates (Angstroms)
 Number     Number       Type             X           Y           Z
 ---------------------------------------------------------------------
      1          6           0        1.306354    0.956233   -0.134176
      2          6           0       -1.044968    0.127302    0.167328
      3          6           0        3.886887   -1.608049   -0.254851
      4          6           0       -4.599276   -0.443312   -0.394492
      5          6           0       -0.088316    0.906240   -0.718617
      6          6           0        3.316527   -0.269540    0.153530
      7          6           0       -3.305169   -0.571942    0.375011
      8          8           0        1.744359    1.881556    0.499819
      9          8           0       -0.757253   -0.411532    1.203966
     10          8           0        1.990697   -0.161001   -0.420971
     11          8           0       -2.276334    0.126892   -0.371097
     12          1           0        4.887123   -1.722217    0.164487
     13          1           0        3.266466   -2.424893    0.112600
     14          1           0        3.960144   -1.689656   -1.339244
     15          1           0       -5.395469   -0.960067    0.142386
     16          1           0       -4.886137    0.601847   -0.507648
     17          1           0       -4.512178   -0.886897   -1.386071
     18          1           0       -0.462283    1.922798   -0.825864
     19          1           0       -0.078310    0.440983   -1.704161
     20          1           0        3.919903    0.562400   -0.209284
     21          1           0        3.228446   -0.173746    1.235219
     22          1           0       -2.999534   -1.611161    0.493470
     23          1           0       -3.372156   -0.128302    1.367982
 ---------------------------------------------------------------------

 SCF Done:  E(RHF) =  -571.813151133     A.U. after    2 cycles

 The electronic state is 1-A.
 Alpha  occ. eigenvalues --  -20.62321 -20.61561 -20.57014 -20.56214 -11.40776
 Alpha  occ. eigenvalues --  -11.39821 -11.30665 -11.29881 -11.27416 -11.24115
 Alpha  occ. eigenvalues --  -11.23461  -1.43004  -1.41977  -1.33500  -1.32676
 Alpha  occ. eigenvalues --   -1.07891  -1.04497  -1.01457  -0.89698  -0.86509
 Alpha  occ. eigenvalues --   -0.80493  -0.78613  -0.72887  -0.71710  -0.70507
 Alpha  occ. eigenvalues --   -0.69410  -0.68673  -0.66237  -0.62655  -0.60238
 Alpha  occ. eigenvalues --   -0.58110  -0.57563  -0.57214  -0.56051  -0.54853
 Alpha  occ. eigenvalues --   -0.52761  -0.52228  -0.52001  -0.51670  -0.48211
 Alpha  occ. eigenvalues --   -0.47698  -0.47203  -0.46696
 Alpha virt. eigenvalues --    0.03153   0.03868   0.04400   0.04711   0.05294
 Alpha virt. eigenvalues --    0.05492   0.05739   0.06853   0.07243   0.07475
 Alpha virt. eigenvalues --    0.08133   0.08747   0.10419   0.10986   0.12580

 Mulliken charges:
               1
     1  C    0.571113
     2  C    0.149827
     3  C    0.291734
     4  C    0.282497
     5  C    0.203443
     6  C    0.654765
     7  C    0.709322
     8  O   -0.480081
     9  O   -0.429786
    10  O   -0.539848
    11  O   -0.522142
    12  H   -0.024014
    13  H   -0.051658
    14  H   -0.051570
    15  H   -0.025674
    16  H   -0.046948
    17  H   -0.046729
    18  H    0.009783
    19  H    0.009349
    20  H   -0.170513
    21  H   -0.158755
    22  H   -0.165998
    23  H   -0.168115
 Sum of Mulliken charges =   0.00000

 Dipole moment (field-independent basis, Debye):
    X=             -1.4876    Y=             -1.5757    Z=             -2.4104  Tot=              3.2413

 Test job not archived.
 1\1\GINC-SE214\SP\RHF\Aug-CC-pVDZ\C7H12O4\OHZDE\05-Apr-2025\0\\#t hf a
 ug-cc-pvdz iop(5/13=1,5/36=2,99/5=2) pseudo=read geom=check guess=(rea
 d,tcheck) scf=(maxcycle=1)\\title\\0,1\C,0,1.306354,0.956233,-0.134176
 \C,0,-1.044968,0.127302,0.167328\C,0,3.886887,-1.608049,-0.254851\C,0,
 -4.599276,-0.443312,-0.394492\C,0,-0.088316,0.90624,-0.718617\C,0,3.31
 6527,-0.26954,0.15353\C,0,-3.305169,-0.571942,0.375011\O,0,1.744359,1.
 881556,0.499819\O,0,-0.757253,-0.411532,1.203966\O,0,1.990697,-0.16100
 1,-0.420971\O,0,-2.276334,0.126892,-0.371097\H,0,4.887123,-1.722217,0.

 Normal termination of Gaussian 16 at Sat Apr  5 22:58:31 2025.
