 Gaussian 16, Revision C.01,

 ----------------------------------------------------------------------
 #t hf aug-cc-pvdz symm=none int=(grid=ultrafine) guess=(read,tcheck) s
 table=(opt,rrhf)
 ----------------------------------------------------------------------
 -----
 title
 -----
 Symbolic Z-matrix:
 Charge =  0 Multiplicity = 1

 SCF Done:  E(RHF) =  -779.384290647     A.U. after   13 cycles
 Normal termination of Gaussian 16 at Sat Apr  5 22:55:53 2025.
 Gaussian 16:  ES64L-G16RevC.01  3-Jul-2019

 ----------------------------------------------------------------------
 #t hf aug-cc-pvdz iop(5/13=1,5/36=2,99/5=2) pseudo=read geom=check gue
 ss=(read,tcheck) scf=(maxcycle=1)
 ----------------------------------------------------------------------
 -----
 title
 -----
 Structure from the checkpoint file:  "diethoxysulfoxide.chk"
 Charge =  0 Multiplicity = 1

                         Standard orientation:
 ---------------------------------------------------------------------
 Center     Atomic      Atomic             Coordinates (Angstroms)
 Number     Number       Type             X           Y           Z
 ---------------------------------------------------------------------
      1          6           0        0.150438   -1.090521    3.446524
      2          6           0        0.085296    0.101402    2.517436
      3          8           0        0.150438   -0.404858    1.160874
      4         16           0        0.167579    0.766272    0.000000
      5          8           0       -1.132613    1.441502    0.000000
      6          8           0        0.150438   -0.404858   -1.160874
      7          6           0        0.085296    0.101402   -2.517436
      8          6           0        0.150438   -1.090521   -3.446524
      9          1           0       -0.680200   -1.769479    3.258074
     10          1           0        1.082937   -1.637650    3.313150
     11          1           0        0.092076   -0.751674    4.481673
     12          1           0        0.923392    0.782173    2.691692
     13          1           0       -0.846294    0.654026    2.644175
     14          1           0       -0.846294    0.654026   -2.644175
     15          1           0        0.923392    0.782173   -2.691692
     16          1           0        1.082937   -1.637650   -3.313150
     17          1           0       -0.680200   -1.769479   -3.258074
     18          1           0        0.092076   -0.751674   -4.481673
 ---------------------------------------------------------------------

 SCF Done:  E(RHF) =  -779.564454809     A.U. after    2 cycles

 The electronic state is 1-A'.
 Alpha  occ. eigenvalues --  -93.75532 -20.61259 -20.61253 -20.55576 -11.30815
 Alpha  occ. eigenvalues --  -11.30814 -11.23843 -11.23843  -9.02488  -6.36794
 Alpha  occ. eigenvalues --   -6.36701  -6.36208  -1.42342  -1.33724  -1.30991
 Alpha  occ. eigenvalues --   -1.05155  -1.02150  -0.90628  -0.84981  -0.83972
 Alpha  occ. eigenvalues --   -0.72581  -0.70784  -0.69316  -0.67706  -0.61861
 Alpha  occ. eigenvalues --   -0.61086  -0.60806  -0.56410  -0.55910  -0.54698
 Alpha  occ. eigenvalues --   -0.53862  -0.52839  -0.52805  -0.49077  -0.48577
 Alpha  occ. eigenvalues --   -0.47871  -0.41992
 Alpha virt. eigenvalues --    0.03489   0.04012   0.04788   0.05105   0.05550
 Alpha virt. eigenvalues --    0.05975   0.06181   0.07512   0.07725   0.09039
 Alpha virt. eigenvalues --    0.10685   0.11297   0.12463   0.13096   0.13567

 Mulliken charges:
               1
     1  C    0.305717
     2  C    0.530954
     3  O   -0.847579
     4  S    1.838656
     5  O   -0.942445
     6  O   -0.847579
     7  C    0.530954
     8  C    0.305717
     9  H   -0.067394
    10  H   -0.070300
    11  H   -0.042507
    12  H   -0.121544
    13  H   -0.135454
    14  H   -0.135454
    15  H   -0.121544
    16  H   -0.070300
    17  H   -0.067394
    18  H   -0.042507
 Sum of Mulliken charges =  -0.00000

 Dipole moment (field-independent basis, Debye):
    X=              2.2144    Y=             -0.2159    Z=              0.0000  Tot=              2.2249

 Test job not archived.
 1\1\GINC-SE226\SP\RHF\Aug-CC-pVDZ\C4H10O3S1\OHZDE\05-Apr-2025\0\\#t hf
  aug-cc-pvdz iop(5/13=1,5/36=2,99/5=2) pseudo=read geom=check guess=(r
 ead,tcheck) scf=(maxcycle=1)\\title\\0,1\C,0,0.150438,-1.090521,3.4465
 24\C,0,0.085296,0.101402,2.517436\O,0,0.150438,-0.404858,1.160874\S,0,
 0.167579,0.766272,0.\O,0,-1.132613,1.441502,0.\O,0,0.150438,-0.404858,
 -1.160874\C,0,0.085296,0.101402,-2.517436\C,0,0.150438,-1.090521,-3.44
 6524\H,0,-0.6802,-1.769479,3.258074\H,0,1.082937,-1.63765,3.31315\H,0,
 0.092076,-0.751674,4.481673\H,0,0.923392,0.782173,2.691692\H,0,-0.8462

 Normal termination of Gaussian 16 at Sat Apr  5 22:55:58 2025.
