 Gaussian 16, Revision C.01,

 ----------------------------------------------------------------------
 #t hf aug-cc-pvdz symm=none int=(grid=ultrafine) guess=(read,tcheck) s
 table=(opt,rrhf)
 ----------------------------------------------------------------------
 -----
 title
 -----
 Symbolic Z-matrix:
 Charge =  0 Multiplicity = 1

 SCF Done:  E(RHF) =  -629.658937929     A.U. after   14 cycles
 Normal termination of Gaussian 16 at Sat Apr  5 22:55:32 2025.
 Gaussian 16:  ES64L-G16RevC.01  3-Jul-2019

 ----------------------------------------------------------------------
 #t hf aug-cc-pvdz iop(5/13=1,5/36=2,99/5=2) pseudo=read geom=check gue
 ss=(read,tcheck) scf=(maxcycle=1)
 ----------------------------------------------------------------------
 -----
 title
 -----
 Structure from the checkpoint file:  "diethyl_sulfoxide.chk"
 Charge =  0 Multiplicity = 1

                         Standard orientation:
 ---------------------------------------------------------------------
 Center     Atomic      Atomic             Coordinates (Angstroms)
 Number     Number       Type             X           Y           Z
 ---------------------------------------------------------------------
      1          6           0        1.610605    1.384300    0.549759
      2          1           0        2.332239    2.160342    0.292049
      3          1           0        0.860212    1.834406    1.198917
      4          1           0        2.129278    0.606001    1.108397
      5          6           0       -2.280666    0.756806   -0.091466
      6          1           0       -2.643528    0.312964   -1.019464
      7          1           0       -3.146309    0.940646    0.545887
      8          1           0       -1.838910    1.724439   -0.328261
      9          6           0       -1.298769   -0.163282    0.619431
     10          1           0       -1.776187   -1.092001    0.931530
     11          1           0       -0.846975    0.288433    1.501243
     12          6           0        0.999535    0.803974   -0.714910
     13          1           0        0.322444    1.489329   -1.225847
     14         16           0        0.072252   -0.774645   -0.452665
     15          8           0        0.937001   -1.633899    0.435963
     16          1           0        1.771453    0.510148   -1.426400
 ---------------------------------------------------------------------

 SCF Done:  E(RHF) =  -629.774259497     A.U. after    2 cycles

 The electronic state is 1-A.
 Alpha  occ. eigenvalues --  -93.64629 -20.50995 -11.27552 -11.27474 -11.25381
 Alpha  occ. eigenvalues --  -11.24004  -8.93049  -6.27311  -6.27150  -6.26853
 Alpha  occ. eigenvalues --   -1.28706  -1.07644  -1.03940  -0.92759  -0.87651
 Alpha  occ. eigenvalues --   -0.78095  -0.66449  -0.65294  -0.61060  -0.60200
 Alpha  occ. eigenvalues --   -0.58888  -0.55527  -0.54441  -0.53776  -0.51498
 Alpha  occ. eigenvalues --   -0.51348  -0.50760  -0.41605  -0.36746
 Alpha virt. eigenvalues --    0.02946   0.03920   0.04376   0.05037   0.06213
 Alpha virt. eigenvalues --    0.06533   0.06825   0.07723   0.08304   0.09752
 Alpha virt. eigenvalues --    0.10952   0.12533   0.12802   0.14054   0.14432

 Mulliken charges:
               1
     1  C    0.422661
     2  H   -0.078706
     3  H   -0.150107
     4  H   -0.029445
     5  C    0.404546
     6  H   -0.042527
     7  H   -0.063799
     8  H   -0.137759
     9  C   -0.051421
    10  H   -0.053031
    11  H   -0.075464
    12  C   -0.136768
    13  H   -0.072903
    14  S    1.216232
    15  O   -1.114375
    16  H   -0.037134
 Sum of Mulliken charges =   0.00000

 Dipole moment (field-independent basis, Debye):
    X=             -2.4217    Y=              4.1817    Z=             -1.0577  Tot=              4.9467

 Test job not archived.
 1\1\GINC-SE145\SP\RHF\Aug-CC-pVDZ\C4H10O1S1\OHZDE\05-Apr-2025\0\\#t hf
  aug-cc-pvdz iop(5/13=1,5/36=2,99/5=2) pseudo=read geom=check guess=(r
 ead,tcheck) scf=(maxcycle=1)\\title\\0,1\C,0,1.610605,1.3843,0.549759\
 H,0,2.332239,2.160342,0.292049\H,0,0.860212,1.834406,1.198917\H,0,2.12
 9278,0.606001,1.108397\C,0,-2.280666,0.756806,-0.091466\H,0,-2.643528,
 0.312964,-1.019464\H,0,-3.146309,0.940646,0.545887\H,0,-1.83891,1.7244
 39,-0.328261\C,0,-1.298769,-0.163282,0.619431\H,0,-1.776187,-1.092001,
 0.93153\H,0,-0.846975,0.288433,1.501243\C,0,0.999535,0.803974,-0.71491

 Normal termination of Gaussian 16 at Sat Apr  5 22:55:50 2025.
