 Gaussian 16, Revision C.01,

 ----------------------------------------------------------------------
 #t hf aug-cc-pvdz symm=none int=(grid=ultrafine) guess=(read,tcheck) s
 table=(opt,rrhf)
 ----------------------------------------------------------------------
 -----
 title
 -----
 Symbolic Z-matrix:
 Charge =  0 Multiplicity = 1

 SCF Done:  E(RHF) =  -1040.44191883     A.U. after   16 cycles
 Normal termination of Gaussian 16 at Sat Apr  5 22:55:18 2025.
 Gaussian 16:  ES64L-G16RevC.01  3-Jul-2019

 ----------------------------------------------------------------------
 #t hf aug-cc-pvdz iop(5/13=1,5/36=2,99/5=2) pseudo=read geom=check gue
 ss=(read,tcheck) scf=(maxcycle=1)
 ----------------------------------------------------------------------
 -----
 title
 -----
 Structure from the checkpoint file:  "diethynylcarbamodithioic_acid.chk"
 Charge =  0 Multiplicity = 1

                         Standard orientation:
 ---------------------------------------------------------------------
 Center     Atomic      Atomic             Coordinates (Angstroms)
 Number     Number       Type             X           Y           Z
 ---------------------------------------------------------------------
      1         16           0        1.785670    1.142217    0.000055
      2         16           0        1.219672   -1.735365   -0.000051
      3          7           0       -0.725832    0.098898   -0.000008
      4          6           0        0.657309   -0.199788   -0.000005
      5          6           0       -1.229802    1.357919   -0.000005
      6          6           0       -1.636456   -0.913123   -0.000051
      7          6           0       -1.716877    2.453131   -0.000088
      8          6           0       -2.495075   -1.745682    0.000145
      9          1           0        0.900324    2.162084    0.000064
     10          1           0       -2.142643    3.424999   -0.000013
     11          1           0       -3.236935   -2.503744   -0.000019
 ---------------------------------------------------------------------

 SCF Done:  E(RHF) =  -1040.55878825     A.U. after    2 cycles

 The electronic state is 1-A.
 Alpha  occ. eigenvalues --  -93.58782 -93.51688 -15.76067 -11.41736 -11.32384
 Alpha  occ. eigenvalues --  -11.30585 -11.27940 -11.26294  -8.88579  -8.81631
 Alpha  occ. eigenvalues --   -6.22741  -6.22505  -6.22139  -6.15846  -6.15352
 Alpha  occ. eigenvalues --   -6.15214  -1.32619  -1.10835  -1.06998  -1.02315
 Alpha  occ. eigenvalues --   -0.97573  -0.85642  -0.84960  -0.73971  -0.72367
 Alpha  occ. eigenvalues --   -0.68277  -0.65337  -0.54070  -0.52589  -0.47633
 Alpha  occ. eigenvalues --   -0.45834  -0.44640  -0.42457  -0.37750  -0.34950
 Alpha  occ. eigenvalues --   -0.34311
 Alpha virt. eigenvalues --    0.02659   0.03502   0.04639   0.04855   0.08056
 Alpha virt. eigenvalues --    0.08153   0.09147   0.09154   0.10401   0.10632
 Alpha virt. eigenvalues --    0.11567   0.11775   0.12757   0.12968   0.13512

 Mulliken charges:
               1
     1  S    0.307461
     2  S    0.007235
     3  N   -0.374913
     4  C    0.032645
     5  C   -0.802599
     6  C   -0.879327
     7  C    1.128582
     8  C    1.342373
     9  H    0.074588
    10  H   -0.401989
    11  H   -0.434055
 Sum of Mulliken charges =   0.00000

 Dipole moment (field-independent basis, Debye):
    X=             -2.1930    Y=              3.0197    Z=             -0.0000  Tot=              3.7320

 Test job not archived.
 1\1\GINC-SE153\SP\RHF\Aug-CC-pVDZ\C5H3N1S2\OHZDE\05-Apr-2025\0\\#t hf
 aug-cc-pvdz iop(5/13=1,5/36=2,99/5=2) pseudo=read geom=check guess=(re
 ad,tcheck) scf=(maxcycle=1)\\title\\0,1\S,0,1.785669,1.142219,0.000055
 \S,0,1.219674,-1.735364,-0.000051\N,0,-0.725832,0.098897,-0.000008\C,0
 ,0.657309,-0.199787,-0.000005\C,0,-1.229803,1.357918,-0.000005\C,0,-1.
 636455,-0.913125,-0.000051\C,0,-1.716879,2.453129,-0.000088\C,0,-2.495
 073,-1.745684,0.000145\H,0,0.900322,2.162085,0.000064\H,0,-2.142646,3.
 424997,-0.000013\H,0,-3.236933,-2.503747,-0.000019\\Version=ES64L-G16R

 Normal termination of Gaussian 16 at Sat Apr  5 22:55:50 2025.
