 Gaussian 16, Revision C.01,

 ----------------------------------------------------------------------
 #t hf aug-cc-pvdz symm=none int=(grid=ultrafine) guess=(read,tcheck) s
 table=(opt,rrhf)
 ----------------------------------------------------------------------
 -----
 title
 -----
 Symbolic Z-matrix:
 Charge =  0 Multiplicity = 1

 SCF Done:  E(RHF) =  -306.947682425     A.U. after   11 cycles

 1\1\GINC-SE231\Stability\RHF\Aug-CC-pVDZ\C4H10O2\OHZDE\05-Apr-2025\0\\
 #t hf aug-cc-pvdz symm=none int=(grid=ultrafine) guess=(read,tcheck) s
 table=(opt,rrhf)\\title\\0,1\O,0,-0.015813,0.731327,0.\O,0,0.015813,-0
 .731327,0.\C,0,-1.344283,-1.140143,0.\H,0,-1.844417,-0.742104,0.887786
 \C,0,1.344283,1.140143,0.\H,0,1.844417,0.742104,-0.887786\H,0,1.844417
 ,0.742104,0.887786\C,0,1.344283,2.657005,0.\C,0,-1.344283,-2.657005,0.
 \H,0,-1.844417,-0.742104,-0.887786\H,0,0.842512,3.047916,-0.884749\H,0
 ,0.842512,3.047916,0.884749\H,0,2.372433,3.01989,0.\H,0,-0.842512,-3.0

 Normal termination of Gaussian 16 at Sat Apr  5 22:55:23 2025.
 Gaussian 16:  ES64L-G16RevC.01  3-Jul-2019

 ----------------------------------------------------------------------
 #t hf aug-cc-pvdz iop(5/13=1,5/36=2,99/5=2) pseudo=read geom=check gue
 ss=(read,tcheck) scf=(maxcycle=1)
 ----------------------------------------------------------------------
 -----
 title
 -----
 Structure from the checkpoint file:  "diethyl_peroxide.chk"
 Charge =  0 Multiplicity = 1

                         Standard orientation:
 ---------------------------------------------------------------------
 Center     Atomic      Atomic             Coordinates (Angstroms)
 Number     Number       Type             X           Y           Z
 ---------------------------------------------------------------------
      1          8           0       -0.015813    0.731327    0.000000
      2          8           0        0.015813   -0.731327    0.000000
      3          6           0       -1.344283   -1.140143    0.000000
      4          1           0       -1.844417   -0.742104    0.887786
      5          6           0        1.344283    1.140143    0.000000
      6          1           0        1.844417    0.742104   -0.887786
      7          1           0        1.844417    0.742104    0.887786
      8          6           0        1.344283    2.657005    0.000000
      9          6           0       -1.344283   -2.657005    0.000000
     10          1           0       -1.844417   -0.742104   -0.887786
     11          1           0        0.842512    3.047916   -0.884749
     12          1           0        0.842512    3.047916    0.884749
     13          1           0        2.372433    3.019890    0.000000
     14          1           0       -0.842512   -3.047916   -0.884749
     15          1           0       -0.842512   -3.047916    0.884749
     16          1           0       -2.372433   -3.019890    0.000000
 ---------------------------------------------------------------------

 SCF Done:  E(RHF) =  -307.049129026     A.U. after    2 cycles

 The electronic state is 1-AG.
 Alpha  occ. eigenvalues --  -20.62443 -20.62416 -11.28596 -11.28596 -11.23004
 Alpha  occ. eigenvalues --  -11.23003  -1.41208  -1.21955  -1.01560  -0.98248
 Alpha  occ. eigenvalues --   -0.85119  -0.82926  -0.70165  -0.69301  -0.65149
 Alpha  occ. eigenvalues --   -0.64171  -0.57029  -0.56359  -0.55401  -0.52670
 Alpha  occ. eigenvalues --   -0.52201  -0.52190  -0.48947  -0.47853  -0.43237
 Alpha virt. eigenvalues --    0.03671   0.04395   0.04874   0.05081   0.06049
 Alpha virt. eigenvalues --    0.06191   0.06434   0.07398   0.08382   0.09463
 Alpha virt. eigenvalues --    0.11894   0.12196   0.14348   0.14701   0.15339

 Mulliken charges:
               1
     1  O   -0.430388
     2  O   -0.430388
     3  C    0.795447
     4  H   -0.195766
     5  C    0.795447
     6  H   -0.195766
     7  H   -0.195766
     8  C    0.152381
     9  C    0.152381
    10  H   -0.195766
    11  H   -0.047970
    12  H   -0.047970
    13  H   -0.029969
    14  H   -0.047970
    15  H   -0.047970
    16  H   -0.029969
 Sum of Mulliken charges =   0.00000

 Dipole moment (field-independent basis, Debye):
    X=             -0.0000    Y=             -0.0000    Z=              0.0000  Tot=              0.0000

 Test job not archived.
 1\1\GINC-SE231\SP\RHF\Aug-CC-pVDZ\C4H10O2\OHZDE\05-Apr-2025\0\\#t hf a
 ug-cc-pvdz iop(5/13=1,5/36=2,99/5=2) pseudo=read geom=check guess=(rea
 d,tcheck) scf=(maxcycle=1)\\title\\0,1\O,0,-0.015813,0.731327,0.\O,0,0
 .015813,-0.731327,0.\C,0,-1.344283,-1.140143,0.\H,0,-1.844417,-0.74210
 4,0.887786\C,0,1.344283,1.140143,0.\H,0,1.844417,0.742104,-0.887786\H,
 0,1.844417,0.742104,0.887786\C,0,1.344283,2.657005,0.\C,0,-1.344283,-2
 .657005,0.\H,0,-1.844417,-0.742104,-0.887786\H,0,0.842512,3.047916,-0.
 884749\H,0,0.842512,3.047916,0.884749\H,0,2.372433,3.01989,0.\H,0,-0.8

 Normal termination of Gaussian 16 at Sat Apr  5 22:55:48 2025.
