 Gaussian 16, Revision C.01,

 ----------------------------------------------------------------------
 #t hf aug-cc-pvdz symm=none int=(grid=ultrafine) guess=(read,tcheck) s
 table=(opt,rrhf)
 ----------------------------------------------------------------------
 -----
 title
 -----
 Symbolic Z-matrix:
 Charge =  0 Multiplicity = 1

 SCF Done:  E(RHF) =  -287.158991753     A.U. after   12 cycles
 Normal termination of Gaussian 16 at Sat Apr  5 22:56:18 2025.
 Gaussian 16:  ES64L-G16RevC.01  3-Jul-2019

 ----------------------------------------------------------------------
 #t hf aug-cc-pvdz iop(5/13=1,5/36=2,99/5=2) pseudo=read geom=check gue
 ss=(read,tcheck) scf=(maxcycle=1)
 ----------------------------------------------------------------------
 -----
 title
 -----
 Structure from the checkpoint file:  "diethylhydroxylamine.chk"
 Charge =  0 Multiplicity = 1

                         Standard orientation:
 ---------------------------------------------------------------------
 Center     Atomic      Atomic             Coordinates (Angstroms)
 Number     Number       Type             X           Y           Z
 ---------------------------------------------------------------------
      1          7           0       -0.135879   -0.159469   -0.000000
      2          8           0        1.161592   -0.759998    0.000000
      3          1           0        1.809832   -0.031424    0.000000
      4          6           0       -0.288759   -0.230429    2.472841
      5          6           0       -0.288759   -0.230429   -2.472841
      6          6           0       -0.288759    0.629302    1.218177
      7          6           0       -0.288759    0.629302   -1.218177
      8          1           0        0.647697   -0.775732    2.573295
      9          1           0        0.647697   -0.775732   -2.573295
     10          1           0        0.502431    1.398690   -1.280754
     11          1           0        0.502431    1.398690    1.280754
     12          1           0       -1.239354    1.157946   -1.127847
     13          1           0       -1.239354    1.157946    1.127847
     14          1           0       -1.101796   -0.955280    2.437155
     15          1           0       -1.101796   -0.955280   -2.437155
     16          1           0       -0.419577    0.394984    3.356866
     17          1           0       -0.419577    0.394984   -3.356866
 ---------------------------------------------------------------------

 SCF Done:  E(RHF) =  -287.250042804     A.U. after    2 cycles

 The electronic state is 1-A'.
 Alpha  occ. eigenvalues --  -20.59760 -15.66972 -11.26564 -11.26560 -11.22070
 Alpha  occ. eigenvalues --  -11.22066  -1.35791  -1.12859  -1.03311  -0.95117
 Alpha  occ. eigenvalues --   -0.84090  -0.82017  -0.68111  -0.66830  -0.66719
 Alpha  occ. eigenvalues --   -0.61026  -0.57068  -0.56638  -0.53096  -0.52714
 Alpha  occ. eigenvalues --   -0.50762  -0.49377  -0.48936  -0.47312  -0.37820
 Alpha virt. eigenvalues --    0.03359   0.04236   0.04283   0.04839   0.06395
 Alpha virt. eigenvalues --    0.06708   0.06943   0.07341   0.08775   0.08785
 Alpha virt. eigenvalues --    0.09670   0.12832   0.13362   0.14194   0.15702

 Mulliken charges:
               1
     1  N   -0.480547
     2  O   -0.585779
     3  H    0.210871
     4  C    0.409667
     5  C    0.409667
     6  C    0.568501
     7  C    0.568501
     8  H   -0.052675
     9  H   -0.052675
    10  H   -0.175261
    11  H   -0.175261
    12  H   -0.244649
    13  H   -0.244649
    14  H   -0.052030
    15  H   -0.052030
    16  H   -0.025825
    17  H   -0.025825
 Sum of Mulliken charges =  -0.00000

 Dipole moment (field-independent basis, Debye):
    X=              0.0224    Y=              2.5861    Z=              0.0000  Tot=              2.5861

 Test job not archived.
 1\1\GINC-SE152\SP\RHF\Aug-CC-pVDZ\C4H11N1O1\OHZDE\05-Apr-2025\0\\#t hf
  aug-cc-pvdz iop(5/13=1,5/36=2,99/5=2) pseudo=read geom=check guess=(r
 ead,tcheck) scf=(maxcycle=1)\\title\\0,1\N,0,-0.135879,-0.159469,0.\O,
 0,1.161592,-0.759998,0.\H,0,1.809832,-0.031424,0.\C,0,-0.288759,-0.230
 429,2.472841\C,0,-0.288759,-0.230429,-2.472841\C,0,-0.288759,0.629302,
 1.218177\C,0,-0.288759,0.629302,-1.218177\H,0,0.647697,-0.775732,2.573
 295\H,0,0.647697,-0.775732,-2.573295\H,0,0.502431,1.39869,-1.280754\H,
 0,0.502431,1.39869,1.280754\H,0,-1.239354,1.157946,-1.127847\H,0,-1.23

 Normal termination of Gaussian 16 at Sat Apr  5 22:56:22 2025.
