 Gaussian 16, Revision C.01,

 ----------------------------------------------------------------------
 #t hf aug-cc-pvdz symm=none int=(grid=ultrafine) guess=(read,tcheck) s
 table=(opt,rrhf)
 ----------------------------------------------------------------------
 -----
 title
 -----
 Symbolic Z-matrix:
 Charge =  0 Multiplicity = 1

 SCF Done:  E(RHF) =  -212.343253808     A.U. after   12 cycles

 1\1\GINC-SE146\Stability\RHF\Aug-CC-pVDZ\C4H11N1\OHZDE\05-Apr-2025\0\\
 #t hf aug-cc-pvdz symm=none int=(grid=ultrafine) guess=(read,tcheck) s
 table=(opt,rrhf)\\title\\0,1\C,0,-0.00862,-0.371616,2.45895\C,0,-0.008
 62,-0.371616,-2.45895\C,0,-0.00862,0.517598,1.223905\C,0,-0.00862,0.51
 7598,-1.223905\N,0,-0.059012,-0.273364,0.\H,0,-0.89665,-1.003443,2.479
 604\H,0,0.868669,-1.022627,2.474208\H,0,0.011382,0.229192,3.368838\H,0
 ,0.868669,-1.022627,-2.474208\H,0,-0.89665,-1.003443,-2.479604\H,0,0.0
 11382,0.229192,-3.368838\H,0,0.867606,1.187009,1.250354\H,0,-0.889411,

 Normal termination of Gaussian 16 at Sat Apr  5 22:55:19 2025.
 Gaussian 16:  ES64L-G16RevC.01  3-Jul-2019

 ----------------------------------------------------------------------
 #t hf aug-cc-pvdz iop(5/13=1,5/36=2,99/5=2) pseudo=read geom=check gue
 ss=(read,tcheck) scf=(maxcycle=1)
 ----------------------------------------------------------------------
 -----
 title
 -----
 Structure from the checkpoint file:  "diethylamine.chk"
 Charge =  0 Multiplicity = 1

                         Standard orientation:
 ---------------------------------------------------------------------
 Center     Atomic      Atomic             Coordinates (Angstroms)
 Number     Number       Type             X           Y           Z
 ---------------------------------------------------------------------
      1          6           0       -0.008620   -0.371616    2.458950
      2          6           0       -0.008620   -0.371616   -2.458950
      3          6           0       -0.008620    0.517598    1.223905
      4          6           0       -0.008620    0.517598   -1.223905
      5          7           0       -0.059012   -0.273364    0.000000
      6          1           0       -0.896650   -1.003443    2.479604
      7          1           0        0.868669   -1.022627    2.474208
      8          1           0        0.011382    0.229192    3.368838
      9          1           0        0.868669   -1.022627   -2.474208
     10          1           0       -0.896650   -1.003443   -2.479604
     11          1           0        0.011382    0.229192   -3.368838
     12          1           0        0.867606    1.187009    1.250354
     13          1           0       -0.889411    1.165441    1.236824
     14          1           0       -0.889411    1.165441   -1.236824
     15          1           0        0.867606    1.187009   -1.250354
     16          1           0        0.696784   -0.949384   -0.000000
 ---------------------------------------------------------------------

 SCF Done:  E(RHF) =  -212.412274652     A.U. after    2 cycles

 The electronic state is 1-A'.
 Alpha  occ. eigenvalues --  -15.59987 -11.25363 -11.25359 -11.22115 -11.22111
 Alpha  occ. eigenvalues --   -1.17201  -1.02330  -0.95219  -0.82974  -0.81744
 Alpha  occ. eigenvalues --   -0.65991  -0.62800  -0.59936  -0.59003  -0.55455
 Alpha  occ. eigenvalues --   -0.52174  -0.50972  -0.48965  -0.48389  -0.47702
 Alpha  occ. eigenvalues --   -0.35849
 Alpha virt. eigenvalues --    0.03613   0.04278   0.04342   0.04752   0.06503
 Alpha virt. eigenvalues --    0.06686   0.07151   0.07599   0.08828   0.09801
 Alpha virt. eigenvalues --    0.09859   0.11805   0.14279   0.14460   0.15706

 Mulliken charges:
               1
     1  C    0.350781
     2  C    0.350781
     3  C    0.579456
     4  C    0.579456
     5  N   -0.728219
     6  H   -0.029936
     7  H   -0.098336
     8  H   -0.067643
     9  H   -0.098336
    10  H   -0.029936
    11  H   -0.067643
    12  H   -0.162751
    13  H   -0.223651
    14  H   -0.223651
    15  H   -0.162751
    16  H    0.032380
 Sum of Mulliken charges =  -0.00000

 Dipole moment (field-independent basis, Debye):
    X=              0.8675    Y=              0.4184    Z=              0.0000  Tot=              0.9631

 Test job not archived.
 1\1\GINC-SE146\SP\RHF\Aug-CC-pVDZ\C4H11N1\OHZDE\05-Apr-2025\0\\#t hf a
 ug-cc-pvdz iop(5/13=1,5/36=2,99/5=2) pseudo=read geom=check guess=(rea
 d,tcheck) scf=(maxcycle=1)\\title\\0,1\C,0,-0.00862,-0.371616,2.45895\
 C,0,-0.00862,-0.371616,-2.45895\C,0,-0.00862,0.517598,1.223905\C,0,-0.
 00862,0.517598,-1.223905\N,0,-0.059012,-0.273364,0.\H,0,-0.89665,-1.00
 3443,2.479604\H,0,0.868669,-1.022627,2.474208\H,0,0.011382,0.229192,3.
 368838\H,0,0.868669,-1.022627,-2.474208\H,0,-0.89665,-1.003443,-2.4796
 04\H,0,0.011382,0.229192,-3.368838\H,0,0.867606,1.187009,1.250354\H,0,

 Normal termination of Gaussian 16 at Sat Apr  5 22:55:48 2025.
