 Gaussian 16, Revision C.01,

 ----------------------------------------------------------------------
 #t hf aug-cc-pvdz symm=none int=(grid=ultrafine) guess=(read,tcheck) s
 table=(opt,rrhf)
 ----------------------------------------------------------------------
 -----
 title
 -----
 Symbolic Z-matrix:
 Charge =  0 Multiplicity = 1

 SCF Done:  E(RHF) =  -952.382169397     A.U. after   13 cycles

 1\1\GINC-SE047\Stability\RHF\Aug-CC-pVDZ\C4H10S2\OHZDE\05-Apr-2025\0\\
 #t hf aug-cc-pvdz symm=none int=(grid=ultrafine) guess=(read,tcheck) s
 table=(opt,rrhf)\\title\\0,1\C,0,0.340762,3.287075,0.629973\C,0,-0.340
 762,-3.287075,0.629973\C,0,0.695762,1.806304,0.586711\C,0,-0.695762,-1
 .806304,0.586711\S,0,-0.340762,0.974925,-0.694192\S,0,0.340762,-0.9749
 25,-0.694192\H,0,0.525276,3.767942,-0.330968\H,0,-0.707346,3.438737,0.
 88965\H,0,0.949124,3.792561,1.381474\H,0,-0.525276,-3.767942,-0.330968
 \H,0,0.707346,-3.438737,0.88965\H,0,-0.949124,-3.792561,1.381474\H,0,0

 Normal termination of Gaussian 16 at Sat Apr  5 22:56:19 2025.
 Gaussian 16:  ES64L-G16RevC.01  3-Jul-2019

 ----------------------------------------------------------------------
 #t hf aug-cc-pvdz iop(5/13=1,5/36=2,99/5=2) pseudo=read geom=check gue
 ss=(read,tcheck) scf=(maxcycle=1)
 ----------------------------------------------------------------------
 -----
 title
 -----
 Structure from the checkpoint file:  "diethyl_disulfide.chk"
 Charge =  0 Multiplicity = 1

                         Standard orientation:
 ---------------------------------------------------------------------
 Center     Atomic      Atomic             Coordinates (Angstroms)
 Number     Number       Type             X           Y           Z
 ---------------------------------------------------------------------
      1          6           0        0.340762    3.287075    0.629973
      2          6           0       -0.340762   -3.287075    0.629973
      3          6           0        0.695762    1.806304    0.586711
      4          6           0       -0.695762   -1.806304    0.586711
      5         16           0       -0.340762    0.974925   -0.694192
      6         16           0        0.340762   -0.974925   -0.694192
      7          1           0        0.525276    3.767942   -0.330968
      8          1           0       -0.707346    3.438737    0.889650
      9          1           0        0.949124    3.792561    1.381474
     10          1           0       -0.525276   -3.767942   -0.330968
     11          1           0        0.707346   -3.438737    0.889650
     12          1           0       -0.949124   -3.792561    1.381474
     13          1           0        0.508220    1.330131    1.547298
     14          1           0        1.739469    1.654869    0.319514
     15          1           0       -0.508220   -1.330131    1.547298
     16          1           0       -1.739469   -1.654869    0.319514
 ---------------------------------------------------------------------

 SCF Done:  E(RHF) =  -952.475546709     A.U. after    2 cycles

 The electronic state is 1-A.
 Alpha  occ. eigenvalues --  -93.54707 -93.54704 -11.27145 -11.27145 -11.23998
 Alpha  occ. eigenvalues --  -11.23998  -8.84303  -8.84286  -6.18490  -6.18381
 Alpha  occ. eigenvalues --   -6.18161  -6.18138  -6.17845  -6.17836  -1.07983
 Alpha  occ. eigenvalues --   -1.05022  -0.97537  -0.88629  -0.83038  -0.76894
 Alpha  occ. eigenvalues --   -0.63685  -0.63492  -0.61532  -0.57596  -0.54786
 Alpha  occ. eigenvalues --   -0.54447  -0.52064  -0.51783  -0.48804  -0.46414
 Alpha  occ. eigenvalues --   -0.43012  -0.34819  -0.34464
 Alpha virt. eigenvalues --    0.03451   0.03949   0.04877   0.05206   0.06146
 Alpha virt. eigenvalues --    0.06230   0.06393   0.07857   0.08176   0.09613
 Alpha virt. eigenvalues --    0.10380   0.10870   0.11837   0.13726   0.13742

 Mulliken charges:
               1
     1  C    0.342982
     2  C    0.342982
     3  C   -0.080539
     4  C   -0.080539
     5  S    0.098208
     6  S    0.098208
     7  H   -0.066785
     8  H   -0.067574
     9  H   -0.052766
    10  H   -0.066785
    11  H   -0.067574
    12  H   -0.052766
    13  H   -0.108141
    14  H   -0.065385
    15  H   -0.108141
    16  H   -0.065385
 Sum of Mulliken charges =   0.00000

 Dipole moment (field-independent basis, Debye):
    X=             -0.0000    Y=             -0.0000    Z=              2.4331  Tot=              2.4331

 Test job not archived.
 1\1\GINC-SE047\SP\RHF\Aug-CC-pVDZ\C4H10S2\OHZDE\05-Apr-2025\0\\#t hf a
 ug-cc-pvdz iop(5/13=1,5/36=2,99/5=2) pseudo=read geom=check guess=(rea
 d,tcheck) scf=(maxcycle=1)\\title\\0,1\C,0,0.340762,3.287075,0.629973\
 C,0,-0.340762,-3.287075,0.629973\C,0,0.695762,1.806304,0.586711\C,0,-0
 .695762,-1.806304,0.586711\S,0,-0.340762,0.974925,-0.694192\S,0,0.3407
 62,-0.974925,-0.694192\H,0,0.525276,3.767942,-0.330968\H,0,-0.707346,3
 .438737,0.88965\H,0,0.949124,3.792561,1.381474\H,0,-0.525276,-3.767942
 ,-0.330968\H,0,0.707346,-3.438737,0.88965\H,0,-0.949124,-3.792561,1.38

 Normal termination of Gaussian 16 at Sat Apr  5 22:56:23 2025.
