 Gaussian 16, Revision C.01,

 ----------------------------------------------------------------------
 #t hf aug-cc-pvdz symm=none int=(grid=ultrafine) guess=(read,tcheck) s
 table=(opt,rrhf)
 ----------------------------------------------------------------------
 -----
 title
 -----
 Symbolic Z-matrix:
 Charge =  0 Multiplicity = 1

 SCF Done:  E(RHF) =  -554.843847888     A.U. after   12 cycles

 1\1\GINC-SE106\Stability\RHF\Aug-CC-pVDZ\C4H10S1\OHZDE\05-Apr-2025\0\\
 #t hf aug-cc-pvdz symm=none int=(grid=ultrafine) guess=(read,tcheck) s
 table=(opt,rrhf)\\title\\0,1\C,0,0.,2.726159,0.135205\C,0,0.,-2.726159
 ,0.135205\C,0,0.,1.403492,-0.620064\C,0,0.,-1.403492,-0.620064\S,0,0.,
 0.,0.556153\H,0,-0.88233,2.818735,0.768807\H,0,0.88233,2.818735,0.7688
 07\H,0,0.,3.560604,-0.567621\H,0,0.88233,-2.818735,0.768807\H,0,-0.882
 33,-2.818735,0.768807\H,0,0.,-3.560604,-0.567621\H,0,0.883227,1.323432
 ,-1.255033\H,0,-0.883227,1.323432,-1.255033\H,0,-0.883227,-1.323432,-1

 Normal termination of Gaussian 16 at Sat Apr  5 22:55:18 2025.
 Gaussian 16:  ES64L-G16RevC.01  3-Jul-2019

 ----------------------------------------------------------------------
 #t hf aug-cc-pvdz iop(5/13=1,5/36=2,99/5=2) pseudo=read geom=check gue
 ss=(read,tcheck) scf=(maxcycle=1)
 ----------------------------------------------------------------------
 -----
 title
 -----
 Structure from the checkpoint file:  "diethyl_sulfide.chk"
 Charge =  0 Multiplicity = 1

                         Standard orientation:
 ---------------------------------------------------------------------
 Center     Atomic      Atomic             Coordinates (Angstroms)
 Number     Number       Type             X           Y           Z
 ---------------------------------------------------------------------
      1          6           0        0.000000    2.726159    0.135205
      2          6           0       -0.000000   -2.726159    0.135205
      3          6           0        0.000000    1.403492   -0.620064
      4          6           0       -0.000000   -1.403492   -0.620064
      5         16           0       -0.000000   -0.000000    0.556153
      6          1           0       -0.882330    2.818735    0.768807
      7          1           0        0.882330    2.818735    0.768807
      8          1           0        0.000000    3.560604   -0.567621
      9          1           0        0.882330   -2.818735    0.768807
     10          1           0       -0.882330   -2.818735    0.768807
     11          1           0       -0.000000   -3.560604   -0.567621
     12          1           0        0.883227    1.323432   -1.255033
     13          1           0       -0.883227    1.323432   -1.255033
     14          1           0       -0.883227   -1.323432   -1.255033
     15          1           0        0.883227   -1.323432   -1.255033
 ---------------------------------------------------------------------

 SCF Done:  E(RHF) =  -554.916851622     A.U. after    2 cycles

 The electronic state is 1-A1.
 Alpha  occ. eigenvalues --  -93.51540 -11.26379 -11.26371 -11.23239 -11.23238
 Alpha  occ. eigenvalues --   -8.81309  -6.15464  -6.15240  -6.14904  -1.07156
 Alpha  occ. eigenvalues --   -1.02644  -0.92150  -0.83697  -0.77989  -0.63767
 Alpha  occ. eigenvalues --   -0.61687  -0.61122  -0.56729  -0.54663  -0.51973
 Alpha  occ. eigenvalues --   -0.51840  -0.50044  -0.45645  -0.41901  -0.32986
 Alpha virt. eigenvalues --    0.03571   0.04130   0.04994   0.05046   0.06402
 Alpha virt. eigenvalues --    0.06456   0.06744   0.07561   0.08728   0.09818
 Alpha virt. eigenvalues --    0.11444   0.12568   0.13535   0.14492   0.14897

 Mulliken charges:
               1
     1  C    0.433523
     2  C    0.433523
     3  C   -0.153888
     4  C   -0.153888
     5  S    0.333321
     6  H   -0.068330
     7  H   -0.068330
     8  H   -0.029845
     9  H   -0.068330
    10  H   -0.068330
    11  H   -0.029845
    12  H   -0.139895
    13  H   -0.139895
    14  H   -0.139895
    15  H   -0.139895
 Sum of Mulliken charges =   0.00000

 Dipole moment (field-independent basis, Debye):
    X=              0.0000    Y=             -0.0000    Z=             -1.7997  Tot=              1.7997

 Test job not archived.
 1\1\GINC-SE106\SP\RHF\Aug-CC-pVDZ\C4H10S1\OHZDE\05-Apr-2025\0\\#t hf a
 ug-cc-pvdz iop(5/13=1,5/36=2,99/5=2) pseudo=read geom=check guess=(rea
 d,tcheck) scf=(maxcycle=1)\\title\\0,1\C,0,0.,2.726159,0.135205\C,0,0.
 ,-2.726159,0.135205\C,0,0.,1.403492,-0.620064\C,0,0.,-1.403492,-0.6200
 64\S,0,0.,0.,0.556153\H,0,-0.88233,2.818735,0.768807\H,0,0.88233,2.818
 735,0.768807\H,0,0.,3.560604,-0.567621\H,0,0.88233,-2.818735,0.768807\
 H,0,-0.88233,-2.818735,0.768807\H,0,0.,-3.560604,-0.567621\H,0,0.88322
 7,1.323432,-1.255033\H,0,-0.883227,1.323432,-1.255033\H,0,-0.883227,-1

 Normal termination of Gaussian 16 at Sat Apr  5 22:55:48 2025.
