 Gaussian 16, Revision C.01,

 ----------------------------------------------------------------------
 #t hf aug-cc-pvdz symm=none int=(grid=ultrafine) guess=(read,tcheck) s
 table=(opt,rrhf)
 ----------------------------------------------------------------------
 -----
 title
 -----
 Symbolic Z-matrix:
 Charge =  0 Multiplicity = 1

 SCF Done:  E(RHF) =  -237.931435308     A.U. after   10 cycles
 Normal termination of Gaussian 16 at Sat Apr  5 22:55:47 2025.
 Gaussian 16:  ES64L-G16RevC.01  3-Jul-2019

 ----------------------------------------------------------------------
 #t hf aug-cc-pvdz iop(5/13=1,5/36=2,99/5=2) pseudo=read geom=check gue
 ss=(read,tcheck) scf=(maxcycle=1)
 ----------------------------------------------------------------------
 -----
 title
 -----
 Structure from the checkpoint file:  "difluoromethane.chk"
 Charge =  0 Multiplicity = 1

                         Standard orientation:
 ---------------------------------------------------------------------
 Center     Atomic      Atomic             Coordinates (Angstroms)
 Number     Number       Type             X           Y           Z
 ---------------------------------------------------------------------
      1          9           0        0.000000    1.105295   -0.290293
      2          9           0       -0.000000   -1.105295   -0.290293
      3          6           0        0.000000   -0.000000    0.502981
      4          1           0        0.909963   -0.000000    1.103692
      5          1           0       -0.909963    0.000000    1.103692
 ---------------------------------------------------------------------

 SCF Done:  E(RHF) =  -238.019809946     A.U. after    2 cycles

 The electronic state is 1-A1.
 Alpha  occ. eigenvalues --  -26.13899 -26.13891 -11.42474  -1.70184  -1.65810
 Alpha  occ. eigenvalues --   -1.00656  -0.81919  -0.81611  -0.81236  -0.73194
 Alpha  occ. eigenvalues --   -0.69894  -0.66562  -0.56477
 Alpha virt. eigenvalues --    0.03410   0.05164   0.08552   0.08908   0.14730
 Alpha virt. eigenvalues --    0.16603   0.24047   0.24216   0.26027   0.26332
 Alpha virt. eigenvalues --    0.27535   0.27970   0.30792   0.34350   0.35919

 Mulliken charges:
               1
     1  F   -0.347436
     2  F   -0.347436
     3  C    0.979375
     4  H   -0.142252
     5  H   -0.142252
 Sum of Mulliken charges =  -0.00000

 Dipole moment (field-independent basis, Debye):
    X=             -0.0000    Y=             -0.0000    Z=              2.4614  Tot=              2.4614

 Test job not archived.
 1\1\GINC-SE208\SP\RHF\Aug-CC-pVDZ\C1H2F2\OHZDE\05-Apr-2025\0\\#t hf au
 g-cc-pvdz iop(5/13=1,5/36=2,99/5=2) pseudo=read geom=check guess=(read
 ,tcheck) scf=(maxcycle=1)\\title\\0,1\F,0,0.,1.105295,-0.290293\F,0,0.
 ,-1.105295,-0.290293\C,0,0.,0.,0.502981\H,0,0.909963,0.,1.103692\H,0,-
 0.909963,0.,1.103692\\Version=ES64L-G16RevC.01\State=1-A1\HF=-238.0198
 099\RMSD=5.549e-03\Dipole=0.,0.,0.9684088\Quadrupole=1.1664588,-2.3378
 999,1.1714411,0.,0.,0.\PG=C02V [C2(C1),SGV(F2),SGV'(H2)]\\@

 Normal termination of Gaussian 16 at Sat Apr  5 22:55:49 2025.
