 Gaussian 16, Revision C.01,

 ----------------------------------------------------------------------
 #t hf aug-cc-pvdz symm=none int=(grid=ultrafine) guess=(read,tcheck) s
 table=(opt,rrhf)
 ----------------------------------------------------------------------
 -----
 title
 -----
 Symbolic Z-matrix:
 Charge =  0 Multiplicity = 1

 SCF Done:  E(RHF) =  -519.485324621     A.U. after   14 cycles
 Normal termination of Gaussian 16 at Sat Apr  5 22:55:29 2025.
 Gaussian 16:  ES64L-G16RevC.01  3-Jul-2019

 ----------------------------------------------------------------------
 #t hf aug-cc-pvdz iop(5/13=1,5/36=2,99/5=2) pseudo=read geom=check gue
 ss=(read,tcheck) scf=(maxcycle=1)
 ----------------------------------------------------------------------
 -----
 title
 -----
 Structure from the checkpoint file:  "difluoroaminomethyl_acetate.chk"
 Charge =  0 Multiplicity = 1

                         Standard orientation:
 ---------------------------------------------------------------------
 Center     Atomic      Atomic             Coordinates (Angstroms)
 Number     Number       Type             X           Y           Z
 ---------------------------------------------------------------------
      1          9           0        2.734032   -0.044650    0.294765
      2          9           0        1.181883    0.979329   -0.865319
      3          8           0       -0.624931   -0.986352    0.049400
      4          8           0       -2.650125   -0.501223   -0.660014
      5          7           0        1.562213   -0.308934   -0.435957
      6          6           0        0.589833   -0.642433    0.639320
      7          6           0       -1.709038   -0.127949   -0.029755
      8          6           0       -1.645992    1.182508    0.711998
      9          1           0        0.536070    0.185170    1.344177
     10          1           0        1.001583   -1.530166    1.114473
     11          1           0       -0.840166    1.812068    0.338768
     12          1           0       -2.596239    1.685000    0.564689
     13          1           0       -1.488346    1.026194    1.780109
 ---------------------------------------------------------------------

 SCF Done:  E(RHF) =  -519.656788605     A.U. after    2 cycles

 The electronic state is 1-A.
 Alpha  occ. eigenvalues --  -26.18439 -26.18162 -20.64759 -20.58020 -15.86018
 Alpha  occ. eigenvalues --  -11.42067 -11.38617 -11.27595  -1.73327  -1.67525
 Alpha  occ. eigenvalues --   -1.44579  -1.36325  -1.17949  -1.03903  -0.98239
 Alpha  occ. eigenvalues --   -0.85707  -0.83472  -0.82789  -0.78796  -0.76638
 Alpha  occ. eigenvalues --   -0.73366  -0.72118  -0.71897  -0.70610  -0.66055
 Alpha  occ. eigenvalues --   -0.63749  -0.60469  -0.58263  -0.56903  -0.52259
 Alpha  occ. eigenvalues --   -0.50310  -0.48467
 Alpha virt. eigenvalues --    0.02639   0.03845   0.05093   0.05603   0.07503
 Alpha virt. eigenvalues --    0.08624   0.09312   0.11434   0.11838   0.13134
 Alpha virt. eigenvalues --    0.14003   0.14281   0.14886   0.15221   0.15956

 Mulliken charges:
               1
     1  F   -0.357325
     2  F   -0.354406
     3  O   -0.643522
     4  O   -0.436451
     5  N   -0.004812
     6  C    1.404867
     7  C    0.499421
     8  C    0.164753
     9  H   -0.117085
    10  H   -0.209344
    11  H    0.108607
    12  H   -0.156201
    13  H    0.101498
 Sum of Mulliken charges =  -0.00000

 Dipole moment (field-independent basis, Debye):
    X=              0.7904    Y=              1.2818    Z=              4.0016  Tot=              4.2756

 Test job not archived.
 1\1\GINC-SE154\SP\RHF\Aug-CC-pVDZ\C3H5F2N1O2\OHZDE\05-Apr-2025\0\\#t h
 f aug-cc-pvdz iop(5/13=1,5/36=2,99/5=2) pseudo=read geom=check guess=(
 read,tcheck) scf=(maxcycle=1)\\title\\0,1\F,0,2.734032,-0.04465,0.2947
 65\F,0,1.181883,0.979329,-0.865319\O,0,-0.624931,-0.986352,0.0494\O,0,
 -2.650125,-0.501223,-0.660014\N,0,1.562213,-0.308934,-0.435957\C,0,0.5
 89833,-0.642433,0.63932\C,0,-1.709038,-0.127949,-0.029755\C,0,-1.64599
 2,1.182508,0.711998\H,0,0.53607,0.18517,1.344177\H,0,1.001583,-1.53016
 6,1.114473\H,0,-0.840166,1.812068,0.338768\H,0,-2.596239,1.685,0.56468

 Normal termination of Gaussian 16 at Sat Apr  5 22:55:49 2025.
