 Gaussian 16, Revision C.01,

 ----------------------------------------------------------------------
 #t hf aug-cc-pvdz symm=none int=(grid=ultrafine) guess=(read,tcheck) s
 table=(opt,rrhf)
 ----------------------------------------------------------------------
 -----
 title
 -----
 Symbolic Z-matrix:
 Charge =  0 Multiplicity = 1

 SCF Done:  E(RHF) =  -274.493597187     A.U. after   11 cycles
 Normal termination of Gaussian 16 at Sat Apr  5 22:54:59 2025.
 Gaussian 16:  ES64L-G16RevC.01  3-Jul-2019

 ----------------------------------------------------------------------
 #t hf aug-cc-pvdz iop(5/13=1,5/36=2,99/5=2) pseudo=read geom=check gue
 ss=(read,tcheck) scf=(maxcycle=1)
 ----------------------------------------------------------------------
 -----
 title
 -----
 Structure from the checkpoint file:  "difluoroacetylene.chk"
 Charge =  0 Multiplicity = 1

                         Standard orientation:
 ---------------------------------------------------------------------
 Center     Atomic      Atomic             Coordinates (Angstroms)
 Number     Number       Type             X           Y           Z
 ---------------------------------------------------------------------
      1          6           0        0.000000    0.000000    0.591567
      2          6           0        0.000000    0.000000   -0.591567
      3          9           0        0.000000    0.000000    1.877004
      4          9           0        0.000000    0.000000   -1.877004
 ---------------------------------------------------------------------

 SCF Done:  E(RHF) =  -274.597320153     A.U. after    2 cycles

 The electronic state is 1-SGG.
 Alpha  occ. eigenvalues --  -26.21164 -26.21152 -11.36556 -11.36120  -1.75423
 Alpha  occ. eigenvalues --   -1.75330  -1.08430  -0.93353  -0.88518  -0.82790
 Alpha  occ. eigenvalues --   -0.82790  -0.81400  -0.81400  -0.44072  -0.44072
 Alpha virt. eigenvalues --    0.06201   0.06277   0.10631   0.10631   0.12337
 Alpha virt. eigenvalues --    0.12337   0.13651   0.17400   0.26085   0.26085
 Alpha virt. eigenvalues --    0.26398   0.30298   0.30298   0.30763   0.30841

 Mulliken charges:
               1
     1  C    0.146210
     2  C    0.146210
     3  F   -0.146210
     4  F   -0.146210
 Sum of Mulliken charges =  -0.00000

 Dipole moment (field-independent basis, Debye):
    X=              0.0000    Y=              0.0000    Z=              0.0000  Tot=              0.0000

 Test job not archived.
 1\1\GINC-SE154\SP\RHF\Aug-CC-pVDZ\C2F2\OHZDE\05-Apr-2025\0\\#t hf aug-
 cc-pvdz iop(5/13=1,5/36=2,99/5=2) pseudo=read geom=check guess=(read,t
 check) scf=(maxcycle=1)\\title\\0,1\C,0,0.,0.,0.591567\C,0,0.,0.,-0.59
 1567\F,0,0.,0.,1.877004\F,0,0.,0.,-1.877004\\Version=ES64L-G16RevC.01\
 State=1-SGG\HF=-274.5973202\RMSD=2.047e-02\Dipole=0.,0.,0.\Quadrupole=
 0.583027,0.583027,-1.1660539,0.,0.,0.\PG=D*H [C*(F1C1.C1F1)]\\@

 Normal termination of Gaussian 16 at Sat Apr  5 22:55:46 2025.
