 Gaussian 16, Revision C.01,

 ----------------------------------------------------------------------
 #t hf aug-cc-pvdz symm=none int=(grid=ultrafine) guess=(read,tcheck) s
 table=(opt,rrhf)
 ----------------------------------------------------------------------
 -----
 title
 -----
 Symbolic Z-matrix:
 Charge =  0 Multiplicity = 1

 SCF Done:  E(RHF) =  -529.804777613     A.U. after   15 cycles
 Normal termination of Gaussian 16 at Sat Apr  5 22:56:14 2025.
 Gaussian 16:  ES64L-G16RevC.01  3-Jul-2019

 ----------------------------------------------------------------------
 #t hf aug-cc-pvdz iop(5/13=1,5/36=2,99/5=2) pseudo=read geom=check gue
 ss=(read,tcheck) scf=(maxcycle=1)
 ----------------------------------------------------------------------
 -----
 title
 -----
 Structure from the checkpoint file:  "difuro3-2-b-2--3--dfuran.chk"
 Charge =  0 Multiplicity = 1

                         Standard orientation:
 ---------------------------------------------------------------------
 Center     Atomic      Atomic             Coordinates (Angstroms)
 Number     Number       Type             X           Y           Z
 ---------------------------------------------------------------------
      1          6           0        0.000000    2.489253    0.832738
      2          6           0       -0.000000   -2.489253    0.832738
      3          6           0        0.000000    2.874720   -0.476647
      4          6           0       -0.000000   -2.874720   -0.476647
      5          6           0        0.000000    1.073622    0.774661
      6          6           0       -0.000000   -1.073622    0.774661
      7          6           0        0.000000    0.706341   -0.549010
      8          6           0       -0.000000   -0.706341   -0.549010
      9          8           0        0.000000    1.799140   -1.343744
     10          8           0       -0.000000   -1.799140   -1.343744
     11          8           0        0.000000   -0.000000    1.629823
     12          1           0        0.000000    3.143332    1.686236
     13          1           0       -0.000000   -3.143332    1.686236
     14          1           0        0.000000    3.840540   -0.946024
     15          1           0       -0.000000   -3.840540   -0.946024
 ---------------------------------------------------------------------

 SCF Done:  E(RHF) =  -529.967175980     A.U. after    2 cycles

 The electronic state is 1-A1.
 Alpha  occ. eigenvalues --  -20.65334 -20.65333 -20.65035 -11.31693 -11.31692
 Alpha  occ. eigenvalues --  -11.31221 -11.31137 -11.30466 -11.30450 -11.26420
 Alpha  occ. eigenvalues --  -11.26417  -1.44397  -1.42820  -1.41249  -1.10291
 Alpha  occ. eigenvalues --   -1.10006  -1.06786  -0.98049  -0.87210  -0.84755
 Alpha  occ. eigenvalues --   -0.80689  -0.79551  -0.73697  -0.70907  -0.70150
 Alpha  occ. eigenvalues --   -0.66814  -0.65483  -0.63897  -0.63119  -0.62884
 Alpha  occ. eigenvalues --   -0.60357  -0.59814  -0.54866  -0.53015  -0.42657
 Alpha  occ. eigenvalues --   -0.39761  -0.39100  -0.27303
 Alpha virt. eigenvalues --    0.03387   0.03523   0.04424   0.04960   0.07882
 Alpha virt. eigenvalues --    0.08026   0.09451   0.10578   0.10773   0.11397
 Alpha virt. eigenvalues --    0.11412   0.12008   0.12307   0.13446   0.13878

 Mulliken charges:
               1
     1  C    1.227872
     2  C    1.227872
     3  C    0.579112
     4  C    0.579112
     5  C   -0.488878
     6  C   -0.488878
     7  C    0.381640
     8  C    0.381640
     9  O   -0.614836
    10  O   -0.614836
    11  O   -0.802496
    12  H   -0.315233
    13  H   -0.315233
    14  H   -0.368429
    15  H   -0.368429
 Sum of Mulliken charges =   0.00000

 Dipole moment (field-independent basis, Debye):
    X=             -0.0000    Y=              0.0000    Z=              1.0501  Tot=              1.0501

 Test job not archived.
 1\1\GINC-SE210\SP\RHF\Aug-CC-pVDZ\C8H4O3\OHZDE\05-Apr-2025\0\\#t hf au
 g-cc-pvdz iop(5/13=1,5/36=2,99/5=2) pseudo=read geom=check guess=(read
 ,tcheck) scf=(maxcycle=1)\\title\\0,1\C,0,0.,2.489253,0.832738\C,0,0.,
 -2.489253,0.832738\C,0,0.,2.87472,-0.476647\C,0,0.,-2.87472,-0.476647\
 C,0,0.,1.073622,0.774661\C,0,0.,-1.073622,0.774661\C,0,0.,0.706341,-0.
 54901\C,0,0.,-0.706341,-0.54901\O,0,0.,1.79914,-1.343744\O,0,0.,-1.799
 14,-1.343744\O,0,0.,0.,1.629823\H,0,0.,3.143332,1.686236\H,0,0.,-3.143
 332,1.686236\H,0,0.,3.84054,-0.946024\H,0,0.,-3.84054,-0.946024\\Versi

 Normal termination of Gaussian 16 at Sat Apr  5 22:56:21 2025.
