 Gaussian 16, Revision C.01,

 ----------------------------------------------------------------------
 #t hf aug-cc-pvdz symm=none int=(grid=ultrafine) guess=(read,tcheck) s
 table=(opt,rrhf)
 ----------------------------------------------------------------------
 -----
 title
 -----
 Symbolic Z-matrix:
 Charge =  0 Multiplicity = 1

 SCF Done:  E(RHF) =  -627.400791801     A.U. after   14 cycles
 Normal termination of Gaussian 16 at Sat Apr  5 22:55:11 2025.
 Gaussian 16:  ES64L-G16RevC.01  3-Jul-2019

 ----------------------------------------------------------------------
 #t hf aug-cc-pvdz iop(5/13=1,5/36=2,99/5=2) pseudo=read geom=check gue
 ss=(read,tcheck) scf=(maxcycle=1)
 ----------------------------------------------------------------------
 -----
 title
 -----
 Structure from the checkpoint file:  "dihydro-23H-thiophenone.chk"
 Charge =  0 Multiplicity = 1

                         Standard orientation:
 ---------------------------------------------------------------------
 Center     Atomic      Atomic             Coordinates (Angstroms)
 Number     Number       Type             X           Y           Z
 ---------------------------------------------------------------------
      1          6           0       -0.123642    1.418300    0.182281
      2          1           0       -0.576061    2.246214   -0.360785
      3          1           0       -0.140157    1.675948    1.245871
      4          6           0        1.285993    1.069039   -0.279367
      5          1           0        2.029750    1.761665    0.115463
      6          1           0        1.337092    1.113708   -1.368217
      7          6           0        1.580762   -0.362867    0.182655
      8          1           0        1.863237   -0.398574    1.234120
      9          1           0        2.363223   -0.838008   -0.403468
     10          6           0       -1.005756    0.186332    0.018862
     11          8           0       -2.202205    0.172101   -0.051174
     12         16           0        0.019776   -1.300161   -0.042511
 ---------------------------------------------------------------------

 SCF Done:  E(RHF) =  -627.491247064     A.U. after    2 cycles

 The electronic state is 1-A.
 Alpha  occ. eigenvalues --  -93.54863 -20.57420 -11.37695 -11.28782 -11.26636
 Alpha  occ. eigenvalues --  -11.26583  -8.84733  -6.18812  -6.18682  -6.18326
 Alpha  occ. eigenvalues --   -1.37262  -1.13089  -0.99778  -0.95826  -0.82654
 Alpha  occ. eigenvalues --   -0.73870  -0.68431  -0.67426  -0.61461  -0.60941
 Alpha  occ. eigenvalues --   -0.58775  -0.56234  -0.52697  -0.50701  -0.46410
 Alpha  occ. eigenvalues --   -0.41190  -0.37026
 Alpha virt. eigenvalues --    0.02834   0.04235   0.04341   0.05440   0.06647
 Alpha virt. eigenvalues --    0.06760   0.08771   0.09729   0.11469   0.12520
 Alpha virt. eigenvalues --    0.13131   0.13792   0.14377   0.14827   0.15218

 Mulliken charges:
               1
     1  C    0.033391
     2  H   -0.033902
     3  H    0.016171
     4  C    0.277501
     5  H   -0.017131
     6  H   -0.136169
     7  C    0.004850
     8  H   -0.093404
     9  H   -0.041599
    10  C   -0.037026
    11  O   -0.470667
    12  S    0.497987
 Sum of Mulliken charges =  -0.00000

 Dipole moment (field-independent basis, Debye):
    X=              4.5658    Y=              1.8262    Z=              0.4001  Tot=              4.9337

 Test job not archived.
 1\1\GINC-SE211\SP\RHF\Aug-CC-pVDZ\C4H6O1S1\OHZDE\05-Apr-2025\0\\#t hf
 aug-cc-pvdz iop(5/13=1,5/36=2,99/5=2) pseudo=read geom=check guess=(re
 ad,tcheck) scf=(maxcycle=1)\\title\\0,1\C,0,-0.123642,1.4183,0.182281\
 H,0,-0.576061,2.246214,-0.360785\H,0,-0.140157,1.675948,1.245871\C,0,1
 .285993,1.069039,-0.279367\H,0,2.02975,1.761665,0.115463\H,0,1.337092,
 1.113708,-1.368217\C,0,1.580762,-0.362867,0.182655\H,0,1.863237,-0.398
 574,1.23412\H,0,2.363223,-0.838008,-0.403468\C,0,-1.005756,0.186332,0.
 018862\O,0,-2.202205,0.172101,-0.051174\S,0,0.019776,-1.300161,-0.0425

 Normal termination of Gaussian 16 at Sat Apr  5 22:55:49 2025.
