 Gaussian 16, Revision C.01,

 ----------------------------------------------------------------------
 #t hf aug-cc-pvdz symm=none int=(grid=ultrafine) guess=(read,tcheck) s
 table=(opt,rrhf)
 ----------------------------------------------------------------------
 -----
 title
 -----
 Symbolic Z-matrix:
 Charge =  0 Multiplicity = 1

 SCF Done:  E(RHF) =  -627.390807408     A.U. after   15 cycles
 Normal termination of Gaussian 16 at Sat Apr  5 22:55:12 2025.
 Gaussian 16:  ES64L-G16RevC.01  3-Jul-2019

 ----------------------------------------------------------------------
 #t hf aug-cc-pvdz iop(5/13=1,5/36=2,99/5=2) pseudo=read geom=check gue
 ss=(read,tcheck) scf=(maxcycle=1)
 ----------------------------------------------------------------------
 -----
 title
 -----
 Structure from the checkpoint file:  "dihydro-32H-thiophenone.chk"
 Charge =  0 Multiplicity = 1

                         Standard orientation:
 ---------------------------------------------------------------------
 Center     Atomic      Atomic             Coordinates (Angstroms)
 Number     Number       Type             X           Y           Z
 ---------------------------------------------------------------------
      1          6           0       -1.173933   -0.086028   -0.010331
      2          6           0       -0.518527    1.277829   -0.187572
      3          1           0       -1.108936    2.034769    0.327755
      4          1           0       -0.554216    1.502662   -1.257211
      5          6           0        0.925632    1.196028    0.287908
      6          1           0        1.002801    1.342170    1.364887
      7          1           0        1.581138    1.908061   -0.205713
      8          6           0       -0.148546   -1.207971    0.168542
      9         16           0        1.503686   -0.500212   -0.148246
     10          1           0       -0.361636   -2.019932   -0.522700
     11          8           0       -2.361719   -0.281087   -0.009054
     12          1           0       -0.232120   -1.594793    1.186057
 ---------------------------------------------------------------------

 SCF Done:  E(RHF) =  -627.480992632     A.U. after    2 cycles

 The electronic state is 1-A.
 Alpha  occ. eigenvalues --  -93.54161 -20.57562 -11.35963 -11.28744 -11.28422
 Alpha  occ. eigenvalues --  -11.26453  -8.83906  -6.18029  -6.17873  -6.17488
 Alpha  occ. eigenvalues --   -1.37018  -1.12395  -1.00881  -0.94738  -0.81935
 Alpha  occ. eigenvalues --   -0.75632  -0.67903  -0.67657  -0.62690  -0.61471
 Alpha  occ. eigenvalues --   -0.57200  -0.56780  -0.51513  -0.50522  -0.46111
 Alpha  occ. eigenvalues --   -0.42468  -0.35390
 Alpha virt. eigenvalues --    0.03295   0.04384   0.04592   0.05396   0.06567
 Alpha virt. eigenvalues --    0.06908   0.08515   0.09223   0.11096   0.12668
 Alpha virt. eigenvalues --    0.12921   0.14240   0.14771   0.15078   0.15257

 Mulliken charges:
               1
     1  C   -0.124587
     2  C    0.071605
     3  H   -0.005556
     4  H    0.046088
     5  C    0.130919
     6  H   -0.080109
     7  H   -0.058057
     8  C   -0.136832
     9  S    0.566893
    10  H    0.040509
    11  O   -0.520637
    12  H    0.069764
 Sum of Mulliken charges =  -0.00000

 Dipole moment (field-independent basis, Debye):
    X=              1.8881    Y=              1.4965    Z=              0.4874  Tot=              2.4580

 Test job not archived.
 1\1\GINC-SE203\SP\RHF\Aug-CC-pVDZ\C4H6O1S1\OHZDE\05-Apr-2025\0\\#t hf
 aug-cc-pvdz iop(5/13=1,5/36=2,99/5=2) pseudo=read geom=check guess=(re
 ad,tcheck) scf=(maxcycle=1)\\title\\0,1\C,0,-1.173933,-0.086028,-0.010
 331\C,0,-0.518527,1.277829,-0.187572\H,0,-1.108936,2.034769,0.327755\H
 ,0,-0.554216,1.502662,-1.257211\C,0,0.925632,1.196028,0.287908\H,0,1.0
 02801,1.34217,1.364887\H,0,1.581138,1.908061,-0.205713\C,0,-0.148546,-
 1.207971,0.168542\S,0,1.503686,-0.500212,-0.148246\H,0,-0.361635,-2.01
 9932,-0.5227\O,0,-2.361719,-0.281087,-0.009054\H,0,-0.232119,-1.594793

 Normal termination of Gaussian 16 at Sat Apr  5 22:55:49 2025.
