 Gaussian 16, Revision C.01,

 ----------------------------------------------------------------------
 #t hf aug-cc-pvdz symm=none int=(grid=ultrafine) guess=(read,tcheck) s
 table=(opt,rrhf)
 ----------------------------------------------------------------------
 -----
 title
 -----
 Symbolic Z-matrix:
 Charge =  0 Multiplicity = 1

 SCF Done:  E(RHF) =  -860.669715286     A.U. after   13 cycles
 Normal termination of Gaussian 16 at Sat Apr  5 23:01:30 2025.
 Gaussian 16:  ES64L-G16RevC.01  3-Jul-2019

 ----------------------------------------------------------------------
 #t hf aug-cc-pvdz iop(5/13=1,5/36=2,99/5=2) pseudo=read geom=check gue
 ss=(read,tcheck) scf=(maxcycle=1)
 ----------------------------------------------------------------------
 -----
 title
 -----
 Structure from the checkpoint file:  "diisobutyl_sulfone.chk"
 Charge =  0 Multiplicity = 1

                         Standard orientation:
 ---------------------------------------------------------------------
 Center     Atomic      Atomic             Coordinates (Angstroms)
 Number     Number       Type             X           Y           Z
 ---------------------------------------------------------------------
      1          6           0       -1.420834    0.793414   -0.007311
      2         16           0       -0.000000   -0.346947   -0.000010
      3          6           0       -2.762715    0.095086    0.252798
      4          6           0        1.420834    0.793414    0.007287
      5          8           0       -0.034424   -1.089441    1.260830
      6          8           0        0.034424   -1.089442   -1.260849
      7          6           0       -3.806859    1.145917    0.648578
      8          6           0       -3.239642   -0.730464   -0.945570
      9          6           0        2.762718    0.095073   -0.252778
     10          6           0        3.806866    1.145882   -0.648603
     11          6           0        3.239634   -0.730417    0.945635
     12          1           0       -1.201428    1.513412    0.781999
     13          1           0       -1.403435    1.302515   -0.971723
     14          1           0       -2.618202   -0.575090    1.103169
     15          1           0        1.201441    1.513390   -0.782045
     16          1           0        1.403420    1.302541    0.971685
     17          1           0       -4.763693    0.667778    0.861289
     18          1           0       -3.504390    1.699334    1.539005
     19          1           0       -3.969663    1.865389   -0.157619
     20          1           0       -3.398705   -0.091329   -1.817765
     21          1           0       -2.520753   -1.498674   -1.222382
     22          1           0       -4.188123   -1.215944   -0.712598
     23          1           0        2.618210   -0.575147   -1.103115
     24          1           0        4.763704    0.667732   -0.861274
     25          1           0        3.504408    1.699247   -1.539066
     26          1           0        3.969659    1.865400    0.157555
     27          1           0        3.398692   -0.091241    1.817801
     28          1           0        2.520742   -1.498613    1.222481
     29          1           0        4.188116   -1.215910    0.712694
 ---------------------------------------------------------------------

 SCF Done:  E(RHF) =  -860.884633706     A.U. after    2 cycles

 The electronic state is 1-A.
 Alpha  occ. eigenvalues --  -93.76624 -20.54608 -20.54606 -11.28318 -11.28307
 Alpha  occ. eigenvalues --  -11.25605 -11.25604 -11.23632 -11.23632 -11.22312
 Alpha  occ. eigenvalues --  -11.22312  -9.03432  -6.38047  -6.37857  -6.37782
 Alpha  occ. eigenvalues --   -1.39900  -1.28543  -1.10623  -1.09889  -1.01275
 Alpha  occ. eigenvalues --   -0.95862  -0.93620  -0.93611  -0.83225  -0.78713
 Alpha  occ. eigenvalues --   -0.78007  -0.69618  -0.67461  -0.67402  -0.64145
 Alpha  occ. eigenvalues --   -0.62933  -0.61427  -0.60786  -0.59611  -0.58603
 Alpha  occ. eigenvalues --   -0.55819  -0.55353  -0.54236  -0.54158  -0.52041
 Alpha  occ. eigenvalues --   -0.50415  -0.50352  -0.49497  -0.48787  -0.48399
 Alpha  occ. eigenvalues --   -0.48250  -0.47527  -0.47330  -0.42281
 Alpha virt. eigenvalues --    0.02796   0.03583   0.04257   0.04281   0.05279
 Alpha virt. eigenvalues --    0.05319   0.05764   0.06437   0.06944   0.07541
 Alpha virt. eigenvalues --    0.07830   0.07839   0.08024   0.08338   0.09472

 Mulliken charges:
               1
     1  C    0.140759
     2  S    2.755870
     3  C   -1.094919
     4  C    0.140755
     5  O   -1.248877
     6  O   -1.248868
     7  C    0.903686
     8  C    0.768720
     9  C   -1.094897
    10  C    0.903678
    11  C    0.768714
    12  H   -0.179415
    13  H   -0.146696
    14  H   -0.156912
    15  H   -0.179423
    16  H   -0.146695
    17  H   -0.066291
    18  H   -0.097742
    19  H    0.011317
    20  H   -0.038582
    21  H   -0.109950
    22  H   -0.063034
    23  H   -0.156913
    24  H   -0.066291
    25  H   -0.097740
    26  H    0.011319
    27  H   -0.038585
    28  H   -0.109951
    29  H   -0.063036
 Sum of Mulliken charges =  -0.00000

 Dipole moment (field-independent basis, Debye):
    X=             -0.0000    Y=              4.8509    Z=              0.0000  Tot=              4.8509

 Test job not archived.
 1\1\GINC-SE203\SP\RHF\Aug-CC-pVDZ\C8H18O2S1\OHZDE\05-Apr-2025\0\\#t hf
  aug-cc-pvdz iop(5/13=1,5/36=2,99/5=2) pseudo=read geom=check guess=(r
 ead,tcheck) scf=(maxcycle=1)\\title\\0,1\C,0,-1.420834,0.793414,-0.007
 311\S,0,0.,-0.346947,-0.00001\C,0,-2.762715,0.095086,0.252798\C,0,1.42
 0834,0.793414,0.007287\O,0,-0.034424,-1.089441,1.26083\O,0,0.034424,-1
 .089442,-1.260849\C,0,-3.806859,1.145917,0.648578\C,0,-3.239642,-0.730
 464,-0.94557\C,0,2.762718,0.095073,-0.252778\C,0,3.806866,1.145882,-0.
 648603\C,0,3.239634,-0.730417,0.945635\H,0,-1.201428,1.513412,0.781999

 Normal termination of Gaussian 16 at Sat Apr  5 23:02:37 2025.
