 Gaussian 16, Revision C.01,

 ----------------------------------------------------------------------
 #t hf aug-cc-pvdz symm=none int=(grid=ultrafine) guess=(read,tcheck) s
 table=(opt,rrhf)
 ----------------------------------------------------------------------
 -----
 title
 -----
 Symbolic Z-matrix:
 Charge =  0 Multiplicity = 1

 SCF Done:  E(RHF) =  -626.436541549     A.U. after   12 cycles
 Normal termination of Gaussian 16 at Sat Apr  5 22:56:08 2025.
 Gaussian 16:  ES64L-G16RevC.01  3-Jul-2019

 ----------------------------------------------------------------------
 #t hf aug-cc-pvdz iop(5/13=1,5/36=2,99/5=2) pseudo=read geom=check gue
 ss=(read,tcheck) scf=(maxcycle=1)
 ----------------------------------------------------------------------
 -----
 title
 -----
 Structure from the checkpoint file:  "dimethylsulfone.chk"
 Charge =  0 Multiplicity = 1

                         Standard orientation:
 ---------------------------------------------------------------------
 Center     Atomic      Atomic             Coordinates (Angstroms)
 Number     Number       Type             X           Y           Z
 ---------------------------------------------------------------------
      1          6           0        0.000000    1.419305   -0.919648
      2          6           0       -0.000000   -1.419305   -0.919648
      3          8           0       -1.263521    0.000000    0.917477
      4          8           0        1.263521   -0.000000    0.917477
      5         16           0       -0.000000   -0.000000    0.188195
      6          1           0        0.000000    2.292780   -0.271559
      7          1           0        0.900388    1.399538   -1.527965
      8          1           0       -0.900388    1.399538   -1.527965
      9          1           0        0.900388   -1.399538   -1.527965
     10          1           0       -0.000000   -2.292780   -0.271559
     11          1           0       -0.900388   -1.399538   -1.527965
 ---------------------------------------------------------------------

 SCF Done:  E(RHF) =  -626.583140158     A.U. after    2 cycles

 The electronic state is 1-A1.
 Alpha  occ. eigenvalues --  -93.78151 -20.55460 -20.55459 -11.29157 -11.29147
 Alpha  occ. eigenvalues --   -9.04886  -6.39505  -6.39293  -6.39225  -1.41100
 Alpha  occ. eigenvalues --   -1.29659  -1.06267  -1.00659  -0.81718  -0.69276
 Alpha  occ. eigenvalues --   -0.68240  -0.67453  -0.62259  -0.62222  -0.60685
 Alpha  occ. eigenvalues --   -0.58733  -0.51312  -0.50937  -0.48669  -0.45325
 Alpha virt. eigenvalues --    0.02572   0.04271   0.04770   0.05616   0.06879
 Alpha virt. eigenvalues --    0.06909   0.09456   0.12122   0.13044   0.13739
 Alpha virt. eigenvalues --    0.14346   0.15495   0.15774   0.15842   0.17338

 Mulliken charges:
               1
     1  C    0.026282
     2  C    0.026282
     3  O   -1.080029
     4  O   -1.080029
     5  S    2.014498
     6  H    0.040805
     7  H    0.002846
     8  H    0.002846
     9  H    0.002846
    10  H    0.040805
    11  H    0.002846
 Sum of Mulliken charges =  -0.00000

 Dipole moment (field-independent basis, Debye):
    X=              0.0000    Y=             -0.0000    Z=             -5.5167  Tot=              5.5167

 Test job not archived.
 1\1\GINC-SE196\SP\RHF\Aug-CC-pVDZ\C2H6O2S1\OHZDE\05-Apr-2025\0\\#t hf
 aug-cc-pvdz iop(5/13=1,5/36=2,99/5=2) pseudo=read geom=check guess=(re
 ad,tcheck) scf=(maxcycle=1)\\title\\0,1\C,0,0.,1.419305,-0.919648\C,0,
 0.,-1.419305,-0.919648\O,0,-1.263521,0.,0.917477\O,0,1.263521,0.,0.917
 477\S,0,0.,0.,0.188195\H,0,0.,2.29278,-0.271559\H,0,0.900388,1.399538,
 -1.527965\H,0,-0.900388,1.399538,-1.527965\H,0,0.900388,-1.399538,-1.5
 27965\H,0,0.,-2.29278,-0.271559\H,0,-0.900388,-1.399538,-1.527965\\Ver
 sion=ES64L-G16RevC.01\State=1-A1\HF=-626.5831402\RMSD=6.498e-03\Dipole

 Normal termination of Gaussian 16 at Sat Apr  5 22:56:11 2025.
