 Gaussian 16, Revision C.01,

 ----------------------------------------------------------------------
 #t hf aug-cc-pvdz symm=none int=(grid=ultrafine) guess=(read,tcheck) s
 table=(opt,rrhf)
 ----------------------------------------------------------------------
 -----
 title
 -----
 Symbolic Z-matrix:
 Charge =  0 Multiplicity = 1

 SCF Done:  E(RHF) =  -154.086740856     A.U. after   11 cycles
 Normal termination of Gaussian 16 at Sat Apr  5 22:56:02 2025.
 Gaussian 16:  ES64L-G16RevC.01  3-Jul-2019

 ----------------------------------------------------------------------
 #t hf aug-cc-pvdz iop(5/13=1,5/36=2,99/5=2) pseudo=read geom=check gue
 ss=(read,tcheck) scf=(maxcycle=1)
 ----------------------------------------------------------------------
 -----
 title
 -----
 Structure from the checkpoint file:  "dimethylether.chk"
 Charge =  0 Multiplicity = 1

                         Standard orientation:
 ---------------------------------------------------------------------
 Center     Atomic      Atomic             Coordinates (Angstroms)
 Number     Number       Type             X           Y           Z
 ---------------------------------------------------------------------
      1          6           0        0.000000    1.175422   -0.194884
      2          6           0       -0.000000   -1.175422   -0.194884
      3          8           0        0.000000   -0.000000    0.586687
      4          1           0        0.890246    1.231929   -0.833515
      5          1           0        0.000000    2.021254    0.489588
      6          1           0       -0.890246    1.231929   -0.833515
      7          1           0        0.890246   -1.231929   -0.833515
      8          1           0       -0.890246   -1.231929   -0.833515
      9          1           0       -0.000000   -2.021254    0.489588
 ---------------------------------------------------------------------

 SCF Done:  E(RHF) =  -154.140711493     A.U. after    2 cycles

 The electronic state is 1-A1.
 Alpha  occ. eigenvalues --  -20.56942 -11.28123 -11.28097  -1.33145  -0.97078
 Alpha  occ. eigenvalues --   -0.87224  -0.66748  -0.65817  -0.65083  -0.55288
 Alpha  occ. eigenvalues --   -0.53204  -0.49145  -0.43750
 Alpha virt. eigenvalues --    0.03565   0.04915   0.05666   0.05902   0.07336
 Alpha virt. eigenvalues --    0.07922   0.10328   0.14172   0.14516   0.15417
 Alpha virt. eigenvalues --    0.17095   0.17695   0.17728   0.20356   0.22337

 Mulliken charges:
               1
     1  C    0.707098
     2  C    0.707098
     3  O   -0.636242
     4  H   -0.067941
     5  H   -0.253095
     6  H   -0.067941
     7  H   -0.067941
     8  H   -0.067941
     9  H   -0.253095
 Sum of Mulliken charges =   0.00000

 Dipole moment (field-independent basis, Debye):
    X=              0.0000    Y=             -0.0000    Z=             -1.5569  Tot=              1.5569

 Test job not archived.
 1\1\GINC-SE053\SP\RHF\Aug-CC-pVDZ\C2H6O1\OHZDE\05-Apr-2025\0\\#t hf au
 g-cc-pvdz iop(5/13=1,5/36=2,99/5=2) pseudo=read geom=check guess=(read
 ,tcheck) scf=(maxcycle=1)\\title\\0,1\C,0,0.,1.175422,-0.194884\C,0,0.
 ,-1.175422,-0.194884\O,0,0.,0.,0.586687\H,0,0.890246,1.231929,-0.83351
 5\H,0,0.,2.021254,0.489588\H,0,-0.890246,1.231929,-0.833515\H,0,0.8902
 46,-1.231929,-0.833515\H,0,-0.890246,-1.231929,-0.833515\H,0,0.,-2.021
 254,0.489588\\Version=ES64L-G16RevC.01\State=1-A1\HF=-154.1407115\RMSD
 =2.070e-03\Dipole=0.,0.,-0.6125271\Quadrupole=-0.4201432,1.766724,-1.3

 Normal termination of Gaussian 16 at Sat Apr  5 22:56:03 2025.
