 Gaussian 16, Revision C.01,

 ----------------------------------------------------------------------
 #t hf aug-cc-pvdz symm=none int=(grid=ultrafine) guess=(read,tcheck) s
 table=(opt,rrhf)
 ----------------------------------------------------------------------
 -----
 title
 -----
 Symbolic Z-matrix:
 Charge =  0 Multiplicity = 1

 SCF Done:  E(RHF) =  -967.199223039     A.U. after   14 cycles
 Normal termination of Gaussian 16 at Sat Apr  5 22:56:11 2025.
 Gaussian 16:  ES64L-G16RevC.01  3-Jul-2019

 ----------------------------------------------------------------------
 #t hf aug-cc-pvdz iop(5/13=1,5/36=2,99/5=2) pseudo=read geom=check gue
 ss=(read,tcheck) scf=(maxcycle=1)
 ----------------------------------------------------------------------
 -----
 title
 -----
 Structure from the checkpoint file:  "dimethylcarbamodithioic_acid.chk"
 Charge =  0 Multiplicity = 1

                         Standard orientation:
 ---------------------------------------------------------------------
 Center     Atomic      Atomic             Coordinates (Angstroms)
 Number     Number       Type             X           Y           Z
 ---------------------------------------------------------------------
      1          6           0       -1.974833    0.997968    0.019134
      2          7           0       -1.035538   -0.121579   -0.049562
      3          6           0       -1.596834   -1.468210    0.005922
      4          6           0        0.285310    0.130885   -0.019832
      5         16           0        1.322882   -1.336523    0.009919
      6         16           0        0.951587    1.656130    0.001950
      7          1           0       -1.857982    1.544153    0.955692
      8          1           0       -1.791240    1.695551   -0.795852
      9          1           0       -2.985427    0.605274   -0.050728
     10          1           0       -0.950304   -2.175190   -0.507850
     11          1           0       -1.737185   -1.803323    1.037130
     12          1           0       -2.560576   -1.471415   -0.497443
     13          1           0        2.458114   -0.621579   -0.015256
 ---------------------------------------------------------------------

 SCF Done:  E(RHF) =  -967.291902880     A.U. after    2 cycles

 The electronic state is 1-A.
 Alpha  occ. eigenvalues --  -93.56716 -93.48196 -15.69084 -11.38488 -11.29795
 Alpha  occ. eigenvalues --  -11.28236  -8.86556  -8.78155  -6.20723  -6.20522
 Alpha  occ. eigenvalues --   -6.20144  -6.12390  -6.11860  -6.11794  -1.27314
 Alpha  occ. eigenvalues --   -1.06468  -1.00634  -0.94293  -0.90834  -0.74835
 Alpha  occ. eigenvalues --   -0.67166  -0.66974  -0.63488  -0.58682  -0.57430
 Alpha  occ. eigenvalues --   -0.56135  -0.54305  -0.49529  -0.47810  -0.38610
 Alpha  occ. eigenvalues --   -0.32561  -0.32227
 Alpha virt. eigenvalues --    0.02771   0.04248   0.04610   0.05177   0.06615
 Alpha virt. eigenvalues --    0.07508   0.07847   0.08918   0.09617   0.09833
 Alpha virt. eigenvalues --    0.10662   0.13272   0.13891   0.14338   0.15267

 Mulliken charges:
               1
     1  C    0.795236
     2  N   -0.297606
     3  C    0.754658
     4  C   -0.524290
     5  S    0.224408
     6  S   -0.205498
     7  H   -0.061138
     8  H   -0.098382
     9  H   -0.250681
    10  H   -0.186024
    11  H   -0.070062
    12  H   -0.180045
    13  H    0.099424
 Sum of Mulliken charges =  -0.00000

 Dipole moment (field-independent basis, Debye):
    X=             -3.3079    Y=             -2.9157    Z=              0.0018  Tot=              4.4094

 Test job not archived.
 1\1\GINC-SE252\SP\RHF\Aug-CC-pVDZ\C3H7N1S2\OHZDE\05-Apr-2025\0\\#t hf
 aug-cc-pvdz iop(5/13=1,5/36=2,99/5=2) pseudo=read geom=check guess=(re
 ad,tcheck) scf=(maxcycle=1)\\title\\0,1\C,0,-1.974833,0.997968,0.01913
 4\N,0,-1.035538,-0.121579,-0.049562\C,0,-1.596834,-1.46821,0.005922\C,
 0,0.28531,0.130885,-0.019832\S,0,1.322882,-1.336523,0.009919\S,0,0.951
 587,1.65613,0.00195\H,0,-1.857982,1.544153,0.955692\H,0,-1.79124,1.695
 551,-0.795852\H,0,-2.985427,0.605274,-0.050728\H,0,-0.950304,-2.17519,
 -0.50785\H,0,-1.737185,-1.803323,1.03713\H,0,-2.560576,-1.471415,-0.49

 Normal termination of Gaussian 16 at Sat Apr  5 22:56:17 2025.
