 Gaussian 16, Revision C.01,

 ----------------------------------------------------------------------
 #t hf aug-cc-pvdz symm=none int=(grid=ultrafine) guess=(read,tcheck) s
 table=(opt,rrhf)
 ----------------------------------------------------------------------
 -----
 title
 -----
 Symbolic Z-matrix:
 Charge =  0 Multiplicity = 1

 SCF Done:  E(RHF) =  -267.991564280     A.U. after   11 cycles
 Normal termination of Gaussian 16 at Sat Apr  5 22:55:11 2025.
 Gaussian 16:  ES64L-G16RevC.01  3-Jul-2019

 ----------------------------------------------------------------------
 #t hf aug-cc-pvdz iop(5/13=1,5/36=2,99/5=2) pseudo=read geom=check gue
 ss=(read,tcheck) scf=(maxcycle=1)
 ----------------------------------------------------------------------
 -----
 title
 -----
 Structure from the checkpoint file:  "dimethoxymethane.chk"
 Charge =  0 Multiplicity = 1

                         Standard orientation:
 ---------------------------------------------------------------------
 Center     Atomic      Atomic             Coordinates (Angstroms)
 Number     Number       Type             X           Y           Z
 ---------------------------------------------------------------------
      1          6           0        0.000000    1.856169   -0.553318
      2          6           0       -0.000000   -1.856169   -0.553318
      3          6           0        0.000000    0.000000    0.918263
      4          8           0       -0.768127    0.891716    0.154870
      5          8           0        0.768127   -0.891716    0.154870
      6          1           0        0.611878    2.448681    0.135651
      7          1           0       -0.705463    2.511536   -1.058607
      8          1           0        0.653146    1.386863   -1.291849
      9          1           0       -0.653146   -1.386863   -1.291849
     10          1           0       -0.611878   -2.448681    0.135651
     11          1           0        0.705463   -2.511536   -1.058607
     12          1           0        0.718837    0.541142    1.540958
     13          1           0       -0.718837   -0.541142    1.540958
 ---------------------------------------------------------------------

 SCF Done:  E(RHF) =  -268.082360301     A.U. after    2 cycles

 The electronic state is 1-A.
 Alpha  occ. eigenvalues --  -20.57557 -20.57555 -11.33817 -11.28166 -11.28166
 Alpha  occ. eigenvalues --   -1.37121  -1.30602  -0.98414  -0.93360  -0.84049
 Alpha  occ. eigenvalues --   -0.70123  -0.70088  -0.68701  -0.61856  -0.60936
 Alpha  occ. eigenvalues --   -0.58558  -0.53455  -0.52931  -0.47631  -0.45721
 Alpha  occ. eigenvalues --   -0.45654
 Alpha virt. eigenvalues --    0.03642   0.04661   0.05067   0.05461   0.06866
 Alpha virt. eigenvalues --    0.07094   0.07213   0.08265   0.12186   0.12200
 Alpha virt. eigenvalues --    0.12866   0.15128   0.15934   0.16525   0.17014

 Mulliken charges:
               1
     1  C    0.713334
     2  C    0.713334
     3  C    1.022132
     4  O   -0.651470
     5  O   -0.651470
     6  H   -0.057341
     7  H   -0.245596
     8  H   -0.056686
     9  H   -0.056686
    10  H   -0.057341
    11  H   -0.245596
    12  H   -0.213305
    13  H   -0.213305
 Sum of Mulliken charges =  -0.00000

 Dipole moment (field-independent basis, Debye):
    X=              0.0000    Y=             -0.0000    Z=             -0.1543  Tot=              0.1543

 Test job not archived.
 1\1\GINC-SE292\SP\RHF\Aug-CC-pVDZ\C3H8O2\OHZDE\05-Apr-2025\0\\#t hf au
 g-cc-pvdz iop(5/13=1,5/36=2,99/5=2) pseudo=read geom=check guess=(read
 ,tcheck) scf=(maxcycle=1)\\title\\0,1\C,0,0.,1.856169,-0.553318\C,0,0.
 ,-1.856169,-0.553318\C,0,0.,0.,0.918263\O,0,-0.768127,0.891716,0.15487
 \O,0,0.768127,-0.891716,0.15487\H,0,0.611878,2.448681,0.135651\H,0,-0.
 705463,2.511536,-1.058607\H,0,0.653146,1.386863,-1.291849\H,0,-0.65314
 6,-1.386863,-1.291849\H,0,-0.611878,-2.448681,0.135651\H,0,0.705463,-2
 .511536,-1.058607\H,0,0.718837,0.541142,1.540958\H,0,-0.718837,-0.5411

 Normal termination of Gaussian 16 at Sat Apr  5 22:55:47 2025.
