 Gaussian 16, Revision C.01,

 ----------------------------------------------------------------------
 #t hf aug-cc-pvdz symm=none int=(grid=ultrafine) guess=(read,tcheck) s
 table=(opt,rrhf)
 ----------------------------------------------------------------------
 -----
 title
 -----
 Symbolic Z-matrix:
 Charge =  0 Multiplicity = 1

 SCF Done:  E(RHF) =  -551.581585076     A.U. after   13 cycles
 Normal termination of Gaussian 16 at Sat Apr  5 22:56:05 2025.
 Gaussian 16:  ES64L-G16RevC.01  3-Jul-2019

 ----------------------------------------------------------------------
 #t hf aug-cc-pvdz iop(5/13=1,5/36=2,99/5=2) pseudo=read geom=check gue
 ss=(read,tcheck) scf=(maxcycle=1)
 ----------------------------------------------------------------------
 -----
 title
 -----
 Structure from the checkpoint file:  "dimethylsulfoxide.chk"
 Charge =  0 Multiplicity = 1

                         Standard orientation:
 ---------------------------------------------------------------------
 Center     Atomic      Atomic             Coordinates (Angstroms)
 Number     Number       Type             X           Y           Z
 ---------------------------------------------------------------------
      1          6           0       -0.259600   -0.785887    1.366100
      2          6           0       -0.259600   -0.785887   -1.366100
      3          8           0        1.100868    1.072126   -0.000000
      4         16           0       -0.259600    0.429008   -0.000000
      5          1           0       -0.208786   -0.213648    2.289139
      6          1           0        0.618458   -1.422179    1.270379
      7          1           0       -1.178748   -1.369415    1.337781
      8          1           0       -1.178748   -1.369415   -1.337781
      9          1           0        0.618458   -1.422179   -1.270379
     10          1           0       -0.208786   -0.213648   -2.289139
 ---------------------------------------------------------------------

 SCF Done:  E(RHF) =  -551.674229225     A.U. after    2 cycles

 The electronic state is 1-A'.
 Alpha  occ. eigenvalues --  -93.65780 -20.51534 -11.27580 -11.27564  -8.94152
 Alpha  occ. eigenvalues --   -6.28417  -6.28241  -6.27938  -1.29505  -1.05027
 Alpha  occ. eigenvalues --   -0.97326  -0.81427  -0.64483  -0.63141  -0.62526
 Alpha  occ. eigenvalues --   -0.59216  -0.56993  -0.55078  -0.52399  -0.43123
 Alpha  occ. eigenvalues --   -0.37713
 Alpha virt. eigenvalues --    0.02967   0.04394   0.05171   0.05764   0.07075
 Alpha virt. eigenvalues --    0.07468   0.08561   0.11641   0.13011   0.13563
 Alpha virt. eigenvalues --    0.14561   0.15301   0.16270   0.16642   0.17183

 Mulliken charges:
               1
     1  C    0.116288
     2  C    0.116288
     3  O   -1.042997
     4  S    1.035823
     5  H   -0.033877
     6  H   -0.040932
     7  H   -0.037893
     8  H   -0.037893
     9  H   -0.040932
    10  H   -0.033877
 Sum of Mulliken charges =  -0.00000

 Dipole moment (field-independent basis, Debye):
    X=             -3.1030    Y=             -3.7406    Z=              0.0000  Tot=              4.8601

 Test job not archived.
 1\1\GINC-SE180\SP\RHF\Aug-CC-pVDZ\C2H6O1S1\OHZDE\05-Apr-2025\0\\#t hf
 aug-cc-pvdz iop(5/13=1,5/36=2,99/5=2) pseudo=read geom=check guess=(re
 ad,tcheck) scf=(maxcycle=1)\\title\\0,1\C,0,-0.2596,-0.785887,1.3661\C
 ,0,-0.2596,-0.785887,-1.3661\O,0,1.100868,1.072126,0.\S,0,-0.2596,0.42
 9008,0.\H,0,-0.208786,-0.213648,2.289139\H,0,0.618458,-1.422179,1.2703
 79\H,0,-1.178748,-1.369415,1.337781\H,0,-1.178748,-1.369415,-1.337781\
 H,0,0.618458,-1.422179,-1.270379\H,0,-0.208786,-0.213648,-2.289139\\Ve
 rsion=ES64L-G16RevC.01\State=1-A'\HF=-551.6742292\RMSD=5.168e-03\Dipol

 Normal termination of Gaussian 16 at Sat Apr  5 22:56:08 2025.
