 Gaussian 16, Revision C.01,

 ----------------------------------------------------------------------
 #t hf aug-cc-pvdz symm=none int=(grid=ultrafine) guess=(read,tcheck) s
 table=(opt,rrhf)
 ----------------------------------------------------------------------
 -----
 title
 -----
 Symbolic Z-matrix:
 Charge =  0 Multiplicity = 1

 SCF Done:  E(RHF) =  -228.859640378     A.U. after   11 cycles
 Normal termination of Gaussian 16 at Sat Apr  5 22:56:04 2025.
 Gaussian 16:  ES64L-G16RevC.01  3-Jul-2019

 ----------------------------------------------------------------------
 #t hf aug-cc-pvdz iop(5/13=1,5/36=2,99/5=2) pseudo=read geom=check gue
 ss=(read,tcheck) scf=(maxcycle=1)
 ----------------------------------------------------------------------
 -----
 title
 -----
 Structure from the checkpoint file:  "dimethylperoxide.chk"
 Charge =  0 Multiplicity = 1

                         Standard orientation:
 ---------------------------------------------------------------------
 Center     Atomic      Atomic             Coordinates (Angstroms)
 Number     Number       Type             X           Y           Z
 ---------------------------------------------------------------------
      1          8           0       -0.437201    0.587681    0.000000
      2          8           0        0.437201   -0.587681    0.000000
      3          6           0       -0.437201   -1.696109    0.000000
      4          1           0       -1.064231   -1.705853    0.894667
      5          6           0        0.437201    1.696109    0.000000
      6          1           0        1.064231    1.705853   -0.894667
      7          1           0        1.064231    1.705853    0.894667
      8          1           0       -0.218746    2.566214    0.000000
      9          1           0        0.218746   -2.566214    0.000000
     10          1           0       -1.064231   -1.705853   -0.894667
 ---------------------------------------------------------------------

 SCF Done:  E(RHF) =  -228.937211618     A.U. after    2 cycles

 The electronic state is 1-AG.
 Alpha  occ. eigenvalues --  -20.63123 -20.63096 -11.28674 -11.28674  -1.41825
 Alpha  occ. eigenvalues --   -1.22056  -0.92739  -0.90381  -0.69733  -0.68682
 Alpha  occ. eigenvalues --   -0.67724  -0.61239  -0.56615  -0.56454  -0.50899
 Alpha  occ. eigenvalues --   -0.50279  -0.43952
 Alpha virt. eigenvalues --    0.03693   0.04732   0.05616   0.05824   0.06640
 Alpha virt. eigenvalues --    0.07197   0.10070   0.13172   0.14210   0.15887
 Alpha virt. eigenvalues --    0.15981   0.16034   0.17724   0.18180   0.19799

 Mulliken charges:
               1
     1  O   -0.421568
     2  O   -0.421568
     3  C    0.831334
     4  H   -0.105662
     5  C    0.831334
     6  H   -0.105662
     7  H   -0.105662
     8  H   -0.198442
     9  H   -0.198442
    10  H   -0.105662
 Sum of Mulliken charges =  -0.00000

 Dipole moment (field-independent basis, Debye):
    X=              0.0000    Y=             -0.0000    Z=             -0.0000  Tot=              0.0000

 Test job not archived.
 1\1\GINC-SE158\SP\RHF\Aug-CC-pVDZ\C2H6O2\OHZDE\05-Apr-2025\0\\#t hf au
 g-cc-pvdz iop(5/13=1,5/36=2,99/5=2) pseudo=read geom=check guess=(read
 ,tcheck) scf=(maxcycle=1)\\title\\0,1\O,0,-0.437201,0.587681,0.\O,0,0.
 437201,-0.587681,0.\C,0,-0.437201,-1.696109,0.\H,0,-1.064231,-1.705853
 ,0.894667\C,0,0.437201,1.696109,0.\H,0,1.064231,1.705853,-0.894667\H,0
 ,1.064231,1.705853,0.894667\H,0,-0.218746,2.566214,0.\H,0,0.218746,-2.
 566214,0.\H,0,-1.064231,-1.705853,-0.894667\\Version=ES64L-G16RevC.01\
 State=1-AG\HF=-228.9372116\RMSD=2.066e-03\Dipole=0.,0.,0.\Quadrupole=-

 Normal termination of Gaussian 16 at Sat Apr  5 22:56:06 2025.
