 Gaussian 16, Revision C.01,

 ----------------------------------------------------------------------
 #t hf aug-cc-pvdz symm=none int=(grid=ultrafine) guess=(read,tcheck) s
 table=(opt,rrhf)
 ----------------------------------------------------------------------
 -----
 title
 -----
 Symbolic Z-matrix:
 Charge =  0 Multiplicity = 1

 SCF Done:  E(RHF) =  -1309.69099014     A.U. after   14 cycles
 Normal termination of Gaussian 16 at Sat Apr  5 22:56:02 2025.
 Gaussian 16:  ES64L-G16RevC.01  3-Jul-2019

 ----------------------------------------------------------------------
 #t hf aug-cc-pvdz iop(5/13=1,5/36=2,99/5=2) pseudo=read geom=check gue
 ss=(read,tcheck) scf=(maxcycle=1)
 ----------------------------------------------------------------------
 -----
 title
 -----
 Structure from the checkpoint file:  "dimethyl_carbonotrithioate.chk"
 Charge =  0 Multiplicity = 1

                         Standard orientation:
 ---------------------------------------------------------------------
 Center     Atomic      Atomic             Coordinates (Angstroms)
 Number     Number       Type             X           Y           Z
 ---------------------------------------------------------------------
      1          6           0        0.000000   -0.000000    0.036614
      2         16           0        0.000000   -0.000000    1.679557
      3         16           0        0.000000    1.427910   -0.995436
      4         16           0       -0.000000   -1.427910   -0.995436
      5          6           0        0.000000    2.795841    0.193673
      6          6           0       -0.000000   -2.795841    0.193673
      7          1           0        0.889349    2.757958    0.816057
      8          1           0        0.889349   -2.757958    0.816057
      9          1           0        0.000000    3.699161   -0.413472
     10          1           0       -0.889349    2.757958    0.816057
     11          1           0       -0.889349   -2.757958    0.816057
     12          1           0       -0.000000   -3.699161   -0.413472
 ---------------------------------------------------------------------

 SCF Done:  E(RHF) =  -1309.78936873     A.U. after    2 cycles

 The electronic state is 1-A1.
 Alpha  occ. eigenvalues --  -93.56845 -93.56839 -93.51205 -11.38115 -11.27806
 Alpha  occ. eigenvalues --  -11.27806  -8.86667  -8.86655  -8.81143  -6.20819
 Alpha  occ. eigenvalues --   -6.20786  -6.20568  -6.20531  -6.20247  -6.20245
 Alpha  occ. eigenvalues --   -6.15325  -6.14883  -6.14758  -1.13204  -1.04739
 Alpha  occ. eigenvalues --   -0.99200  -0.91740  -0.86484  -0.68940  -0.63472
 Alpha  occ. eigenvalues --   -0.61107  -0.60466  -0.59792  -0.57078  -0.52431
 Alpha  occ. eigenvalues --   -0.48696  -0.47908  -0.45639  -0.35996  -0.34452
 Alpha  occ. eigenvalues --   -0.33818
 Alpha virt. eigenvalues --    0.03586   0.03976   0.04438   0.05750   0.06521
 Alpha virt. eigenvalues --    0.06641   0.07334   0.07587   0.09429   0.10375
 Alpha virt. eigenvalues --    0.12060   0.12452   0.13766   0.13777   0.14738

 Mulliken charges:
               1
     1  C   -0.756706
     2  S   -0.069289
     3  S    0.458870
     4  S    0.458870
     5  C    0.121206
     6  C    0.121206
     7  H   -0.027979
     8  H   -0.027979
     9  H   -0.111119
    10  H   -0.027979
    11  H   -0.027979
    12  H   -0.111119
 Sum of Mulliken charges =  -0.00000

 Dipole moment (field-independent basis, Debye):
    X=             -0.0000    Y=              0.0000    Z=             -0.2985  Tot=              0.2985

 Test job not archived.
 1\1\GINC-SE040\SP\RHF\Aug-CC-pVDZ\C3H6S3\OHZDE\05-Apr-2025\0\\#t hf au
 g-cc-pvdz iop(5/13=1,5/36=2,99/5=2) pseudo=read geom=check guess=(read
 ,tcheck) scf=(maxcycle=1)\\title\\0,1\C,0,0.,0.,0.036614\S,0,0.,0.,1.6
 79557\S,0,0.,1.42791,-0.995436\S,0,0.,-1.42791,-0.995436\C,0,0.,2.7958
 41,0.193673\C,0,0.,-2.795841,0.193673\H,0,0.889349,2.757958,0.816057\H
 ,0,0.889349,-2.757958,0.816057\H,0,0.,3.699161,-0.413472\H,0,-0.889349
 ,2.757958,0.816057\H,0,-0.889349,-2.757958,0.816057\H,0,0.,-3.699161,-
 0.413472\\Version=ES64L-G16RevC.01\State=1-A1\HF=-1309.7893687\RMSD=5.

 Normal termination of Gaussian 16 at Sat Apr  5 22:56:07 2025.
