 Gaussian 16, Revision C.01,

 ----------------------------------------------------------------------
 #t hf aug-cc-pvdz symm=none int=(grid=ultrafine) guess=(read,tcheck) s
 table=(opt,rrhf)
 ----------------------------------------------------------------------
 -----
 title
 -----
 Symbolic Z-matrix:
 Charge =  0 Multiplicity = 1

 SCF Done:  E(RHF) =  -874.302228089     A.U. after   13 cycles
 Normal termination of Gaussian 16 at Sat Apr  5 22:56:06 2025.
 Gaussian 16:  ES64L-G16RevC.01  3-Jul-2019

 ----------------------------------------------------------------------
 #t hf aug-cc-pvdz iop(5/13=1,5/36=2,99/5=2) pseudo=read geom=check gue
 ss=(read,tcheck) scf=(maxcycle=1)
 ----------------------------------------------------------------------
 -----
 title
 -----
 Structure from the checkpoint file:  "dimethyldisulfide.chk"
 Charge =  0 Multiplicity = 1

                         Standard orientation:
 ---------------------------------------------------------------------
 Center     Atomic      Atomic             Coordinates (Angstroms)
 Number     Number       Type             X           Y           Z
 ---------------------------------------------------------------------
      1          6           0       -0.975094    1.648785    0.791622
      2          6           0        0.975094   -1.648785    0.791622
      3         16           0       -0.975094    0.343346   -0.490829
      4         16           0        0.975094   -0.343346   -0.490829
      5          1           0       -0.781660    1.231798    1.776638
      6          1           0       -1.975350    2.081790    0.775132
      7          1           0       -0.243016    2.415025    0.551763
      8          1           0        0.781660   -1.231798    1.776638
      9          1           0        1.975350   -2.081790    0.775132
     10          1           0        0.243016   -2.415025    0.551763
 ---------------------------------------------------------------------

 SCF Done:  E(RHF) =  -874.372316546     A.U. after    2 cycles

 The electronic state is 1-A.
 Alpha  occ. eigenvalues --  -93.55375 -93.55373 -11.27013 -11.27013  -8.84965
 Alpha  occ. eigenvalues --   -8.84948  -6.19125  -6.19025  -6.18816  -6.18789
 Alpha  occ. eigenvalues --   -6.18493  -6.18484  -1.06566  -1.00037  -0.89841
 Alpha  occ. eigenvalues --   -0.77719  -0.61098  -0.60081  -0.59892  -0.58446
 Alpha  occ. eigenvalues --   -0.52712  -0.48645  -0.43382  -0.35550  -0.34974
 Alpha virt. eigenvalues --    0.03517   0.04398   0.05651   0.05766   0.06745
 Alpha virt. eigenvalues --    0.07868   0.08836   0.09628   0.12394   0.13964
 Alpha virt. eigenvalues --    0.14195   0.14755   0.15558   0.15745   0.16585

 Mulliken charges:
               1
     1  C    0.087857
     2  C    0.087857
     3  S    0.090599
     4  S    0.090599
     5  H   -0.073091
     6  H   -0.070710
     7  H   -0.034655
     8  H   -0.073091
     9  H   -0.070710
    10  H   -0.034655
 Sum of Mulliken charges =  -0.00000

 Dipole moment (field-independent basis, Debye):
    X=              0.0000    Y=              0.0000    Z=              2.2669  Tot=              2.2669

 Test job not archived.
 1\1\GINC-SE042\SP\RHF\Aug-CC-pVDZ\C2H6S2\OHZDE\05-Apr-2025\0\\#t hf au
 g-cc-pvdz iop(5/13=1,5/36=2,99/5=2) pseudo=read geom=check guess=(read
 ,tcheck) scf=(maxcycle=1)\\title\\0,1\C,0,-0.975094,1.648785,0.791622\
 C,0,0.975094,-1.648785,0.791622\S,0,-0.975094,0.343346,-0.490829\S,0,0
 .975094,-0.343346,-0.490829\H,0,-0.78166,1.231798,1.776638\H,0,-1.9753
 5,2.08179,0.775132\H,0,-0.243016,2.415025,0.551763\H,0,0.78166,-1.2317
 98,1.776638\H,0,1.97535,-2.08179,0.775132\H,0,0.243016,-2.415025,0.551
 763\\Version=ES64L-G16RevC.01\State=1-A\HF=-874.3723165\RMSD=4.579e-03

 Normal termination of Gaussian 16 at Sat Apr  5 22:56:10 2025.
