 Gaussian 16, Revision C.01,

 ----------------------------------------------------------------------
 #t hf aug-cc-pvdz symm=none int=(grid=ultrafine) guess=(read,tcheck) s
 table=(opt,rrhf)
 ----------------------------------------------------------------------
 -----
 title
 -----
 Symbolic Z-matrix:
 Charge =  0 Multiplicity = 1

 SCF Done:  E(RHF) =  -1271.84020806     A.U. after   13 cycles
 Normal termination of Gaussian 16 at Sat Apr  5 22:55:55 2025.
 Gaussian 16:  ES64L-G16RevC.01  3-Jul-2019

 ----------------------------------------------------------------------
 #t hf aug-cc-pvdz iop(5/13=1,5/36=2,99/5=2) pseudo=read geom=check gue
 ss=(read,tcheck) scf=(maxcycle=1)
 ----------------------------------------------------------------------
 -----
 title
 -----
 Structure from the checkpoint file:  "dimethyl_trisulfide.chk"
 Charge =  0 Multiplicity = 1

                         Standard orientation:
 ---------------------------------------------------------------------
 Center     Atomic      Atomic             Coordinates (Angstroms)
 Number     Number       Type             X           Y           Z
 ---------------------------------------------------------------------
      1         16           0        0.000000    0.000000    1.056821
      2         16           0        0.000000    1.684277   -0.162632
      3         16           0       -0.000000   -1.684277   -0.162632
      4          6           0        1.760232    1.865036   -0.616415
      5          6           0       -1.760232   -1.865036   -0.616415
      6          1           0        1.824265    2.768057   -1.223005
      7          1           0       -1.824265   -2.768057   -1.223005
      8          1           0        2.373978    1.976752    0.273229
      9          1           0        2.086891    1.011010   -1.204189
     10          1           0       -2.373978   -1.976752    0.273229
     11          1           0       -2.086891   -1.011010   -1.204189
 ---------------------------------------------------------------------

 SCF Done:  E(RHF) =  -1271.93018647     A.U. after    2 cycles

 The electronic state is 1-A.
 Alpha  occ. eigenvalues --  -93.58081 -93.56080 -93.56080 -11.27316 -11.27316
 Alpha  occ. eigenvalues --   -8.87501  -8.85693  -8.85677  -6.21577  -6.21293
 Alpha  occ. eigenvalues --   -6.20974  -6.19812  -6.19757  -6.19528  -6.19517
 Alpha  occ. eigenvalues --   -6.19210  -6.19196  -1.07769  -1.03038  -0.95479
 Alpha  occ. eigenvalues --   -0.86128  -0.76453  -0.61136  -0.60557  -0.59860
 Alpha  occ. eigenvalues --   -0.59511  -0.54856  -0.49750  -0.47498  -0.46219
 Alpha  occ. eigenvalues --   -0.36822  -0.35958  -0.35154
 Alpha virt. eigenvalues --    0.03700   0.04262   0.05677   0.05682   0.06600
 Alpha virt. eigenvalues --    0.06947   0.07847   0.08794   0.09833   0.12454
 Alpha virt. eigenvalues --    0.12625   0.13923   0.14039   0.14487   0.14820

 Mulliken charges:
               1
     1  S   -0.080258
     2  S    0.123663
     3  S    0.123663
     4  C    0.068655
     5  C    0.068655
     6  H   -0.071934
     7  H   -0.071934
     8  H   -0.041631
     9  H   -0.038624
    10  H   -0.041631
    11  H   -0.038624
 Sum of Mulliken charges =  -0.00000

 Dipole moment (field-independent basis, Debye):
    X=             -0.0000    Y=             -0.0000    Z=             -1.3501  Tot=              1.3501

 Test job not archived.
 1\1\GINC-SE194\SP\RHF\Aug-CC-pVDZ\C2H6S3\OHZDE\05-Apr-2025\0\\#t hf au
 g-cc-pvdz iop(5/13=1,5/36=2,99/5=2) pseudo=read geom=check guess=(read
 ,tcheck) scf=(maxcycle=1)\\title\\0,1\S,0,0.,0.,1.056821\S,0,0.,1.6842
 77,-0.162632\S,0,0.,-1.684277,-0.162632\C,0,1.760232,1.865036,-0.61641
 5\C,0,-1.760232,-1.865036,-0.616415\H,0,1.824265,2.768057,-1.223005\H,
 0,-1.824265,-2.768057,-1.223005\H,0,2.373978,1.976752,0.273229\H,0,2.0
 86891,1.01101,-1.204189\H,0,-2.373978,-1.976752,0.273229\H,0,-2.086891
 ,-1.01101,-1.204189\\Version=ES64L-G16RevC.01\State=1-A\HF=-1271.93018

 Normal termination of Gaussian 16 at Sat Apr  5 22:55:59 2025.
