 Gaussian 16, Revision C.01,

 ----------------------------------------------------------------------
 #t hf aug-cc-pvdz symm=none int=(grid=ultrafine) guess=(read,tcheck) s
 table=(opt,rrhf)
 ----------------------------------------------------------------------
 -----
 title
 -----
 Symbolic Z-matrix:
 Charge =  0 Multiplicity = 1

 SCF Done:  E(RHF) =  -341.746610525     A.U. after   13 cycles
 Normal termination of Gaussian 16 at Sat Apr  5 22:56:11 2025.
 Gaussian 16:  ES64L-G16RevC.01  3-Jul-2019

 ----------------------------------------------------------------------
 #t hf aug-cc-pvdz iop(5/13=1,5/36=2,99/5=2) pseudo=read geom=check gue
 ss=(read,tcheck) scf=(maxcycle=1)
 ----------------------------------------------------------------------
 -----
 title
 -----
 Structure from the checkpoint file:  "dimethylcarbonate.chk"
 Charge =  0 Multiplicity = 1

                         Standard orientation:
 ---------------------------------------------------------------------
 Center     Atomic      Atomic             Coordinates (Angstroms)
 Number     Number       Type             X           Y           Z
 ---------------------------------------------------------------------
      1          6           0       -0.000000   -0.000000    0.075891
      2          6           0        0.000000    2.340391   -0.016158
      3          6           0       -0.000000   -2.340391   -0.016158
      4          8           0       -0.000000   -0.000000    1.281653
      5          8           0        0.000000    1.081938   -0.709482
      6          8           0       -0.000000   -1.081938   -0.709482
      7          1           0       -0.887790    2.432734    0.606454
      8          1           0        0.000000    3.096867   -0.794390
      9          1           0        0.887790    2.432734    0.606454
     10          1           0       -0.000000   -3.096867   -0.794390
     11          1           0       -0.887790   -2.432734    0.606454
     12          1           0        0.887790   -2.432734    0.606454
 ---------------------------------------------------------------------

 SCF Done:  E(RHF) =  -341.861694815     A.U. after    2 cycles

 The electronic state is 1-A1.
 Alpha  occ. eigenvalues --  -20.62486 -20.62483 -20.56263 -11.44659 -11.30260
 Alpha  occ. eigenvalues --  -11.30260  -1.46434  -1.36491  -1.33194  -1.01571
 Alpha  occ. eigenvalues --   -0.94310  -0.80298  -0.76709  -0.72198  -0.71449
 Alpha  occ. eigenvalues --   -0.65332  -0.64010  -0.61423  -0.56764  -0.55689
 Alpha  occ. eigenvalues --   -0.54395  -0.49521  -0.49120  -0.49030
 Alpha virt. eigenvalues --    0.03476   0.04294   0.05676   0.05696   0.06452
 Alpha virt. eigenvalues --    0.07051   0.08419   0.11275   0.13113   0.13800
 Alpha virt. eigenvalues --    0.14740   0.15352   0.15720   0.15757   0.17275

 Mulliken charges:
               1
     1  C    0.647371
     2  C    0.756158
     3  C    0.756158
     4  O   -0.384061
     5  O   -0.528188
     6  O   -0.528188
     7  H   -0.058236
     8  H   -0.243153
     9  H   -0.058236
    10  H   -0.243153
    11  H   -0.058236
    12  H   -0.058236
 Sum of Mulliken charges =   0.00000

 Dipole moment (field-independent basis, Debye):
    X=             -0.0000    Y=             -0.0000    Z=             -0.3832  Tot=              0.3832

 Test job not archived.
 1\1\GINC-SE028\SP\RHF\Aug-CC-pVDZ\C3H6O3\OHZDE\05-Apr-2025\0\\#t hf au
 g-cc-pvdz iop(5/13=1,5/36=2,99/5=2) pseudo=read geom=check guess=(read
 ,tcheck) scf=(maxcycle=1)\\title\\0,1\C,0,0.,0.,0.075891\C,0,0.,2.3403
 91,-0.016158\C,0,0.,-2.340391,-0.016158\O,0,0.,0.,1.281653\O,0,0.,1.08
 1938,-0.709482\O,0,0.,-1.081938,-0.709482\H,0,-0.88779,2.432734,0.6064
 54\H,0,0.,3.096867,-0.79439\H,0,0.88779,2.432734,0.606454\H,0,0.,-3.09
 6867,-0.79439\H,0,-0.88779,-2.432734,0.606454\H,0,0.88779,-2.432734,0.
 606454\\Version=ES64L-G16RevC.01\State=1-A1\HF=-341.8616948\RMSD=2.226

 Normal termination of Gaussian 16 at Sat Apr  5 22:56:15 2025.
