 Gaussian 16, Revision C.01,

 ----------------------------------------------------------------------
 #t hf aug-cc-pvdz symm=none int=(grid=ultrafine) guess=(read,tcheck) s
 table=(opt,rrhf)
 ----------------------------------------------------------------------
 -----
 title
 -----
 Symbolic Z-matrix:
 Charge =  0 Multiplicity = 1

 SCF Done:  E(RHF) =  -701.299579148     A.U. after   13 cycles
 Normal termination of Gaussian 16 at Sat Apr  5 22:55:57 2025.
 Gaussian 16:  ES64L-G16RevC.01  3-Jul-2019

 ----------------------------------------------------------------------
 #t hf aug-cc-pvdz iop(5/13=1,5/36=2,99/5=2) pseudo=read geom=check gue
 ss=(read,tcheck) scf=(maxcycle=1)
 ----------------------------------------------------------------------
 -----
 title
 -----
 Structure from the checkpoint file:  "dimethoxysulfoxide.chk"
 Charge =  0 Multiplicity = 1

                         Standard orientation:
 ---------------------------------------------------------------------
 Center     Atomic      Atomic             Coordinates (Angstroms)
 Number     Number       Type             X           Y           Z
 ---------------------------------------------------------------------
      1         16           0        0.000000   -0.857107   -0.318004
      2          8           0        0.000000   -1.053613    1.137761
      3          8           0        1.279962    0.121780   -0.679264
      4          8           0       -1.279962    0.121780   -0.679265
      5          6           0        1.785232    1.045978    0.304035
      6          6           0       -1.785232    1.045978    0.304035
      7          1           0        2.837899    1.182815    0.071216
      8          1           0       -2.837900    1.182815    0.071215
      9          1           0        1.263493    1.999548    0.224505
     10          1           0        1.675420    0.638837    1.307173
     11          1           0       -1.675421    0.638836    1.307172
     12          1           0       -1.263493    1.999547    0.224506
 ---------------------------------------------------------------------

 SCF Done:  E(RHF) =  -701.454937254     A.U. after    2 cycles

 The electronic state is 1-A.
 Alpha  occ. eigenvalues --  -93.76394 -20.62032 -20.62029 -20.56410 -11.30544
 Alpha  occ. eigenvalues --  -11.30543  -9.03319  -6.37555  -6.37484  -6.37001
 Alpha  occ. eigenvalues --   -1.42734  -1.34389  -1.31301  -1.00932  -0.95229
 Alpha  occ. eigenvalues --   -0.84280  -0.73638  -0.71192  -0.68840  -0.66175
 Alpha  occ. eigenvalues --   -0.64799  -0.64273  -0.57442  -0.55082  -0.53960
 Alpha  occ. eigenvalues --   -0.51826  -0.50000  -0.48594  -0.44047
 Alpha virt. eigenvalues --    0.03299   0.04304   0.05663   0.06083   0.07525
 Alpha virt. eigenvalues --    0.07814   0.07928   0.10316   0.10924   0.11007
 Alpha virt. eigenvalues --    0.13996   0.15221   0.16211   0.16640   0.17246

 Mulliken charges:
               1
     1  S    1.883999
     2  O   -0.947364
     3  O   -0.869890
     4  O   -0.869891
     5  C    0.816533
     6  C    0.816534
     7  H   -0.202811
     8  H   -0.202806
     9  H   -0.125081
    10  H   -0.087069
    11  H   -0.087071
    12  H   -0.125084
 Sum of Mulliken charges =  -0.00000

 Dipole moment (field-independent basis, Debye):
    X=             -0.0000    Y=              2.6312    Z=              0.2078  Tot=              2.6393

 Test job not archived.
 1\1\GINC-SE249\SP\RHF\Aug-CC-pVDZ\C2H6O3S1\OHZDE\05-Apr-2025\0\\#t hf
 aug-cc-pvdz iop(5/13=1,5/36=2,99/5=2) pseudo=read geom=check guess=(re
 ad,tcheck) scf=(maxcycle=1)\\title\\0,1\S,0,0.,-0.857107,-0.318004\O,0
 ,0.,-1.053613,1.137761\O,0,1.279962,0.12178,-0.679264\O,0,-1.279962,0.
 12178,-0.679265\C,0,1.785232,1.045978,0.304035\C,0,-1.785232,1.045978,
 0.304035\H,0,2.837899,1.182815,0.071216\H,0,-2.8379,1.182815,0.071215\
 H,0,1.263493,1.999548,0.224505\H,0,1.67542,0.638837,1.307173\H,0,-1.67
 5421,0.638836,1.307172\H,0,-1.263493,1.999547,0.224506\\Version=ES64L-

 Normal termination of Gaussian 16 at Sat Apr  5 22:56:01 2025.
