 Gaussian 16, Revision C.01,

 ----------------------------------------------------------------------
 #t hf aug-cc-pvdz symm=none int=(grid=ultrafine) guess=(read,tcheck) s
 table=(opt,rrhf)
 ----------------------------------------------------------------------
 -----
 title
 -----
 Symbolic Z-matrix:
 Charge =  0 Multiplicity = 1

 SCF Done:  E(RHF) =  -134.259959328     A.U. after   11 cycles
 Normal termination of Gaussian 16 at Sat Apr  5 22:55:49 2025.
 Gaussian 16:  ES64L-G16RevC.01  3-Jul-2019

 ----------------------------------------------------------------------
 #t hf aug-cc-pvdz iop(5/13=1,5/36=2,99/5=2) pseudo=read geom=check gue
 ss=(read,tcheck) scf=(maxcycle=1)
 ----------------------------------------------------------------------
 -----
 title
 -----
 Structure from the checkpoint file:  "dimethylamine.chk"
 Charge =  0 Multiplicity = 1

                         Standard orientation:
 ---------------------------------------------------------------------
 Center     Atomic      Atomic             Coordinates (Angstroms)
 Number     Number       Type             X           Y           Z
 ---------------------------------------------------------------------
      1          6           0        0.026505   -0.221412    1.216049
      2          6           0        0.026505   -0.221412   -1.216049
      3          7           0        0.026505    0.577608   -0.000000
      4          1           0       -0.798102   -0.949693    1.270491
      5          1           0       -0.034174    0.431778    2.086295
      6          1           0        0.962937   -0.778731    1.284180
      7          1           0       -0.034174    0.431778   -2.086295
      8          1           0       -0.798102   -0.949693   -1.270491
      9          1           0        0.962937   -0.778731   -1.284180
     10          1           0       -0.764915    1.206982    0.000000
 ---------------------------------------------------------------------

 SCF Done:  E(RHF) =  -134.305072719     A.U. after    2 cycles

 The electronic state is 1-A'.
 Alpha  occ. eigenvalues --  -15.60462 -11.25094 -11.25091  -1.16555  -0.94309
 Alpha  occ. eigenvalues --   -0.84643  -0.65936  -0.61230  -0.59085  -0.53975
 Alpha  occ. eigenvalues --   -0.51081  -0.50807  -0.36070
 Alpha virt. eigenvalues --    0.03593   0.04596   0.04775   0.05643   0.07717
 Alpha virt. eigenvalues --    0.08015   0.08320   0.12126   0.14217   0.14378
 Alpha virt. eigenvalues --    0.16214   0.17178   0.17471   0.17937   0.19563

 Mulliken charges:
               1
     1  C    0.741305
     2  C    0.741305
     3  N   -0.558932
     4  H   -0.083692
     5  H   -0.215961
     6  H   -0.149626
     7  H   -0.215961
     8  H   -0.083692
     9  H   -0.149626
    10  H   -0.025122
 Sum of Mulliken charges =  -0.00000

 Dipole moment (field-independent basis, Debye):
    X=             -0.9768    Y=             -0.4193    Z=             -0.0000  Tot=              1.0630

 Test job not archived.
 1\1\GINC-SE249\SP\RHF\Aug-CC-pVDZ\C2H7N1\OHZDE\05-Apr-2025\0\\#t hf au
 g-cc-pvdz iop(5/13=1,5/36=2,99/5=2) pseudo=read geom=check guess=(read
 ,tcheck) scf=(maxcycle=1)\\title\\0,1\C,0,0.026505,-0.221412,1.216049\
 C,0,0.026505,-0.221412,-1.216049\N,0,0.026505,0.577608,0.\H,0,-0.79810
 2,-0.949693,1.270491\H,0,-0.034174,0.431778,2.086295\H,0,0.962937,-0.7
 78731,1.28418\H,0,-0.034174,0.431778,-2.086295\H,0,-0.798102,-0.949693
 ,-1.270491\H,0,0.962937,-0.778731,-1.28418\H,0,-0.764915,1.206982,0.\\
 Version=ES64L-G16RevC.01\State=1-A'\HF=-134.3050727\RMSD=1.593e-03\Dip

 Normal termination of Gaussian 16 at Sat Apr  5 22:55:52 2025.
