 Gaussian 16, Revision C.01,

 ----------------------------------------------------------------------
 #t hf aug-cc-pvdz symm=none int=(grid=ultrafine) guess=(read,tcheck) s
 table=(opt,rrhf)
 ----------------------------------------------------------------------
 -----
 title
 -----
 Symbolic Z-matrix:
 Charge =  0 Multiplicity = 1

 SCF Done:  E(RHF) =  -337.752170121     A.U. after   14 cycles
 Normal termination of Gaussian 16 at Sat Apr  5 22:56:11 2025.
 Gaussian 16:  ES64L-G16RevC.01  3-Jul-2019

 ----------------------------------------------------------------------
 #t hf aug-cc-pvdz iop(5/13=1,5/36=2,99/5=2) pseudo=read geom=check gue
 ss=(read,tcheck) scf=(maxcycle=1)
 ----------------------------------------------------------------------
 -----
 title
 -----
 Structure from the checkpoint file:  "dimethylnitroamine.chk"
 Charge =  0 Multiplicity = 1

                         Standard orientation:
 ---------------------------------------------------------------------
 Center     Atomic      Atomic             Coordinates (Angstroms)
 Number     Number       Type             X           Y           Z
 ---------------------------------------------------------------------
      1          8           0       -0.037714   -1.357944    1.090603
      2          8           0       -0.037714   -1.357944   -1.090603
      3          1           0       -1.093723    1.213482    1.547438
      4          1           0        0.276620    2.273597    1.142183
      5          1           0        0.546613    0.777805    2.052059
      6          6           0       -0.037714    1.240481    1.264007
      7          1           0       -1.093723    1.213482   -1.547438
      8          1           0        0.546613    0.777805   -2.052059
      9          1           0        0.276620    2.273597   -1.142183
     10          6           0       -0.037714    1.240481   -1.264007
     11          7           0        0.022482   -0.802092    0.000000
     12          7           0        0.205657    0.560886   -0.000000
 ---------------------------------------------------------------------

 SCF Done:  E(RHF) =  -337.858830680     A.U. after    2 cycles

 The electronic state is 1-A'.
 Alpha  occ. eigenvalues --  -20.60826 -20.60817 -15.94467 -15.71456 -11.29569
 Alpha  occ. eigenvalues --  -11.29564  -1.56160  -1.36576  -1.26409  -1.00261
 Alpha  occ. eigenvalues --   -1.00051  -0.82081  -0.77063  -0.75601  -0.74443
 Alpha  occ. eigenvalues --   -0.64278  -0.63797  -0.60758  -0.59145  -0.57084
 Alpha  occ. eigenvalues --   -0.52551  -0.50259  -0.47804  -0.41574
 Alpha virt. eigenvalues --    0.02551   0.04012   0.04472   0.05773   0.07218
 Alpha virt. eigenvalues --    0.07550   0.09340   0.10565   0.13006   0.13467
 Alpha virt. eigenvalues --    0.13498   0.15762   0.16165   0.16707   0.17212

 Mulliken charges:
               1
     1  O   -0.537089
     2  O   -0.537089
     3  H   -0.057570
     4  H   -0.184212
     5  H   -0.148400
     6  C    0.854580
     7  H   -0.057570
     8  H   -0.148400
     9  H   -0.184212
    10  C    0.854580
    11  N    0.437137
    12  N   -0.291756
 Sum of Mulliken charges =  -0.00000

 Dipole moment (field-independent basis, Debye):
    X=             -0.0900    Y=              5.1937    Z=              0.0000  Tot=              5.1945

 Test job not archived.
 1\1\GINC-SE115\SP\RHF\Aug-CC-pVDZ\C2H6N2O2\OHZDE\05-Apr-2025\0\\#t hf
 aug-cc-pvdz iop(5/13=1,5/36=2,99/5=2) pseudo=read geom=check guess=(re
 ad,tcheck) scf=(maxcycle=1)\\title\\0,1\O,0,-0.037714,-1.357944,1.0906
 03\O,0,-0.037714,-1.357944,-1.090603\H,0,-1.093723,1.213482,1.547438\H
 ,0,0.27662,2.273597,1.142183\H,0,0.546613,0.777805,2.052059\C,0,-0.037
 714,1.240481,1.264007\H,0,-1.093723,1.213482,-1.547438\H,0,0.546613,0.
 777805,-2.052059\H,0,0.27662,2.273597,-1.142183\C,0,-0.037714,1.240481
 ,-1.264007\N,0,0.022482,-0.802092,0.\N,0,0.205657,0.560886,0.\\Version

 Normal termination of Gaussian 16 at Sat Apr  5 22:56:15 2025.
