 Gaussian 16, Revision C.01,

 ----------------------------------------------------------------------
 #t hf aug-cc-pvdz symm=none int=(grid=ultrafine) guess=(read,tcheck) s
 table=(opt,rrhf)
 ----------------------------------------------------------------------
 -----
 title
 -----
 Symbolic Z-matrix:
 Charge =  0 Multiplicity = 1

 SCF Done:  E(RHF) =  -625.204127828     A.U. after   15 cycles
 Normal termination of Gaussian 16 at Sat Apr  5 22:56:06 2025.
 Gaussian 16:  ES64L-G16RevC.01  3-Jul-2019

 ----------------------------------------------------------------------
 #t hf aug-cc-pvdz iop(5/13=1,5/36=2,99/5=2) pseudo=read geom=check gue
 ss=(read,tcheck) scf=(maxcycle=1)
 ----------------------------------------------------------------------
 -----
 title
 -----
 Structure from the checkpoint file:  "dioxathiolane.chk"
 Charge =  0 Multiplicity = 1

                         Standard orientation:
 ---------------------------------------------------------------------
 Center     Atomic      Atomic             Coordinates (Angstroms)
 Number     Number       Type             X           Y           Z
 ---------------------------------------------------------------------
      1         16           0        1.236970    0.049907   -0.108638
      2          8           0        0.170344   -1.178406    0.365430
      3          8           0       -1.065349   -0.869992   -0.353876
      4          6           0       -0.081416    1.306104    0.072269
      5          6           0       -1.371008    0.445059    0.086653
      6          1           0       -0.029247    1.976188   -0.782424
      7          1           0        0.016390    1.873792    0.994257
      8          1           0       -2.117419    0.815604   -0.614952
      9          1           0       -1.786663    0.416113    1.095372
 ---------------------------------------------------------------------

 SCF Done:  E(RHF) =  -625.299928575     A.U. after    2 cycles

 The electronic state is 1-A.
 Alpha  occ. eigenvalues --  -93.59350 -20.66478 -20.65617 -11.32107 -11.29251
 Alpha  occ. eigenvalues --   -8.88551  -6.22730  -6.22443  -6.21994  -1.44494
 Alpha  occ. eigenvalues --   -1.22167  -1.07012  -0.89462  -0.85001  -0.71797
 Alpha  occ. eigenvalues --   -0.69865  -0.66180  -0.63057  -0.56965  -0.55010
 Alpha  occ. eigenvalues --   -0.53810  -0.48590  -0.47245  -0.36222
 Alpha virt. eigenvalues --    0.03220   0.04508   0.04751   0.06687   0.07420
 Alpha virt. eigenvalues --    0.08148   0.10610   0.11967   0.13331   0.14076
 Alpha virt. eigenvalues --    0.14660   0.16288   0.16440   0.16734   0.18502

 Mulliken charges:
               1
     1  S    0.813908
     2  O   -0.623255
     3  O   -0.432237
     4  C   -0.282343
     5  C    0.888370
     6  H   -0.025625
     7  H   -0.035459
     8  H   -0.156871
     9  H   -0.146487
 Sum of Mulliken charges =  -0.00000

 Dipole moment (field-independent basis, Debye):
    X=             -0.9992    Y=              3.7233    Z=              0.2597  Tot=              3.8638

 Test job not archived.
 1\1\GINC-SE183\SP\RHF\Aug-CC-pVDZ\C2H4O2S1\OHZDE\05-Apr-2025\0\\#t hf
 aug-cc-pvdz iop(5/13=1,5/36=2,99/5=2) pseudo=read geom=check guess=(re
 ad,tcheck) scf=(maxcycle=1)\\title\\0,1\S,0,1.23697,0.049907,-0.108638
 \O,0,0.170344,-1.178406,0.36543\O,0,-1.065349,-0.869992,-0.353876\C,0,
 -0.081416,1.306104,0.072269\C,0,-1.371008,0.445059,0.086653\H,0,-0.029
 247,1.976188,-0.782424\H,0,0.01639,1.873792,0.994257\H,0,-2.117419,0.8
 15604,-0.614952\H,0,-1.786663,0.416113,1.095372\\Version=ES64L-G16RevC
 .01\State=1-A\HF=-625.2999286\RMSD=5.121e-03\Dipole=-0.3931316,1.46487

 Normal termination of Gaussian 16 at Sat Apr  5 22:56:09 2025.
