 Gaussian 16, Revision C.01,

 ----------------------------------------------------------------------
 #t hf aug-cc-pvdz symm=none int=(grid=ultrafine) guess=(read,tcheck) s
 table=(opt,rrhf)
 ----------------------------------------------------------------------
 -----
 title
 -----
 Symbolic Z-matrix:
 Charge =  0 Multiplicity = 1

 SCF Done:  E(RHF) =  -188.633012641     A.U. after   12 cycles
 Normal termination of Gaussian 16 at Sat Apr  5 22:56:00 2025.
 Gaussian 16:  ES64L-G16RevC.01  3-Jul-2019

 ----------------------------------------------------------------------
 #t hf aug-cc-pvdz iop(5/13=1,5/36=2,99/5=2) pseudo=read geom=check gue
 ss=(read,tcheck) scf=(maxcycle=1)
 ----------------------------------------------------------------------
 -----
 title
 -----
 Structure from the checkpoint file:  "dioxirane.chk"
 Charge =  0 Multiplicity = 1

                         Standard orientation:
 ---------------------------------------------------------------------
 Center     Atomic      Atomic             Coordinates (Angstroms)
 Number     Number       Type             X           Y           Z
 ---------------------------------------------------------------------
      1          6           0        0.000000    0.000000    0.731328
      2          1           0        0.926417   -0.000000    1.301629
      3          1           0       -0.926417    0.000000    1.301629
      4          8           0        0.000000    0.749219   -0.436952
      5          8           0       -0.000000   -0.749219   -0.436952
 ---------------------------------------------------------------------

 SCF Done:  E(RHF) =  -188.695247511     A.U. after    2 cycles

 The electronic state is 1-A1.
 Alpha  occ. eigenvalues --  -20.66744 -20.66731 -11.38365  -1.50605  -1.17044
 Alpha  occ. eigenvalues --   -0.93457  -0.76355  -0.71319  -0.59475  -0.59245
 Alpha  occ. eigenvalues --   -0.54121  -0.51108
 Alpha virt. eigenvalues --    0.03224   0.04867   0.06703   0.09109   0.14527
 Alpha virt. eigenvalues --    0.15461   0.16179   0.19995   0.20114   0.22952
 Alpha virt. eigenvalues --    0.23247   0.23543   0.25234   0.31362   0.32106

 Mulliken charges:
               1
     1  C    1.082239
     2  H   -0.143631
     3  H   -0.143631
     4  O   -0.397488
     5  O   -0.397488
 Sum of Mulliken charges =  -0.00000

 Dipole moment (field-independent basis, Debye):
    X=              0.0000    Y=              0.0000    Z=              3.1314  Tot=              3.1314

 Test job not archived.
 1\1\GINC-SE226\SP\RHF\Aug-CC-pVDZ\C1H2O2\OHZDE\05-Apr-2025\0\\#t hf au
 g-cc-pvdz iop(5/13=1,5/36=2,99/5=2) pseudo=read geom=check guess=(read
 ,tcheck) scf=(maxcycle=1)\\title\\0,1\C,0,0.,0.,0.731328\H,0,0.926417,
 0.,1.301629\H,0,-0.926417,0.,1.301629\O,0,0.,0.749219,-0.436952\O,0,0.
 ,-0.749219,-0.436952\\Version=ES64L-G16RevC.01\State=1-A1\HF=-188.6952
 475\RMSD=3.235e-03\Dipole=0.,0.,1.2320044\Quadrupole=0.17326,-1.062165
 ,0.8889051,0.,0.,0.\PG=C02V [C2(C1),SGV(O2),SGV'(H2)]\\@

 Normal termination of Gaussian 16 at Sat Apr  5 22:56:01 2025.
