 Gaussian 16, Revision C.01,

 ----------------------------------------------------------------------
 #t hf aug-cc-pvdz symm=none int=(grid=ultrafine) guess=(read,tcheck) s
 table=(opt,rrhf)
 ----------------------------------------------------------------------
 -----
 title
 -----
 Symbolic Z-matrix:
 Charge =  0 Multiplicity = 1

 SCF Done:  E(RHF) =  -932.633679520     A.U. after   16 cycles
 Normal termination of Gaussian 16 at Sat Apr  5 23:02:35 2025.
 Gaussian 16:  ES64L-G16RevC.01  3-Jul-2019

 ----------------------------------------------------------------------
 #t hf aug-cc-pvdz iop(5/13=1,5/36=2,99/5=2) pseudo=read geom=check gue
 ss=(read,tcheck) scf=(maxcycle=1)
 ----------------------------------------------------------------------
 -----
 title
 -----
 Structure from the checkpoint file:  "diphenylsulfoxide.chk"
 Charge =  0 Multiplicity = 1

                         Standard orientation:
 ---------------------------------------------------------------------
 Center     Atomic      Atomic             Coordinates (Angstroms)
 Number     Number       Type             X           Y           Z
 ---------------------------------------------------------------------
      1         16           0       -0.000000    1.198969   -1.022088
      2          8           0       -0.000019    2.525292   -0.313898
      3          6           0       -1.379883    0.233902   -0.310543
      4          6           0       -1.827639   -0.916094   -0.948304
      5          6           0       -2.903944   -1.613131   -0.411977
      6          6           0       -3.530081   -1.148516    0.740491
      7          6           0       -3.084519    0.016906    1.355299
      8          6           0       -2.005880    0.718377    0.827890
      9          6           0        1.379888    0.233926   -0.310531
     10          6           0        2.005793    0.718340    0.827976
     11          6           0        3.084431    0.016873    1.355398
     12          6           0        3.530079   -1.148482    0.740528
     13          6           0        2.904037   -1.613032   -0.412019
     14          6           0        1.827738   -0.915998   -0.948359
     15          1           0       -1.351533   -1.264663   -1.855542
     16          1           0       -3.259487   -2.510929   -0.899140
     17          1           0       -4.371765   -1.688895    1.151883
     18          1           0       -3.580077    0.384290    2.243835
     19          1           0       -1.652216    1.637972    1.273661
     20          1           0        1.652066    1.637890    1.273792
     21          1           0        3.579920    0.384210    2.243992
     22          1           0        4.371760   -1.688857    1.151931
     23          1           0        3.259655   -2.510772   -0.899234
     24          1           0        1.351714   -1.264502   -1.855665
 ---------------------------------------------------------------------

 SCF Done:  E(RHF) =  -932.830637598     A.U. after    2 cycles

 The electronic state is 1-A.
 Alpha  occ. eigenvalues --  -93.66786 -20.52450 -11.28055 -11.28036 -11.26635
 Alpha  occ. eigenvalues --  -11.26634 -11.26020 -11.26020 -11.25909 -11.25908
 Alpha  occ. eigenvalues --  -11.25806 -11.25805 -11.25687 -11.25686  -8.95077
 Alpha  occ. eigenvalues --   -6.29363  -6.29232  -6.28933  -1.30602  -1.16596
 Alpha  occ. eigenvalues --   -1.16133  -1.05488  -1.02884  -1.02795  -1.02686
 Alpha  occ. eigenvalues --   -0.92393  -0.85058  -0.84572  -0.83736  -0.79944
 Alpha  occ. eigenvalues --   -0.72879  -0.71484  -0.65696  -0.65547  -0.64795
 Alpha  occ. eigenvalues --   -0.64489  -0.61624  -0.61545  -0.60758  -0.60710
 Alpha  occ. eigenvalues --   -0.55585  -0.53636  -0.53163  -0.52444  -0.51525
 Alpha  occ. eigenvalues --   -0.51453  -0.51445  -0.44161  -0.41159  -0.35885
 Alpha  occ. eigenvalues --   -0.35264  -0.35100  -0.34644
 Alpha virt. eigenvalues --    0.02897   0.03398   0.03660   0.04685   0.04734
 Alpha virt. eigenvalues --    0.05863   0.05998   0.07180   0.07420   0.07610
 Alpha virt. eigenvalues --    0.08516   0.08933   0.09564   0.09928   0.10213

 Mulliken charges:
               1
     1  S    1.146004
     2  O   -1.097068
     3  C    0.421519
     4  C    0.248611
     5  C    0.489542
     6  C    0.637082
     7  C    0.585886
     8  C    0.108732
     9  C    0.421565
    10  C    0.108752
    11  C    0.585890
    12  C    0.637061
    13  C    0.489515
    14  C    0.248612
    15  H   -0.563377
    16  H   -0.471308
    17  H   -0.447674
    18  H   -0.450127
    19  H   -0.583373
    20  H   -0.583357
    21  H   -0.450129
    22  H   -0.447673
    23  H   -0.471304
    24  H   -0.563381
 Sum of Mulliken charges =  -0.00000

 Dipole moment (field-independent basis, Debye):
    X=              0.0001    Y=             -4.6675    Z=              0.4808  Tot=              4.6922

 Test job not archived.
 1\1\GINC-SE231\SP\RHF\Aug-CC-pVDZ\C12H10O1S1\OHZDE\05-Apr-2025\0\\#t h
 f aug-cc-pvdz iop(5/13=1,5/36=2,99/5=2) pseudo=read geom=check guess=(
 read,tcheck) scf=(maxcycle=1)\\title\\0,1\S,0,0.,1.198969,-1.022088\O,
 0,-0.000019,2.525292,-0.313898\C,0,-1.379883,0.233902,-0.310543\C,0,-1
 .827639,-0.916094,-0.948304\C,0,-2.903944,-1.613131,-0.411977\C,0,-3.5
 30081,-1.148516,0.740491\C,0,-3.084519,0.016906,1.355299\C,0,-2.00588,
 0.718377,0.82789\C,0,1.379888,0.233926,-0.310531\C,0,2.005793,0.71834,
 0.827976\C,0,3.084431,0.016873,1.355398\C,0,3.530079,-1.148482,0.74052

 Normal termination of Gaussian 16 at Sat Apr  5 23:03:26 2025.
