 Gaussian 16, Revision C.01,

 ----------------------------------------------------------------------
 #t hf aug-cc-pvdz symm=none int=(grid=ultrafine) guess=(read,tcheck) s
 table=(opt,rrhf)
 ----------------------------------------------------------------------
 -----
 title
 -----
 Symbolic Z-matrix:
 Charge =  0 Multiplicity = 1

 SCF Done:  E(RHF) =  -290.420573642     A.U. after   11 cycles

 1\1\GINC-SE199\Stability\RHF\Aug-CC-pVDZ\C6H15N1\OHZDE\05-Apr-2025\0\\
 #t hf aug-cc-pvdz symm=none int=(grid=ultrafine) guess=(read,tcheck) s
 table=(opt,rrhf)\\title\\0,1\C,0,0.002905,-0.287931,3.765494\C,0,0.002
 905,-0.287931,-3.765494\C,0,0.002905,0.516132,2.466843\C,0,0.002905,0.
 516132,-2.466843\C,0,0.019045,-0.366124,1.223486\C,0,0.019045,-0.36612
 4,-1.223486\N,0,0.04109,0.425929,0.\H,0,-0.869191,-0.941707,3.829272\H
 ,0,0.892625,-0.916399,3.840202\H,0,-0.011524,0.368209,4.636319\H,0,0.8
 92625,-0.916399,-3.840202\H,0,-0.869191,-0.941707,-3.829272\H,0,-0.011

 Normal termination of Gaussian 16 at Sat Apr  5 22:57:03 2025.
 Gaussian 16:  ES64L-G16RevC.01  3-Jul-2019

 ----------------------------------------------------------------------
 #t hf aug-cc-pvdz iop(5/13=1,5/36=2,99/5=2) pseudo=read geom=check gue
 ss=(read,tcheck) scf=(maxcycle=1)
 ----------------------------------------------------------------------
 -----
 title
 -----
 Structure from the checkpoint file:  "dipropylamine.chk"
 Charge =  0 Multiplicity = 1

                         Standard orientation:
 ---------------------------------------------------------------------
 Center     Atomic      Atomic             Coordinates (Angstroms)
 Number     Number       Type             X           Y           Z
 ---------------------------------------------------------------------
      1          6           0        0.002905   -0.287931    3.765494
      2          6           0        0.002905   -0.287931   -3.765494
      3          6           0        0.002905    0.516132    2.466843
      4          6           0        0.002905    0.516132   -2.466843
      5          6           0        0.019045   -0.366124    1.223486
      6          6           0        0.019045   -0.366124   -1.223486
      7          7           0        0.041090    0.425929   -0.000000
      8          1           0       -0.869191   -0.941707    3.829272
      9          1           0        0.892625   -0.916399    3.840202
     10          1           0       -0.011524    0.368209    4.636319
     11          1           0        0.892625   -0.916399   -3.840202
     12          1           0       -0.869191   -0.941707   -3.829272
     13          1           0       -0.011524    0.368209   -4.636319
     14          1           0        0.868617    1.180978    2.434926
     15          1           0       -0.882182    1.160098    2.437277
     16          1           0       -0.882182    1.160098   -2.437277
     17          1           0        0.868617    1.180978   -2.434926
     18          1           0       -0.839000   -1.059882    1.257260
     19          1           0        0.917482   -0.990937    1.233278
     20          1           0        0.917482   -0.990937   -1.233278
     21          1           0       -0.839000   -1.059882   -1.257260
     22          1           0       -0.739557    1.072851   -0.000000
 ---------------------------------------------------------------------

 SCF Done:  E(RHF) =  -290.513666690     A.U. after    2 cycles

 The electronic state is 1-A'.
 Alpha  occ. eigenvalues --  -15.59918 -11.25063 -11.25058 -11.22486 -11.22481
 Alpha  occ. eigenvalues --  -11.22168 -11.22167  -1.17209  -1.05337  -1.01493
 Alpha  occ. eigenvalues --   -0.92423  -0.86123  -0.80878  -0.79200  -0.66765
 Alpha  occ. eigenvalues --   -0.62701  -0.61493  -0.61486  -0.57399  -0.56426
 Alpha  occ. eigenvalues --   -0.52948  -0.52873  -0.51900  -0.48806  -0.48376
 Alpha  occ. eigenvalues --   -0.47524  -0.46677  -0.45537  -0.35778
 Alpha virt. eigenvalues --    0.03617   0.03802   0.04119   0.04499   0.05684
 Alpha virt. eigenvalues --    0.06000   0.06305   0.07274   0.07690   0.08110
 Alpha virt. eigenvalues --    0.08635   0.08699   0.11002   0.11059   0.11372

 Mulliken charges:
               1
     1  C    0.524173
     2  C    0.524173
     3  C    0.317185
     4  C    0.317185
     5  C    0.398602
     6  C    0.398602
     7  N   -0.630765
     8  H   -0.073763
     9  H   -0.077695
    10  H   -0.077564
    11  H   -0.077695
    12  H   -0.073763
    13  H   -0.077564
    14  H   -0.101336
    15  H   -0.149872
    16  H   -0.149872
    17  H   -0.101336
    18  H   -0.198226
    19  H   -0.256493
    20  H   -0.256493
    21  H   -0.198226
    22  H    0.020746
 Sum of Mulliken charges =  -0.00000

 Dipole moment (field-independent basis, Debye):
    X=             -0.8331    Y=             -0.2955    Z=              0.0000  Tot=              0.8840

 Test job not archived.
 1\1\GINC-SE199\SP\RHF\Aug-CC-pVDZ\C6H15N1\OHZDE\05-Apr-2025\0\\#t hf a
 ug-cc-pvdz iop(5/13=1,5/36=2,99/5=2) pseudo=read geom=check guess=(rea
 d,tcheck) scf=(maxcycle=1)\\title\\0,1\C,0,0.002905,-0.287931,3.765494
 \C,0,0.002905,-0.287931,-3.765494\C,0,0.002905,0.516132,2.466843\C,0,0
 .002905,0.516132,-2.466843\C,0,0.019045,-0.366124,1.223486\C,0,0.01904
 5,-0.366124,-1.223486\N,0,0.04109,0.425929,0.\H,0,-0.869191,-0.941707,
 3.829272\H,0,0.892625,-0.916399,3.840202\H,0,-0.011524,0.368209,4.6363
 19\H,0,0.892625,-0.916399,-3.840202\H,0,-0.869191,-0.941707,-3.829272\

 Normal termination of Gaussian 16 at Sat Apr  5 22:57:09 2025.
