 Gaussian 16, Revision C.01,

 ----------------------------------------------------------------------
 #t hf aug-cc-pvdz symm=none int=(grid=ultrafine) guess=(read,tcheck) s
 table=(opt,rrhf)
 ----------------------------------------------------------------------
 -----
 title
 -----
 Symbolic Z-matrix:
 Charge =  0 Multiplicity = 1

 SCF Done:  E(RHF) =  -707.729693106     A.U. after   14 cycles
 Normal termination of Gaussian 16 at Sat Apr  5 22:57:37 2025.
 Gaussian 16:  ES64L-G16RevC.01  3-Jul-2019

 ----------------------------------------------------------------------
 #t hf aug-cc-pvdz iop(5/13=1,5/36=2,99/5=2) pseudo=read geom=check gue
 ss=(read,tcheck) scf=(maxcycle=1)
 ----------------------------------------------------------------------
 -----
 title
 -----
 Structure from the checkpoint file:  "dipropyl_sulfoxide.chk"
 Charge =  0 Multiplicity = 1

                         Standard orientation:
 ---------------------------------------------------------------------
 Center     Atomic      Atomic             Coordinates (Angstroms)
 Number     Number       Type             X           Y           Z
 ---------------------------------------------------------------------
      1          6           0       -2.486191   -0.072064    0.552450
      2          6           0       -1.024223    0.142152    0.935317
      3         16           0       -0.047098    0.993348   -0.402402
      4          8           0        0.947086    1.893124    0.293391
      5          6           0       -2.714523   -1.122271   -0.534399
      6          6           0        0.925143   -0.441946   -1.093699
      7          6           0        2.275145   -0.662317   -0.419059
      8          6           0        2.229720   -1.279940    0.977069
      9          1           0       -2.917557    0.881786    0.239294
     10          1           0       -3.024646   -0.367002    1.456918
     11          1           0       -0.533523   -0.786746    1.217820
     12          1           0       -0.928225    0.849831    1.758194
     13          1           0       -2.255162   -0.831273   -1.480484
     14          1           0       -2.300045   -2.089896   -0.243556
     15          1           0       -3.779511   -1.261717   -0.720802
     16          1           0        1.067876   -0.172666   -2.140309
     17          1           0        0.277509   -1.317972   -1.055491
     18          1           0        2.793803    0.296174   -0.372767
     19          1           0        2.859562   -1.304564   -1.083624
     20          1           0        1.774757   -0.601276    1.697093
     21          1           0        1.672070   -2.219643    0.985066
     22          1           0        3.239545   -1.495279    1.327871
 ---------------------------------------------------------------------

 SCF Done:  E(RHF) =  -707.867494281     A.U. after    2 cycles

 The electronic state is 1-A.
 Alpha  occ. eigenvalues --  -93.64305 -20.50846 -11.27188 -11.26993 -11.25279
 Alpha  occ. eigenvalues --  -11.24097 -11.23971 -11.22690  -8.92730  -6.26993
 Alpha  occ. eigenvalues --   -6.26841  -6.26531  -1.28365  -1.08544  -1.06409
 Alpha  occ. eigenvalues --   -0.98230  -0.94852  -0.86665  -0.81508  -0.77641
 Alpha  occ. eigenvalues --   -0.66232  -0.64292  -0.63421  -0.63039  -0.58725
 Alpha  occ. eigenvalues --   -0.58305  -0.56533  -0.55380  -0.54315  -0.51651
 Alpha  occ. eigenvalues --   -0.50947  -0.50350  -0.49349  -0.48731  -0.48611
 Alpha  occ. eigenvalues --   -0.41155  -0.36157
 Alpha virt. eigenvalues --    0.02946   0.03771   0.04049   0.04740   0.05363
 Alpha virt. eigenvalues --    0.05937   0.06263   0.06978   0.07209   0.08133
 Alpha virt. eigenvalues --    0.08675   0.09134   0.09368   0.11041   0.11992

 Mulliken charges:
               1
     1  C    0.250288
     2  C    0.024612
     3  S    1.328418
     4  O   -1.163057
     5  C    0.467028
     6  C   -0.001203
     7  C    0.228053
     8  C    0.477401
     9  H   -0.092521
    10  H   -0.043252
    11  H   -0.330445
    12  H   -0.061725
    13  H   -0.057448
    14  H   -0.095641
    15  H   -0.142567
    16  H   -0.073068
    17  H   -0.289925
    18  H   -0.077154
    19  H   -0.078096
    20  H   -0.004799
    21  H   -0.094237
    22  H   -0.170661
 Sum of Mulliken charges =  -0.00000

 Dipole moment (field-independent basis, Debye):
    X=             -2.2078    Y=             -4.1553    Z=             -0.7562  Tot=              4.7658

 Test job not archived.
 1\1\GINC-SE146\SP\RHF\Aug-CC-pVDZ\C6H14O1S1\OHZDE\05-Apr-2025\0\\#t hf
  aug-cc-pvdz iop(5/13=1,5/36=2,99/5=2) pseudo=read geom=check guess=(r
 ead,tcheck) scf=(maxcycle=1)\\title\\0,1\C,0,-2.486191,-0.072064,0.552
 45\C,0,-1.024223,0.142152,0.935317\S,0,-0.047098,0.993348,-0.402402\O,
 0,0.947086,1.893124,0.293391\C,0,-2.714523,-1.122271,-0.534399\C,0,0.9
 25143,-0.441946,-1.093699\C,0,2.275145,-0.662317,-0.419059\C,0,2.22972
 ,-1.27994,0.977069\H,0,-2.917557,0.881786,0.239294\H,0,-3.024646,-0.36
 7002,1.456918\H,0,-0.533523,-0.786746,1.21782\H,0,-0.928225,0.849831,1

 Normal termination of Gaussian 16 at Sat Apr  5 22:58:17 2025.
