 Gaussian 16, Revision C.01,

 ----------------------------------------------------------------------
 #t hf aug-cc-pvdz symm=none int=(grid=ultrafine) guess=(read,tcheck) s
 table=(opt,rrhf)
 ----------------------------------------------------------------------
 -----
 title
 -----
 Symbolic Z-matrix:
 Charge =  0 Multiplicity = 1

 SCF Done:  E(RHF) =  -414.279139636     A.U. after   17 cycles
 Normal termination of Gaussian 16 at Sat Apr  5 22:56:53 2025.
 Gaussian 16:  ES64L-G16RevC.01  3-Jul-2019

 ----------------------------------------------------------------------
 #t hf aug-cc-pvdz iop(5/13=1,5/36=2,99/5=2) pseudo=read geom=check gue
 ss=(read,tcheck) scf=(maxcycle=1)
 ----------------------------------------------------------------------
 -----
 title
 -----
 Structure from the checkpoint file:  "dipropargylnitrosamine.chk"
 Charge =  0 Multiplicity = 1

                         Standard orientation:
 ---------------------------------------------------------------------
 Center     Atomic      Atomic             Coordinates (Angstroms)
 Number     Number       Type             X           Y           Z
 ---------------------------------------------------------------------
      1          8           0        1.240989    2.316707   -0.287642
      2          7           0        0.074392    0.539266    0.153552
      3          7           0        0.338574    1.835872    0.364116
      4          6           0       -1.018081   -0.017513    0.938595
      5          6           0        0.805026   -0.270810   -0.823168
      6          6           0       -2.168330   -0.409668    0.125287
      7          6           0        1.525451   -1.378278   -0.205251
      8          6           0       -3.106676   -0.740595   -0.542391
      9          6           0        2.105048   -2.294984    0.304845
     10          1           0       -0.653615   -0.880360    1.501749
     11          1           0       -1.300451    0.756689    1.652149
     12          1           0        1.494721    0.413664   -1.317408
     13          1           0        0.099799   -0.648227   -1.567386
     14          1           0       -3.943385   -1.027237   -1.129310
     15          1           0        2.629621   -3.103060    0.750177
 ---------------------------------------------------------------------

 SCF Done:  E(RHF) =  -414.407413100     A.U. after    2 cycles

 The electronic state is 1-A.
 Alpha  occ. eigenvalues --  -20.60727 -15.80626 -15.70814 -11.32606 -11.31905
 Alpha  occ. eigenvalues --  -11.26596 -11.26460 -11.25853 -11.25581  -1.47507
 Alpha  occ. eigenvalues --   -1.26764  -1.08340  -1.06912  -0.99913  -0.99070
 Alpha  occ. eigenvalues --   -0.83498  -0.76834  -0.74430  -0.73587  -0.71836
 Alpha  occ. eigenvalues --   -0.70353  -0.64887  -0.62337  -0.61706  -0.60641
 Alpha  occ. eigenvalues --   -0.59263  -0.44483  -0.42599  -0.41678  -0.41205
 Alpha  occ. eigenvalues --   -0.40958  -0.40294
 Alpha virt. eigenvalues --    0.02912   0.03228   0.04196   0.05122   0.06193
 Alpha virt. eigenvalues --    0.06971   0.08699   0.09424   0.10670   0.11025
 Alpha virt. eigenvalues --    0.11190   0.11525   0.11976   0.12492   0.13154

 Mulliken charges:
               1
     1  O   -0.534957
     2  N   -0.309908
     3  N    0.037128
     4  C    0.520620
     5  C    0.583559
     6  C   -0.522787
     7  C   -0.523888
     8  C    1.090657
     9  C    1.074309
    10  H   -0.067188
    11  H   -0.102675
    12  H   -0.081428
    13  H   -0.055215
    14  H   -0.552345
    15  H   -0.555882
 Sum of Mulliken charges =  -0.00000

 Dipole moment (field-independent basis, Debye):
    X=             -1.7434    Y=             -3.3666    Z=              0.3326  Tot=              3.8058

 Test job not archived.
 1\1\GINC-SE046\SP\RHF\Aug-CC-pVDZ\C6H6N2O1\OHZDE\05-Apr-2025\0\\#t hf
 aug-cc-pvdz iop(5/13=1,5/36=2,99/5=2) pseudo=read geom=check guess=(re
 ad,tcheck) scf=(maxcycle=1)\\title\\0,1\O,0,1.240989,2.316707,-0.28764
 2\N,0,0.074392,0.539266,0.153552\N,0,0.338574,1.835872,0.364116\C,0,-1
 .018081,-0.017513,0.938595\C,0,0.805026,-0.27081,-0.823168\C,0,-2.1683
 3,-0.409668,0.125287\C,0,1.525451,-1.378278,-0.205251\C,0,-3.106676,-0
 .740595,-0.542391\C,0,2.105048,-2.294984,0.304845\H,0,-0.653615,-0.880
 36,1.501749\H,0,-1.300451,0.756689,1.652149\H,0,1.494721,0.413664,-1.3

 Normal termination of Gaussian 16 at Sat Apr  5 22:56:59 2025.
