 Gaussian 16, Revision C.01,

 ----------------------------------------------------------------------
 #t hf aug-cc-pvdz symm=none int=(grid=ultrafine) guess=(read,tcheck) s
 table=(opt,rrhf)
 ----------------------------------------------------------------------
 -----
 title
 -----
 Symbolic Z-matrix:
 Charge =  0 Multiplicity = 1

 SCF Done:  E(RHF) =  -270.802021299     A.U. after   12 cycles
 Normal termination of Gaussian 16 at Sat Apr  5 22:57:00 2025.
 Gaussian 16:  ES64L-G16RevC.01  3-Jul-2019

 ----------------------------------------------------------------------
 #t hf aug-cc-pvdz iop(5/13=1,5/36=2,99/5=2) pseudo=read geom=check gue
 ss=(read,tcheck) scf=(maxcycle=1)
 ----------------------------------------------------------------------
 -----
 title
 -----
 Structure from the checkpoint file:  "dispiro2-0-2-1heptane.chk"
 Charge =  0 Multiplicity = 1

                         Standard orientation:
 ---------------------------------------------------------------------
 Center     Atomic      Atomic             Coordinates (Angstroms)
 Number     Number       Type             X           Y           Z
 ---------------------------------------------------------------------
      1          6           0        0.000000    0.728728    0.184208
      2          6           0       -0.763274    1.830763   -0.441725
      3          6           0        0.763274    1.830763   -0.441725
      4          6           0       -0.000000   -0.728728    0.184208
      5          6           0       -0.000000   -0.000000    1.493939
      6          6           0       -0.763274   -1.830763   -0.441725
      7          6           0        0.763274   -1.830763   -0.441725
      8          1           0       -1.265756    2.542902    0.199945
      9          1           0       -1.265398    1.641386   -1.381956
     10          1           0        1.265756    2.542902    0.199945
     11          1           0        1.265398    1.641386   -1.381956
     12          1           0       -0.913191    0.000000    2.077660
     13          1           0        0.913191   -0.000000    2.077660
     14          1           0       -1.265398   -1.641386   -1.381956
     15          1           0       -1.265756   -2.542902    0.199945
     16          1           0        1.265398   -1.641386   -1.381956
     17          1           0        1.265756   -2.542902    0.199945
 ---------------------------------------------------------------------

 SCF Done:  E(RHF) =  -270.887136692     A.U. after    2 cycles

 The electronic state is 1-A1.
 Alpha  occ. eigenvalues --  -11.24380 -11.24316 -11.23327 -11.23316 -11.23315
 Alpha  occ. eigenvalues --  -11.23283 -11.23275  -1.17636  -1.10714  -1.02346
 Alpha  occ. eigenvalues --   -0.82977  -0.81645  -0.78509  -0.71882  -0.67054
 Alpha  occ. eigenvalues --   -0.64788  -0.63694  -0.60654  -0.51921  -0.51361
 Alpha  occ. eigenvalues --   -0.51247  -0.46129  -0.44868  -0.39519  -0.38995
 Alpha  occ. eigenvalues --   -0.38255
 Alpha virt. eigenvalues --    0.03719   0.04199   0.04639   0.04658   0.06180
 Alpha virt. eigenvalues --    0.06405   0.06610   0.06667   0.08634   0.09020
 Alpha virt. eigenvalues --    0.10781   0.11428   0.12301   0.12677   0.13697

 Mulliken charges:
               1
     1  C   -0.325361
     2  C    0.589747
     3  C    0.589747
     4  C   -0.325361
     5  C    0.455664
     6  C    0.589747
     7  C    0.589747
     8  H   -0.218596
     9  H   -0.239177
    10  H   -0.218596
    11  H   -0.239177
    12  H   -0.166419
    13  H   -0.166419
    14  H   -0.239177
    15  H   -0.218596
    16  H   -0.239177
    17  H   -0.218596
 Sum of Mulliken charges =  -0.00000

 Dipole moment (field-independent basis, Debye):
    X=             -0.0000    Y=              0.0000    Z=              0.0176  Tot=              0.0176

 Test job not archived.
 1\1\GINC-SE053\SP\RHF\Aug-CC-pVDZ\C7H10\OHZDE\05-Apr-2025\0\\#t hf aug
 -cc-pvdz iop(5/13=1,5/36=2,99/5=2) pseudo=read geom=check guess=(read,
 tcheck) scf=(maxcycle=1)\\title\\0,1\C,0,0.,0.728728,0.184208\C,0,-0.7
 63274,1.830763,-0.441725\C,0,0.763274,1.830763,-0.441725\C,0,0.,-0.728
 728,0.184208\C,0,0.,0.,1.493939\C,0,-0.763274,-1.830763,-0.441725\C,0,
 0.763274,-1.830763,-0.441725\H,0,-1.265756,2.542902,0.199945\H,0,-1.26
 5398,1.641386,-1.381956\H,0,1.265756,2.542902,0.199945\H,0,1.265398,1.
 641386,-1.381956\H,0,-0.913191,0.,2.07766\H,0,0.913191,0.,2.07766\H,0,

 Normal termination of Gaussian 16 at Sat Apr  5 22:57:08 2025.
