 Gaussian 16, Revision C.01,

 ----------------------------------------------------------------------
 #t hf aug-cc-pvdz symm=none int=(grid=ultrafine) guess=(read,tcheck) s
 table=(opt,rrhf)
 ----------------------------------------------------------------------
 -----
 title
 -----
 Symbolic Z-matrix:
 Charge =  0 Multiplicity = 1

 SCF Done:  E(RHF) =  -1022.90099271     A.U. after   14 cycles
 Normal termination of Gaussian 16 at Sat Apr  5 22:56:38 2025.
 Gaussian 16:  ES64L-G16RevC.01  3-Jul-2019

 ----------------------------------------------------------------------
 #t hf aug-cc-pvdz iop(5/13=1,5/36=2,99/5=2) pseudo=read geom=check gue
 ss=(read,tcheck) scf=(maxcycle=1)
 ----------------------------------------------------------------------
 -----
 title
 -----
 Structure from the checkpoint file:  "disulfanylacetic_acid.chk"
 Charge =  0 Multiplicity = 1

                         Standard orientation:
 ---------------------------------------------------------------------
 Center     Atomic      Atomic             Coordinates (Angstroms)
 Number     Number       Type             X           Y           Z
 ---------------------------------------------------------------------
      1         16           0       -0.802200    0.738403    0.006465
      2         16           0       -2.555014   -0.375391   -0.096171
      3          8           0        2.866754   -0.880415   -0.028233
      4          8           0        2.068290    1.188928    0.002883
      5          6           0        0.458292   -0.598704    0.045623
      6          6           0        1.844967    0.013992    0.003269
      7          1           0        0.311493   -1.260107   -0.808448
      8          1           0        0.346394   -1.185656    0.958254
      9          1           0        2.539718   -1.788027   -0.031196
     10          1           0       -2.782096   -0.534219    1.226126
 ---------------------------------------------------------------------

 SCF Done:  E(RHF) =  -1023.01435480     A.U. after    2 cycles

 The electronic state is 1-A.
 Alpha  occ. eigenvalues --  -93.58099 -93.57821 -20.64450 -20.58086 -11.42255
 Alpha  occ. eigenvalues --  -11.31475  -8.87580  -8.87412  -6.21683  -6.21539
 Alpha  occ. eigenvalues --   -6.21424  -6.21295  -6.21044  -6.20959  -1.43967
 Alpha  occ. eigenvalues --   -1.35246  -1.09268  -1.00309  -0.87617  -0.83701
 Alpha  occ. eigenvalues --   -0.74769  -0.69229  -0.68946  -0.63363  -0.61381
 Alpha  occ. eigenvalues --   -0.57616  -0.52814  -0.51724  -0.49240  -0.46840
 Alpha  occ. eigenvalues --   -0.38876  -0.37744
 Alpha virt. eigenvalues --    0.02189   0.03837   0.04883   0.06295   0.07183
 Alpha virt. eigenvalues --    0.08887   0.09713   0.11168   0.11457   0.12073
 Alpha virt. eigenvalues --    0.12896   0.14082   0.14707   0.15157   0.15749

 Mulliken charges:
               1
     1  S    0.202892
     2  S   -0.083838
     3  O   -0.511006
     4  O   -0.389585
     5  C   -0.218525
     6  C    0.657632
     7  H    0.020544
     8  H    0.018274
     9  H    0.191485
    10  H    0.112127
 Sum of Mulliken charges =  -0.00000

 Dipole moment (field-independent basis, Debye):
    X=             -1.5606    Y=             -4.9217    Z=              0.9205  Tot=              5.2446

 Test job not archived.
 1\1\GINC-SE085\SP\RHF\Aug-CC-pVDZ\C2H4O2S2\OHZDE\05-Apr-2025\0\\#t hf
 aug-cc-pvdz iop(5/13=1,5/36=2,99/5=2) pseudo=read geom=check guess=(re
 ad,tcheck) scf=(maxcycle=1)\\title\\0,1\S,0,-0.8022,0.738403,0.006465\
 S,0,-2.555014,-0.375391,-0.096171\O,0,2.866754,-0.880415,-0.028233\O,0
 ,2.06829,1.188928,0.002883\C,0,0.458292,-0.598704,0.045623\C,0,1.84496
 7,0.013992,0.003269\H,0,0.311493,-1.260107,-0.808448\H,0,0.346394,-1.1
 85656,0.958254\H,0,2.539718,-1.788027,-0.031196\H,0,-2.782096,-0.53421
 9,1.226126\\Version=ES64L-G16RevC.01\State=1-A\HF=-1023.0143548\RMSD=5

 Normal termination of Gaussian 16 at Sat Apr  5 22:56:43 2025.
