 Gaussian 16, Revision C.01,

 ----------------------------------------------------------------------
 #t hf aug-cc-pvdz symm=none int=(grid=ultrafine) guess=(read,tcheck) s
 table=(opt,rrhf)
 ----------------------------------------------------------------------
 -----
 title
 -----
 Symbolic Z-matrix:
 Charge =  0 Multiplicity = 1

 SCF Done:  E(RHF) =  -1056.58304343     A.U. after   16 cycles
 Normal termination of Gaussian 16 at Sat Apr  5 22:56:39 2025.
 Gaussian 16:  ES64L-G16RevC.01  3-Jul-2019

 ----------------------------------------------------------------------
 #t hf aug-cc-pvdz iop(5/13=1,5/36=2,99/5=2) pseudo=read geom=check gue
 ss=(read,tcheck) scf=(maxcycle=1)
 ----------------------------------------------------------------------
 -----
 title
 -----
 Structure from the checkpoint file:  "disulfanylmethylenemalononitrile.chk"
 Charge =  0 Multiplicity = 1

                         Standard orientation:
 ---------------------------------------------------------------------
 Center     Atomic      Atomic             Coordinates (Angstroms)
 Number     Number       Type             X           Y           Z
 ---------------------------------------------------------------------
      1         16           0       -1.532661   -1.443389   -0.000144
      2         16           0       -1.532665    1.443385    0.000144
      3          7           0        2.115082    2.230322    0.000234
      4          7           0        2.115088   -2.230318   -0.000233
      5          6           0        0.830778    0.000001   -0.000000
      6          6           0       -0.544914    0.000000   -0.000000
      7          6           0        1.562091    1.217178    0.000129
      8          6           0        1.562093   -1.217174   -0.000128
      9          1           0       -0.513129   -2.326270   -0.000166
     10          1           0       -0.513134    2.326268    0.000166
 ---------------------------------------------------------------------

 SCF Done:  E(RHF) =  -1056.69796888     A.U. after    2 cycles

 The electronic state is 1-A.
 Alpha  occ. eigenvalues --  -93.61323 -93.61323 -15.67145 -15.67144 -11.41056
 Alpha  occ. eigenvalues --  -11.34540 -11.32349 -11.32345  -8.91148  -8.91139
 Alpha  occ. eigenvalues --   -6.25343  -6.25305  -6.25104  -6.25099  -6.24710
 Alpha  occ. eigenvalues --   -6.24709  -1.24421  -1.22014  -1.18221  -1.06396
 Alpha  occ. eigenvalues --   -1.02603  -0.85953  -0.81819  -0.74112  -0.60858
 Alpha  occ. eigenvalues --   -0.60140  -0.58285  -0.58036  -0.55122  -0.54375
 Alpha  occ. eigenvalues --   -0.51136  -0.51052  -0.50770  -0.48535  -0.42217
 Alpha  occ. eigenvalues --   -0.36856
 Alpha virt. eigenvalues --    0.02306   0.03285   0.04532   0.06310   0.07228
 Alpha virt. eigenvalues --    0.08154   0.08800   0.08979   0.10050   0.11109
 Alpha virt. eigenvalues --    0.11166   0.12205   0.12927   0.13763   0.14264

 Mulliken charges:
               1
     1  S    0.276656
     2  S    0.276654
     3  N   -0.136036
     4  N   -0.136036
     5  C    2.450526
     6  C   -0.640290
     7  C   -1.162664
     8  C   -1.162662
     9  H    0.116925
    10  H    0.116927
 Sum of Mulliken charges =  -0.00000

 Dipole moment (field-independent basis, Debye):
    X=             -4.2193    Y=              0.0000    Z=             -0.0000  Tot=              4.2193

 Test job not archived.
 1\1\GINC-SE145\SP\RHF\Aug-CC-pVDZ\C4H2N2S2\OHZDE\05-Apr-2025\0\\#t hf
 aug-cc-pvdz iop(5/13=1,5/36=2,99/5=2) pseudo=read geom=check guess=(re
 ad,tcheck) scf=(maxcycle=1)\\title\\0,1\S,0,-1.53266,-1.44339,-0.00014
 4\S,0,-1.532666,1.443384,0.000144\N,0,2.115081,2.230324,0.000234\N,0,2
 .11509,-2.230316,-0.000233\C,0,0.830778,0.000002,0.\C,0,-0.544914,0.,0
 .\C,0,1.56209,1.217179,0.000129\C,0,1.562094,-1.217173,-0.000128\H,0,-
 0.513127,-2.32627,-0.000166\H,0,-0.513135,2.326268,0.000166\\Version=E
 S64L-G16RevC.01\State=1-A\HF=-1056.6979689\RMSD=2.367e-02\Dipole=-1.66

 Normal termination of Gaussian 16 at Sat Apr  5 22:56:45 2025.
