 Gaussian 16, Revision C.01,

 ----------------------------------------------------------------------
 #t hf aug-cc-pvdz symm=none int=(grid=ultrafine) guess=(read,tcheck) s
 table=(opt,rrhf)
 ----------------------------------------------------------------------
 -----
 title
 -----
 Symbolic Z-matrix:
 Charge =  0 Multiplicity = 1

 SCF Done:  E(RHF) =  -982.066988235     A.U. after   13 cycles
 Normal termination of Gaussian 16 at Sat Apr  5 22:56:39 2025.
 Gaussian 16:  ES64L-G16RevC.01  3-Jul-2019

 ----------------------------------------------------------------------
 #t hf aug-cc-pvdz iop(5/13=1,5/36=2,99/5=2) pseudo=read geom=check gue
 ss=(read,tcheck) scf=(maxcycle=1)
 ----------------------------------------------------------------------
 -----
 title
 -----
 Structure from the checkpoint file:  "dithiooxamide.chk"
 Charge =  0 Multiplicity = 1

                         Standard orientation:
 ---------------------------------------------------------------------
 Center     Atomic      Atomic             Coordinates (Angstroms)
 Number     Number       Type             X           Y           Z
 ---------------------------------------------------------------------
      1         16           0        2.159288    0.225879   -0.000022
      2         16           0       -2.159288   -0.225879   -0.000022
      3          7           0        0.380905   -1.736090    0.000033
      4          7           0       -0.380905    1.736090    0.000033
      5          6           0        0.630428   -0.433440    0.000013
      6          6           0       -0.630428    0.433440    0.000008
      7          1           0        1.142640   -2.391307    0.000019
      8          1           0       -0.586716   -2.040345    0.000035
      9          1           0        0.586717    2.040345    0.000036
     10          1           0       -1.142640    2.391307    0.000026
 ---------------------------------------------------------------------

 SCF Done:  E(RHF) =  -982.158144621     A.U. after    2 cycles

 The electronic state is 1-A.
 Alpha  occ. eigenvalues --  -93.50983 -93.50983 -15.69219 -15.69218 -11.39256
 Alpha  occ. eigenvalues --  -11.39202  -8.80927  -8.80926  -6.15187  -6.15138
 Alpha  occ. eigenvalues --   -6.14641  -6.14632  -6.14571  -6.14562  -1.28284
 Alpha  occ. eigenvalues --   -1.24242  -1.02704  -1.00419  -0.86472  -0.80879
 Alpha  occ. eigenvalues --   -0.77630  -0.73235  -0.66069  -0.59047  -0.57178
 Alpha  occ. eigenvalues --   -0.52018  -0.50504  -0.37630  -0.35832  -0.35095
 Alpha  occ. eigenvalues --   -0.34073
 Alpha virt. eigenvalues --    0.01598   0.03247   0.03520   0.05578   0.06997
 Alpha virt. eigenvalues --    0.09538   0.10143   0.11884   0.12509   0.12928
 Alpha virt. eigenvalues --    0.13940   0.13941   0.14122   0.14477   0.16699

 Mulliken charges:
               1
     1  S   -0.094225
     2  S   -0.094225
     3  N   -0.205011
     4  N   -0.205013
     5  C    0.255846
     6  C    0.255847
     7  H    0.002497
     8  H    0.040893
     9  H    0.040895
    10  H    0.002497
 Sum of Mulliken charges =  -0.00000

 Dipole moment (field-independent basis, Debye):
    X=              0.0000    Y=             -0.0000    Z=              0.0001  Tot=              0.0001

 Test job not archived.
 1\1\GINC-SE158\SP\RHF\Aug-CC-pVDZ\C2H4N2S2\OHZDE\05-Apr-2025\0\\#t hf
 aug-cc-pvdz iop(5/13=1,5/36=2,99/5=2) pseudo=read geom=check guess=(re
 ad,tcheck) scf=(maxcycle=1)\\title\\0,1\S,0,2.159288,0.225879,-0.00002
 2\S,0,-2.159288,-0.225879,-0.000022\N,0,0.380905,-1.73609,0.000033\N,0
 ,-0.380905,1.73609,0.000033\C,0,0.630428,-0.43344,0.000013\C,0,-0.6304
 28,0.43344,0.000008\H,0,1.14264,-2.391307,0.000019\H,0,-0.586716,-2.04
 0345,0.000035\H,0,0.586717,2.040345,0.000036\H,0,-1.14264,2.391307,0.0
 00026\\Version=ES64L-G16RevC.01\State=1-A\HF=-982.1581446\RMSD=1.027e-

 Normal termination of Gaussian 16 at Sat Apr  5 22:56:43 2025.
