 Gaussian 16, Revision C.01,

 ----------------------------------------------------------------------
 #t hf aug-cc-pvdz symm=none int=(grid=ultrafine) guess=(read,tcheck) s
 table=(opt,rrhf)
 ----------------------------------------------------------------------
 -----
 title
 -----
 Symbolic Z-matrix:
 Charge =  0 Multiplicity = 1

 SCF Done:  E(RHF) =  -233.015111348     A.U. after   13 cycles
 Normal termination of Gaussian 16 at Sat Apr  5 22:45:23 2025.
 Gaussian 16:  ES64L-G16RevC.01  3-Jul-2019

 ----------------------------------------------------------------------
 #t hf aug-cc-pvdz iop(5/13=1,5/36=2,99/5=2) pseudo=read geom=check gue
 ss=(read,tcheck) scf=(maxcycle=1)
 ----------------------------------------------------------------------
 -----
 title
 -----
 Structure from the checkpoint file:  "E-1-4-hexadiene.chk"
 Charge =  0 Multiplicity = 1

                         Standard orientation:
 ---------------------------------------------------------------------
 Center     Atomic      Atomic             Coordinates (Angstroms)
 Number     Number       Type             X           Y           Z
 ---------------------------------------------------------------------
      1          6           0        2.774263    0.471453    0.018406
      2          1           0        3.025428    1.225242   -0.732402
      3          1           0        2.694425    0.968642    0.985285
      4          1           0        3.620197   -0.219765    0.061021
      5          6           0        1.508736   -0.244855   -0.337967
      6          1           0        1.506561   -0.764857   -1.293079
      7          6           0        0.414083   -0.292101    0.413417
      8          1           0        0.408451    0.231044    1.366497
      9          6           0       -0.843677   -1.027566    0.061292
     10          1           0       -0.699053   -1.585556   -0.870041
     11          1           0       -1.042235   -1.789762    0.825223
     12          6           0       -2.083249   -0.179059   -0.069246
     13          1           0       -3.009282   -0.738490   -0.164929
     14          6           0       -2.134346    1.146986   -0.084084
     15          1           0       -3.075965    1.668839   -0.188328
     16          1           0       -1.243382    1.755515   -0.000158
 ---------------------------------------------------------------------

 SCF Done:  E(RHF) =  -233.089669729     A.U. after    2 cycles

 The electronic state is 1-A.
 Alpha  occ. eigenvalues --  -11.24207 -11.23984 -11.23613 -11.23196 -11.23002
 Alpha  occ. eigenvalues --  -11.22564  -1.09001  -1.03979  -0.96433  -0.88937
 Alpha  occ. eigenvalues --   -0.77101  -0.73512  -0.64587  -0.61918  -0.61373
 Alpha  occ. eigenvalues --   -0.57016  -0.56112  -0.53947  -0.52091  -0.49970
 Alpha  occ. eigenvalues --   -0.47489  -0.36428  -0.34996
 Alpha virt. eigenvalues --    0.03601   0.04148   0.04606   0.04966   0.06026
 Alpha virt. eigenvalues --    0.06141   0.06809   0.07688   0.08581   0.09155
 Alpha virt. eigenvalues --    0.10920   0.12464   0.12980   0.13491   0.14261

 Mulliken charges:
               1
     1  C    0.247371
     2  H    0.045866
     3  H   -0.126463
     4  H    0.044438
     5  C   -0.055965
     6  H   -0.419613
     7  C    1.004511
     8  H   -0.477298
     9  C   -0.087841
    10  H   -0.071318
    11  H    0.075597
    12  C    0.349865
    13  H   -0.405199
    14  C    0.496128
    15  H   -0.328205
    16  H   -0.291872
 Sum of Mulliken charges =   0.00000

 Dipole moment (field-independent basis, Debye):
    X=              0.3255    Y=             -0.3042    Z=             -0.0587  Tot=              0.4494

 Test job not archived.
 1\1\GINC-SE169\SP\RHF\Aug-CC-pVDZ\C6H10\OHZDE\05-Apr-2025\0\\#t hf aug
 -cc-pvdz iop(5/13=1,5/36=2,99/5=2) pseudo=read geom=check guess=(read,
 tcheck) scf=(maxcycle=1)\\title\\0,1\C,0,2.774263,0.471453,0.018406\H,
 0,3.025428,1.225242,-0.732402\H,0,2.694425,0.968642,0.985285\H,0,3.620
 197,-0.219765,0.061021\C,0,1.508736,-0.244855,-0.337967\H,0,1.506561,-
 0.764857,-1.293079\C,0,0.414083,-0.292101,0.413417\H,0,0.408451,0.2310
 44,1.366497\C,0,-0.843677,-1.027566,0.061292\H,0,-0.699053,-1.585556,-
 0.870041\H,0,-1.042235,-1.789762,0.825223\C,0,-2.083249,-0.179059,-0.0

 Normal termination of Gaussian 16 at Sat Apr  5 22:45:39 2025.
