 Gaussian 16, Revision C.01,

 ----------------------------------------------------------------------
 #t hf aug-cc-pvdz symm=none int=(grid=ultrafine) guess=(read,tcheck) s
 table=(opt,rrhf)
 ----------------------------------------------------------------------
 -----
 title
 -----
 Symbolic Z-matrix:
 Charge =  0 Multiplicity = 1

 SCF Done:  E(RHF) =  -615.049564580     A.U. after   13 cycles

 1\1\GINC-SE171\Stability\RHF\Aug-CC-pVDZ\C4H7Cl1\OHZDE\05-Apr-2025\0\\
 #t hf aug-cc-pvdz symm=none int=(grid=ultrafine) guess=(read,tcheck) s
 table=(opt,rrhf)\\title\\0,1\H,0,0.284273,-0.845671,1.087487\C,0,0.403
 159,-0.010172,0.40581\H,0,-0.632701,1.282616,-0.927159\Cl,0,-2.268012,
 -0.194803,-0.026317\C,0,-0.658,0.458163,-0.230058\H,0,1.762492,1.39408
 2,-0.449259\H,0,2.138737,0.922123,1.195638\C,0,1.787551,0.540851,0.231
 531\H,0,3.784823,-0.084931,-0.358058\H,0,2.833963,-1.363785,0.395683\H
 ,0,2.491345,-0.877346,-1.263208\C,0,2.782835,-0.508081,-0.279571\\Vers

 Normal termination of Gaussian 16 at Sat Apr  5 22:45:03 2025.
 Gaussian 16:  ES64L-G16RevC.01  3-Jul-2019

 ----------------------------------------------------------------------
 #t hf aug-cc-pvdz iop(5/13=1,5/36=2,99/5=2) pseudo=read geom=check gue
 ss=(read,tcheck) scf=(maxcycle=1)
 ----------------------------------------------------------------------
 -----
 title
 -----
 Structure from the checkpoint file:  "E-1-chloro-1-butene.chk"
 Charge =  0 Multiplicity = 1

                         Standard orientation:
 ---------------------------------------------------------------------
 Center     Atomic      Atomic             Coordinates (Angstroms)
 Number     Number       Type             X           Y           Z
 ---------------------------------------------------------------------
      1          1           0        0.284273   -0.845671    1.087487
      2          6           0        0.403159   -0.010172    0.405810
      3          1           0       -0.632701    1.282616   -0.927159
      4         17           0       -2.268012   -0.194803   -0.026317
      5          6           0       -0.658000    0.458163   -0.230058
      6          1           0        1.762492    1.394082   -0.449259
      7          1           0        2.138737    0.922123    1.195638
      8          6           0        1.787551    0.540851    0.231531
      9          1           0        3.784823   -0.084931   -0.358058
     10          1           0        2.833963   -1.363785    0.395683
     11          1           0        2.491345   -0.877346   -1.263208
     12          6           0        2.782835   -0.508081   -0.279571
 ---------------------------------------------------------------------

 SCF Done:  E(RHF) =  -615.119178629     A.U. after    2 cycles

 The electronic state is 1-A.
 Alpha  occ. eigenvalues -- -103.65983 -11.29982 -11.25850 -11.25093 -11.23580
 Alpha  occ. eigenvalues --  -10.69266  -8.34999  -8.34694  -8.34684  -1.17736
 Alpha  occ. eigenvalues --   -1.07850  -0.98581  -0.85876  -0.77946  -0.65146
 Alpha  occ. eigenvalues --   -0.64169  -0.59686  -0.56295  -0.53736  -0.50732
 Alpha  occ. eigenvalues --   -0.50098  -0.49926  -0.45997  -0.36385
 Alpha virt. eigenvalues --    0.03381   0.04428   0.04897   0.04972   0.06970
 Alpha virt. eigenvalues --    0.07262   0.07600   0.09795   0.10797   0.12144
 Alpha virt. eigenvalues --    0.13625   0.14363   0.15479   0.15665   0.16528

 Mulliken charges:
               1
     1  H   -0.334233
     2  C    1.218218
     3  H   -0.354659
     4  Cl  -0.292474
     5  C   -0.164051
     6  H   -0.099871
     7  H    0.020766
     8  C   -0.085919
     9  H   -0.089106
    10  H   -0.060760
    11  H   -0.067765
    12  C    0.309853
 Sum of Mulliken charges =  -0.00000

 Dipole moment (field-independent basis, Debye):
    X=              2.3988    Y=              0.5625    Z=             -0.0254  Tot=              2.4640

 Test job not archived.
 1\1\GINC-SE171\SP\RHF\Aug-CC-pVDZ\C4H7Cl1\OHZDE\05-Apr-2025\0\\#t hf a
 ug-cc-pvdz iop(5/13=1,5/36=2,99/5=2) pseudo=read geom=check guess=(rea
 d,tcheck) scf=(maxcycle=1)\\title\\0,1\H,0,0.284273,-0.845671,1.087487
 \C,0,0.403159,-0.010172,0.40581\H,0,-0.632701,1.282616,-0.927159\Cl,0,
 -2.268012,-0.194803,-0.026317\C,0,-0.658,0.458163,-0.230058\H,0,1.7624
 92,1.394082,-0.449259\H,0,2.138737,0.922123,1.195638\C,0,1.787551,0.54
 0851,0.231531\H,0,3.784823,-0.084931,-0.358058\H,0,2.833963,-1.363785,
 0.395683\H,0,2.491345,-0.877346,-1.263208\C,0,2.782835,-0.508081,-0.27

 Normal termination of Gaussian 16 at Sat Apr  5 22:45:37 2025.
