 Gaussian 16, Revision C.01,

 ----------------------------------------------------------------------
 #t hf aug-cc-pvdz symm=none int=(grid=ultrafine) guess=(read,tcheck) s
 table=(opt,rrhf)
 ----------------------------------------------------------------------
 -----
 title
 -----
 Symbolic Z-matrix:
 Charge =  0 Multiplicity = 1

 SCF Done:  E(RHF) =  -995.886984275     A.U. after   11 cycles

 1\1\GINC-SE046\Stability\RHF\Aug-CC-pVDZ\C2H2Cl2\OHZDE\05-Apr-2025\0\\
 #t hf aug-cc-pvdz symm=none int=(grid=ultrafine) guess=(read,tcheck) s
 table=(opt,rrhf)\\title\\0,1\C,0,-0.364902,0.550673,0.\C,0,0.364902,-0
 .550673,0.\Cl,0,0.364902,2.127712,0.\Cl,0,-0.364902,-2.127712,0.\H,0,-
 1.443008,0.559873,0.\H,0,1.443008,-0.559873,0.\\Version=ES64L-G16RevC.
 01\HF=-995.8869843\RMSD=4.171e-09\Dipole=0.,0.,0.\Quadrupole=2.691679,
 -1.9138708,-0.7778082,-0.9625174,0.,0.\PG=Unknown\\@
 The archive entry for this job was punched.

 Normal termination of Gaussian 16 at Sat Apr  5 22:44:56 2025.
 Gaussian 16:  ES64L-G16RevC.01  3-Jul-2019

 ----------------------------------------------------------------------
 #t hf aug-cc-pvdz iop(5/13=1,5/36=2,99/5=2) pseudo=read geom=check gue
 ss=(read,tcheck) scf=(maxcycle=1)
 ----------------------------------------------------------------------
 -----
 title
 -----
 Structure from the checkpoint file:  "E-1-2-dichloroethene.chk"
 Charge =  0 Multiplicity = 1

                         Standard orientation:
 ---------------------------------------------------------------------
 Center     Atomic      Atomic             Coordinates (Angstroms)
 Number     Number       Type             X           Y           Z
 ---------------------------------------------------------------------
      1          6           0       -0.364902    0.550673    0.000000
      2          6           0        0.364902   -0.550673    0.000000
      3         17           0        0.364902    2.127712    0.000000
      4         17           0       -0.364902   -2.127712    0.000000
      5          1           0       -1.443008    0.559873    0.000000
      6          1           0        1.443008   -0.559873    0.000000
 ---------------------------------------------------------------------

 SCF Done:  E(RHF) =  -995.950521394     A.U. after    2 cycles

 The electronic state is 1-AG.
 Alpha  occ. eigenvalues -- -103.68406-103.68405 -11.33024 -11.32843 -10.71682
 Alpha  occ. eigenvalues --  -10.71680  -8.37420  -8.37417  -8.37098  -8.37096
 Alpha  occ. eigenvalues --   -8.37087  -8.37086  -1.21779  -1.18434  -1.01646
 Alpha  occ. eigenvalues --   -0.81537  -0.66984  -0.66238  -0.55915  -0.55726
 Alpha  occ. eigenvalues --   -0.50994  -0.48625  -0.48108  -0.38059
 Alpha virt. eigenvalues --    0.04035   0.04609   0.07063   0.08828   0.09522
 Alpha virt. eigenvalues --    0.11743   0.12809   0.13998   0.14580   0.15327
 Alpha virt. eigenvalues --    0.15974   0.17319   0.17507   0.18033   0.18528

 Mulliken charges:
               1
     1  C    0.422035
     2  C    0.422035
     3  Cl  -0.238155
     4  Cl  -0.238155
     5  H   -0.183880
     6  H   -0.183880
 Sum of Mulliken charges =   0.00000

 Dipole moment (field-independent basis, Debye):
    X=              0.0000    Y=              0.0000    Z=              0.0000  Tot=              0.0000

 Test job not archived.
 1\1\GINC-SE046\SP\RHF\Aug-CC-pVDZ\C2H2Cl2\OHZDE\05-Apr-2025\0\\#t hf a
 ug-cc-pvdz iop(5/13=1,5/36=2,99/5=2) pseudo=read geom=check guess=(rea
 d,tcheck) scf=(maxcycle=1)\\title\\0,1\C,0,-0.364902,0.550673,0.\C,0,0
 .364902,-0.550673,0.\Cl,0,0.364902,2.127712,0.\Cl,0,-0.364902,-2.12771
 2,0.\H,0,-1.443008,0.559873,0.\H,0,1.443008,-0.559873,0.\\Version=ES64
 L-G16RevC.01\State=1-AG\HF=-995.9505214\RMSD=5.099e-03\Dipole=0.,0.,0.
 \Quadrupole=2.7297604,-1.9679545,-0.7618058,-0.9682166,0.,0.\PG=C02H [
 SGH(C2H2Cl2)]\\@

 Normal termination of Gaussian 16 at Sat Apr  5 22:45:00 2025.
