 Gaussian 16, Revision C.01,

 ----------------------------------------------------------------------
 #t hf aug-cc-pvdz symm=none int=(grid=ultrafine) guess=(read,tcheck) s
 table=(opt,rrhf)
 ----------------------------------------------------------------------
 -----
 title
 -----
 Symbolic Z-matrix:
 Charge =  0 Multiplicity = 1

 SCF Done:  E(RHF) =  -231.837791882     A.U. after   12 cycles
 Normal termination of Gaussian 16 at Sat Apr  5 22:45:40 2025.
 Gaussian 16:  ES64L-G16RevC.01  3-Jul-2019

 ----------------------------------------------------------------------
 #t hf aug-cc-pvdz iop(5/13=1,5/36=2,99/5=2) pseudo=read geom=check gue
 ss=(read,tcheck) scf=(maxcycle=1)
 ----------------------------------------------------------------------
 -----
 title
 -----
 Structure from the checkpoint file:  "E-1-3-5-hexatriene.chk"
 Charge =  0 Multiplicity = 1

                         Standard orientation:
 ---------------------------------------------------------------------
 Center     Atomic      Atomic             Coordinates (Angstroms)
 Number     Number       Type             X           Y           Z
 ---------------------------------------------------------------------
      1          6           0        1.188032    2.829092    0.000000
      2          6           0       -1.188032   -2.829092    0.000000
      3          6           0        1.188032    1.492100    0.000000
      4          6           0       -1.188032   -1.492100    0.000000
      5          6           0       -0.002470    0.672860    0.000000
      6          6           0        0.002470   -0.672860    0.000000
      7          1           0        2.108575    3.395117    0.000000
      8          1           0        0.264255    3.394397    0.000000
      9          1           0       -2.108575   -3.395117    0.000000
     10          1           0       -0.264255   -3.394397    0.000000
     11          1           0        2.137085    0.964589    0.000000
     12          1           0       -2.137085   -0.964589    0.000000
     13          1           0       -0.955353    1.194813    0.000000
     14          1           0        0.955353   -1.194813    0.000000
 ---------------------------------------------------------------------

 SCF Done:  E(RHF) =  -231.910785459     A.U. after    2 cycles

 The electronic state is 1-AG.
 Alpha  occ. eigenvalues --  -11.25065 -11.25055 -11.24973 -11.24831 -11.24038
 Alpha  occ. eigenvalues --  -11.24038  -1.10493  -1.05494  -0.98329  -0.85114
 Alpha  occ. eigenvalues --   -0.76529  -0.76518  -0.67265  -0.64184  -0.60667
 Alpha  occ. eigenvalues --   -0.57501  -0.54769  -0.51852  -0.49779  -0.47310
 Alpha  occ. eigenvalues --   -0.40163  -0.29857
 Alpha virt. eigenvalues --    0.03626   0.03878   0.04022   0.05584   0.05871
 Alpha virt. eigenvalues --    0.06996   0.07665   0.08439   0.10013   0.10850
 Alpha virt. eigenvalues --    0.11025   0.12719   0.12999   0.13310   0.13606

 Mulliken charges:
               1
     1  C    0.706917
     2  C    0.706917
     3  C    0.643074
     4  C    0.643074
     5  C    0.321101
     6  C    0.321101
     7  H   -0.327311
     8  H   -0.323287
     9  H   -0.327311
    10  H   -0.323287
    11  H   -0.513400
    12  H   -0.513400
    13  H   -0.507093
    14  H   -0.507093
 Sum of Mulliken charges =  -0.00000

 Dipole moment (field-independent basis, Debye):
    X=             -0.0000    Y=              0.0000    Z=              0.0000  Tot=              0.0000

 Test job not archived.
 1\1\GINC-SE107\SP\RHF\Aug-CC-pVDZ\C6H8\OHZDE\05-Apr-2025\0\\#t hf aug-
 cc-pvdz iop(5/13=1,5/36=2,99/5=2) pseudo=read geom=check guess=(read,t
 check) scf=(maxcycle=1)\\title\\0,1\C,0,1.188032,2.829092,0.\C,0,-1.18
 8032,-2.829092,0.\C,0,1.188032,1.4921,0.\C,0,-1.188032,-1.4921,0.\C,0,
 -0.00247,0.67286,0.\C,0,0.00247,-0.67286,0.\H,0,2.108575,3.395117,0.\H
 ,0,0.264255,3.394397,0.\H,0,-2.108575,-3.395117,0.\H,0,-0.264255,-3.39
 4397,0.\H,0,2.137085,0.964589,0.\H,0,-2.137085,-0.964589,0.\H,0,-0.955
 353,1.194813,0.\H,0,0.955353,-1.194813,0.\\Version=ES64L-G16RevC.01\St

 Normal termination of Gaussian 16 at Sat Apr  5 22:45:43 2025.
