 Gaussian 16, Revision C.01,

 ----------------------------------------------------------------------
 #t hf aug-cc-pvdz symm=none int=(grid=ultrafine) guess=(read,tcheck) s
 table=(opt,rrhf)
 ----------------------------------------------------------------------
 -----
 title
 -----
 Symbolic Z-matrix:
 Charge =  0 Multiplicity = 1

 SCF Done:  E(RHF) =  -1164.73542815     A.U. after   14 cycles
 Normal termination of Gaussian 16 at Sat Apr  5 22:45:10 2025.
 Gaussian 16:  ES64L-G16RevC.01  3-Jul-2019

 ----------------------------------------------------------------------
 #t hf aug-cc-pvdz iop(5/13=1,5/36=2,99/5=2) pseudo=read geom=check gue
 ss=(read,tcheck) scf=(maxcycle=1)
 ----------------------------------------------------------------------
 -----
 title
 -----
 Structure from the checkpoint file:  "E-1-chloro-3-chloroaminooxyprop-1-ene.chk"
 Charge =  0 Multiplicity = 1

                         Standard orientation:
 ---------------------------------------------------------------------
 Center     Atomic      Atomic             Coordinates (Angstroms)
 Number     Number       Type             X           Y           Z
 ---------------------------------------------------------------------
      1         17           0       -3.711306   -0.250025   -0.222443
      2         17           0        3.245768   -0.766998   -0.070147
      3          8           0        1.080001    0.724444   -0.457102
      4          7           0        2.390823    0.873305   -0.035920
      5          6           0        0.233303    0.411497    0.671316
      6          6           0       -1.182193    0.586458    0.237594
      7          6           0       -2.040512   -0.420694    0.228155
      8          1           0        0.492240    1.094323    1.483319
      9          1           0        0.434639   -0.612867    0.990518
     10          1           0       -1.495582    1.578817   -0.060378
     11          1           0       -1.781946   -1.432223    0.504925
     12          1           0        2.825450    1.289086   -0.858485
 ---------------------------------------------------------------------

 SCF Done:  E(RHF) =  -1164.84821734     A.U. after    2 cycles

 The electronic state is 1-A.
 Alpha  occ. eigenvalues -- -103.67790-103.67550 -20.64826 -15.77389 -11.32267
 Alpha  occ. eigenvalues --  -11.32193 -11.27316 -10.70843 -10.70839  -8.36579
 Alpha  occ. eigenvalues --   -8.36553  -8.36262  -8.36257  -8.36228  -8.36200
 Alpha  occ. eigenvalues --   -1.42467  -1.19769  -1.18346  -1.08636  -1.01995
 Alpha  occ. eigenvalues --   -0.91099  -0.80637  -0.73752  -0.70786  -0.68962
 Alpha  occ. eigenvalues --   -0.63923  -0.63284  -0.56861  -0.54701  -0.53355
 Alpha  occ. eigenvalues --   -0.52704  -0.47725  -0.47526  -0.47148  -0.42812
 Alpha  occ. eigenvalues --   -0.38720
 Alpha virt. eigenvalues --    0.03498   0.04128   0.04897   0.05381   0.06511
 Alpha virt. eigenvalues --    0.08294   0.09199   0.09529   0.11295   0.12161
 Alpha virt. eigenvalues --    0.12904   0.13925   0.15145   0.15359   0.15715

 Mulliken charges:
               1
     1  Cl  -0.268737
     2  Cl   0.158287
     3  O   -0.652008
     4  N   -0.181849
     5  C    0.656028
     6  C    1.157938
     7  C   -0.136400
     8  H   -0.070463
     9  H   -0.222248
    10  H   -0.301810
    11  H   -0.323097
    12  H    0.184359
 Sum of Mulliken charges =  -0.00000

 Dipole moment (field-independent basis, Debye):
    X=              0.3681    Y=              1.0454    Z=              0.6190  Tot=              1.2695

 Test job not archived.
 1\1\GINC-SE222\SP\RHF\Aug-CC-pVDZ\C3H5Cl2N1O1\OHZDE\05-Apr-2025\0\\#t
 hf aug-cc-pvdz iop(5/13=1,5/36=2,99/5=2) pseudo=read geom=check guess=
 (read,tcheck) scf=(maxcycle=1)\\title\\0,1\Cl,0,-3.711306,-0.250025,-0
 .222443\Cl,0,3.245768,-0.766998,-0.070147\O,0,1.080001,0.724444,-0.457
 102\N,0,2.390823,0.873305,-0.03592\C,0,0.233303,0.411497,0.671316\C,0,
 -1.182193,0.586458,0.237594\C,0,-2.040512,-0.420694,0.228155\H,0,0.492
 24,1.094323,1.483319\H,0,0.434639,-0.612867,0.990518\H,0,-1.495582,1.5
 78817,-0.060378\H,0,-1.781946,-1.432223,0.504925\H,0,2.82545,1.289086,

 Normal termination of Gaussian 16 at Sat Apr  5 22:45:38 2025.
