 Gaussian 16, Revision C.01,

 ----------------------------------------------------------------------
 #t hf aug-cc-pvdz symm=none int=(grid=ultrafine) guess=(read,tcheck) s
 table=(opt,rrhf)
 ----------------------------------------------------------------------
 -----
 title
 -----
 Symbolic Z-matrix:
 Charge =  0 Multiplicity = 1

 SCF Done:  E(RHF) =  -233.020936786     A.U. after   14 cycles
 Normal termination of Gaussian 16 at Sat Apr  5 22:45:24 2025.
 Gaussian 16:  ES64L-G16RevC.01  3-Jul-2019

 ----------------------------------------------------------------------
 #t hf aug-cc-pvdz iop(5/13=1,5/36=2,99/5=2) pseudo=read geom=check gue
 ss=(read,tcheck) scf=(maxcycle=1)
 ----------------------------------------------------------------------
 -----
 title
 -----
 Structure from the checkpoint file:  "E-1-3-hexadiene.chk"
 Charge =  0 Multiplicity = 1

                         Standard orientation:
 ---------------------------------------------------------------------
 Center     Atomic      Atomic             Coordinates (Angstroms)
 Number     Number       Type             X           Y           Z
 ---------------------------------------------------------------------
      1          1           0       -0.081998    3.962781    0.000000
      2          1           0        1.401922    2.867737    0.000000
      3          6           0        0.322716    2.960628    0.000000
      4          1           0       -1.546765    2.025344    0.000000
      5          6           0       -0.469613    1.886059    0.000000
      6          1           0        1.076131    0.373269    0.000000
      7          6           0        0.000000    0.512043    0.000000
      8          1           0       -1.883157   -0.373116    0.000000
      9          6           0       -0.810602   -0.551298    0.000000
     10          1           0       -0.872163   -2.479687    0.867089
     11          1           0       -0.872163   -2.479687   -0.867089
     12          6           0       -0.407996   -1.995454    0.000000
     13          1           0        1.273015   -3.356046    0.000000
     14          1           0        1.577427   -1.862279   -0.881724
     15          1           0        1.577427   -1.862279    0.881724
     16          6           0        1.090549   -2.281317    0.000000
 ---------------------------------------------------------------------

 SCF Done:  E(RHF) =  -233.095478602     A.U. after    2 cycles

 The electronic state is 1-A'.
 Alpha  occ. eigenvalues --  -11.24405 -11.24300 -11.23951 -11.23520 -11.23116
 Alpha  occ. eigenvalues --  -11.22630  -1.09429  -1.04238  -0.97026  -0.87675
 Alpha  occ. eigenvalues --   -0.78463  -0.74436  -0.64724  -0.63129  -0.61659
 Alpha  occ. eigenvalues --   -0.57106  -0.56569  -0.51081  -0.50421  -0.49666
 Alpha  occ. eigenvalues --   -0.48199  -0.43673  -0.31383
 Alpha virt. eigenvalues --    0.03489   0.03970   0.04218   0.05384   0.05779
 Alpha virt. eigenvalues --    0.06211   0.07737   0.07772   0.08377   0.09925
 Alpha virt. eigenvalues --    0.10681   0.11662   0.12709   0.13737   0.13959

 Mulliken charges:
               1
     1  H   -0.346663
     2  H   -0.335292
     3  C    0.811256
     4  H   -0.512019
     5  C    0.493092
     6  H   -0.642441
     7  C    0.350931
     8  H   -0.512205
     9  C    0.196704
    10  H    0.107935
    11  H    0.107935
    12  C   -0.200095
    13  H   -0.135762
    14  H   -0.013277
    15  H   -0.013277
    16  C    0.643178
 Sum of Mulliken charges =  -0.00000

 Dipole moment (field-independent basis, Debye):
    X=             -0.1628    Y=             -0.7867    Z=             -0.0000  Tot=              0.8034

 Test job not archived.
 1\1\GINC-SE108\SP\RHF\Aug-CC-pVDZ\C6H10\OHZDE\05-Apr-2025\0\\#t hf aug
 -cc-pvdz iop(5/13=1,5/36=2,99/5=2) pseudo=read geom=check guess=(read,
 tcheck) scf=(maxcycle=1)\\title\\0,1\H,0,-0.081998,3.962781,0.\H,0,1.4
 01922,2.867737,0.\C,0,0.322716,2.960628,0.\H,0,-1.546765,2.025344,0.\C
 ,0,-0.469613,1.886059,0.\H,0,1.076131,0.373269,0.\C,0,0.,0.512043,0.\H
 ,0,-1.883157,-0.373116,0.\C,0,-0.810602,-0.551298,0.\H,0,-0.872163,-2.
 479687,0.867089\H,0,-0.872163,-2.479687,-0.867089\C,0,-0.407996,-1.995
 454,0.\H,0,1.273015,-3.356046,0.\H,0,1.577427,-1.862279,-0.881724\H,0,

 Normal termination of Gaussian 16 at Sat Apr  5 22:45:37 2025.
