 Gaussian 16, Revision C.01,

 ----------------------------------------------------------------------
 #t hf aug-cc-pvdz symm=none int=(grid=ultrafine) guess=(read,tcheck) s
 table=(opt,rrhf)
 ----------------------------------------------------------------------
 -----
 title
 -----
 Symbolic Z-matrix:
 Charge =  0 Multiplicity = 1

 SCF Done:  E(RHF) =  -275.761049958     A.U. after   11 cycles
 Normal termination of Gaussian 16 at Sat Apr  5 22:44:55 2025.
 Gaussian 16:  ES64L-G16RevC.01  3-Jul-2019

 ----------------------------------------------------------------------
 #t hf aug-cc-pvdz iop(5/13=1,5/36=2,99/5=2) pseudo=read geom=check gue
 ss=(read,tcheck) scf=(maxcycle=1)
 ----------------------------------------------------------------------
 -----
 title
 -----
 Structure from the checkpoint file:  "E-1-2-difluoroethene.chk"
 Charge =  0 Multiplicity = 1

                         Standard orientation:
 ---------------------------------------------------------------------
 Center     Atomic      Atomic             Coordinates (Angstroms)
 Number     Number       Type             X           Y           Z
 ---------------------------------------------------------------------
      1          6           0       -0.332378    0.570025    0.000000
      2          6           0        0.332378   -0.570025    0.000000
      3          9           0        0.332378    1.740937    0.000000
      4          9           0       -0.332378   -1.740937    0.000000
      5          1           0       -1.407427    0.668528    0.000000
      6          1           0        1.407427   -0.668528    0.000000
 ---------------------------------------------------------------------

 SCF Done:  E(RHF) =  -275.860007954     A.U. after    2 cycles

 The electronic state is 1-AG.
 Alpha  occ. eigenvalues --  -26.14980 -26.14978 -11.35065 -11.34887  -1.68872
 Alpha  occ. eigenvalues --   -1.68672  -1.07998  -0.90265  -0.81090  -0.81035
 Alpha  occ. eigenvalues --   -0.77052  -0.75588  -0.73966  -0.68197  -0.59576
 Alpha  occ. eigenvalues --   -0.40573
 Alpha virt. eigenvalues --    0.03998   0.04414   0.07847   0.10220   0.10502
 Alpha virt. eigenvalues --    0.11815   0.12434   0.15358   0.16712   0.18395
 Alpha virt. eigenvalues --    0.19995   0.24383   0.26364   0.27530   0.29418

 Mulliken charges:
               1
     1  C    0.486204
     2  C    0.486204
     3  F   -0.322257
     4  F   -0.322257
     5  H   -0.163947
     6  H   -0.163947
 Sum of Mulliken charges =  -0.00000

 Dipole moment (field-independent basis, Debye):
    X=             -0.0000    Y=             -0.0000    Z=              0.0000  Tot=              0.0000

 Test job not archived.
 1\1\GINC-SE047\SP\RHF\Aug-CC-pVDZ\C2H2F2\OHZDE\05-Apr-2025\0\\#t hf au
 g-cc-pvdz iop(5/13=1,5/36=2,99/5=2) pseudo=read geom=check guess=(read
 ,tcheck) scf=(maxcycle=1)\\title\\0,1\C,0,-0.332378,0.570025,0.\C,0,0.
 332378,-0.570025,0.\F,0,0.332378,1.740937,0.\F,0,-0.332378,-1.740937,0
 .\H,0,-1.407427,0.668528,0.\H,0,1.407427,-0.668528,0.\\Version=ES64L-G
 16RevC.01\State=1-AG\HF=-275.860008\RMSD=8.026e-03\Dipole=0.,0.,0.\Qua
 drupole=3.1215595,-3.3382406,0.2166811,-2.4425186,0.,0.\PG=C02H [SGH(C
 2H2F2)]\\@

 Normal termination of Gaussian 16 at Sat Apr  5 22:45:00 2025.
