 Gaussian 16, Revision C.01,

 ----------------------------------------------------------------------
 #t hf aug-cc-pvdz symm=none int=(grid=ultrafine) guess=(read,tcheck) s
 table=(opt,rrhf)
 ----------------------------------------------------------------------
 -----
 title
 -----
 Symbolic Z-matrix:
 Charge =  0 Multiplicity = 1

 SCF Done:  E(RHF) =  -193.983257197     A.U. after   13 cycles
 Normal termination of Gaussian 16 at Sat Apr  5 22:45:06 2025.
 Gaussian 16:  ES64L-G16RevC.01  3-Jul-2019

 ----------------------------------------------------------------------
 #t hf aug-cc-pvdz iop(5/13=1,5/36=2,99/5=2) pseudo=read geom=check gue
 ss=(read,tcheck) scf=(maxcycle=1)
 ----------------------------------------------------------------------
 -----
 title
 -----
 Structure from the checkpoint file:  "E-1-3-pentadiene.chk"
 Charge =  0 Multiplicity = 1

                         Standard orientation:
 ---------------------------------------------------------------------
 Center     Atomic      Atomic             Coordinates (Angstroms)
 Number     Number       Type             X           Y           Z
 ---------------------------------------------------------------------
      1          6           0       -2.410690    0.780867    0.000000
      2          6           0       -1.408259   -0.101026    0.000000
      3          6           0        0.000000    0.249530    0.000000
      4          6           0        0.998002   -0.639690    0.000000
      5          6           0        2.453681   -0.304011    0.000000
      6          1           0       -2.224938    1.847996    0.000000
      7          1           0       -3.443962    0.464038    0.000000
      8          1           0       -1.639093   -1.162270    0.000000
      9          1           0        0.236275    1.310487    0.000000
     10          1           0        0.747223   -1.697270    0.000000
     11          1           0        2.617556    0.773489    0.000000
     12          1           0        2.955266   -0.725244    0.875717
     13          1           0        2.955266   -0.725244   -0.875717
 ---------------------------------------------------------------------

 SCF Done:  E(RHF) =  -194.045787711     A.U. after    2 cycles

 The electronic state is 1-A'.
 Alpha  occ. eigenvalues --  -11.24550 -11.24495 -11.23726 -11.23476 -11.23248
 Alpha  occ. eigenvalues --   -1.09037  -1.02507  -0.93127  -0.79456  -0.75502
 Alpha  occ. eigenvalues --   -0.65263  -0.62319  -0.57246  -0.57228  -0.54199
 Alpha  occ. eigenvalues --   -0.51666  -0.49041  -0.43832  -0.31495
 Alpha virt. eigenvalues --    0.03615   0.04128   0.04466   0.06013   0.06204
 Alpha virt. eigenvalues --    0.06545   0.08456   0.08637   0.09730   0.11216
 Alpha virt. eigenvalues --    0.12429   0.13692   0.14177   0.14683   0.15097

 Mulliken charges:
               1
     1  C    0.755340
     2  C    0.384589
     3  C    0.711646
     4  C   -0.073534
     5  C    0.218803
     6  H   -0.338372
     7  H   -0.334123
     8  H   -0.486845
     9  H   -0.467489
    10  H   -0.420893
    11  H   -0.129442
    12  H    0.090160
    13  H    0.090160
 Sum of Mulliken charges =  -0.00000

 Dipole moment (field-independent basis, Debye):
    X=              0.6428    Y=             -0.2255    Z=              0.0000  Tot=              0.6812

 Test job not archived.
 1\1\GINC-SE170\SP\RHF\Aug-CC-pVDZ\C5H8\OHZDE\05-Apr-2025\0\\#t hf aug-
 cc-pvdz iop(5/13=1,5/36=2,99/5=2) pseudo=read geom=check guess=(read,t
 check) scf=(maxcycle=1)\\title\\0,1\C,0,-2.41069,0.780868,0.\C,0,-1.40
 8259,-0.101026,0.\C,0,0.,0.24953,0.\C,0,0.998002,-0.63969,0.\C,0,2.453
 681,-0.304012,0.\H,0,-2.224937,1.847997,0.\H,0,-3.443962,0.464039,0.\H
 ,0,-1.639093,-1.162269,0.\H,0,0.236275,1.310487,0.\H,0,0.747222,-1.697
 27,0.\H,0,2.617556,0.773488,0.\H,0,2.955266,-0.725245,0.875717\H,0,2.9
 55266,-0.725245,-0.875717\\Version=ES64L-G16RevC.01\State=1-A'\HF=-194

 Normal termination of Gaussian 16 at Sat Apr  5 22:45:36 2025.
