 Gaussian 16, Revision C.01,

 ----------------------------------------------------------------------
 #t hf aug-cc-pvdz symm=none int=(grid=ultrafine) guess=(read,tcheck) s
 table=(opt,rrhf)
 ----------------------------------------------------------------------
 -----
 title
 -----
 Symbolic Z-matrix:
 Charge =  0 Multiplicity = 1

 SCF Done:  E(RHF) =  -413.687007386     A.U. after   13 cycles
 Normal termination of Gaussian 16 at Sat Apr  5 22:45:41 2025.
 Gaussian 16:  ES64L-G16RevC.01  3-Jul-2019

 ----------------------------------------------------------------------
 #t hf aug-cc-pvdz iop(5/13=1,5/36=2,99/5=2) pseudo=read geom=check gue
 ss=(read,tcheck) scf=(maxcycle=1)
 ----------------------------------------------------------------------
 -----
 title
 -----
 Structure from the checkpoint file:  "E-1-3-3-trifluoropropene.chk"
 Charge =  0 Multiplicity = 1

                         Standard orientation:
 ---------------------------------------------------------------------
 Center     Atomic      Atomic             Coordinates (Angstroms)
 Number     Number       Type             X           Y           Z
 ---------------------------------------------------------------------
      1          6           0       -0.154478    1.510212    0.000000
      2          1           0       -1.217229    1.713662   -0.000000
      3          9           0        0.576176    2.632653    0.000000
      4          6           0        0.400564    0.312634    0.000000
      5          1           0        1.474625    0.185038    0.000000
      6          6           0       -0.438047   -0.911202   -0.000000
      7          1           0       -1.510614   -0.713266   -0.000000
      8          9           0       -0.154478   -1.686065    1.097573
      9          9           0       -0.154478   -1.686065   -1.097573
 ---------------------------------------------------------------------

 SCF Done:  E(RHF) =  -413.833016993     A.U. after    2 cycles

 The electronic state is 1-A'.
 Alpha  occ. eigenvalues --  -26.16085 -26.13980 -26.13971 -11.44016 -11.37290
 Alpha  occ. eigenvalues --  -11.27635  -1.70192  -1.70145  -1.65616  -1.12186
 Alpha  occ. eigenvalues --   -0.99766  -0.89299  -0.83042  -0.81912  -0.81352
 Alpha  occ. eigenvalues --   -0.78184  -0.77300  -0.73240  -0.71970  -0.69692
 Alpha  occ. eigenvalues --   -0.66458  -0.61249  -0.56336  -0.42612
 Alpha virt. eigenvalues --    0.03203   0.04492   0.05169   0.08861   0.09956
 Alpha virt. eigenvalues --    0.09987   0.10481   0.12810   0.13327   0.15068
 Alpha virt. eigenvalues --    0.15322   0.15990   0.16564   0.16909   0.21056

 Mulliken charges:
               1
     1  C    0.570509
     2  H   -0.211439
     3  F   -0.315219
     4  C    0.297265
     5  H   -0.285350
     6  C    0.942778
     7  H   -0.248423
     8  F   -0.375061
     9  F   -0.375061
 Sum of Mulliken charges =  -0.00000

 Dipole moment (field-independent basis, Debye):
    X=             -1.7063    Y=              1.4408    Z=              0.0000  Tot=              2.2333

 Test job not archived.
 1\1\GINC-SE107\SP\RHF\Aug-CC-pVDZ\C3H3F3\OHZDE\05-Apr-2025\0\\#t hf au
 g-cc-pvdz iop(5/13=1,5/36=2,99/5=2) pseudo=read geom=check guess=(read
 ,tcheck) scf=(maxcycle=1)\\title\\0,1\C,0,-0.154478,1.510212,0.\H,0,-1
 .217229,1.713662,0.\F,0,0.576176,2.632653,0.\C,0,0.400564,0.312634,0.\
 H,0,1.474625,0.185038,0.\C,0,-0.438047,-0.911202,0.\H,0,-1.510614,-0.7
 13266,0.\F,0,-0.154478,-1.686065,1.097573\F,0,-0.154478,-1.686065,-1.0
 97573\\Version=ES64L-G16RevC.01\State=1-A'\HF=-413.833017\RMSD=8.215e-
 03\Dipole=-0.6713262,0.5668486,0.\Quadrupole=5.3054054,-4.4133525,-0.8

 Normal termination of Gaussian 16 at Sat Apr  5 22:45:44 2025.
