 Gaussian 16, Revision C.01,

 ----------------------------------------------------------------------
 #t hf aug-cc-pvdz symm=none int=(grid=ultrafine) guess=(read,tcheck) s
 table=(opt,rrhf)
 ----------------------------------------------------------------------
 -----
 title
 -----
 Symbolic Z-matrix:
 Charge =  0 Multiplicity = 1

 SCF Done:  E(RHF) =  -576.010752575     A.U. after   13 cycles

 1\1\GINC-SE220\Stability\RHF\Aug-CC-pVDZ\C3H5Cl1\OHZDE\05-Apr-2025\0\\
 #t hf aug-cc-pvdz symm=none int=(grid=ultrafine) guess=(read,tcheck) s
 table=(opt,rrhf)\\title\\0,1\C,0,0.,0.452712,0.\C,0,0.928558,-0.489343
 ,0.\C,0,2.397943,-0.202796,0.\Cl,0,-1.714743,0.109952,0.\H,0,0.209814,
 1.512034,0.\H,0,0.622206,-1.529082,0.\H,0,2.601687,0.867563,0.\H,0,2.8
 78957,-0.641565,0.877384\H,0,2.878957,-0.641565,-0.877384\\Version=ES6
 4L-G16RevC.01\HF=-576.0107526\RMSD=4.013e-09\Dipole=0.9104663,0.010809
 2,0.\Quadrupole=0.0365179,1.4672785,-1.5037965,-0.1124753,0.,0.\PG=Unk

 Normal termination of Gaussian 16 at Sat Apr  5 22:45:00 2025.
 Gaussian 16:  ES64L-G16RevC.01  3-Jul-2019

 ----------------------------------------------------------------------
 #t hf aug-cc-pvdz iop(5/13=1,5/36=2,99/5=2) pseudo=read geom=check gue
 ss=(read,tcheck) scf=(maxcycle=1)
 ----------------------------------------------------------------------
 -----
 title
 -----
 Structure from the checkpoint file:  "E-1-chloro-1-propene.chk"
 Charge =  0 Multiplicity = 1

                         Standard orientation:
 ---------------------------------------------------------------------
 Center     Atomic      Atomic             Coordinates (Angstroms)
 Number     Number       Type             X           Y           Z
 ---------------------------------------------------------------------
      1          6           0        0.000000    0.452712    0.000000
      2          6           0        0.928558   -0.489343    0.000000
      3          6           0        2.397943   -0.202796    0.000000
      4         17           0       -1.714743    0.109951    0.000000
      5          1           0        0.209814    1.512034    0.000000
      6          1           0        0.622206   -1.529082    0.000000
      7          1           0        2.601687    0.867563    0.000000
      8          1           0        2.878957   -0.641565    0.877384
      9          1           0        2.878957   -0.641565   -0.877384
 ---------------------------------------------------------------------

 SCF Done:  E(RHF) =  -576.068331339     A.U. after    2 cycles

 The electronic state is 1-A'.
 Alpha  occ. eigenvalues -- -103.66038 -11.30025 -11.26213 -11.24844 -10.69323
 Alpha  occ. eigenvalues --   -8.35057  -8.34751  -8.34741  -1.17800  -1.06257
 Alpha  occ. eigenvalues --   -0.93121  -0.78102  -0.64348  -0.62937  -0.58739
 Alpha  occ. eigenvalues --   -0.54397  -0.52015  -0.50896  -0.46109  -0.36466
 Alpha virt. eigenvalues --    0.03387   0.04641   0.05313   0.05654   0.07384
 Alpha virt. eigenvalues --    0.09250   0.10367   0.11931   0.13505   0.14039
 Alpha virt. eigenvalues --    0.16074   0.16482   0.16709   0.17006   0.17474

 Mulliken charges:
               1
     1  C   -0.055165
     2  C    0.831355
     3  C    0.190159
     4  Cl  -0.287692
     5  H   -0.323739
     6  H   -0.292034
     7  H   -0.125164
     8  H    0.031140
     9  H    0.031140
 Sum of Mulliken charges =  -0.00000

 Dipole moment (field-independent basis, Debye):
    X=              2.3914    Y=              0.0207    Z=             -0.0000  Tot=              2.3914

 Test job not archived.
 1\1\GINC-SE220\SP\RHF\Aug-CC-pVDZ\C3H5Cl1\OHZDE\05-Apr-2025\0\\#t hf a
 ug-cc-pvdz iop(5/13=1,5/36=2,99/5=2) pseudo=read geom=check guess=(rea
 d,tcheck) scf=(maxcycle=1)\\title\\0,1\C,0,0.,0.452712,0.\C,0,0.928558
 ,-0.489343,0.\C,0,2.397943,-0.202796,0.\Cl,0,-1.714743,0.109952,0.\H,0
 ,0.209814,1.512034,0.\H,0,0.622206,-1.529082,0.\H,0,2.601687,0.867563,
 0.\H,0,2.878957,-0.641565,0.877384\H,0,2.878957,-0.641565,-0.877384\\V
 ersion=ES64L-G16RevC.01\State=1-A'\HF=-576.0683313\RMSD=5.705e-03\Dipo
 le=0.9408305,0.008138,0.\Quadrupole=0.0495062,1.4681133,-1.5176195,-0.

 Normal termination of Gaussian 16 at Sat Apr  5 22:45:36 2025.
