 Gaussian 16, Revision C.01,

 ----------------------------------------------------------------------
 #t hf aug-cc-pvdz symm=none int=(grid=ultrafine) guess=(read,tcheck) s
 table=(opt,rrhf)
 ----------------------------------------------------------------------
 -----
 title
 -----
 Symbolic Z-matrix:
 Charge =  0 Multiplicity = 1

 SCF Done:  E(RHF) =  -413.662774481     A.U. after   13 cycles
 Normal termination of Gaussian 16 at Sat Apr  5 22:43:57 2025.
 Gaussian 16:  ES64L-G16RevC.01  3-Jul-2019

 ----------------------------------------------------------------------
 #t hf aug-cc-pvdz iop(5/13=1,5/36=2,99/5=2) pseudo=read geom=check gue
 ss=(read,tcheck) scf=(maxcycle=1)
 ----------------------------------------------------------------------
 -----
 title
 -----
 Structure from the checkpoint file:  "E-1-2-3-trifluoropropene.chk"
 Charge =  0 Multiplicity = 1

                         Standard orientation:
 ---------------------------------------------------------------------
 Center     Atomic      Atomic             Coordinates (Angstroms)
 Number     Number       Type             X           Y           Z
 ---------------------------------------------------------------------
      1          6           0        0.146733   -1.257992   -0.001003
      2          9           0        1.486653   -1.231504    0.002109
      3          1           0       -0.279002   -2.250688   -0.004801
      4          6           0       -0.595977   -0.163277    0.000497
      5          9           0       -1.944445   -0.328241   -0.001783
      6          6           0       -0.254497    1.291824    0.004837
      7          9           0        1.109405    1.503366   -0.004948
      8          1           0       -0.674432    1.763788    0.897350
      9          1           0       -0.688636    1.770980   -0.876947
 ---------------------------------------------------------------------

 SCF Done:  E(RHF) =  -413.807894544     A.U. after    2 cycles

 The electronic state is 1-A.
 Alpha  occ. eigenvalues --  -26.15758 -26.14781 -26.12762 -11.36017 -11.35805
 Alpha  occ. eigenvalues --  -11.35132  -1.69454  -1.68725  -1.66144  -1.10712
 Alpha  occ. eigenvalues --   -1.00712  -0.88891  -0.82027  -0.81217  -0.78557
 Alpha  occ. eigenvalues --   -0.76005  -0.75762  -0.75626  -0.73912  -0.71187
 Alpha  occ. eigenvalues --   -0.65831  -0.58662  -0.56871  -0.40074
 Alpha virt. eigenvalues --    0.03525   0.04386   0.05230   0.07771   0.09913
 Alpha virt. eigenvalues --    0.10652   0.10731   0.13494   0.13833   0.14846
 Alpha virt. eigenvalues --    0.15651   0.15848   0.15950   0.17598   0.19555

 Mulliken charges:
               1
     1  C    0.763461
     2  F   -0.295390
     3  H   -0.225951
     4  C   -0.219582
     5  F   -0.365669
     6  C    0.685407
     7  F   -0.348291
     8  H    0.003608
     9  H    0.002408
 Sum of Mulliken charges =   0.00000

 Dipole moment (field-independent basis, Debye):
    X=             -1.9640    Y=              0.0907    Z=              0.0149  Tot=              1.9661

 Test job not archived.
 1\1\GINC-SE045\SP\RHF\Aug-CC-pVDZ\C3H3F3\OHZDE\05-Apr-2025\0\\#t hf au
 g-cc-pvdz iop(5/13=1,5/36=2,99/5=2) pseudo=read geom=check guess=(read
 ,tcheck) scf=(maxcycle=1)\\title\\0,1\C,0,0.146734,-1.257992,-0.001003
 \F,0,1.486654,-1.231502,0.002109\H,0,-0.279,-2.250688,-0.004801\C,0,-0
 .595977,-0.163277,0.000497\F,0,-1.944444,-0.328243,-0.001783\C,0,-0.25
 4498,1.291824,0.004837\F,0,1.109404,1.503367,-0.004948\H,0,-0.674434,1
 .763787,0.89735\H,0,-0.688638,1.770979,-0.876947\\Version=ES64L-G16Rev
 C.01\State=1-A\HF=-413.8078945\RMSD=8.959e-03\Dipole=-0.7726829,0.0357

 Normal termination of Gaussian 16 at Sat Apr  5 22:44:42 2025.
