 Gaussian 16, Revision C.01,

 ----------------------------------------------------------------------
 #t hf aug-cc-pvdz symm=none int=(grid=ultrafine) guess=(read,tcheck) s
 table=(opt,rrhf)
 ----------------------------------------------------------------------
 -----
 title
 -----
 Symbolic Z-matrix:
 Charge =  0 Multiplicity = 1

 SCF Done:  E(RHF) =  -615.052620356     A.U. after   13 cycles

 1\1\GINC-SE152\Stability\RHF\Aug-CC-pVDZ\C4H7Cl1\OHZDE\05-Apr-2025\0\\
 #t hf aug-cc-pvdz symm=none int=(grid=ultrafine) guess=(read,tcheck) s
 table=(opt,rrhf)\\title\\0,1\C,0,-2.219388,-1.031508,0.\H,0,-2.709797,
 -0.060794,0.\H,0,-2.56757,-1.583635,0.87654\H,0,-2.56757,-1.583635,-0.
 87654\C,0,0.,0.174336,0.\H,0,-0.192077,-1.881945,0.\C,0,-0.724178,-0.9
 38568,0.\H,0,-0.067567,2.12055,0.878325\H,0,-0.067567,2.12055,-0.87832
 5\C,0,-0.449589,1.597487,0.\Cl,0,1.768594,0.022859,0.\H,0,-1.535021,1.
 669819,0.\\Version=ES64L-G16RevC.01\HF=-615.0526204\RMSD=4.216e-09\Dip

 Normal termination of Gaussian 16 at Sat Apr  5 22:45:04 2025.
 Gaussian 16:  ES64L-G16RevC.01  3-Jul-2019

 ----------------------------------------------------------------------
 #t hf aug-cc-pvdz iop(5/13=1,5/36=2,99/5=2) pseudo=read geom=check gue
 ss=(read,tcheck) scf=(maxcycle=1)
 ----------------------------------------------------------------------
 -----
 title
 -----
 Structure from the checkpoint file:  "E-2-chloro-2-butene.chk"
 Charge =  0 Multiplicity = 1

                         Standard orientation:
 ---------------------------------------------------------------------
 Center     Atomic      Atomic             Coordinates (Angstroms)
 Number     Number       Type             X           Y           Z
 ---------------------------------------------------------------------
      1          6           0       -2.219388   -1.031508    0.000000
      2          1           0       -2.709797   -0.060794    0.000000
      3          1           0       -2.567570   -1.583635    0.876540
      4          1           0       -2.567570   -1.583635   -0.876540
      5          6           0        0.000000    0.174336    0.000000
      6          1           0       -0.192077   -1.881945    0.000000
      7          6           0       -0.724178   -0.938568    0.000000
      8          1           0       -0.067567    2.120550    0.878325
      9          1           0       -0.067567    2.120550   -0.878325
     10          6           0       -0.449589    1.597487    0.000000
     11         17           0        1.768594    0.022859    0.000000
     12          1           0       -1.535021    1.669819    0.000000
 ---------------------------------------------------------------------

 SCF Done:  E(RHF) =  -615.121815289     A.U. after    2 cycles

 The electronic state is 1-A'.
 Alpha  occ. eigenvalues -- -103.65229 -11.30532 -11.25229 -11.24747 -11.24470
 Alpha  occ. eigenvalues --  -10.68525  -8.34249  -8.33961  -8.33944  -1.17667
 Alpha  occ. eigenvalues --   -1.06177  -0.98911  -0.90947  -0.72752  -0.65919
 Alpha  occ. eigenvalues --   -0.60832  -0.60181  -0.57371  -0.55821  -0.53741
 Alpha  occ. eigenvalues --   -0.50029  -0.48745  -0.45473  -0.35379
 Alpha virt. eigenvalues --    0.03327   0.04382   0.05197   0.05501   0.06795
 Alpha virt. eigenvalues --    0.06944   0.08086   0.10469   0.10915   0.12139
 Alpha virt. eigenvalues --    0.14003   0.14543   0.14869   0.16162   0.16374

 Mulliken charges:
               1
     1  C    0.252611
     2  H   -0.150916
     3  H    0.091077
     4  H    0.091077
     5  C   -0.529506
     6  H   -0.376291
     7  C    0.467163
     8  H    0.098828
     9  H    0.098828
    10  C    0.373577
    11  Cl  -0.357313
    12  H   -0.059135
 Sum of Mulliken charges =  -0.00000

 Dipole moment (field-independent basis, Debye):
    X=             -2.4808    Y=              0.1791    Z=              0.0000  Tot=              2.4873

 Test job not archived.
 1\1\GINC-SE152\SP\RHF\Aug-CC-pVDZ\C4H7Cl1\OHZDE\05-Apr-2025\0\\#t hf a
 ug-cc-pvdz iop(5/13=1,5/36=2,99/5=2) pseudo=read geom=check guess=(rea
 d,tcheck) scf=(maxcycle=1)\\title\\0,1\C,0,-2.219388,-1.031508,0.\H,0,
 -2.709797,-0.060794,0.\H,0,-2.56757,-1.583635,0.87654\H,0,-2.56757,-1.
 583635,-0.87654\C,0,0.,0.174336,0.\H,0,-0.192077,-1.881945,0.\C,0,-0.7
 24178,-0.938568,0.\H,0,-0.067567,2.12055,0.878325\H,0,-0.067567,2.1205
 5,-0.878325\C,0,-0.449589,1.597487,0.\Cl,0,1.768594,0.022859,0.\H,0,-1
 .535021,1.669819,0.\\Version=ES64L-G16RevC.01\State=1-A'\HF=-615.12181

 Normal termination of Gaussian 16 at Sat Apr  5 22:45:37 2025.
