 Gaussian 16, Revision C.01,

 ----------------------------------------------------------------------
 #t hf aug-cc-pvdz symm=none int=(grid=ultrafine) guess=(read,tcheck) s
 table=(opt,rrhf)
 ----------------------------------------------------------------------
 -----
 title
 -----
 Symbolic Z-matrix:
 Charge =  0 Multiplicity = 1

 SCF Done:  E(RHF) =  -490.470752553     A.U. after   16 cycles
 Normal termination of Gaussian 16 at Sat Apr  5 22:45:05 2025.
 Gaussian 16:  ES64L-G16RevC.01  3-Jul-2019

 ----------------------------------------------------------------------
 #t hf aug-cc-pvdz iop(5/13=1,5/36=2,99/5=2) pseudo=read geom=check gue
 ss=(read,tcheck) scf=(maxcycle=1)
 ----------------------------------------------------------------------
 -----
 title
 -----
 Structure from the checkpoint file:  "E-2-diazino-1-2-methylprop-2-enoxy-ethenolate.chk"
 Charge =  0 Multiplicity = 1

                         Standard orientation:
 ---------------------------------------------------------------------
 Center     Atomic      Atomic             Coordinates (Angstroms)
 Number     Number       Type             X           Y           Z
 ---------------------------------------------------------------------
      1          8           0       -0.050156    0.740035    0.079572
      2          8           0        1.936027    1.687629   -0.182327
      3          7           0        3.213504   -0.696582   -0.044778
      4          7           0        4.330864   -0.709304   -0.134489
      5          6           0        1.298833    0.673982   -0.023993
      6          6           0        1.909663   -0.650513    0.057625
      7          6           0       -0.856529   -0.436953    0.311416
      8          6           0       -2.276948   -0.004647    0.447772
      9          6           0       -3.260722   -0.448114   -0.326484
     10          6           0       -4.699726   -0.063453   -0.200434
     11          1           0        1.420216   -1.598861    0.184598
     12          1           0       -0.512068   -0.920689    1.230337
     13          1           0       -0.746910   -1.133819   -0.522395
     14          1           0       -2.482030    0.705676    1.242038
     15          1           0       -3.020014   -1.148491   -1.122413
     16          1           0       -5.062145    0.389855   -1.126289
     17          1           0       -4.856995    0.645101    0.612065
     18          1           0       -5.325023   -0.940694   -0.016433
 ---------------------------------------------------------------------

 SCF Done:  E(RHF) =  -490.625129412     A.U. after    2 cycles

 The electronic state is 1-A.
 Alpha  occ. eigenvalues --  -20.61509 -20.54474 -15.84184 -15.77557 -11.40430
 Alpha  occ. eigenvalues --  -11.31977 -11.30112 -11.25896 -11.24901 -11.24290
 Alpha  occ. eigenvalues --   -1.46008  -1.41067  -1.32220  -1.14892  -1.09469
 Alpha  occ. eigenvalues --   -1.00693  -0.91081  -0.88005  -0.77690  -0.76138
 Alpha  occ. eigenvalues --   -0.74548  -0.70384  -0.68831  -0.68167  -0.66884
 Alpha  occ. eigenvalues --   -0.64049  -0.61204  -0.60919  -0.58158  -0.56326
 Alpha  occ. eigenvalues --   -0.55411  -0.53269  -0.50845  -0.47601  -0.46658
 Alpha  occ. eigenvalues --   -0.37597  -0.35906
 Alpha virt. eigenvalues --    0.02541   0.03503   0.04184   0.05309   0.05583
 Alpha virt. eigenvalues --    0.05991   0.07565   0.07796   0.08369   0.09311
 Alpha virt. eigenvalues --    0.09861   0.10261   0.10630   0.11159   0.12466

 Mulliken charges:
               1
     1  O   -0.597965
     2  O   -0.556243
     3  N    0.147765
     4  N   -0.363401
     5  C    0.426874
     6  C    0.988522
     7  C    0.245491
     8  C    1.197695
     9  C   -0.067313
    10  C    0.290100
    11  H   -0.474365
    12  H   -0.085571
    13  H   -0.276812
    14  H   -0.465871
    15  H   -0.406230
    16  H    0.064032
    17  H   -0.136335
    18  H    0.069627
 Sum of Mulliken charges =   0.00000

 Dipole moment (field-independent basis, Debye):
    X=             -2.4731    Y=             -5.2483    Z=              0.5669  Tot=              5.8295

 Test job not archived.
 1\1\GINC-SE154\SP\RHF\Aug-CC-pVDZ\C6H8N2O2\OHZDE\05-Apr-2025\0\\#t hf
 aug-cc-pvdz iop(5/13=1,5/36=2,99/5=2) pseudo=read geom=check guess=(re
 ad,tcheck) scf=(maxcycle=1)\\title\\0,1\O,0,-0.050156,0.740035,0.07957
 2\O,0,1.936027,1.687629,-0.182327\N,0,3.213504,-0.696582,-0.044778\N,0
 ,4.330864,-0.709304,-0.134489\C,0,1.298833,0.673982,-0.023993\C,0,1.90
 9663,-0.650513,0.057625\C,0,-0.856529,-0.436953,0.311416\C,0,-2.276948
 ,-0.004647,0.447772\C,0,-3.260722,-0.448114,-0.326484\C,0,-4.699726,-0
 .063453,-0.200434\H,0,1.420216,-1.598861,0.184598\H,0,-0.512068,-0.920

 Normal termination of Gaussian 16 at Sat Apr  5 22:45:42 2025.
