 Gaussian 16, Revision C.01,

 ----------------------------------------------------------------------
 #t hf aug-cc-pvdz symm=none int=(grid=ultrafine) guess=(read,tcheck) s
 table=(opt,rrhf)
 ----------------------------------------------------------------------
 -----
 title
 -----
 Symbolic Z-matrix:
 Charge =  0 Multiplicity = 1

 SCF Done:  E(RHF) =  -156.128704289     A.U. after   10 cycles
 Normal termination of Gaussian 16 at Sat Apr  5 22:44:59 2025.
 Gaussian 16:  ES64L-G16RevC.01  3-Jul-2019

 ----------------------------------------------------------------------
 #t hf aug-cc-pvdz iop(5/13=1,5/36=2,99/5=2) pseudo=read geom=check gue
 ss=(read,tcheck) scf=(maxcycle=1)
 ----------------------------------------------------------------------
 -----
 title
 -----
 Structure from the checkpoint file:  "E-2-butene.chk"
 Charge =  0 Multiplicity = 1

                         Standard orientation:
 ---------------------------------------------------------------------
 Center     Atomic      Atomic             Coordinates (Angstroms)
 Number     Number       Type             X           Y           Z
 ---------------------------------------------------------------------
      1          6           0       -0.323065    0.580595    0.000000
      2          6           0        0.323065   -0.580595    0.000000
      3          6           0        0.323065    1.931514    0.000000
      4          6           0       -0.323065   -1.931514    0.000000
      5          1           0       -1.410554    0.569817    0.000000
      6          1           0        1.410554   -0.569817    0.000000
      7          1           0        0.024557    2.513142    0.876335
      8          1           0        1.410604    1.854162    0.000000
      9          1           0        0.024557    2.513142   -0.876335
     10          1           0       -0.024557   -2.513142    0.876335
     11          1           0       -1.410604   -1.854162    0.000000
     12          1           0       -0.024557   -2.513142   -0.876335
 ---------------------------------------------------------------------

 SCF Done:  E(RHF) =  -156.180768148     A.U. after    2 cycles

 The electronic state is 1-AG.
 Alpha  occ. eigenvalues --  -11.23222 -11.23055 -11.22747 -11.22746  -1.06971
 Alpha  occ. eigenvalues --   -0.97933  -0.87825  -0.74587  -0.61060  -0.61011
 Alpha  occ. eigenvalues --   -0.57299  -0.55563  -0.52467  -0.51286  -0.48300
 Alpha  occ. eigenvalues --   -0.34568
 Alpha virt. eigenvalues --    0.03716   0.04485   0.04896   0.05570   0.06657
 Alpha virt. eigenvalues --    0.07036   0.07110   0.09408   0.11353   0.12376
 Alpha virt. eigenvalues --    0.12727   0.14857   0.16786   0.16979   0.17209

 Mulliken charges:
               1
     1  C    0.275285
     2  C    0.275285
     3  C    0.171226
     4  C    0.171226
     5  H   -0.406417
     6  H   -0.406417
     7  H    0.043627
     8  H   -0.127348
     9  H    0.043627
    10  H    0.043627
    11  H   -0.127348
    12  H    0.043627
 Sum of Mulliken charges =  -0.00000

 Dipole moment (field-independent basis, Debye):
    X=             -0.0000    Y=             -0.0000    Z=             -0.0000  Tot=              0.0000

 Test job not archived.
 1\1\GINC-SE155\SP\RHF\Aug-CC-pVDZ\C4H8\OHZDE\05-Apr-2025\0\\#t hf aug-
 cc-pvdz iop(5/13=1,5/36=2,99/5=2) pseudo=read geom=check guess=(read,t
 check) scf=(maxcycle=1)\\title\\0,1\C,0,-0.323065,0.580595,0.\C,0,0.32
 3065,-0.580595,0.\C,0,0.323065,1.931514,0.\C,0,-0.323065,-1.931514,0.\
 H,0,-1.410554,0.569817,0.\H,0,1.410554,-0.569817,0.\H,0,0.024557,2.513
 142,0.876335\H,0,1.410604,1.854162,0.\H,0,0.024557,2.513142,-0.876335\
 H,0,-0.024557,-2.513142,0.876335\H,0,-1.410604,-1.854162,0.\H,0,-0.024
 557,-2.513142,-0.876335\\Version=ES64L-G16RevC.01\State=1-AG\HF=-156.1

 Normal termination of Gaussian 16 at Sat Apr  5 22:45:36 2025.
