 Gaussian 16, Revision C.01,

 ----------------------------------------------------------------------
 #t hf aug-cc-pvdz symm=none int=(grid=ultrafine) guess=(read,tcheck) s
 table=(opt,rrhf)
 ----------------------------------------------------------------------
 -----
 title
 -----
 Symbolic Z-matrix:
 Charge =  0 Multiplicity = 1

 SCF Done:  E(RHF) =  -247.872109080     A.U. after   14 cycles
 Normal termination of Gaussian 16 at Sat Apr  5 22:45:13 2025.
 Gaussian 16:  ES64L-G16RevC.01  3-Jul-2019

 ----------------------------------------------------------------------
 #t hf aug-cc-pvdz iop(5/13=1,5/36=2,99/5=2) pseudo=read geom=check gue
 ss=(read,tcheck) scf=(maxcycle=1)
 ----------------------------------------------------------------------
 -----
 title
 -----
 Structure from the checkpoint file:  "E-2-pentenenitrile.chk"
 Charge =  0 Multiplicity = 1

                         Standard orientation:
 ---------------------------------------------------------------------
 Center     Atomic      Atomic             Coordinates (Angstroms)
 Number     Number       Type             X           Y           Z
 ---------------------------------------------------------------------
      1          7           0       -1.442941    2.799964    0.000000
      2          6           0       -0.809520    1.836292    0.000000
      3          1           0        1.068858    0.833466    0.000000
      4          6           0        0.000000    0.664830    0.000000
      5          1           0       -1.596381   -0.669835    0.000000
      6          6           0       -0.516510   -0.567384    0.000000
      7          1           0       -0.069250   -2.431965    0.866379
      8          1           0       -0.069250   -2.431965   -0.866379
      9          6           0        0.258117   -1.846322    0.000000
     10          1           0        2.237470   -2.709684    0.000000
     11          1           0        2.135946   -1.190903   -0.882660
     12          1           0        2.135946   -1.190903    0.882660
     13          6           0        1.777455   -1.722075    0.000000
 ---------------------------------------------------------------------

 SCF Done:  E(RHF) =  -247.948691869     A.U. after    2 cycles

 The electronic state is 1-A'.
 Alpha  occ. eigenvalues --  -15.63429 -11.29228 -11.28565 -11.28429 -11.26681
 Alpha  occ. eigenvalues --  -11.24779  -1.19145  -1.11716  -1.03002  -0.91814
 Alpha  occ. eigenvalues --   -0.81169  -0.73153  -0.64293  -0.64246  -0.60488
 Alpha  occ. eigenvalues --   -0.54553  -0.53135  -0.52874  -0.52235  -0.50673
 Alpha  occ. eigenvalues --   -0.46055  -0.37975
 Alpha virt. eigenvalues --    0.02573   0.03702   0.04484   0.04608   0.06439
 Alpha virt. eigenvalues --    0.06803   0.07474   0.08729   0.10113   0.11241
 Alpha virt. eigenvalues --    0.11926   0.12240   0.13750   0.14395   0.15229

 Mulliken charges:
               1
     1  N   -0.054666
     2  C   -1.301063
     3  H   -0.533505
     4  C    1.566332
     5  H   -0.466022
     6  C    0.151406
     7  H    0.079755
     8  H    0.079755
     9  C    0.003516
    10  H   -0.120663
    11  H   -0.012680
    12  H   -0.012680
    13  C    0.620517
 Sum of Mulliken charges =   0.00000

 Dipole moment (field-independent basis, Debye):
    X=              2.2196    Y=             -4.7604    Z=              0.0000  Tot=              5.2524

 Test job not archived.
 1\1\GINC-SE211\SP\RHF\Aug-CC-pVDZ\C5H7N1\OHZDE\05-Apr-2025\0\\#t hf au
 g-cc-pvdz iop(5/13=1,5/36=2,99/5=2) pseudo=read geom=check guess=(read
 ,tcheck) scf=(maxcycle=1)\\title\\0,1\N,0,-1.442941,2.799964,0.\C,0,-0
 .80952,1.836292,0.\H,0,1.068858,0.833466,0.\C,0,0.,0.66483,0.\H,0,-1.5
 96381,-0.669835,0.\C,0,-0.51651,-0.567384,0.\H,0,-0.06925,-2.431965,0.
 866379\H,0,-0.06925,-2.431965,-0.866379\C,0,0.258117,-1.846322,0.\H,0,
 2.23747,-2.709684,0.\H,0,2.135946,-1.190903,-0.88266\H,0,2.135946,-1.1
 90903,0.88266\C,0,1.777455,-1.722075,0.\\Version=ES64L-G16RevC.01\Stat

 Normal termination of Gaussian 16 at Sat Apr  5 22:45:36 2025.
