 Gaussian 16, Revision C.01,

 ----------------------------------------------------------------------
 #t hf aug-cc-pvdz symm=none int=(grid=ultrafine) guess=(read,tcheck) s
 table=(opt,rrhf)
 ----------------------------------------------------------------------
 -----
 title
 -----
 Symbolic Z-matrix:
 Charge =  0 Multiplicity = 1

 SCF Done:  E(RHF) =  -195.167345772     A.U. after   12 cycles
 Normal termination of Gaussian 16 at Sat Apr  5 22:44:06 2025.
 Gaussian 16:  ES64L-G16RevC.01  3-Jul-2019

 ----------------------------------------------------------------------
 #t hf aug-cc-pvdz iop(5/13=1,5/36=2,99/5=2) pseudo=read geom=check gue
 ss=(read,tcheck) scf=(maxcycle=1)
 ----------------------------------------------------------------------
 -----
 title
 -----
 Structure from the checkpoint file:  "E-2-pentene.chk"
 Charge =  0 Multiplicity = 1

                         Standard orientation:
 ---------------------------------------------------------------------
 Center     Atomic      Atomic             Coordinates (Angstroms)
 Number     Number       Type             X           Y           Z
 ---------------------------------------------------------------------
      1          6           0        1.170211    0.338779    0.232071
      2          6           0        0.066000   -0.045993   -0.399570
      3          6           0        2.527893   -0.268148    0.055662
      4          6           0       -2.338851   -0.455053    0.271000
      5          6           0       -1.295746    0.556611   -0.220194
      6          1           0        1.103462    1.163582    0.937874
      7          1           0        0.129624   -0.873234   -1.104350
      8          1           0        3.251170    0.475143   -0.290413
      9          1           0        2.510259   -1.084591   -0.666589
     10          1           0        2.912006   -0.659771    1.001395
     11          1           0       -3.323952    0.006212    0.354652
     12          1           0       -2.066008   -0.853268    1.249121
     13          1           0       -2.423715   -1.297719   -0.417841
     14          1           0       -1.635193    0.971610   -1.175306
     15          1           0       -1.234696    1.394857    0.477641
 ---------------------------------------------------------------------

 SCF Done:  E(RHF) =  -195.231498900     A.U. after    2 cycles

 The electronic state is 1-A.
 Alpha  occ. eigenvalues --  -11.23191 -11.23093 -11.22824 -11.22746 -11.22228
 Alpha  occ. eigenvalues --   -1.07737  -1.01207  -0.92336  -0.83071  -0.74671
 Alpha  occ. eigenvalues --   -0.62464  -0.62272  -0.57328  -0.56351  -0.55299
 Alpha  occ. eigenvalues --   -0.51483  -0.50757  -0.48404  -0.47111  -0.34557
 Alpha virt. eigenvalues --    0.03684   0.04277   0.04686   0.05045   0.06197
 Alpha virt. eigenvalues --    0.06748   0.06842   0.07648   0.08849   0.09311
 Alpha virt. eigenvalues --    0.11343   0.13166   0.13771   0.14712   0.15161

 Mulliken charges:
               1
     1  C    0.039320
     2  C    0.707042
     3  C    0.171822
     4  C    0.314955
     5  C    0.047066
     6  H   -0.425168
     7  H   -0.461775
     8  H    0.049008
     9  H   -0.128410
    10  H    0.049018
    11  H   -0.093807
    12  H   -0.079924
    13  H   -0.071790
    14  H    0.012399
    15  H   -0.129756
 Sum of Mulliken charges =  -0.00000

 Dipole moment (field-independent basis, Debye):
    X=              0.0103    Y=              0.0367    Z=              0.0207  Tot=              0.0434

 Test job not archived.
 1\1\GINC-SE210\SP\RHF\Aug-CC-pVDZ\C5H10\OHZDE\05-Apr-2025\0\\#t hf aug
 -cc-pvdz iop(5/13=1,5/36=2,99/5=2) pseudo=read geom=check guess=(read,
 tcheck) scf=(maxcycle=1)\\title\\0,1\C,0,1.170211,0.338779,0.232071\C,
 0,0.066,-0.045993,-0.39957\C,0,2.527893,-0.268148,0.055662\C,0,-2.3388
 51,-0.455053,0.271\C,0,-1.295746,0.556611,-0.220194\H,0,1.103462,1.163
 582,0.937874\H,0,0.129624,-0.873234,-1.10435\H,0,3.25117,0.475143,-0.2
 90413\H,0,2.510259,-1.084591,-0.666589\H,0,2.912006,-0.659771,1.001395
 \H,0,-3.323952,0.006212,0.354652\H,0,-2.066008,-0.853268,1.249121\H,0,

 Normal termination of Gaussian 16 at Sat Apr  5 22:44:42 2025.
