 Gaussian 16, Revision C.01,

 ----------------------------------------------------------------------
 #t hf aug-cc-pvdz symm=none int=(grid=ultrafine) guess=(read,tcheck) s
 table=(opt,rrhf)
 ----------------------------------------------------------------------
 -----
 title
 -----
 Symbolic Z-matrix:
 Charge =  0 Multiplicity = 1

 SCF Done:  E(RHF) =  -735.115343284     A.U. after   16 cycles
 Normal termination of Gaussian 16 at Sat Apr  5 22:45:16 2025.
 Gaussian 16:  ES64L-G16RevC.01  3-Jul-2019

 ----------------------------------------------------------------------
 #t hf aug-cc-pvdz iop(5/13=1,5/36=2,99/5=2) pseudo=read geom=check gue
 ss=(read,tcheck) scf=(maxcycle=1)
 ----------------------------------------------------------------------
 -----
 title
 -----
 Structure from the checkpoint file:  "E-3-amino-3-oxo-1-propen-1-yl_thiocyanate.chk"
 Charge =  0 Multiplicity = 1

                         Standard orientation:
 ---------------------------------------------------------------------
 Center     Atomic      Atomic             Coordinates (Angstroms)
 Number     Number       Type             X           Y           Z
 ---------------------------------------------------------------------
      1         16           0       -1.676534   -0.926064    0.051194
      2          8           0        3.331516   -0.631562   -0.252865
      3          7           0        2.397628    1.405048    0.103813
      4          7           0       -3.577023    1.191000   -0.109127
      5          6           0        1.020168   -0.608219    0.179875
      6          6           0        2.350109    0.042718    0.002223
      7          6           0       -0.149655   -0.019457   -0.048702
      8          6           0       -2.785853    0.351530   -0.044843
      9          1           0        1.086429   -1.657050    0.439278
     10          1           0       -0.254458    1.009404   -0.361619
     11          1           0        1.678256    1.917370    0.581658
     12          1           0        3.309355    1.828033    0.050389
 ---------------------------------------------------------------------

 SCF Done:  E(RHF) =  -735.239735368     A.U. after    2 cycles

 The electronic state is 1-A.
 Alpha  occ. eigenvalues --  -93.62916 -20.55932 -15.67180 -15.66929 -11.39446
 Alpha  occ. eigenvalues --  -11.33825 -11.33001 -11.29521  -8.92581  -6.26806
 Alpha  occ. eigenvalues --   -6.26507  -6.26124  -1.37060  -1.22448  -1.20229
 Alpha  occ. eigenvalues --   -1.13883  -1.04200  -0.88645  -0.80898  -0.76600
 Alpha  occ. eigenvalues --   -0.70989  -0.70417  -0.63917  -0.62946  -0.59894
 Alpha  occ. eigenvalues --   -0.57490  -0.55954  -0.54988  -0.49002  -0.47600
 Alpha  occ. eigenvalues --   -0.46599  -0.43982  -0.37622
 Alpha virt. eigenvalues --    0.02430   0.03882   0.04871   0.05124   0.05927
 Alpha virt. eigenvalues --    0.06673   0.08879   0.09384   0.10974   0.11242
 Alpha virt. eigenvalues --    0.11479   0.11720   0.12175   0.13306   0.13595

 Mulliken charges:
               1
     1  S    0.831481
     2  O   -0.502943
     3  N   -0.125999
     4  N   -0.171599
     5  C    0.992310
     6  C    0.309210
     7  C    0.027909
     8  C   -0.477138
     9  H   -0.340766
    10  H   -0.546423
    11  H   -0.005747
    12  H    0.009705
 Sum of Mulliken charges =  -0.00000

 Dipole moment (field-independent basis, Debye):
    X=              0.3906    Y=              1.2403    Z=              1.3641  Tot=              1.8846

 Test job not archived.
 1\1\GINC-SE211\SP\RHF\Aug-CC-pVDZ\C4H4N2O1S1\OHZDE\05-Apr-2025\0\\#t h
 f aug-cc-pvdz iop(5/13=1,5/36=2,99/5=2) pseudo=read geom=check guess=(
 read,tcheck) scf=(maxcycle=1)\\title\\0,1\S,0,-1.676534,-0.926064,0.05
 1194\O,0,3.331516,-0.631562,-0.252865\N,0,2.397628,1.405048,0.103813\N
 ,0,-3.577023,1.191,-0.109127\C,0,1.020168,-0.608219,0.179875\C,0,2.350
 109,0.042718,0.002223\C,0,-0.149655,-0.019457,-0.048702\C,0,-2.785853,
 0.35153,-0.044843\H,0,1.086429,-1.65705,0.439278\H,0,-0.254458,1.00940
 4,-0.361619\H,0,1.678256,1.91737,0.581658\H,0,3.309355,1.828033,0.0503

 Normal termination of Gaussian 16 at Sat Apr  5 22:45:39 2025.
