 Gaussian 16, Revision C.01,

 ----------------------------------------------------------------------
 #t hf aug-cc-pvdz symm=none int=(grid=ultrafine) guess=(read,tcheck) s
 table=(opt,rrhf)
 ----------------------------------------------------------------------
 -----
 title
 -----
 Symbolic Z-matrix:
 Charge =  0 Multiplicity = 1

 SCF Done:  E(RHF) =  -1108.64501208     A.U. after   14 cycles
 Normal termination of Gaussian 16 at Sat Apr  5 22:45:07 2025.
 Gaussian 16:  ES64L-G16RevC.01  3-Jul-2019

 ----------------------------------------------------------------------
 #t hf aug-cc-pvdz iop(5/13=1,5/36=2,99/5=2) pseudo=read geom=check gue
 ss=(read,tcheck) scf=(maxcycle=1)
 ----------------------------------------------------------------------
 -----
 title
 -----
 Structure from the checkpoint file:  "E-3-chloroacryloyl_chloride.chk"
 Charge =  0 Multiplicity = 1

                         Standard orientation:
 ---------------------------------------------------------------------
 Center     Atomic      Atomic             Coordinates (Angstroms)
 Number     Number       Type             X           Y           Z
 ---------------------------------------------------------------------
      1         17           0        2.462394   -0.834112    0.000000
      2         17           0       -2.210865    1.860330    0.000000
      3          8           0        0.141352   -2.060501    0.000000
      4          6           0        0.651704   -0.988993    0.000000
      5          6           0        0.000000    0.327350    0.000000
      6          6           0       -1.330710    0.383125    0.000000
      7          1           0        0.617498    1.210825    0.000000
      8          1           0       -1.950271   -0.501414    0.000000
 ---------------------------------------------------------------------

 SCF Done:  E(RHF) =  -1108.74182940     A.U. after    2 cycles

 The electronic state is 1-A'.
 Alpha  occ. eigenvalues -- -103.70583-103.67909 -20.61656 -11.43735 -11.36437
 Alpha  occ. eigenvalues --  -11.29819 -10.73879 -10.71241  -8.39618  -8.39287
 Alpha  occ. eigenvalues --   -8.39280  -8.36943  -8.36652  -8.36642  -1.42398
 Alpha  occ. eigenvalues --   -1.23027  -1.17447  -1.08661  -0.89176  -0.79189
 Alpha  occ. eigenvalues --   -0.72973  -0.70435  -0.64340  -0.63103  -0.60590
 Alpha  occ. eigenvalues --   -0.55438  -0.50858  -0.48801  -0.48670  -0.47753
 Alpha  occ. eigenvalues --   -0.41630
 Alpha virt. eigenvalues --    0.03192   0.03636   0.04667   0.07112   0.08627
 Alpha virt. eigenvalues --    0.10330   0.10336   0.11970   0.12321   0.13371
 Alpha virt. eigenvalues --    0.14104   0.14297   0.15004   0.16174   0.16965

 Mulliken charges:
               1
     1  Cl  -0.149016
     2  Cl  -0.243335
     3  O   -0.357860
     4  C   -0.256962
     5  C    1.698822
     6  C   -0.226169
     7  H   -0.227581
     8  H   -0.237900
 Sum of Mulliken charges =  -0.00000

 Dipole moment (field-independent basis, Debye):
    X=             -1.1437    Y=              2.1201    Z=              0.0000  Tot=              2.4089

 Test job not archived.
 1\1\GINC-SE213\SP\RHF\Aug-CC-pVDZ\C3H2Cl2O1\OHZDE\05-Apr-2025\0\\#t hf
  aug-cc-pvdz iop(5/13=1,5/36=2,99/5=2) pseudo=read geom=check guess=(r
 ead,tcheck) scf=(maxcycle=1)\\title\\0,1\Cl,0,2.462394,-0.834112,0.\Cl
 ,0,-2.210865,1.86033,0.\O,0,0.141352,-2.060501,0.\C,0,0.651704,-0.9889
 93,0.\C,0,0.,0.32735,0.\C,0,-1.33071,0.383125,0.\H,0,0.617498,1.210825
 ,0.\H,0,-1.950271,-0.501414,0.\\Version=ES64L-G16RevC.01\State=1-A'\HF
 =-1108.7418294\RMSD=6.232e-03\Dipole=-0.4499634,0.8340928,0.\Quadrupol
 e=1.6696298,-2.8873332,1.2177033,1.9128157,0.,0.\PG=CS [SG(C3H2Cl2O1)]

 Normal termination of Gaussian 16 at Sat Apr  5 22:45:37 2025.
