 Gaussian 16, Revision C.01,

 ----------------------------------------------------------------------
 #t hf aug-cc-pvdz symm=none int=(grid=ultrafine) guess=(read,tcheck) s
 table=(opt,rrhf)
 ----------------------------------------------------------------------
 -----
 title
 -----
 Symbolic Z-matrix:
 Charge =  0 Multiplicity = 1

 SCF Done:  E(RHF) =  -628.708254822     A.U. after   15 cycles
 Normal termination of Gaussian 16 at Sat Apr  5 22:44:58 2025.
 Gaussian 16:  ES64L-G16RevC.01  3-Jul-2019

 ----------------------------------------------------------------------
 #t hf aug-cc-pvdz iop(5/13=1,5/36=2,99/5=2) pseudo=read geom=check gue
 ss=(read,tcheck) scf=(maxcycle=1)
 ----------------------------------------------------------------------
 -----
 title
 -----
 Structure from the checkpoint file:  "E-3-chloroprop-2-enenitrile.chk"
 Charge =  0 Multiplicity = 1

                         Standard orientation:
 ---------------------------------------------------------------------
 Center     Atomic      Atomic             Coordinates (Angstroms)
 Number     Number       Type             X           Y           Z
 ---------------------------------------------------------------------
      1         17           0       -2.048706    0.016035   -0.000004
      2          7           0        3.079563   -0.194242    0.000006
      3          6           0        0.597673    0.488341    0.000004
      4          6           0       -0.380235   -0.415943   -0.000003
      5          6           0        1.964239    0.097426    0.000005
      6          1           0        0.384661    1.548887    0.000008
      7          1           0       -0.203660   -1.480729   -0.000008
 ---------------------------------------------------------------------

 SCF Done:  E(RHF) =  -628.778788624     A.U. after    2 cycles

 The electronic state is 1-A.
 Alpha  occ. eigenvalues -- -103.70432 -15.65672 -11.36321 -11.31708 -11.30608
 Alpha  occ. eigenvalues --  -10.73729  -8.39467  -8.39135  -8.39134  -1.23172
 Alpha  occ. eigenvalues --   -1.20825  -1.08878  -0.87858  -0.76578  -0.68130
 Alpha  occ. eigenvalues --   -0.60880  -0.56930  -0.56015  -0.51569  -0.50290
 Alpha  occ. eigenvalues --   -0.48203  -0.39774
 Alpha virt. eigenvalues --    0.03261   0.04008   0.05517   0.06906   0.09231
 Alpha virt. eigenvalues --    0.09950   0.11935   0.12407   0.12856   0.13461
 Alpha virt. eigenvalues --    0.13871   0.14026   0.15881   0.16478   0.17566

 Mulliken charges:
               1
     1  Cl  -0.223751
     2  N   -0.086124
     3  C    1.693464
     4  C   -0.014637
     5  C   -0.857136
     6  H   -0.261010
     7  H   -0.250806
 Sum of Mulliken charges =  -0.00000

 Dipole moment (field-independent basis, Debye):
    X=             -2.7772    Y=              0.3432    Z=             -0.0000  Tot=              2.7984

 Test job not archived.
 1\1\GINC-SE214\SP\RHF\Aug-CC-pVDZ\C3H2Cl1N1\OHZDE\05-Apr-2025\0\\#t hf
  aug-cc-pvdz iop(5/13=1,5/36=2,99/5=2) pseudo=read geom=check guess=(r
 ead,tcheck) scf=(maxcycle=1)\\title\\0,1\Cl,0,-2.048706,0.016035,-0.00
 0004\N,0,3.079563,-0.194242,0.000006\C,0,0.597673,0.488341,0.000004\C,
 0,-0.380235,-0.415943,-0.000003\C,0,1.964239,0.097426,0.000005\H,0,0.3
 84661,1.548887,0.000008\H,0,-0.20366,-1.480729,-0.000008\\Version=ES64
 L-G16RevC.01\State=1-A\HF=-628.7787886\RMSD=5.831e-03\Dipole=-1.092644
 2,0.1350355,-0.0000021\Quadrupole=-7.8067439,5.6635419,2.1432021,1.479

 Normal termination of Gaussian 16 at Sat Apr  5 22:45:00 2025.
