 Gaussian 16, Revision C.01,

 ----------------------------------------------------------------------
 #t hf aug-cc-pvdz symm=none int=(grid=ultrafine) guess=(read,tcheck) s
 table=(opt,rrhf)
 ----------------------------------------------------------------------
 -----
 title
 -----
 Symbolic Z-matrix:
 Charge =  0 Multiplicity = 1

 SCF Done:  E(RHF) =  -192.770300043     A.U. after   14 cycles
 Normal termination of Gaussian 16 at Sat Apr  5 22:45:43 2025.
 Gaussian 16:  ES64L-G16RevC.01  3-Jul-2019

 ----------------------------------------------------------------------
 #t hf aug-cc-pvdz iop(5/13=1,5/36=2,99/5=2) pseudo=read geom=check gue
 ss=(read,tcheck) scf=(maxcycle=1)
 ----------------------------------------------------------------------
 -----
 title
 -----
 Structure from the checkpoint file:  "E-3-penten-1-yne.chk"
 Charge =  0 Multiplicity = 1

                         Standard orientation:
 ---------------------------------------------------------------------
 Center     Atomic      Atomic             Coordinates (Angstroms)
 Number     Number       Type             X           Y           Z
 ---------------------------------------------------------------------
      1          6           0       -2.320917   -0.461628    0.000000
      2          1           0       -2.746079   -0.959757    0.875622
      3          1           0       -2.746079   -0.959757   -0.875622
      4          1           0       -2.655927    0.575371    0.000000
      5          6           0       -0.831837   -0.562138    0.000000
      6          1           0       -0.407944   -1.560710    0.000000
      7          6           0        0.000000    0.484435    0.000000
      8          1           0       -0.409236    1.490531    0.000000
      9          6           0        1.415974    0.385941    0.000000
     10          6           0        2.618043    0.340629    0.000000
     11          1           0        3.677687    0.290883    0.000000
 ---------------------------------------------------------------------

 SCF Done:  E(RHF) =  -192.833055388     A.U. after    2 cycles

 The electronic state is 1-A'.
 Alpha  occ. eigenvalues --  -11.26303 -11.25926 -11.24732 -11.24353 -11.23602
 Alpha  occ. eigenvalues --   -1.09540  -1.02166  -0.94707  -0.80355  -0.72588
 Alpha  occ. eigenvalues --   -0.67719  -0.61566  -0.58170  -0.55251  -0.52096
 Alpha  occ. eigenvalues --   -0.45931  -0.39535  -0.33514
 Alpha virt. eigenvalues --    0.03482   0.04090   0.04776   0.05717   0.05888
 Alpha virt. eigenvalues --    0.07470   0.09173   0.11110   0.11421   0.11637
 Alpha virt. eigenvalues --    0.11888   0.14217   0.14792   0.15159   0.15979

 Mulliken charges:
               1
     1  C    0.148366
     2  H    0.080272
     3  H    0.080272
     4  H   -0.102263
     5  C    0.249253
     6  H   -0.373395
     7  C    0.441523
     8  H   -0.397432
     9  C   -0.329492
    10  C    0.676107
    11  H   -0.473212
 Sum of Mulliken charges =  -0.00000

 Dipole moment (field-independent basis, Debye):
    X=             -1.1717    Y=             -0.4072    Z=              0.0000  Tot=              1.2405

 Test job not archived.
 1\1\GINC-SE040\SP\RHF\Aug-CC-pVDZ\C5H6\OHZDE\05-Apr-2025\0\\#t hf aug-
 cc-pvdz iop(5/13=1,5/36=2,99/5=2) pseudo=read geom=check guess=(read,t
 check) scf=(maxcycle=1)\\title\\0,1\C,0,-2.320917,-0.461628,0.\H,0,-2.
 746079,-0.959757,0.875622\H,0,-2.746079,-0.959757,-0.875622\H,0,-2.655
 927,0.575371,0.\C,0,-0.831837,-0.562138,0.\H,0,-0.407944,-1.56071,0.\C
 ,0,0.,0.484435,0.\H,0,-0.409236,1.490531,0.\C,0,1.415974,0.385941,0.\C
 ,0,2.618043,0.340629,0.\H,0,3.677687,0.290883,0.\\Version=ES64L-G16Rev
 C.01\State=1-A'\HF=-192.8330554\RMSD=1.042e-02\Dipole=-0.4609896,-0.16

 Normal termination of Gaussian 16 at Sat Apr  5 22:45:47 2025.
