 Gaussian 16, Revision C.01,

 ----------------------------------------------------------------------
 #t hf aug-cc-pvdz symm=none int=(grid=ultrafine) guess=(read,tcheck) s
 table=(opt,rrhf)
 ----------------------------------------------------------------------
 -----
 title
 -----
 Symbolic Z-matrix:
 Charge =  0 Multiplicity = 1

 SCF Done:  E(RHF) =  -247.871823681     A.U. after   14 cycles
 Normal termination of Gaussian 16 at Sat Apr  5 22:45:57 2025.
 Gaussian 16:  ES64L-G16RevC.01  3-Jul-2019

 ----------------------------------------------------------------------
 #t hf aug-cc-pvdz iop(5/13=1,5/36=2,99/5=2) pseudo=read geom=check gue
 ss=(read,tcheck) scf=(maxcycle=1)
 ----------------------------------------------------------------------
 -----
 title
 -----
 Structure from the checkpoint file:  "E-3-pentenenitrile.chk"
 Charge =  0 Multiplicity = 1

                         Standard orientation:
 ---------------------------------------------------------------------
 Center     Atomic      Atomic             Coordinates (Angstroms)
 Number     Number       Type             X           Y           Z
 ---------------------------------------------------------------------
      1          1           0        3.609044    0.273076    0.113372
      2          1           0        3.098636   -1.103376   -0.844452
      3          1           0        2.741762   -1.060175    0.886842
      4          6           0        2.803885   -0.454173   -0.016457
      5          1           0        1.487319    0.854078   -1.202776
      6          6           0        1.507467    0.229794   -0.313018
      7          1           0        0.395283   -0.497491    1.305299
      8          6           0        0.405132    0.126989    0.418299
      9          6           0       -0.883366    0.846575    0.103693
     10          7           0       -2.901787   -0.791599   -0.168867
     11          6           0       -2.016649   -0.066647   -0.054156
     12          1           0       -0.780939    1.432476   -0.811185
     13          1           0       -1.137406    1.547375    0.904805
 ---------------------------------------------------------------------

 SCF Done:  E(RHF) =  -247.948487359     A.U. after    2 cycles

 The electronic state is 1-A.
 Alpha  occ. eigenvalues --  -15.63486 -11.29808 -11.28557 -11.26330 -11.26131
 Alpha  occ. eigenvalues --  -11.24652  -1.19390  -1.10796  -1.03082  -0.92543
 Alpha  occ. eigenvalues --   -0.78127  -0.70233  -0.65290  -0.65086  -0.58496
 Alpha  occ. eigenvalues --   -0.58058  -0.55163  -0.54082  -0.52010  -0.45930
 Alpha  occ. eigenvalues --   -0.45700  -0.37965
 Alpha virt. eigenvalues --    0.02891   0.03896   0.04162   0.05236   0.06192
 Alpha virt. eigenvalues --    0.06454   0.07992   0.09440   0.10034   0.10817
 Alpha virt. eigenvalues --    0.12353   0.13704   0.13939   0.14324   0.14859

 Mulliken charges:
               1
     1  H    0.057779
     2  H    0.059803
     3  H   -0.111213
     4  C    0.167631
     5  H   -0.398644
     6  C    0.241345
     7  H   -0.430276
     8  C    0.396568
     9  C    0.374144
    10  N   -0.188072
    11  C   -0.288882
    12  H   -0.024437
    13  H    0.144255
 Sum of Mulliken charges =  -0.00000

 Dipole moment (field-independent basis, Debye):
    X=              3.8735    Y=              2.3683    Z=              0.3114  Tot=              4.5508

 Test job not archived.
 1\1\GINC-SE168\SP\RHF\Aug-CC-pVDZ\C5H7N1\OHZDE\05-Apr-2025\0\\#t hf au
 g-cc-pvdz iop(5/13=1,5/36=2,99/5=2) pseudo=read geom=check guess=(read
 ,tcheck) scf=(maxcycle=1)\\title\\0,1\H,0,3.609044,0.273076,0.113372\H
 ,0,3.098636,-1.103376,-0.844452\H,0,2.741762,-1.060175,0.886842\C,0,2.
 803885,-0.454173,-0.016457\H,0,1.487319,0.854078,-1.202776\C,0,1.50746
 7,0.229794,-0.313018\H,0,0.395283,-0.497491,1.305299\C,0,0.405132,0.12
 6989,0.418299\C,0,-0.883366,0.846575,0.103693\N,0,-2.901787,-0.791599,
 -0.168867\C,0,-2.016649,-0.066647,-0.054156\H,0,-0.780939,1.432476,-0.

 Normal termination of Gaussian 16 at Sat Apr  5 22:47:04 2025.
