 Gaussian 16, Revision C.01,

 ----------------------------------------------------------------------
 #t hf aug-cc-pvdz symm=none int=(grid=ultrafine) guess=(read,tcheck) s
 table=(opt,rrhf)
 ----------------------------------------------------------------------
 -----
 title
 -----
 Symbolic Z-matrix:
 Charge =  0 Multiplicity = 1

 SCF Done:  E(RHF) =  -814.390456029     A.U. after   17 cycles
 Normal termination of Gaussian 16 at Sat Apr  5 22:46:16 2025.
 Gaussian 16:  ES64L-G16RevC.01  3-Jul-2019

 ----------------------------------------------------------------------
 #t hf aug-cc-pvdz iop(5/13=1,5/36=2,99/5=2) pseudo=read geom=check gue
 ss=(read,tcheck) scf=(maxcycle=1)
 ----------------------------------------------------------------------
 -----
 title
 -----
 Structure from the checkpoint file:  "E-5-azido-1-chloro-1-penten-3-yne.chk"
 Charge =  0 Multiplicity = 1

                         Standard orientation:
 ---------------------------------------------------------------------
 Center     Atomic      Atomic             Coordinates (Angstroms)
 Number     Number       Type             X           Y           Z
 ---------------------------------------------------------------------
      1         17           0        4.447941   -0.116167    0.000012
      2          7           0       -3.025270   -0.496796   -0.000055
      3          7           0       -4.225241   -0.238014   -0.000076
      4          7           0       -5.349023   -0.121568   -0.000107
      5          6           0       -2.135877    0.693862    0.000077
      6          6           0       -0.744389    0.279137    0.000046
      7          6           0        0.418235   -0.030637    0.000023
      8          6           0        1.770768   -0.449000   -0.000006
      9          6           0        2.794415    0.405041    0.000048
     10          1           0       -2.339149    1.308733   -0.883213
     11          1           0       -2.339163    1.308547    0.883494
     12          1           0        1.960606   -1.516013   -0.000076
     13          1           0        2.680539    1.477792    0.000117
 ---------------------------------------------------------------------

 SCF Done:  E(RHF) =  -814.517018689     A.U. after    2 cycles

 The electronic state is 1-A.
 Alpha  occ. eigenvalues -- -103.67927 -15.86207 -15.74621 -15.68605 -11.33203
 Alpha  occ. eigenvalues --  -11.32759 -11.28961 -11.26610 -11.26209 -10.71209
 Alpha  occ. eigenvalues --   -8.36948  -8.36628  -8.36623  -1.46605  -1.27782
 Alpha  occ. eigenvalues --   -1.20063  -1.09935  -1.05649  -0.97760  -0.83811
 Alpha  occ. eigenvalues --   -0.75657  -0.73814  -0.71982  -0.71357  -0.66953
 Alpha  occ. eigenvalues --   -0.64941  -0.63801  -0.63116  -0.57073  -0.53887
 Alpha  occ. eigenvalues --   -0.47886  -0.46413  -0.45328  -0.41059  -0.38636
 Alpha  occ. eigenvalues --   -0.34684
 Alpha virt. eigenvalues --    0.02943   0.04268   0.04720   0.04783   0.07542
 Alpha virt. eigenvalues --    0.07741   0.08111   0.09039   0.10536   0.11506
 Alpha virt. eigenvalues --    0.11830   0.12321   0.12492   0.13738   0.14229

 Mulliken charges:
               1
     1  Cl  -0.322521
     2  N   -0.636204
     3  N    0.461919
     4  N   -0.286474
     5  C    0.665213
     6  C   -0.362803
     7  C   -0.611513
     8  C    1.317348
     9  C    0.100261
    10  H    0.109122
    11  H    0.109123
    12  H   -0.279741
    13  H   -0.263730
 Sum of Mulliken charges =  -0.00000

 Dipole moment (field-independent basis, Debye):
    X=             -0.5215    Y=              1.9400    Z=              0.0002  Tot=              2.0089

 Test job not archived.
 1\1\GINC-SE014\SP\RHF\Aug-CC-pVDZ\C5H4Cl1N3\OHZDE\05-Apr-2025\0\\#t hf
  aug-cc-pvdz iop(5/13=1,5/36=2,99/5=2) pseudo=read geom=check guess=(r
 ead,tcheck) scf=(maxcycle=1)\\title\\0,1\Cl,0,4.447941,-0.116167,0.000
 012\N,0,-3.02527,-0.496796,-0.000055\N,0,-4.225241,-0.238014,-0.000076
 \N,0,-5.349023,-0.121568,-0.000107\C,0,-2.135877,0.693862,0.000077\C,0
 ,-0.744389,0.279137,0.000046\C,0,0.418235,-0.030637,0.000023\C,0,1.770
 768,-0.449,-0.000006\C,0,2.794415,0.405041,0.000048\H,0,-2.339149,1.30
 8733,-0.883213\H,0,-2.339163,1.308547,0.883494\H,0,1.960606,-1.516013,

 Normal termination of Gaussian 16 at Sat Apr  5 22:47:06 2025.
