 Gaussian 16, Revision C.01,

 ----------------------------------------------------------------------
 #t hf aug-cc-pvdz symm=none int=(grid=ultrafine) guess=(read,tcheck) s
 table=(opt,rrhf)
 ----------------------------------------------------------------------
 -----
 title
 -----
 Symbolic Z-matrix:
 Charge =  0 Multiplicity = 1

 SCF Done:  E(RHF) =  -337.706451117     A.U. after   13 cycles
 Normal termination of Gaussian 16 at Sat Apr  5 22:46:04 2025.
 Gaussian 16:  ES64L-G16RevC.01  3-Jul-2019

 ----------------------------------------------------------------------
 #t hf aug-cc-pvdz iop(5/13=1,5/36=2,99/5=2) pseudo=read geom=check gue
 ss=(read,tcheck) scf=(maxcycle=1)
 ----------------------------------------------------------------------
 -----
 title
 -----
 Structure from the checkpoint file:  "E-azodioxymethane.chk"
 Charge =  0 Multiplicity = 1

                         Standard orientation:
 ---------------------------------------------------------------------
 Center     Atomic      Atomic             Coordinates (Angstroms)
 Number     Number       Type             X           Y           Z
 ---------------------------------------------------------------------
      1          7           0       -0.059500    0.647189    0.000000
      2          7           0        0.059500   -0.647189    0.000000
      3          8           0       -1.192188    1.211304    0.000000
      4          8           0        1.192188   -1.211304    0.000000
      5          6           0        1.192188    1.415406    0.000000
      6          6           0       -1.192188   -1.415406    0.000000
      7          1           0        0.895007    2.456379    0.000000
      8          1           0        1.774488    1.156491    0.882046
      9          1           0        1.774488    1.156491   -0.882046
     10          1           0       -0.895007   -2.456379    0.000000
     11          1           0       -1.774488   -1.156491    0.882046
     12          1           0       -1.774488   -1.156491   -0.882046
 ---------------------------------------------------------------------

 SCF Done:  E(RHF) =  -337.811975338     A.U. after    2 cycles

 The electronic state is 1-AG.
 Alpha  occ. eigenvalues --  -20.56930 -20.56930 -15.84225 -15.84141 -11.30593
 Alpha  occ. eigenvalues --  -11.30593  -1.49871  -1.38754  -1.17764  -1.10700
 Alpha  occ. eigenvalues --   -0.99217  -0.80814  -0.76154  -0.74756  -0.72411
 Alpha  occ. eigenvalues --   -0.62994  -0.62799  -0.61760  -0.59560  -0.56730
 Alpha  occ. eigenvalues --   -0.55176  -0.50872  -0.45891  -0.34578
 Alpha virt. eigenvalues --    0.03414   0.03693   0.04884   0.05382   0.06962
 Alpha virt. eigenvalues --    0.07021   0.08381   0.09606   0.11891   0.14580
 Alpha virt. eigenvalues --    0.14718   0.15172   0.15519   0.16058   0.16508

 Mulliken charges:
               1
     1  N    0.150920
     2  N    0.150920
     3  O   -0.795027
     4  O   -0.795027
     5  C    0.873283
     6  C    0.873283
     7  H   -0.170377
     8  H   -0.029399
     9  H   -0.029399
    10  H   -0.170377
    11  H   -0.029399
    12  H   -0.029399
 Sum of Mulliken charges =  -0.00000

 Dipole moment (field-independent basis, Debye):
    X=             -0.0000    Y=              0.0000    Z=             -0.0000  Tot=              0.0000

 Test job not archived.
 1\1\GINC-SE050\SP\RHF\Aug-CC-pVDZ\C2H6N2O2\OHZDE\05-Apr-2025\0\\#t hf
 aug-cc-pvdz iop(5/13=1,5/36=2,99/5=2) pseudo=read geom=check guess=(re
 ad,tcheck) scf=(maxcycle=1)\\title\\0,1\N,0,-0.0595,0.647189,0.\N,0,0.
 0595,-0.647189,0.\O,0,-1.192188,1.211304,0.\O,0,1.192188,-1.211304,0.\
 C,0,1.192188,1.415406,0.\C,0,-1.192188,-1.415406,0.\H,0,0.895007,2.456
 379,0.\H,0,1.774488,1.156491,0.882046\H,0,1.774488,1.156491,-0.882046\
 H,0,-0.895007,-2.456379,0.\H,0,-1.774488,-1.156491,0.882046\H,0,-1.774
 488,-1.156491,-0.882046\\Version=ES64L-G16RevC.01\State=1-AG\HF=-337.8

 Normal termination of Gaussian 16 at Sat Apr  5 22:47:05 2025.
