 Gaussian 16, Revision C.01,

 ----------------------------------------------------------------------
 #t hf aug-cc-pvdz symm=none int=(grid=ultrafine) guess=(read,tcheck) s
 table=(opt,rrhf)
 ----------------------------------------------------------------------
 -----
 title
 -----
 Symbolic Z-matrix:
 Charge =  0 Multiplicity = 1

 SCF Done:  E(RHF) =  -188.097351543     A.U. after   11 cycles
 Normal termination of Gaussian 16 at Sat Apr  5 22:45:57 2025.
 Gaussian 16:  ES64L-G16RevC.01  3-Jul-2019

 ----------------------------------------------------------------------
 #t hf aug-cc-pvdz iop(5/13=1,5/36=2,99/5=2) pseudo=read geom=check gue
 ss=(read,tcheck) scf=(maxcycle=1)
 ----------------------------------------------------------------------
 -----
 title
 -----
 Structure from the checkpoint file:  "E-dimethyldiazine.chk"
 Charge =  0 Multiplicity = 1

                         Standard orientation:
 ---------------------------------------------------------------------
 Center     Atomic      Atomic             Coordinates (Angstroms)
 Number     Number       Type             X           Y           Z
 ---------------------------------------------------------------------
      1          6           0       -1.792925    0.132342   -0.066839
      2          7           0       -0.414567   -0.229123   -0.392738
      3          7           0        0.414567    0.229123    0.392738
      4          6           0        1.792925   -0.132342    0.066839
      5          1           0       -2.215579    0.652316   -0.927812
      6          1           0       -1.855580    0.753706    0.827894
      7          1           0       -2.359533   -0.790722    0.064186
      8          1           0        2.215579   -0.652316    0.927812
      9          1           0        1.855580   -0.753706   -0.827894
     10          1           0        2.359533    0.790722   -0.064186
 ---------------------------------------------------------------------

 SCF Done:  E(RHF) =  -188.154531173     A.U. after    2 cycles

 The electronic state is 1-AG.
 Alpha  occ. eigenvalues --  -15.68463 -15.68331 -11.25968 -11.25968  -1.31897
 Alpha  occ. eigenvalues --   -1.05122  -0.93235  -0.76612  -0.65479  -0.64520
 Alpha  occ. eigenvalues --   -0.62464  -0.57806  -0.54504  -0.51400  -0.44632
 Alpha  occ. eigenvalues --   -0.37151
 Alpha virt. eigenvalues --    0.03870   0.03997   0.04884   0.05221   0.07392
 Alpha virt. eigenvalues --    0.07775   0.10440   0.12671   0.12829   0.14025
 Alpha virt. eigenvalues --    0.14696   0.15733   0.17279   0.17836   0.18185

 Mulliken charges:
               1
     1  C    0.768915
     2  N   -0.452330
     3  N   -0.452330
     4  C    0.768915
     5  H   -0.099185
     6  H   -0.118063
     7  H   -0.099336
     8  H   -0.099185
     9  H   -0.118063
    10  H   -0.099336
 Sum of Mulliken charges =  -0.00000

 Dipole moment (field-independent basis, Debye):
    X=              0.0000    Y=             -0.0000    Z=              0.0000  Tot=              0.0000

 Test job not archived.
 1\1\GINC-SE055\SP\RHF\Aug-CC-pVDZ\C2H6N2\OHZDE\05-Apr-2025\0\\#t hf au
 g-cc-pvdz iop(5/13=1,5/36=2,99/5=2) pseudo=read geom=check guess=(read
 ,tcheck) scf=(maxcycle=1)\\title\\0,1\C,0,-1.792925,0.132342,-0.066839
 \N,0,-0.414567,-0.229123,-0.392738\N,0,0.414567,0.229123,0.392738\C,0,
 1.792925,-0.132342,0.066839\H,0,-2.215579,0.652316,-0.927812\H,0,-1.85
 558,0.753706,0.827894\H,0,-2.359533,-0.790722,0.064186\H,0,2.215579,-0
 .652316,0.927812\H,0,1.85558,-0.753706,-0.827894\H,0,2.359533,0.790722
 ,-0.064186\\Version=ES64L-G16RevC.01\State=1-AG\HF=-188.1545312\RMSD=2

 Normal termination of Gaussian 16 at Sat Apr  5 22:47:03 2025.
