 Gaussian 16, Revision C.01,

 ----------------------------------------------------------------------
 #t hf aug-cc-pvdz symm=none int=(grid=ultrafine) guess=(read,tcheck) s
 table=(opt,rrhf)
 ----------------------------------------------------------------------
 -----
 title
 -----
 Symbolic Z-matrix:
 Charge =  0 Multiplicity = 1

 SCF Done:  E(RHF) =  -233.025481207     A.U. after   13 cycles
 Normal termination of Gaussian 16 at Sat Apr  5 22:46:02 2025.
 Gaussian 16:  ES64L-G16RevC.01  3-Jul-2019

 ----------------------------------------------------------------------
 #t hf aug-cc-pvdz iop(5/13=1,5/36=2,99/5=2) pseudo=read geom=check gue
 ss=(read,tcheck) scf=(maxcycle=1)
 ----------------------------------------------------------------------
 -----
 title
 -----
 Structure from the checkpoint file:  "E-E-2-4-hexadiene.chk"
 Charge =  0 Multiplicity = 1

                         Standard orientation:
 ---------------------------------------------------------------------
 Center     Atomic      Atomic             Coordinates (Angstroms)
 Number     Number       Type             X           Y           Z
 ---------------------------------------------------------------------
      1          6           0       -0.321563   -3.165600    0.000000
      2          6           0        0.321563    3.165600    0.000000
      3          6           0        0.321563    0.650169    0.000000
      4          6           0       -0.321563   -0.650169    0.000000
      5          6           0       -0.327188    1.819192    0.000000
      6          6           0        0.327188   -1.819192    0.000000
      7          1           0       -1.408837   -3.086565    0.000000
      8          1           0        1.408837    3.086565    0.000000
      9          1           0       -0.023595   -3.749001    0.875844
     10          1           0       -0.023595   -3.749001   -0.875844
     11          1           0        0.023595    3.749001    0.875844
     12          1           0        0.023595    3.749001   -0.875844
     13          1           0        1.408805    0.652661    0.000000
     14          1           0       -1.408805   -0.652661    0.000000
     15          1           0       -1.414062    1.807646    0.000000
     16          1           0        1.414062   -1.807646    0.000000
 ---------------------------------------------------------------------

 SCF Done:  E(RHF) =  -233.100327749     A.U. after    2 cycles

 The electronic state is 1-AG.
 Alpha  occ. eigenvalues --  -11.23817 -11.23816 -11.23387 -11.23309 -11.23061
 Alpha  occ. eigenvalues --  -11.23061  -1.09068  -1.04172  -0.96470  -0.89500
 Alpha  occ. eigenvalues --   -0.76590  -0.75251  -0.65158  -0.61695  -0.56966
 Alpha  occ. eigenvalues --   -0.56637  -0.56128  -0.55210  -0.51713  -0.50528
 Alpha  occ. eigenvalues --   -0.48423  -0.42759  -0.30318
 Alpha virt. eigenvalues --    0.03635   0.03899   0.04298   0.05931   0.06057
 Alpha virt. eigenvalues --    0.06347   0.06385   0.08149   0.08625   0.09013
 Alpha virt. eigenvalues --    0.11195   0.11559   0.13084   0.13611   0.14241

 Mulliken charges:
               1
     1  C    0.329032
     2  C    0.329032
     3  C    0.696980
     4  C    0.696980
     5  C   -0.126277
     6  C   -0.126277
     7  H   -0.151613
     8  H   -0.151613
     9  H    0.091656
    10  H    0.091656
    11  H    0.091656
    12  H    0.091656
    13  H   -0.483680
    14  H   -0.483680
    15  H   -0.447755
    16  H   -0.447755
 Sum of Mulliken charges =   0.00000

 Dipole moment (field-independent basis, Debye):
    X=             -0.0000    Y=             -0.0000    Z=              0.0000  Tot=              0.0000

 Test job not archived.
 1\1\GINC-SE052\SP\RHF\Aug-CC-pVDZ\C6H10\OHZDE\05-Apr-2025\0\\#t hf aug
 -cc-pvdz iop(5/13=1,5/36=2,99/5=2) pseudo=read geom=check guess=(read,
 tcheck) scf=(maxcycle=1)\\title\\0,1\C,0,-0.321563,-3.1656,0.\C,0,0.32
 1563,3.1656,0.\C,0,0.321563,0.650169,0.\C,0,-0.321563,-0.650169,0.\C,0
 ,-0.327188,1.819192,0.\C,0,0.327188,-1.819192,0.\H,0,-1.408837,-3.0865
 65,0.\H,0,1.408837,3.086565,0.\H,0,-0.023595,-3.749001,0.875844\H,0,-0
 .023595,-3.749001,-0.875844\H,0,0.023595,3.749001,0.875844\H,0,0.02359
 5,3.749001,-0.875844\H,0,1.408805,0.652661,0.\H,0,-1.408805,-0.652661,

 Normal termination of Gaussian 16 at Sat Apr  5 22:47:05 2025.
