 Gaussian 16, Revision C.01,

 ----------------------------------------------------------------------
 #t hf aug-cc-pvdz symm=none int=(grid=ultrafine) guess=(read,tcheck) s
 table=(opt,rrhf)
 ----------------------------------------------------------------------
 -----
 title
 -----
 Symbolic Z-matrix:
 Charge =  0 Multiplicity = 1

 SCF Done:  E(RHF) =  -273.245131594     A.U. after   13 cycles
 Normal termination of Gaussian 16 at Sat Apr  5 22:46:47 2025.
 Gaussian 16:  ES64L-G16RevC.01  3-Jul-2019

 ----------------------------------------------------------------------
 #t hf aug-cc-pvdz iop(5/13=1,5/36=2,99/5=2) pseudo=read geom=check gue
 ss=(read,tcheck) scf=(maxcycle=1)
 ----------------------------------------------------------------------
 -----
 title
 -----
 Structure from the checkpoint file:  "E-hept-2-ene.chk"
 Charge =  0 Multiplicity = 1

                         Standard orientation:
 ---------------------------------------------------------------------
 Center     Atomic      Atomic             Coordinates (Angstroms)
 Number     Number       Type             X           Y           Z
 ---------------------------------------------------------------------
      1          6           0        2.441663    0.162598   -0.365182
      2          6           0        1.385172    0.126631    0.440416
      3          6           0        3.766263   -0.479321   -0.089056
      4          6           0       -3.620200   -0.583267   -0.136932
      5          6           0        0.056507    0.764266    0.164386
      6          6           0       -2.466044    0.416907   -0.102935
      7          6           0       -1.104645   -0.239625    0.126643
      8          1           0        2.358643    0.700966   -1.306573
      9          1           0        1.466900   -0.412762    1.382304
     10          1           0        4.569757    0.262058   -0.075544
     11          1           0        4.024236   -1.204082   -0.865896
     12          1           0        3.767683   -0.996869    0.870489
     13          1           0       -3.485464   -1.314681   -0.936498
     14          1           0       -3.692335   -1.134107    0.803175
     15          1           0       -4.576083   -0.084249   -0.302393
     16          1           0       -0.155903    1.508409    0.940995
     17          1           0        0.100952    1.309497   -0.782195
     18          1           0       -2.646373    1.155223    0.684348
     19          1           0       -2.441268    0.977092   -1.042548
     20          1           0       -1.127620   -0.800201    1.066921
     21          1           0       -0.915420   -0.975427   -0.660622
 ---------------------------------------------------------------------

 SCF Done:  E(RHF) =  -273.333254700     A.U. after    2 cycles

 The electronic state is 1-A.
 Alpha  occ. eigenvalues --  -11.23138 -11.22828 -11.22766 -11.22711 -11.22511
 Alpha  occ. eigenvalues --  -11.22384 -11.21989  -1.08420  -1.04766  -0.98807
 Alpha  occ. eigenvalues --   -0.91889  -0.84634  -0.79021  -0.74597  -0.64595
 Alpha  occ. eigenvalues --   -0.61740  -0.60303  -0.58692  -0.56441  -0.55293
 Alpha  occ. eigenvalues --   -0.53855  -0.51769  -0.50042  -0.48614  -0.47377
 Alpha  occ. eigenvalues --   -0.46422  -0.45786  -0.34438
 Alpha virt. eigenvalues --    0.03641   0.04024   0.04410   0.04758   0.05494
 Alpha virt. eigenvalues --    0.06052   0.06174   0.06872   0.07685   0.08048
 Alpha virt. eigenvalues --    0.08448   0.09344   0.09892   0.10953   0.11523

 Mulliken charges:
               1
     1  C   -0.095459
     2  C    1.129844
     3  C    0.250677
     4  C    0.509435
     5  C    0.176844
     6  C    0.239083
     7  C   -0.125885
     8  H   -0.434128
     9  H   -0.490680
    10  H    0.057384
    11  H    0.051201
    12  H   -0.141463
    13  H   -0.076156
    14  H   -0.080877
    15  H   -0.064097
    16  H   -0.039961
    17  H   -0.207129
    18  H   -0.141532
    19  H   -0.162342
    20  H   -0.186907
    21  H   -0.167851
 Sum of Mulliken charges =  -0.00000

 Dipole moment (field-independent basis, Debye):
    X=             -0.0233    Y=              0.0214    Z=             -0.0390  Tot=              0.0502

 Test job not archived.
 1\1\GINC-SE129\SP\RHF\Aug-CC-pVDZ\C7H14\OHZDE\05-Apr-2025\0\\#t hf aug
 -cc-pvdz iop(5/13=1,5/36=2,99/5=2) pseudo=read geom=check guess=(read,
 tcheck) scf=(maxcycle=1)\\title\\0,1\C,0,2.441663,0.162598,-0.365182\C
 ,0,1.385172,0.126631,0.440416\C,0,3.766263,-0.479321,-0.089056\C,0,-3.
 6202,-0.583267,-0.136932\C,0,0.056507,0.764266,0.164386\C,0,-2.466044,
 0.416907,-0.102935\C,0,-1.104645,-0.239625,0.126643\H,0,2.358643,0.700
 966,-1.306573\H,0,1.4669,-0.412762,1.382304\H,0,4.569757,0.262058,-0.0
 75544\H,0,4.024236,-1.204082,-0.865896\H,0,3.767683,-0.996869,0.870489

 Normal termination of Gaussian 16 at Sat Apr  5 22:47:09 2025.
