 Gaussian 16, Revision C.01,

 ----------------------------------------------------------------------
 #t hf aug-cc-pvdz symm=none int=(grid=ultrafine) guess=(read,tcheck) s
 table=(opt,rrhf)
 ----------------------------------------------------------------------
 -----
 title
 -----
 Symbolic Z-matrix:
 Charge =  0 Multiplicity = 1

 SCF Done:  E(RHF) =  -229.408487596     A.U. after   13 cycles
 Normal termination of Gaussian 16 at Sat Apr  5 22:46:02 2025.
 Gaussian 16:  ES64L-G16RevC.01  3-Jul-2019

 ----------------------------------------------------------------------
 #t hf aug-cc-pvdz iop(5/13=1,5/36=2,99/5=2) pseudo=read geom=check gue
 ss=(read,tcheck) scf=(maxcycle=1)
 ----------------------------------------------------------------------
 -----
 title
 -----
 Structure from the checkpoint file:  "E-hexa-1-5-diyne-3-ene.chk"
 Charge =  0 Multiplicity = 1

                         Standard orientation:
 ---------------------------------------------------------------------
 Center     Atomic      Atomic             Coordinates (Angstroms)
 Number     Number       Type             X           Y           Z
 ---------------------------------------------------------------------
      1          6           0       -0.324304    0.589828    0.000000
      2          6           0        0.324304   -0.589828    0.000000
      3          6           0        0.324304    1.845570    0.000000
      4          6           0       -0.324304   -1.845570    0.000000
      5          1           0       -1.408272    0.599713    0.000000
      6          1           0        1.408272   -0.599713    0.000000
      7          6           0        0.841122    2.932151    0.000000
      8          6           0       -0.841122   -2.932151    0.000000
      9          1           0        1.305614    3.886246    0.000000
     10          1           0       -1.305614   -3.886246    0.000000
 ---------------------------------------------------------------------

 SCF Done:  E(RHF) =  -229.482052733     A.U. after    2 cycles

 The electronic state is 1-AG.
 Alpha  occ. eigenvalues --  -11.28816 -11.28664 -11.26094 -11.26093 -11.25362
 Alpha  occ. eigenvalues --  -11.25360  -1.11735  -1.04851  -1.00163  -0.88442
 Alpha  occ. eigenvalues --   -0.74322  -0.73846  -0.69807  -0.66852  -0.58280
 Alpha  occ. eigenvalues --   -0.50342  -0.43561  -0.41402  -0.40707  -0.33246
 Alpha virt. eigenvalues --    0.03502   0.03575   0.04865   0.05127   0.05559
 Alpha virt. eigenvalues --    0.09517   0.09895   0.10114   0.11355   0.11735
 Alpha virt. eigenvalues --    0.11814   0.14115   0.14184   0.14441   0.14542

 Mulliken charges:
               1
     1  C    0.464618
     2  C    0.464618
     3  C   -0.508912
     4  C   -0.508912
     5  H   -0.373749
     6  H   -0.373749
     7  C    0.931979
     8  C    0.931979
     9  H   -0.513936
    10  H   -0.513936
 Sum of Mulliken charges =  -0.00000

 Dipole moment (field-independent basis, Debye):
    X=              0.0000    Y=              0.0000    Z=              0.0000  Tot=              0.0000

 Test job not archived.
 1\1\GINC-SE196\SP\RHF\Aug-CC-pVDZ\C6H4\OHZDE\05-Apr-2025\0\\#t hf aug-
 cc-pvdz iop(5/13=1,5/36=2,99/5=2) pseudo=read geom=check guess=(read,t
 check) scf=(maxcycle=1)\\title\\0,1\C,0,-0.324304,0.589828,0.\C,0,0.32
 4304,-0.589828,0.\C,0,0.324304,1.84557,0.\C,0,-0.324304,-1.84557,0.\H,
 0,-1.408272,0.599713,0.\H,0,1.408272,-0.599713,0.\C,0,0.841122,2.93215
 1,0.\C,0,-0.841122,-2.932151,0.\H,0,1.305614,3.886246,0.\H,0,-1.305614
 ,-3.886246,0.\\Version=ES64L-G16RevC.01\State=1-AG\HF=-229.4820527\RMS
 D=1.536e-02\Dipole=0.,0.,0.\Quadrupole=-0.1318793,4.810711,-4.6788317,

 Normal termination of Gaussian 16 at Sat Apr  5 22:47:03 2025.
