 Gaussian 16, Revision C.01,

 ----------------------------------------------------------------------
 #t hf aug-cc-pvdz symm=none int=(grid=ultrafine) guess=(read,tcheck) s
 table=(opt,rrhf)
 ----------------------------------------------------------------------
 -----
 title
 -----
 Symbolic Z-matrix:
 Charge =  0 Multiplicity = 1

 SCF Done:  E(RHF) =  -231.818057687     A.U. after   14 cycles
 Normal termination of Gaussian 16 at Sat Apr  5 22:46:14 2025.
 Gaussian 16:  ES64L-G16RevC.01  3-Jul-2019

 ----------------------------------------------------------------------
 #t hf aug-cc-pvdz iop(5/13=1,5/36=2,99/5=2) pseudo=read geom=check gue
 ss=(read,tcheck) scf=(maxcycle=1)
 ----------------------------------------------------------------------
 -----
 title
 -----
 Structure from the checkpoint file:  "E-hex-2-en-4-yne.chk"
 Charge =  0 Multiplicity = 1

                         Standard orientation:
 ---------------------------------------------------------------------
 Center     Atomic      Atomic             Coordinates (Angstroms)
 Number     Number       Type             X           Y           Z
 ---------------------------------------------------------------------
      1          6           0       -0.679556    0.246701    0.000059
      2          6           0       -1.868935    0.053330   -0.000014
      3          6           0        0.712990    0.524010    0.000070
      4          6           0        1.678405   -0.401807    0.000097
      5          6           0       -3.302324   -0.193398   -0.000060
      6          6           0        3.141388   -0.102342   -0.000083
      7          1           0        0.991810    1.574332   -0.000000
      8          1           0        1.392525   -1.448439    0.000167
      9          1           0       -3.608764   -0.738322    0.895198
     10          1           0       -3.862184    0.743039   -0.028117
     11          1           0       -3.600383   -0.786260   -0.867207
     12          1           0        3.630920   -0.536953   -0.875960
     13          1           0        3.631186   -0.536992    0.875622
     14          1           0        3.333073    0.970625   -0.000115
 ---------------------------------------------------------------------

 SCF Done:  E(RHF) =  -231.893388895     A.U. after    2 cycles

 The electronic state is 1-A.
 Alpha  occ. eigenvalues --  -11.25464 -11.25312 -11.25151 -11.23740 -11.23440
 Alpha  occ. eigenvalues --  -11.22780  -1.08731  -1.04025  -0.97584  -0.91977
 Alpha  occ. eigenvalues --   -0.78889  -0.69357  -0.62605  -0.60863  -0.58806
 Alpha  occ. eigenvalues --   -0.58560  -0.57506  -0.54491  -0.51263  -0.44246
 Alpha  occ. eigenvalues --   -0.37288  -0.31964
 Alpha virt. eigenvalues --    0.03515   0.03848   0.04706   0.05599   0.05939
 Alpha virt. eigenvalues --    0.06404   0.06591   0.08232   0.10021   0.10495
 Alpha virt. eigenvalues --    0.11515   0.13630   0.13824   0.14440   0.15121

 Mulliken charges:
               1
     1  C   -0.304261
     2  C   -0.799792
     3  C    0.754840
     4  C    0.123194
     5  C    0.281311
     6  C    0.211119
     7  H   -0.380281
     8  H   -0.374813
     9  H    0.147056
    10  H    0.126784
    11  H    0.145897
    12  H    0.086274
    13  H    0.086319
    14  H   -0.103647
 Sum of Mulliken charges =  -0.00000

 Dipole moment (field-independent basis, Debye):
    X=              0.1699    Y=             -0.3085    Z=             -0.0003  Tot=              0.3522

 Test job not archived.
 1\1\GINC-SE158\SP\RHF\Aug-CC-pVDZ\C6H8\OHZDE\05-Apr-2025\0\\#t hf aug-
 cc-pvdz iop(5/13=1,5/36=2,99/5=2) pseudo=read geom=check guess=(read,t
 check) scf=(maxcycle=1)\\title\\0,1\C,0,-0.679556,0.246701,0.000059\C,
 0,-1.868935,0.05333,-0.000014\C,0,0.71299,0.52401,0.00007\C,0,1.678405
 ,-0.401807,0.000097\C,0,-3.302324,-0.193398,-0.00006\C,0,3.141388,-0.1
 02342,-0.000083\H,0,0.99181,1.574332,0.\H,0,1.392525,-1.448439,0.00016
 7\H,0,-3.608764,-0.738322,0.895198\H,0,-3.862184,0.743039,-0.028117\H,
 0,-3.600383,-0.78626,-0.867207\H,0,3.63092,-0.536953,-0.87596\H,0,3.63

 Normal termination of Gaussian 16 at Sat Apr  5 22:47:05 2025.
