 Gaussian 16, Revision C.01,

 ----------------------------------------------------------------------
 #t hf aug-cc-pvdz symm=none int=(grid=ultrafine) guess=(read,tcheck) s
 table=(opt,rrhf)
 ----------------------------------------------------------------------
 -----
 title
 -----
 Symbolic Z-matrix:
 Charge =  0 Multiplicity = 1

 SCF Done:  E(RHF) =  -234.206314974     A.U. after   13 cycles
 Normal termination of Gaussian 16 at Sat Apr  5 22:47:36 2025.
 Gaussian 16:  ES64L-G16RevC.01  3-Jul-2019

 ----------------------------------------------------------------------
 #t hf aug-cc-pvdz iop(5/13=1,5/36=2,99/5=2) pseudo=read geom=check gue
 ss=(read,tcheck) scf=(maxcycle=1)
 ----------------------------------------------------------------------
 -----
 title
 -----
 Structure from the checkpoint file:  "E-hex-2-ene.chk"
 Charge =  0 Multiplicity = 1

                         Standard orientation:
 ---------------------------------------------------------------------
 Center     Atomic      Atomic             Coordinates (Angstroms)
 Number     Number       Type             X           Y           Z
 ---------------------------------------------------------------------
      1          6           0        3.184312    0.214662   -0.156388
      2          6           0        1.804466   -0.364204   -0.216238
      3          6           0        0.743151    0.105154    0.431736
      4          6           0       -0.640500   -0.468565    0.368176
      5          6           0       -1.685118    0.519417   -0.171606
      6          6           0       -3.099443   -0.056883   -0.186480
      7          1           0        3.223229    1.089985    0.492451
      8          1           0        3.904316   -0.517661    0.218689
      9          1           0        3.531684    0.512657   -1.149293
     10          1           0        1.681810   -1.243047   -0.845147
     11          1           0        0.864249    0.985574    1.060220
     12          1           0       -0.950299   -0.782190    1.372044
     13          1           0       -0.636597   -1.370501   -0.250054
     14          1           0       -1.397617    0.823029   -1.181416
     15          1           0       -1.666289    1.428500    0.436494
     16          1           0       -3.819163    0.665084   -0.574592
     17          1           0       -3.155216   -0.949735   -0.812711
     18          1           0       -3.421316   -0.339183    0.818118
 ---------------------------------------------------------------------

 SCF Done:  E(RHF) =  -234.282446778     A.U. after    2 cycles

 The electronic state is 1-A.
 Alpha  occ. eigenvalues --  -11.23166 -11.22841 -11.22779 -11.22728 -11.22648
 Alpha  occ. eigenvalues --  -11.22067  -1.08164  -1.03358  -0.95945  -0.88277
 Alpha  occ. eigenvalues --   -0.80118  -0.74700  -0.63730  -0.62337  -0.59017
 Alpha  occ. eigenvalues --   -0.56927  -0.56188  -0.53847  -0.52415  -0.50016
 Alpha  occ. eigenvalues --   -0.48147  -0.46978  -0.46723  -0.34476
 Alpha virt. eigenvalues --    0.03675   0.04151   0.04510   0.04853   0.05894
 Alpha virt. eigenvalues --    0.06392   0.06478   0.07181   0.08301   0.08324
 Alpha virt. eigenvalues --    0.08736   0.10694   0.11426   0.13400   0.13927

 Mulliken charges:
               1
     1  C    0.220904
     2  C   -0.068221
     3  C    0.973042
     4  C    0.079617
     5  C    0.046909
     6  C    0.398576
     7  H   -0.135433
     8  H    0.054016
     9  H    0.048886
    10  H   -0.421436
    11  H   -0.487478
    12  H   -0.032795
    13  H   -0.194924
    14  H   -0.120260
    15  H   -0.141018
    16  H   -0.066937
    17  H   -0.087099
    18  H   -0.066350
 Sum of Mulliken charges =  -0.00000

 Dipole moment (field-independent basis, Debye):
    X=              0.0053    Y=              0.0388    Z=             -0.0511  Tot=              0.0644

 Test job not archived.
 1\1\GINC-SE194\SP\RHF\Aug-CC-pVDZ\C6H12\OHZDE\05-Apr-2025\0\\#t hf aug
 -cc-pvdz iop(5/13=1,5/36=2,99/5=2) pseudo=read geom=check guess=(read,
 tcheck) scf=(maxcycle=1)\\title\\0,1\C,0,3.184312,0.214662,-0.156388\C
 ,0,1.804466,-0.364204,-0.216238\C,0,0.743151,0.105154,0.431736\C,0,-0.
 6405,-0.468565,0.368176\C,0,-1.685118,0.519417,-0.171606\C,0,-3.099443
 ,-0.056883,-0.18648\H,0,3.223229,1.089985,0.492451\H,0,3.904316,-0.517
 661,0.218689\H,0,3.531684,0.512657,-1.149293\H,0,1.68181,-1.243047,-0.
 845147\H,0,0.864249,0.985574,1.06022\H,0,-0.950299,-0.78219,1.372044\H

 Normal termination of Gaussian 16 at Sat Apr  5 22:48:02 2025.
