 Gaussian 16, Revision C.01,

 ----------------------------------------------------------------------
 #t hf aug-cc-pvdz symm=none int=(grid=ultrafine) guess=(read,tcheck) s
 table=(opt,rrhf)
 ----------------------------------------------------------------------
 -----
 title
 -----
 Symbolic Z-matrix:
 Charge =  0 Multiplicity = 1

 SCF Done:  E(RHF) =  -307.912958862     A.U. after   14 cycles

 1\1\GINC-SE190\Stability\RHF\Aug-CC-pVDZ\C6H10O1\OHZDE\05-Apr-2025\0\\
 #t hf aug-cc-pvdz symm=none int=(grid=ultrafine) guess=(read,tcheck) s
 table=(opt,rrhf)\\title\\0,1\C,0,1.353737,-0.368467,0.037834\C,0,0.245
 113,0.262988,0.434823\C,0,2.645333,0.319343,-0.004122\C,0,-3.55661,-0.
 151254,-0.231842\C,0,-1.12368,-0.325197,0.512772\C,0,-2.146913,0.42138
 2,-0.360045\O,0,3.687325,-0.191449,-0.351651\H,0,1.345138,-1.409243,-0
 .265925\H,0,0.332449,1.309202,0.722433\H,0,2.616706,1.382207,0.314022\
 H,0,-3.585524,-1.20076,-0.530463\H,0,-3.915768,-0.089864,0.797239\H,0,

 Normal termination of Gaussian 16 at Sat Apr  5 22:46:33 2025.
 Gaussian 16:  ES64L-G16RevC.01  3-Jul-2019

 ----------------------------------------------------------------------
 #t hf aug-cc-pvdz iop(5/13=1,5/36=2,99/5=2) pseudo=read geom=check gue
 ss=(read,tcheck) scf=(maxcycle=1)
 ----------------------------------------------------------------------
 -----
 title
 -----
 Structure from the checkpoint file:  "E-hex-2-enal.chk"
 Charge =  0 Multiplicity = 1

                         Standard orientation:
 ---------------------------------------------------------------------
 Center     Atomic      Atomic             Coordinates (Angstroms)
 Number     Number       Type             X           Y           Z
 ---------------------------------------------------------------------
      1          6           0        1.353737   -0.368467    0.037834
      2          6           0        0.245113    0.262988    0.434823
      3          6           0        2.645333    0.319343   -0.004122
      4          6           0       -3.556610   -0.151254   -0.231842
      5          6           0       -1.123680   -0.325197    0.512772
      6          6           0       -2.146913    0.421382   -0.360045
      7          8           0        3.687325   -0.191449   -0.351651
      8          1           0        1.345138   -1.409243   -0.265925
      9          1           0        0.332449    1.309202    0.722433
     10          1           0        2.616706    1.382207    0.314022
     11          1           0       -3.585524   -1.200760   -0.530463
     12          1           0       -3.915768   -0.089864    0.797239
     13          1           0       -4.260573    0.392160   -0.862658
     14          1           0       -1.094232   -1.380186    0.232496
     15          1           0       -1.463655   -0.283003    1.554077
     16          1           0       -2.152324    1.478782   -0.082114
     17          1           0       -1.822698    0.379526   -1.402423
 ---------------------------------------------------------------------

 SCF Done:  E(RHF) =  -308.010557103     A.U. after    2 cycles

 The electronic state is 1-A.
 Alpha  occ. eigenvalues --  -20.56363 -11.34034 -11.28047 -11.25523 -11.25113
 Alpha  occ. eigenvalues --  -11.24850 -11.23638  -1.34906  -1.11176  -1.05141
 Alpha  occ. eigenvalues --   -0.96133  -0.85537  -0.81033  -0.78495  -0.68897
 Alpha  occ. eigenvalues --   -0.66228  -0.64092  -0.61121  -0.58891  -0.57057
 Alpha  occ. eigenvalues --   -0.54878  -0.53556  -0.51086  -0.50201  -0.49217
 Alpha  occ. eigenvalues --   -0.43563  -0.38584
 Alpha virt. eigenvalues --    0.02977   0.03692   0.04219   0.04476   0.05855
 Alpha virt. eigenvalues --    0.06524   0.06600   0.07115   0.07699   0.08388
 Alpha virt. eigenvalues --    0.09505   0.10310   0.12159   0.12721   0.13269

 Mulliken charges:
               1
     1  C    0.359019
     2  C    0.769013
     3  C    0.602440
     4  C    0.399481
     5  C    0.043726
     6  C    0.052253
     7  O   -0.497754
     8  H   -0.443249
     9  H   -0.496461
    10  H   -0.179906
    11  H   -0.080668
    12  H   -0.061371
    13  H   -0.064413
    14  H   -0.173529
    15  H    0.014652
    16  H   -0.132682
    17  H   -0.110550
 Sum of Mulliken charges =  -0.00000

 Dipole moment (field-independent basis, Debye):
    X=             -4.7509    Y=              1.1760    Z=              1.0594  Tot=              5.0076

 Test job not archived.
 1\1\GINC-SE190\SP\RHF\Aug-CC-pVDZ\C6H10O1\OHZDE\05-Apr-2025\0\\#t hf a
 ug-cc-pvdz iop(5/13=1,5/36=2,99/5=2) pseudo=read geom=check guess=(rea
 d,tcheck) scf=(maxcycle=1)\\title\\0,1\C,0,1.353737,-0.368467,0.037834
 \C,0,0.245113,0.262988,0.434823\C,0,2.645333,0.319343,-0.004122\C,0,-3
 .55661,-0.151254,-0.231842\C,0,-1.12368,-0.325197,0.512772\C,0,-2.1469
 13,0.421382,-0.360045\O,0,3.687325,-0.191449,-0.351651\H,0,1.345138,-1
 .409243,-0.265925\H,0,0.332449,1.309202,0.722433\H,0,2.616706,1.382207
 ,0.314022\H,0,-3.585524,-1.20076,-0.530463\H,0,-3.915768,-0.089864,0.7

 Normal termination of Gaussian 16 at Sat Apr  5 22:47:07 2025.
