 Gaussian 16, Revision C.01,

 ----------------------------------------------------------------------
 #t hf aug-cc-pvdz symm=none int=(grid=ultrafine) guess=(read,tcheck) s
 table=(opt,rrhf)
 ----------------------------------------------------------------------
 -----
 title
 -----
 Symbolic Z-matrix:
 Charge =  0 Multiplicity = 1

 SCF Done:  E(RHF) =  -385.990668807     A.U. after   14 cycles

 1\1\GINC-SE085\Stability\RHF\Aug-CC-pVDZ\C8H14O1\OHZDE\05-Apr-2025\0\\
 #t hf aug-cc-pvdz symm=none int=(grid=ultrafine) guess=(read,tcheck) s
 table=(opt,rrhf)\\title\\0,1\C,0,2.611997,0.223827,-0.300825\C,0,1.549
 505,0.338129,0.501487\C,0,3.878275,-0.323343,0.18862\C,0,-4.786972,-0.
 124165,-0.302575\C,0,0.207729,0.863036,0.114332\C,0,-3.411591,-0.66654
 5,0.08194\C,0,-0.908819,-0.183212,0.275038\C,0,-2.290909,0.359831,-0.0
 87143\O,0,4.87791,-0.455105,-0.482993\H,0,2.582459,0.530856,-1.340266\
 H,0,1.654351,0.007675,1.533289\H,0,3.872769,-0.625229,1.256593\H,0,-5.

 Normal termination of Gaussian 16 at Sat Apr  5 22:47:34 2025.
 Gaussian 16:  ES64L-G16RevC.01  3-Jul-2019

 ----------------------------------------------------------------------
 #t hf aug-cc-pvdz iop(5/13=1,5/36=2,99/5=2) pseudo=read geom=check gue
 ss=(read,tcheck) scf=(maxcycle=1)
 ----------------------------------------------------------------------
 -----
 title
 -----
 Structure from the checkpoint file:  "E-oct-2-enal.chk"
 Charge =  0 Multiplicity = 1

                         Standard orientation:
 ---------------------------------------------------------------------
 Center     Atomic      Atomic             Coordinates (Angstroms)
 Number     Number       Type             X           Y           Z
 ---------------------------------------------------------------------
      1          6           0        2.611997    0.223827   -0.300825
      2          6           0        1.549505    0.338129    0.501487
      3          6           0        3.878275   -0.323343    0.188620
      4          6           0       -4.786972   -0.124165   -0.302575
      5          6           0        0.207729    0.863036    0.114332
      6          6           0       -3.411591   -0.666545    0.081940
      7          6           0       -0.908819   -0.183212    0.275038
      8          6           0       -2.290909    0.359831   -0.087143
      9          8           0        4.877910   -0.455105   -0.482993
     10          1           0        2.582459    0.530856   -1.340266
     11          1           0        1.654351    0.007675    1.533289
     12          1           0        3.872769   -0.625229    1.256593
     13          1           0       -5.051986    0.745375    0.302406
     14          1           0       -5.564751   -0.875434   -0.160722
     15          1           0       -4.810822    0.183879   -1.349781
     16          1           0       -0.030363    1.722364    0.751305
     17          1           0        0.231964    1.227423   -0.914648
     18          1           0       -3.185367   -1.549033   -0.523759
     19          1           0       -3.431941   -1.009179    1.120746
     20          1           0       -0.917566   -0.545349    1.307622
     21          1           0       -0.678207   -1.048957   -0.351592
     22          1           0       -2.280124    0.713817   -1.123199
     23          1           0       -2.508987    1.237280    0.530712
 ---------------------------------------------------------------------

 SCF Done:  E(RHF) =  -386.112244055     A.U. after    2 cycles

 The electronic state is 1-A.
 Alpha  occ. eigenvalues --  -20.56313 -11.33987 -11.27998 -11.25447 -11.25045
 Alpha  occ. eigenvalues --  -11.24510 -11.23731 -11.23539 -11.22818  -1.34852
 Alpha  occ. eigenvalues --   -1.11323  -1.07456  -1.02121  -0.94810  -0.86539
 Alpha  occ. eigenvalues --   -0.81442  -0.80267  -0.78343  -0.68987  -0.66162
 Alpha  occ. eigenvalues --   -0.65662  -0.61304  -0.61160  -0.58303  -0.57650
 Alpha  occ. eigenvalues --   -0.55625  -0.54880  -0.53464  -0.51521  -0.49598
 Alpha  occ. eigenvalues --   -0.48121  -0.47579  -0.47530  -0.43470  -0.38481
 Alpha virt. eigenvalues --    0.02992   0.03557   0.03864   0.04181   0.05157
 Alpha virt. eigenvalues --    0.05766   0.05949   0.06338   0.07315   0.08002
 Alpha virt. eigenvalues --    0.08183   0.08537   0.08777   0.09085   0.10762

 Mulliken charges:
               1
     1  C    0.321973
     2  C    0.938208
     3  C    0.611547
     4  C    0.550421
     5  C    0.418129
     6  C    0.331776
     7  C   -0.115099
     8  C    0.080311
     9  O   -0.500755
    10  H   -0.463211
    11  H   -0.517818
    12  H   -0.186903
    13  H   -0.092573
    14  H   -0.065567
    15  H   -0.087240
    16  H   -0.010298
    17  H   -0.184136
    18  H   -0.149216
    19  H   -0.154042
    20  H   -0.186721
    21  H   -0.165647
    22  H   -0.205790
    23  H   -0.167349
 Sum of Mulliken charges =  -0.00000

 Dipole moment (field-independent basis, Debye):
    X=             -4.7189    Y=              0.7330    Z=              1.7887  Tot=              5.0995

 Test job not archived.
 1\1\GINC-SE085\SP\RHF\Aug-CC-pVDZ\C8H14O1\OHZDE\05-Apr-2025\0\\#t hf a
 ug-cc-pvdz iop(5/13=1,5/36=2,99/5=2) pseudo=read geom=check guess=(rea
 d,tcheck) scf=(maxcycle=1)\\title\\0,1\C,0,2.611997,0.223827,-0.300825
 \C,0,1.549505,0.338129,0.501487\C,0,3.878275,-0.323343,0.18862\C,0,-4.
 786972,-0.124165,-0.302575\C,0,0.207729,0.863036,0.114332\C,0,-3.41159
 1,-0.666545,0.08194\C,0,-0.908819,-0.183212,0.275038\C,0,-2.290909,0.3
 59831,-0.087143\O,0,4.87791,-0.455105,-0.482993\H,0,2.582459,0.530856,
 -1.340266\H,0,1.654351,0.007675,1.533289\H,0,3.872769,-0.625229,1.2565

 Normal termination of Gaussian 16 at Sat Apr  5 22:48:08 2025.
