 Gaussian 16, Revision C.01,

 ----------------------------------------------------------------------
 #t hf aug-cc-pvdz symm=none int=(grid=ultrafine) guess=(read,tcheck) s
 table=(opt,rrhf)
 ----------------------------------------------------------------------
 -----
 title
 -----
 Symbolic Z-matrix:
 Charge =  0 Multiplicity = 1

 SCF Done:  E(RHF) =  -268.881745925     A.U. after   14 cycles
 Normal termination of Gaussian 16 at Sat Apr  5 22:46:15 2025.
 Gaussian 16:  ES64L-G16RevC.01  3-Jul-2019

 ----------------------------------------------------------------------
 #t hf aug-cc-pvdz iop(5/13=1,5/36=2,99/5=2) pseudo=read geom=check gue
 ss=(read,tcheck) scf=(maxcycle=1)
 ----------------------------------------------------------------------
 -----
 title
 -----
 Structure from the checkpoint file:  "E-pent-3-en-2-one.chk"
 Charge =  0 Multiplicity = 1

                         Standard orientation:
 ---------------------------------------------------------------------
 Center     Atomic      Atomic             Coordinates (Angstroms)
 Number     Number       Type             X           Y           Z
 ---------------------------------------------------------------------
      1          6           0        0.000000    0.531086    0.000000
      2          6           0       -1.331860    0.464679    0.000000
      3          6           0        0.850788   -0.688356    0.000000
      4          6           0       -2.260297    1.629509    0.000000
      5          6           0        2.345543   -0.454617    0.000000
      6          8           0        0.383363   -1.811009    0.000000
      7          1           0        0.503575    1.491936    0.000000
      8          1           0       -1.777905   -0.525425    0.000000
      9          1           0       -1.728950    2.580430    0.000000
     10          1           0       -2.916004    1.597196    0.874296
     11          1           0       -2.916004    1.597196   -0.874296
     12          1           0        2.872893   -1.404393    0.000000
     13          1           0        2.635225    0.128660    0.877308
     14          1           0        2.635225    0.128660   -0.877308
 ---------------------------------------------------------------------

 SCF Done:  E(RHF) =  -268.967288908     A.U. after    2 cycles

 The electronic state is 1-A'.
 Alpha  occ. eigenvalues --  -20.54953 -11.33892 -11.26958 -11.24783 -11.24046
 Alpha  occ. eigenvalues --  -11.23996  -1.34129  -1.08620  -1.01276  -0.95426
 Alpha  occ. eigenvalues --   -0.81235  -0.73513  -0.67582  -0.64233  -0.60451
 Alpha  occ. eigenvalues --   -0.58708  -0.58380  -0.57743  -0.54258  -0.51993
 Alpha  occ. eigenvalues --   -0.51199  -0.42480  -0.37645
 Alpha virt. eigenvalues --    0.03139   0.03907   0.04942   0.05285   0.06280
 Alpha virt. eigenvalues --    0.06282   0.07103   0.08284   0.08958   0.10128
 Alpha virt. eigenvalues --    0.11763   0.12491   0.13676   0.14740   0.15017

 Mulliken charges:
               1
     1  C    0.909744
     2  C    0.059022
     3  C   -0.345548
     4  C    0.270489
     5  C    0.449452
     6  O   -0.539559
     7  H   -0.506583
     8  H   -0.404260
     9  H   -0.108269
    10  H    0.088927
    11  H    0.088927
    12  H   -0.085060
    13  H    0.061359
    14  H    0.061359
 Sum of Mulliken charges =  -0.00000

 Dipole moment (field-independent basis, Debye):
    X=              0.0602    Y=              3.5963    Z=              0.0000  Tot=              3.5968

 Test job not archived.
 1\1\GINC-SE179\SP\RHF\Aug-CC-pVDZ\C5H8O1\OHZDE\05-Apr-2025\0\\#t hf au
 g-cc-pvdz iop(5/13=1,5/36=2,99/5=2) pseudo=read geom=check guess=(read
 ,tcheck) scf=(maxcycle=1)\\title\\0,1\C,0,0.,0.531086,0.\C,0,-1.33186,
 0.464679,0.\C,0,0.850788,-0.688356,0.\C,0,-2.260297,1.629509,0.\C,0,2.
 345543,-0.454617,0.\O,0,0.383363,-1.811009,0.\H,0,0.503575,1.491936,0.
 \H,0,-1.777905,-0.525425,0.\H,0,-1.72895,2.58043,0.\H,0,-2.916004,1.59
 7195,0.874296\H,0,-2.916004,1.597195,-0.874296\H,0,2.872893,-1.404393,
 0.\H,0,2.635225,0.12866,0.877308\H,0,2.635225,0.12866,-0.877308\\Versi

 Normal termination of Gaussian 16 at Sat Apr  5 22:47:05 2025.
