 Gaussian 16, Revision C.01,

 ----------------------------------------------------------------------
 #t hf aug-cc-pvdz symm=none int=(grid=ultrafine) guess=(read,tcheck) s
 table=(opt,rrhf)
 ----------------------------------------------------------------------
 -----
 title
 -----
 Symbolic Z-matrix:
 Charge =  0 Multiplicity = 1

 SCF Done:  E(RHF) =  -476.770148527     A.U. after   12 cycles
 Normal termination of Gaussian 16 at Sat Apr  5 22:56:38 2025.
 Gaussian 16:  ES64L-G16RevC.01  3-Jul-2019

 ----------------------------------------------------------------------
 #t hf aug-cc-pvdz iop(5/13=1,5/36=2,99/5=2) pseudo=read geom=check gue
 ss=(read,tcheck) scf=(maxcycle=1)
 ----------------------------------------------------------------------
 -----
 title
 -----
 Structure from the checkpoint file:  "ethanethiol.chk"
 Charge =  0 Multiplicity = 1

                         Standard orientation:
 ---------------------------------------------------------------------
 Center     Atomic      Atomic             Coordinates (Angstroms)
 Number     Number       Type             X           Y           Z
 ---------------------------------------------------------------------
      1          6           0        1.516650    0.705578    0.000000
      2          6           0        0.000000    0.834467    0.000000
      3         16           0       -0.755427   -0.847361    0.000000
      4          1           0        1.868133    0.170753    0.882762
      5          1           0        1.868133    0.170753   -0.882762
      6          1           0        1.975965    1.695046    0.000000
      7          1           0       -0.341365    1.368763   -0.884290
      8          1           0       -0.341365    1.368763    0.884290
      9          1           0       -2.042577   -0.456567    0.000000
 ---------------------------------------------------------------------

 SCF Done:  E(RHF) =  -476.817385322     A.U. after    2 cycles

 The electronic state is 1-A'.
 Alpha  occ. eigenvalues --  -93.52990 -11.27356 -11.23847  -8.82739  -6.16907
 Alpha  occ. eigenvalues --   -6.16669  -6.16329  -1.06011  -0.93439  -0.81718
 Alpha  occ. eigenvalues --   -0.63503  -0.61660  -0.54451  -0.51773  -0.50249
 Alpha  occ. eigenvalues --   -0.44477  -0.35281
 Alpha virt. eigenvalues --    0.03481   0.04698   0.05306   0.05439   0.07247
 Alpha virt. eigenvalues --    0.07890   0.10272   0.12421   0.13202   0.13982
 Alpha virt. eigenvalues --    0.14630   0.16776   0.17238   0.17547   0.18162

 Mulliken charges:
               1
     1  C    0.319774
     2  C   -0.148343
     3  S    0.199751
     4  H   -0.067593
     5  H   -0.067593
     6  H   -0.046894
     7  H   -0.114651
     8  H   -0.114651
     9  H    0.040200
 Sum of Mulliken charges =  -0.00000

 Dipole moment (field-independent basis, Debye):
    X=              0.1111    Y=              1.8008    Z=              0.0000  Tot=              1.8042

 Test job not archived.
 1\1\GINC-SE232\SP\RHF\Aug-CC-pVDZ\C2H6S1\OHZDE\05-Apr-2025\0\\#t hf au
 g-cc-pvdz iop(5/13=1,5/36=2,99/5=2) pseudo=read geom=check guess=(read
 ,tcheck) scf=(maxcycle=1)\\title\\0,1\C,0,1.51665,0.705578,0.\C,0,0.,0
 .834467,0.\S,0,-0.755427,-0.847361,0.\H,0,1.868133,0.170753,0.882762\H
 ,0,1.868133,0.170753,-0.882762\H,0,1.975965,1.695046,0.\H,0,-0.341365,
 1.368763,-0.88429\H,0,-0.341365,1.368763,0.88429\H,0,-2.042577,-0.4565
 66,0.\\Version=ES64L-G16RevC.01\State=1-A'\HF=-476.8173853\RMSD=5.148e
 -03\Dipole=0.0437158,0.7084851,0.\Quadrupole=1.8665689,-0.6392697,-1.2

 Normal termination of Gaussian 16 at Sat Apr  5 22:56:41 2025.
