 Gaussian 16, Revision C.01,

 ----------------------------------------------------------------------
 #t hf aug-cc-pvdz symm=none int=(grid=ultrafine) guess=(read,tcheck) s
 table=(opt,rrhf)
 ----------------------------------------------------------------------
 -----
 title
 -----
 Symbolic Z-matrix:
 Charge =  0 Multiplicity = 1

 SCF Done:  E(RHF) =  -79.2372636681     A.U. after    9 cycles
 Normal termination of Gaussian 16 at Sat Apr  5 22:56:37 2025.
 Gaussian 16:  ES64L-G16RevC.01  3-Jul-2019

 ----------------------------------------------------------------------
 #t hf aug-cc-pvdz iop(5/13=1,5/36=2,99/5=2) pseudo=read geom=check gue
 ss=(read,tcheck) scf=(maxcycle=1)
 ----------------------------------------------------------------------
 -----
 title
 -----
 Structure from the checkpoint file:  "ethane.chk"
 Charge =  0 Multiplicity = 1

                         Standard orientation:
 ---------------------------------------------------------------------
 Center     Atomic      Atomic             Coordinates (Angstroms)
 Number     Number       Type             X           Y           Z
 ---------------------------------------------------------------------
      1          6           0        0.000000    0.763540    0.000000
      2          6           0       -0.000000   -0.763540   -0.000000
      3          1           0       -1.016074    1.160929    0.000000
      4          1           0        1.016074   -1.160929   -0.000000
      5          1           0        0.508037    1.160929    0.879946
      6          1           0       -0.508037   -1.160929   -0.879946
      7          1           0        0.508037    1.160929   -0.879946
      8          1           0       -0.508037   -1.160929    0.879946
 ---------------------------------------------------------------------

 SCF Done:  E(RHF) =  -79.2665645434     A.U. after    2 cycles

 The electronic state is 1-AG.
 Alpha  occ. eigenvalues --  -11.22214 -11.22159  -1.01121  -0.84111  -0.59876
 Alpha  occ. eigenvalues --   -0.59876  -0.51347  -0.48838  -0.48838
 Alpha virt. eigenvalues --    0.03737   0.05103   0.05383   0.05383   0.08266
 Alpha virt. eigenvalues --    0.08266   0.12418   0.14314   0.14314   0.15169
 Alpha virt. eigenvalues --    0.17474   0.17698   0.17698   0.20609   0.29517

 Mulliken charges:
               1
     1  C    0.223271
     2  C    0.223271
     3  H   -0.074424
     4  H   -0.074424
     5  H   -0.074424
     6  H   -0.074424
     7  H   -0.074424
     8  H   -0.074424
 Sum of Mulliken charges =  -0.00000

 Dipole moment (field-independent basis, Debye):
    X=              0.0000    Y=              0.0000    Z=             -0.0000  Tot=              0.0000

 Test job not archived.
 1\1\GINC-SE194\SP\RHF\Aug-CC-pVDZ\C2H6\OHZDE\05-Apr-2025\0\\#t hf aug-
 cc-pvdz iop(5/13=1,5/36=2,99/5=2) pseudo=read geom=check guess=(read,t
 check) scf=(maxcycle=1)\\title\\0,1\C,0,0.,0.,0.76354\C,0,0.,0.,-0.763
 54\H,0,0.,1.016074,1.160929\H,0,0.,-1.016074,-1.160929\H,0,-0.879946,-
 0.508037,1.160929\H,0,0.879946,0.508037,-1.160929\H,0,0.879946,-0.5080
 37,1.160929\H,0,-0.879946,0.508037,-1.160929\\Version=ES64L-G16RevC.01
 \State=1-AG\HF=-79.2665645\RMSD=3.026e-03\Dipole=0.,0.,0.\Quadrupole=0
 .1719679,0.1719674,-0.3439353,0.,0.,0.0000003\PG=C02H [SGH(C2H2),X(H4)

 Normal termination of Gaussian 16 at Sat Apr  5 22:56:40 2025.
