 Gaussian 16, Revision C.01,

 ----------------------------------------------------------------------
 #t hf aug-cc-pvdz symm=none int=(grid=ultrafine) guess=(read,tcheck) s
 table=(opt,rrhf)
 ----------------------------------------------------------------------
 -----
 title
 -----
 Symbolic Z-matrix:
 Charge =  0 Multiplicity = 1

 SCF Done:  E(RHF) =  -530.654435041     A.U. after   13 cycles
 Normal termination of Gaussian 16 at Sat Apr  5 22:56:37 2025.
 Gaussian 16:  ES64L-G16RevC.01  3-Jul-2019

 ----------------------------------------------------------------------
 #t hf aug-cc-pvdz iop(5/13=1,5/36=2,99/5=2) pseudo=read geom=check gue
 ss=(read,tcheck) scf=(maxcycle=1)
 ----------------------------------------------------------------------
 -----
 title
 -----
 Structure from the checkpoint file:  "ethanethioamide.chk"
 Charge =  0 Multiplicity = 1

                         Standard orientation:
 ---------------------------------------------------------------------
 Center     Atomic      Atomic             Coordinates (Angstroms)
 Number     Number       Type             X           Y           Z
 ---------------------------------------------------------------------
      1          6           0       -1.237894   -1.104197   -0.000349
      2          6           0       -0.280575    0.059414   -0.004593
      3          7           0       -0.872923    1.267541    0.000200
      4         16           0        1.365722   -0.118344    0.000090
      5          1           0       -1.971419   -1.006290   -0.804504
      6          1           0       -0.698836   -2.036611   -0.119837
      7          1           0       -1.784470   -1.132530    0.945767
      8          1           0       -1.873504    1.369103   -0.005404
      9          1           0       -0.302047    2.095742    0.010785
 ---------------------------------------------------------------------

 SCF Done:  E(RHF) =  -530.714833724     A.U. after    2 cycles

 The electronic state is 1-A.
 Alpha  occ. eigenvalues --  -93.48033 -15.67651 -11.36449 -11.25986  -8.77983
 Alpha  occ. eigenvalues --   -6.12212  -6.11708  -6.11578  -1.24006  -1.03481
 Alpha  occ. eigenvalues --   -0.94465  -0.79450  -0.73415  -0.63338  -0.61421
 Alpha  occ. eigenvalues --   -0.57272  -0.50585  -0.49778  -0.33421  -0.32213
 Alpha virt. eigenvalues --    0.02332   0.04216   0.04855   0.05542   0.07658
 Alpha virt. eigenvalues --    0.09366   0.09857   0.10768   0.14097   0.14372
 Alpha virt. eigenvalues --    0.14878   0.15899   0.16553   0.17187   0.17816

 Mulliken charges:
               1
     1  C    0.307314
     2  C    0.026308
     3  N   -0.219967
     4  S   -0.082056
     5  H   -0.011557
     6  H   -0.021580
     7  H    0.037100
     8  H   -0.038654
     9  H    0.003093
 Sum of Mulliken charges =  -0.00000

 Dipole moment (field-independent basis, Debye):
    X=             -4.8313    Y=              1.3360    Z=              0.0176  Tot=              5.0126

 Test job not archived.
 1\1\GINC-SE190\SP\RHF\Aug-CC-pVDZ\C2H5N1S1\OHZDE\05-Apr-2025\0\\#t hf
 aug-cc-pvdz iop(5/13=1,5/36=2,99/5=2) pseudo=read geom=check guess=(re
 ad,tcheck) scf=(maxcycle=1)\\title\\0,1\C,0,-1.237894,-1.104197,-0.000
 349\C,0,-0.280575,0.059414,-0.004593\N,0,-0.872923,1.267541,0.0002\S,0
 ,1.365722,-0.118344,0.00009\H,0,-1.971419,-1.00629,-0.804504\H,0,-0.69
 8836,-2.036611,-0.119837\H,0,-1.78447,-1.13253,0.945767\H,0,-1.873504,
 1.369103,-0.005404\H,0,-0.302047,2.095742,0.010785\\Version=ES64L-G16R
 evC.01\State=1-A\HF=-530.7148337\RMSD=5.588e-03\Dipole=-1.9007765,0.52

 Normal termination of Gaussian 16 at Sat Apr  5 22:56:42 2025.
