 Gaussian 16, Revision C.01,

 ----------------------------------------------------------------------
 #t hf aug-cc-pvdz symm=none int=(grid=ultrafine) guess=(read,tcheck) s
 table=(opt,rrhf)
 ----------------------------------------------------------------------
 -----
 title
 -----
 Symbolic Z-matrix:
 Charge =  0 Multiplicity = 1

 SCF Done:  E(RHF) =  -154.105469054     A.U. after   12 cycles
 Normal termination of Gaussian 16 at Sat Apr  5 22:56:37 2025.
 Gaussian 16:  ES64L-G16RevC.01  3-Jul-2019

 ----------------------------------------------------------------------
 #t hf aug-cc-pvdz iop(5/13=1,5/36=2,99/5=2) pseudo=read geom=check gue
 ss=(read,tcheck) scf=(maxcycle=1)
 ----------------------------------------------------------------------
 -----
 title
 -----
 Structure from the checkpoint file:  "ethanol.chk"
 Charge =  0 Multiplicity = 1

                         Standard orientation:
 ---------------------------------------------------------------------
 Center     Atomic      Atomic             Coordinates (Angstroms)
 Number     Number       Type             X           Y           Z
 ---------------------------------------------------------------------
      1          6           0       -1.215127   -0.241882   -0.021159
      2          6           0        0.077656    0.555024    0.046899
      3          8           0        1.241995   -0.256233   -0.108913
      4          1           0       -2.078754    0.421353    0.059053
      5          1           0       -1.283191   -0.786082   -0.963270
      6          1           0       -1.275073   -0.964301    0.796308
      7          1           0        0.129489    1.119523    0.984758
      8          1           0        0.123134    1.276394   -0.768848
      9          1           0        1.273257   -0.895871    0.608864
 ---------------------------------------------------------------------

 SCF Done:  E(RHF) =  -154.157333878     A.U. after    2 cycles

 The electronic state is 1-A.
 Alpha  occ. eigenvalues --  -20.56865 -11.28610 -11.22959  -1.31600  -1.00813
 Alpha  occ. eigenvalues --   -0.85178  -0.69617  -0.63086  -0.61498  -0.55317
 Alpha  occ. eigenvalues --   -0.53132  -0.48829  -0.45635
 Alpha virt. eigenvalues --    0.03455   0.04777   0.05056   0.05529   0.07718
 Alpha virt. eigenvalues --    0.07818   0.12153   0.12394   0.14274   0.15419
 Alpha virt. eigenvalues --    0.16304   0.16891   0.17610   0.20042   0.23358

 Mulliken charges:
               1
     1  C    0.193701
     2  C    0.651816
     3  O   -0.549542
     4  H   -0.035057
     5  H   -0.018524
     6  H   -0.101328
     7  H   -0.105631
     8  H   -0.172742
     9  H    0.137308
 Sum of Mulliken charges =  -0.00000

 Dipole moment (field-independent basis, Debye):
    X=             -1.4299    Y=             -0.0998    Z=              1.2932  Tot=              1.9305

 Test job not archived.
 1\1\GINC-SE198\SP\RHF\Aug-CC-pVDZ\C2H6O1\OHZDE\05-Apr-2025\0\\#t hf au
 g-cc-pvdz iop(5/13=1,5/36=2,99/5=2) pseudo=read geom=check guess=(read
 ,tcheck) scf=(maxcycle=1)\\title\\0,1\C,0,-1.215127,-0.241882,-0.02115
 9\C,0,0.077656,0.555024,0.046899\O,0,1.241995,-0.256233,-0.108913\H,0,
 -2.078754,0.421353,0.059053\H,0,-1.283191,-0.786082,-0.96327\H,0,-1.27
 5073,-0.964301,0.796308\H,0,0.129488,1.119523,0.984758\H,0,0.123133,1.
 276394,-0.768848\H,0,1.273257,-0.89587,0.608864\\Version=ES64L-G16RevC
 .01\State=1-A\HF=-154.1573339\RMSD=3.266e-03\Dipole=-0.5625738,-0.0392

 Normal termination of Gaussian 16 at Sat Apr  5 22:56:41 2025.
