 Gaussian 16, Revision C.01,

 ----------------------------------------------------------------------
 #t hf aug-cc-pvdz symm=none int=(grid=ultrafine) guess=(read,tcheck) s
 table=(opt,rrhf)
 ----------------------------------------------------------------------
 -----
 title
 -----
 Symbolic Z-matrix:
 Charge =  0 Multiplicity = 1

 SCF Done:  E(RHF) =  -133.096516680     A.U. after   12 cycles
 Normal termination of Gaussian 16 at Sat Apr  5 22:56:38 2025.
 Gaussian 16:  ES64L-G16RevC.01  3-Jul-2019

 ----------------------------------------------------------------------
 #t hf aug-cc-pvdz iop(5/13=1,5/36=2,99/5=2) pseudo=read geom=check gue
 ss=(read,tcheck) scf=(maxcycle=1)
 ----------------------------------------------------------------------
 -----
 title
 -----
 Structure from the checkpoint file:  "ethanimine.chk"
 Charge =  0 Multiplicity = 1

                         Standard orientation:
 ---------------------------------------------------------------------
 Center     Atomic      Atomic             Coordinates (Angstroms)
 Number     Number       Type             X           Y           Z
 ---------------------------------------------------------------------
      1          6           0       -1.030686   -0.636526    0.000000
      2          6           0        0.000000    0.445344    0.000000
      3          7           0        1.241167    0.190751    0.000000
      4          1           0       -0.556818   -1.615743    0.000000
      5          1           0       -1.676866   -0.544559    0.876683
      6          1           0       -1.676866   -0.544559   -0.876683
      7          1           0       -0.389088    1.470939    0.000000
      8          1           0        1.795584    1.045760    0.000000
 ---------------------------------------------------------------------

 SCF Done:  E(RHF) =  -133.138760525     A.U. after    2 cycles

 The electronic state is 1-A'.
 Alpha  occ. eigenvalues --  -15.61635 -11.29656 -11.23774  -1.18133  -0.98708
 Alpha  occ. eigenvalues --   -0.77562  -0.69607  -0.58415  -0.56965  -0.54788
 Alpha  occ. eigenvalues --   -0.42739  -0.41444
 Alpha virt. eigenvalues --    0.03284   0.04489   0.05577   0.05671   0.07796
 Alpha virt. eigenvalues --    0.11539   0.11769   0.13474   0.14918   0.15059
 Alpha virt. eigenvalues --    0.16040   0.16669   0.17173   0.19934   0.21717

 Mulliken charges:
               1
     1  C    0.138835
     2  C    0.522625
     3  N   -0.394212
     4  H   -0.055859
     5  H    0.006252
     6  H    0.006252
     7  H   -0.249594
     8  H    0.025701
 Sum of Mulliken charges =  -0.00000

 Dipole moment (field-independent basis, Debye):
    X=             -1.6902    Y=              1.4712    Z=              0.0000  Tot=              2.2408

 Test job not archived.
 1\1\GINC-SE199\SP\RHF\Aug-CC-pVDZ\C2H5N1\OHZDE\05-Apr-2025\0\\#t hf au
 g-cc-pvdz iop(5/13=1,5/36=2,99/5=2) pseudo=read geom=check guess=(read
 ,tcheck) scf=(maxcycle=1)\\title\\0,1\C,0,-1.030686,-0.636526,0.\C,0,0
 .,0.445344,0.\N,0,1.241167,0.190751,0.\H,0,-0.556818,-1.615743,0.\H,0,
 -1.676866,-0.544559,0.876683\H,0,-1.676866,-0.544559,-0.876683\H,0,-0.
 389088,1.470939,0.\H,0,1.795584,1.04576,0.\\Version=ES64L-G16RevC.01\S
 tate=1-A'\HF=-133.1387605\RMSD=3.148e-03\Dipole=-0.6649597,0.5788081,0
 .\Quadrupole=-0.5815219,1.1985076,-0.6169858,1.8819308,0.,0.\PG=CS [SG

 Normal termination of Gaussian 16 at Sat Apr  5 22:56:41 2025.
