 Gaussian 16, Revision C.01,

 ----------------------------------------------------------------------
 #t hf aug-cc-pvdz symm=none int=(grid=ultrafine) guess=(read,tcheck) s
 table=(opt,rrhf)
 ----------------------------------------------------------------------
 -----
 title
 -----
 Symbolic Z-matrix:
 Charge =  0 Multiplicity = 1

 SCF Done:  E(RHF) =  -78.0437022052     A.U. after    9 cycles
 Normal termination of Gaussian 16 at Sat Apr  5 22:56:39 2025.
 Gaussian 16:  ES64L-G16RevC.01  3-Jul-2019

 ----------------------------------------------------------------------
 #t hf aug-cc-pvdz iop(5/13=1,5/36=2,99/5=2) pseudo=read geom=check gue
 ss=(read,tcheck) scf=(maxcycle=1)
 ----------------------------------------------------------------------
 -----
 title
 -----
 Structure from the checkpoint file:  "ethene.chk"
 Charge =  0 Multiplicity = 1

                         Standard orientation:
 ---------------------------------------------------------------------
 Center     Atomic      Atomic             Coordinates (Angstroms)
 Number     Number       Type             X           Y           Z
 ---------------------------------------------------------------------
      1          6           0        0.000000    0.000000    0.662415
      2          6           0        0.000000    0.000000   -0.662415
      3          1           0        0.000000    0.920717    1.231649
      4          1           0       -0.000000   -0.920717    1.231649
      5          1           0       -0.000000   -0.920717   -1.231649
      6          1           0        0.000000    0.920717   -1.231649
 ---------------------------------------------------------------------

 SCF Done:  E(RHF) =  -78.0710617909     A.U. after    2 cycles

 The electronic state is 1-AG.
 Alpha  occ. eigenvalues --  -11.24187 -11.24013  -1.03087  -0.79329  -0.64765
 Alpha  occ. eigenvalues --   -0.59438  -0.50808  -0.38203
 Alpha virt. eigenvalues --    0.03974   0.05025   0.05140   0.07103   0.10190
 Alpha virt. eigenvalues --    0.12049   0.12742   0.14680   0.17729   0.17822
 Alpha virt. eigenvalues --    0.20635   0.20856   0.22386   0.25150   0.29362

 Mulliken charges:
               1
     1  C    0.509540
     2  C    0.509540
     3  H   -0.254770
     4  H   -0.254770
     5  H   -0.254770
     6  H   -0.254770
 Sum of Mulliken charges =  -0.00000

 Dipole moment (field-independent basis, Debye):
    X=              0.0000    Y=             -0.0000    Z=             -0.0000  Tot=              0.0000

 Test job not archived.
 1\1\GINC-SE225\SP\RHF\Aug-CC-pVDZ\C2H4\OHZDE\05-Apr-2025\0\\#t hf aug-
 cc-pvdz iop(5/13=1,5/36=2,99/5=2) pseudo=read geom=check guess=(read,t
 check) scf=(maxcycle=1)\\title\\0,1\C,0,0.,0.,0.662415\C,0,0.,0.,-0.66
 2415\H,0,0.,0.920717,1.231649\H,0,0.,-0.920717,1.231649\H,0,0.,-0.9207
 17,-1.231649\H,0,0.,0.920717,-1.231649\\Version=ES64L-G16RevC.01\State
 =1-AG\HF=-78.0710618\RMSD=4.918e-03\Dipole=0.,0.,0.\Quadrupole=-1.8844
 181,0.8520215,1.0323966,0.,0.,0.\PG=D02H [C2"(C1.C1),SG(H4)]\\@

 Normal termination of Gaussian 16 at Sat Apr  5 22:56:40 2025.
