 Gaussian 16, Revision C.01,

 ----------------------------------------------------------------------
 #t hf aug-cc-pvdz symm=none int=(grid=ultrafine) guess=(read,tcheck) s
 table=(opt,rrhf)
 ----------------------------------------------------------------------
 -----
 title
 -----
 Symbolic Z-matrix:
 Charge =  0 Multiplicity = 1

 SCF Done:  E(RHF) =  -193.962756857     A.U. after   13 cycles
 Normal termination of Gaussian 16 at Sat Apr  5 22:56:45 2025.
 Gaussian 16:  ES64L-G16RevC.01  3-Jul-2019

 ----------------------------------------------------------------------
 #t hf aug-cc-pvdz iop(5/13=1,5/36=2,99/5=2) pseudo=read geom=check gue
 ss=(read,tcheck) scf=(maxcycle=1)
 ----------------------------------------------------------------------
 -----
 title
 -----
 Structure from the checkpoint file:  "ethenylcyclopropane.chk"
 Charge =  0 Multiplicity = 1

                         Standard orientation:
 ---------------------------------------------------------------------
 Center     Atomic      Atomic             Coordinates (Angstroms)
 Number     Number       Type             X           Y           Z
 ---------------------------------------------------------------------
      1          6           0       -0.252597    1.434985    0.748313
      2          6           0       -0.252597    1.434985   -0.748313
      3          6           0        0.389449    0.284544   -0.000000
      4          6           0       -0.252597   -1.039865    0.000000
      5          6           0        0.387394   -2.205488    0.000000
      6          1           0        0.401712    2.122298    1.265403
      7          1           0       -1.185014    1.236819    1.258413
      8          1           0       -1.185014    1.236819   -1.258413
      9          1           0        0.401712    2.122298   -1.265403
     10          1           0        1.471951    0.266496    0.000000
     11          1           0       -1.339751   -1.036337    0.000000
     12          1           0        1.469284   -2.259461    0.000000
     13          1           0       -0.149199   -3.143904    0.000000
 ---------------------------------------------------------------------

 SCF Done:  E(RHF) =  -194.024919828     A.U. after    2 cycles

 The electronic state is 1-A'.
 Alpha  occ. eigenvalues --  -11.24468 -11.24399 -11.23829 -11.23774 -11.22570
 Alpha  occ. eigenvalues --   -1.14281  -1.02858  -0.84672  -0.82512  -0.76113
 Alpha  occ. eigenvalues --   -0.66742  -0.65197  -0.59131  -0.55874  -0.52187
 Alpha  occ. eigenvalues --   -0.49199  -0.46526  -0.43086  -0.34092
 Alpha virt. eigenvalues --    0.03707   0.04333   0.04552   0.05140   0.06474
 Alpha virt. eigenvalues --    0.06820   0.07223   0.08949   0.10708   0.10933
 Alpha virt. eigenvalues --    0.12849   0.13401   0.14546   0.15362   0.15942

 Mulliken charges:
               1
     1  C    0.664978
     2  C    0.664978
     3  C    0.612106
     4  C    0.331567
     5  C    0.586201
     6  H   -0.329696
     7  H   -0.366542
     8  H   -0.366542
     9  H   -0.329696
    10  H   -0.404226
    11  H   -0.450402
    12  H   -0.302606
    13  H   -0.310121
 Sum of Mulliken charges =  -0.00000

 Dipole moment (field-independent basis, Debye):
    X=             -0.0303    Y=              0.5865    Z=             -0.0000  Tot=              0.5873

 Test job not archived.
 1\1\GINC-SE187\SP\RHF\Aug-CC-pVDZ\C5H8\OHZDE\05-Apr-2025\0\\#t hf aug-
 cc-pvdz iop(5/13=1,5/36=2,99/5=2) pseudo=read geom=check guess=(read,t
 check) scf=(maxcycle=1)\\title\\0,1\C,0,-0.252597,1.434985,0.748313\C,
 0,-0.252597,1.434985,-0.748313\C,0,0.389449,0.284544,0.\C,0,-0.252597,
 -1.039865,0.\C,0,0.387394,-2.205488,0.\H,0,0.401712,2.122298,1.265403\
 H,0,-1.185014,1.236819,1.258413\H,0,-1.185014,1.236819,-1.258413\H,0,0
 .401712,2.122298,-1.265403\H,0,1.471951,0.266496,0.\H,0,-1.339751,-1.0
 36337,0.\H,0,1.469284,-2.259461,0.\H,0,-0.149199,-3.143904,0.\\Version

 Normal termination of Gaussian 16 at Sat Apr  5 22:56:47 2025.
