 Gaussian 16, Revision C.01,

 ----------------------------------------------------------------------
 #t hf aug-cc-pvdz symm=none int=(grid=ultrafine) guess=(read,tcheck) s
 table=(opt,rrhf)
 ----------------------------------------------------------------------
 -----
 title
 -----
 Symbolic Z-matrix:
 Charge =  0 Multiplicity = 1

 SCF Done:  E(RHF) =  -152.919682448     A.U. after   13 cycles
 Normal termination of Gaussian 16 at Sat Apr  5 22:56:38 2025.
 Gaussian 16:  ES64L-G16RevC.01  3-Jul-2019

 ----------------------------------------------------------------------
 #t hf aug-cc-pvdz iop(5/13=1,5/36=2,99/5=2) pseudo=read geom=check gue
 ss=(read,tcheck) scf=(maxcycle=1)
 ----------------------------------------------------------------------
 -----
 title
 -----
 Structure from the checkpoint file:  "ethenol.chk"
 Charge =  0 Multiplicity = 1

                         Standard orientation:
 ---------------------------------------------------------------------
 Center     Atomic      Atomic             Coordinates (Angstroms)
 Number     Number       Type             X           Y           Z
 ---------------------------------------------------------------------
      1          6           0        1.211962   -0.100418    0.000000
      2          6           0        0.000000    0.441434    0.000000
      3          8           0       -1.190822   -0.218573    0.000000
      4          1           0        1.366451   -1.172202    0.000000
      5          1           0        2.084447    0.533775    0.000000
      6          1           0       -0.160334    1.511121    0.000000
      7          1           0       -1.035759   -1.170209    0.000000
 ---------------------------------------------------------------------

 SCF Done:  E(RHF) =  -152.970910165     A.U. after    2 cycles

 The electronic state is 1-A'.
 Alpha  occ. eigenvalues --  -20.60668 -11.31258 -11.22745  -1.36676  -1.02202
 Alpha  occ. eigenvalues --   -0.84336  -0.69064  -0.68161  -0.59757  -0.56117
 Alpha  occ. eigenvalues --   -0.54599  -0.35864
 Alpha virt. eigenvalues --    0.03646   0.04562   0.05201   0.07050   0.11104
 Alpha virt. eigenvalues --    0.11808   0.12142   0.14019   0.14960   0.17366
 Alpha virt. eigenvalues --    0.18077   0.20578   0.21487   0.22104   0.24890

 Mulliken charges:
               1
     1  C    0.536737
     2  C    0.684228
     3  O   -0.472645
     4  H   -0.334984
     5  H   -0.274179
     6  H   -0.278976
     7  H    0.139818
 Sum of Mulliken charges =  -0.00000

 Dipole moment (field-independent basis, Debye):
    X=              0.7938    Y=             -0.8081    Z=              0.0000  Tot=              1.1328

 Test job not archived.
 1\1\GINC-SE041\SP\RHF\Aug-CC-pVDZ\C2H4O1\OHZDE\05-Apr-2025\0\\#t hf au
 g-cc-pvdz iop(5/13=1,5/36=2,99/5=2) pseudo=read geom=check guess=(read
 ,tcheck) scf=(maxcycle=1)\\title\\0,1\C,0,1.211962,-0.100418,0.\C,0,0.
 ,0.441434,0.\O,0,-1.190822,-0.218573,0.\H,0,1.366451,-1.172202,0.\H,0,
 2.084447,0.533775,0.\H,0,-0.160334,1.511121,0.\H,0,-1.035759,-1.170209
 ,0.\\Version=ES64L-G16RevC.01\State=1-A'\HF=-152.9709102\RMSD=5.028e-0
 3\Dipole=0.3123233,-0.3179125,0.\Quadrupole=-1.3578498,3.3161769,-1.95
 83271,0.8435888,0.,0.\PG=CS [SG(C2H4O1)]\\@

 Normal termination of Gaussian 16 at Sat Apr  5 22:56:40 2025.
