 Gaussian 16, Revision C.01,

 ----------------------------------------------------------------------
 #t hf aug-cc-pvdz symm=none int=(grid=ultrafine) guess=(read,tcheck) s
 table=(opt,rrhf)
 ----------------------------------------------------------------------
 -----
 title
 -----
 Symbolic Z-matrix:
 Charge =  0 Multiplicity = 1

 SCF Done:  E(RHF) =  -474.386604464     A.U. after   13 cycles
 Normal termination of Gaussian 16 at Sat Apr  5 22:56:37 2025.
 Gaussian 16:  ES64L-G16RevC.01  3-Jul-2019

 ----------------------------------------------------------------------
 #t hf aug-cc-pvdz iop(5/13=1,5/36=2,99/5=2) pseudo=read geom=check gue
 ss=(read,tcheck) scf=(maxcycle=1)
 ----------------------------------------------------------------------
 -----
 title
 -----
 Structure from the checkpoint file:  "ethenethione.chk"
 Charge =  0 Multiplicity = 1

                         Standard orientation:
 ---------------------------------------------------------------------
 Center     Atomic      Atomic             Coordinates (Angstroms)
 Number     Number       Type             X           Y           Z
 ---------------------------------------------------------------------
      1         16           0       -0.000127   -1.112931    0.000000
      2          6           0        0.000196    1.751740   -0.000000
      3          6           0       -0.000000    0.447878   -0.000000
      4          1           0        0.000427    2.304594    0.929946
      5          1           0        0.000427    2.304594   -0.929946
 ---------------------------------------------------------------------

 SCF Done:  E(RHF) =  -474.430977715     A.U. after    2 cycles

 The electronic state is 1-A'.
 Alpha  occ. eigenvalues --  -93.55495 -11.35571 -11.26344  -8.85408  -6.19631
 Alpha  occ. eigenvalues --   -6.19155  -6.18928  -1.10526  -0.98809  -0.71740
 Alpha  occ. eigenvalues --   -0.63492  -0.58687  -0.50514  -0.42647  -0.33140
 Alpha virt. eigenvalues --    0.03509   0.04294   0.05824   0.06921   0.08685
 Alpha virt. eigenvalues --    0.09184   0.13738   0.14417   0.15488   0.15675
 Alpha virt. eigenvalues --    0.16868   0.17571   0.19071   0.20300   0.24162

 Mulliken charges:
               1
     1  S    0.158463
     2  C    0.500738
     3  C   -0.357991
     4  H   -0.150605
     5  H   -0.150605
 Sum of Mulliken charges =  -0.00000

 Dipole moment (field-independent basis, Debye):
    X=              0.0005    Y=              1.4997    Z=              0.0000  Tot=              1.4997

 Test job not archived.
 1\1\GINC-SE226\SP\RHF\Aug-CC-pVDZ\C2H2S1\OHZDE\05-Apr-2025\0\\#t hf au
 g-cc-pvdz iop(5/13=1,5/36=2,99/5=2) pseudo=read geom=check guess=(read
 ,tcheck) scf=(maxcycle=1)\\title\\0,1\S,0,-0.000127,-1.112931,0.\C,0,0
 .000196,1.75174,0.\C,0,0.,0.447878,0.\H,0,0.000427,2.304594,0.929946\H
 ,0,0.000427,2.304594,-0.929946\\Version=ES64L-G16RevC.01\State=1-A'\HF
 =-474.4309777\RMSD=9.019e-03\Dipole=0.0002056,0.5900237,0.\Quadrupole=
 -2.7615115,2.3027914,0.4587201,0.0011631,0.,0.\PG=CS [SG(C2S1),X(H2)]\
 \@

 Normal termination of Gaussian 16 at Sat Apr  5 22:56:40 2025.
