 Gaussian 16, Revision C.01,

 ----------------------------------------------------------------------
 #t hf aug-cc-pvdz symm=none int=(grid=ultrafine) guess=(read,tcheck) s
 table=(opt,rrhf)
 ----------------------------------------------------------------------
 -----
 title
 -----
 Symbolic Z-matrix:
 Charge =  0 Multiplicity = 1

 SCF Done:  E(RHF) =  -133.089085392     A.U. after   13 cycles
 Normal termination of Gaussian 16 at Sat Apr  5 22:56:37 2025.
 Gaussian 16:  ES64L-G16RevC.01  3-Jul-2019

 ----------------------------------------------------------------------
 #t hf aug-cc-pvdz iop(5/13=1,5/36=2,99/5=2) pseudo=read geom=check gue
 ss=(read,tcheck) scf=(maxcycle=1)
 ----------------------------------------------------------------------
 -----
 title
 -----
 Structure from the checkpoint file:  "ethenamine.chk"
 Charge =  0 Multiplicity = 1

                         Standard orientation:
 ---------------------------------------------------------------------
 Center     Atomic      Atomic             Coordinates (Angstroms)
 Number     Number       Type             X           Y           Z
 ---------------------------------------------------------------------
      1          6           0        1.249205   -0.196057    0.013814
      2          6           0        0.069711    0.426754   -0.000397
      3          7           0       -1.181689   -0.169404   -0.079242
      4          1           0        1.330242   -1.275684    0.016682
      5          1           0        2.164905    0.373573    0.006405
      6          1           0        0.029960    1.509834   -0.008170
      7          1           0       -1.221005   -1.153102    0.136560
      8          1           0       -1.945772    0.347030    0.322711
 ---------------------------------------------------------------------

 SCF Done:  E(RHF) =  -133.132642075     A.U. after    2 cycles

 The electronic state is 1-A.
 Alpha  occ. eigenvalues --  -15.62923 -11.28023 -11.20953  -1.17981  -0.98777
 Alpha  occ. eigenvalues --   -0.79043  -0.70179  -0.63935  -0.57564  -0.52021
 Alpha  occ. eigenvalues --   -0.49216  -0.31616
 Alpha virt. eigenvalues --    0.03437   0.04384   0.04807   0.07075   0.07654
 Alpha virt. eigenvalues --    0.11583   0.12091   0.13768   0.14869   0.15329
 Alpha virt. eigenvalues --    0.17532   0.18076   0.18645   0.19979   0.21997

 Mulliken charges:
               1
     1  C    0.551087
     2  C    0.729776
     3  N   -0.283657
     4  H   -0.336003
     5  H   -0.291152
     6  H   -0.334709
     7  H   -0.027090
     8  H   -0.008252
 Sum of Mulliken charges =  -0.00000

 Dipole moment (field-independent basis, Debye):
    X=             -1.2637    Y=              0.0440    Z=              0.9159  Tot=              1.5614

 Test job not archived.
 1\1\GINC-SE214\SP\RHF\Aug-CC-pVDZ\C2H5N1\OHZDE\05-Apr-2025\0\\#t hf au
 g-cc-pvdz iop(5/13=1,5/36=2,99/5=2) pseudo=read geom=check guess=(read
 ,tcheck) scf=(maxcycle=1)\\title\\0,1\C,0,1.249205,-0.196057,0.013814\
 C,0,0.069711,0.426754,-0.000397\N,0,-1.181689,-0.169404,-0.079242\H,0,
 1.330242,-1.275684,0.016682\H,0,2.164905,0.373573,0.006405\H,0,0.02996
 ,1.509834,-0.00817\H,0,-1.221005,-1.153102,0.13656\H,0,-1.945772,0.347
 03,0.322711\\Version=ES64L-G16RevC.01\State=1-A\HF=-133.1326421\RMSD=4
 .495e-03\Dipole=-0.4971886,0.0172961,0.3603494\Quadrupole=1.012399,2.0

 Normal termination of Gaussian 16 at Sat Apr  5 22:56:41 2025.
