 Gaussian 16, Revision C.01,

 ----------------------------------------------------------------------
 #t hf aug-cc-pvdz symm=none int=(grid=ultrafine) guess=(read,tcheck) s
 table=(opt,rrhf)
 ----------------------------------------------------------------------
 -----
 title
 -----
 Symbolic Z-matrix:
 Charge =  0 Multiplicity = 1

 SCF Done:  E(RHF) =  -284.870551470     A.U. after   13 cycles
 Normal termination of Gaussian 16 at Sat Apr  5 22:56:56 2025.
 Gaussian 16:  ES64L-G16RevC.01  3-Jul-2019

 ----------------------------------------------------------------------
 #t hf aug-cc-pvdz iop(5/13=1,5/36=2,99/5=2) pseudo=read geom=check gue
 ss=(read,tcheck) scf=(maxcycle=1)
 ----------------------------------------------------------------------
 -----
 title
 -----
 Structure from the checkpoint file:  "ethoxyacetonitrile.chk"
 Charge =  0 Multiplicity = 1

                         Standard orientation:
 ---------------------------------------------------------------------
 Center     Atomic      Atomic             Coordinates (Angstroms)
 Number     Number       Type             X           Y           Z
 ---------------------------------------------------------------------
      1          8           0        0.000000    0.357505    0.000000
      2          1           0        0.720822   -1.378199    0.885457
      3          1           0        0.720822   -1.378199   -0.885457
      4          6           0        0.166851   -1.039701    0.000000
      5          1           0        1.824588    0.770256    0.885970
      6          1           0        1.824588    0.770256   -0.885970
      7          6           0        1.244020    1.056931    0.000000
      8          1           0        0.387072    2.824218   -0.883974
      9          1           0        1.894072    3.101368    0.000000
     10          1           0        0.387072    2.824218    0.883974
     11          6           0        0.957978    2.542132    0.000000
     12          7           0       -2.157412   -2.231285    0.000000
     13          6           0       -1.145042   -1.688522    0.000000
 ---------------------------------------------------------------------

 SCF Done:  E(RHF) =  -284.961066761     A.U. after    2 cycles

 The electronic state is 1-A'.
 Alpha  occ. eigenvalues --  -20.60440 -15.64458 -11.35207 -11.31044 -11.29035
 Alpha  occ. eigenvalues --  -11.24108  -1.37095  -1.19838  -1.05984  -0.98132
 Alpha  occ. eigenvalues --   -0.86180  -0.73165  -0.71948  -0.70692  -0.63134
 Alpha  occ. eigenvalues --   -0.58624  -0.55991  -0.54413  -0.53967  -0.51940
 Alpha  occ. eigenvalues --   -0.48010  -0.47404  -0.45582
 Alpha virt. eigenvalues --    0.02671   0.04093   0.04253   0.04973   0.06539
 Alpha virt. eigenvalues --    0.06741   0.07712   0.08781   0.11132   0.11723
 Alpha virt. eigenvalues --    0.13136   0.14020   0.14262   0.14377   0.15271

 Mulliken charges:
               1
     1  O   -0.658060
     2  H   -0.018182
     3  H   -0.018182
     4  C    0.781097
     5  H   -0.125675
     6  H   -0.125675
     7  C    0.485331
     8  H   -0.041877
     9  H   -0.033077
    10  H   -0.041877
    11  C    0.312280
    12  N   -0.155436
    13  C   -0.360669
 Sum of Mulliken charges =  -0.00000

 Dipole moment (field-independent basis, Debye):
    X=              4.9570    Y=              1.6728    Z=              0.0000  Tot=              5.2317

 Test job not archived.
 1\1\GINC-SE188\SP\RHF\Aug-CC-pVDZ\C4H7N1O1\OHZDE\05-Apr-2025\0\\#t hf
 aug-cc-pvdz iop(5/13=1,5/36=2,99/5=2) pseudo=read geom=check guess=(re
 ad,tcheck) scf=(maxcycle=1)\\title\\0,1\O,0,0.,0.357505,0.\H,0,0.72082
 3,-1.378199,0.885457\H,0,0.720823,-1.378199,-0.885457\C,0,0.166852,-1.
 039701,0.\H,0,1.824588,0.770257,0.88597\H,0,1.824588,0.770257,-0.88597
 \C,0,1.24402,1.056932,0.\H,0,0.387071,2.824218,-0.883974\H,0,1.894071,
 3.101369,0.\H,0,0.387071,2.824218,0.883974\C,0,0.957977,2.542132,0.\N,
 0,-2.157411,-2.231286,0.\C,0,-1.145041,-1.688522,0.\\Version=ES64L-G16

 Normal termination of Gaussian 16 at Sat Apr  5 22:57:00 2025.
