 Gaussian 16, Revision C.01,

 ----------------------------------------------------------------------
 #t hf aug-cc-pvdz symm=none int=(grid=ultrafine) guess=(read,tcheck) s
 table=(opt,rrhf)
 ----------------------------------------------------------------------
 -----
 title
 -----
 Symbolic Z-matrix:
 Charge =  0 Multiplicity = 1

 SCF Done:  E(RHF) =  -383.667848038     A.U. after   15 cycles

 1\1\GINC-SE222\Stability\RHF\Aug-CC-pVDZ\C8H10O1\OHZDE\05-Apr-2025\0\\
 #t hf aug-cc-pvdz symm=none int=(grid=ultrafine) guess=(read,tcheck) s
 table=(opt,rrhf)\\title\\0,1\C,0,2.782896,0.485045,0.\C,0,2.194136,-0.
 770352,0.\C,0,1.968374,1.616338,0.\C,0,0.807719,-0.912627,0.\C,0,0.589
 648,1.491986,0.\C,0,0.,0.224518,0.\C,0,-3.525326,-0.78267,0.\C,0,-2.03
 6225,-1.053818,0.\O,0,-1.362668,0.203627,0.\H,0,3.859197,0.585368,0.\H
 ,0,2.812468,-1.658314,0.\H,0,2.412071,2.603099,0.\H,0,0.376293,-1.9016
 43,0.\H,0,-0.052598,2.36169,0.\H,0,-4.074153,-1.725007,0.\H,0,-3.81476

 Normal termination of Gaussian 16 at Sat Apr  5 22:58:08 2025.
 Gaussian 16:  ES64L-G16RevC.01  3-Jul-2019

 ----------------------------------------------------------------------
 #t hf aug-cc-pvdz iop(5/13=1,5/36=2,99/5=2) pseudo=read geom=check gue
 ss=(read,tcheck) scf=(maxcycle=1)
 ----------------------------------------------------------------------
 -----
 title
 -----
 Structure from the checkpoint file:  "ethoxybenzene.chk"
 Charge =  0 Multiplicity = 1

                         Standard orientation:
 ---------------------------------------------------------------------
 Center     Atomic      Atomic             Coordinates (Angstroms)
 Number     Number       Type             X           Y           Z
 ---------------------------------------------------------------------
      1          6           0        2.782896    0.485044    0.000000
      2          6           0        2.194136   -0.770353    0.000000
      3          6           0        1.968374    1.616337    0.000000
      4          6           0        0.807719   -0.912627    0.000000
      5          6           0        0.589648    1.491986    0.000000
      6          6           0        0.000000    0.224518    0.000000
      7          6           0       -3.525326   -0.782669    0.000000
      8          6           0       -2.036225   -1.053817    0.000000
      9          8           0       -1.362668    0.203627    0.000000
     10          1           0        3.859197    0.585367    0.000000
     11          1           0        2.812467   -1.658315    0.000000
     12          1           0        2.412072    2.603098    0.000000
     13          1           0        0.376292   -1.901643    0.000000
     14          1           0       -0.052597    2.361690    0.000000
     15          1           0       -4.074154   -1.725006    0.000000
     16          1           0       -3.814766   -0.215004    0.883932
     17          1           0       -3.814766   -0.215004   -0.883932
     18          1           0       -1.744865   -1.627360   -0.885629
     19          1           0       -1.744865   -1.627360    0.885629
 ---------------------------------------------------------------------

 SCF Done:  E(RHF) =  -383.786940038     A.U. after    2 cycles

 The electronic state is 1-A'.
 Alpha  occ. eigenvalues --  -20.59430 -11.30868 -11.29818 -11.24637 -11.24507
 Alpha  occ. eigenvalues --  -11.23744 -11.23348 -11.23252 -11.23236  -1.36599
 Alpha  occ. eigenvalues --   -1.13890  -1.04343  -1.01171  -0.98265  -0.87528
 Alpha  occ. eigenvalues --   -0.82886  -0.80401  -0.73295  -0.67878  -0.67285
 Alpha  occ. eigenvalues --   -0.65931  -0.61949  -0.59225  -0.57100  -0.57028
 Alpha  occ. eigenvalues --   -0.55157  -0.51948  -0.51306  -0.50569  -0.48394
 Alpha  occ. eigenvalues --   -0.47026  -0.34244  -0.31571
 Alpha virt. eigenvalues --    0.03372   0.03825   0.04152   0.05261   0.05342
 Alpha virt. eigenvalues --    0.05466   0.07009   0.07626   0.07860   0.09006
 Alpha virt. eigenvalues --    0.10883   0.11172   0.11969   0.12965   0.13374

 Mulliken charges:
               1
     1  C    0.484566
     2  C    0.865997
     3  C    0.737602
     4  C   -0.039066
     5  C    0.540880
     6  C    0.411521
     7  C    0.343825
     8  C    0.499898
     9  O   -0.683283
    10  H   -0.454833
    11  H   -0.463585
    12  H   -0.438103
    13  H   -0.735771
    14  H   -0.584585
    15  H   -0.019879
    16  H   -0.024244
    17  H   -0.024244
    18  H   -0.208349
    19  H   -0.208349
 Sum of Mulliken charges =  -0.00000

 Dipole moment (field-independent basis, Debye):
    X=             -0.4267    Y=             -1.3752    Z=              0.0000  Tot=              1.4398

 Test job not archived.
 1\1\GINC-SE222\SP\RHF\Aug-CC-pVDZ\C8H10O1\OHZDE\05-Apr-2025\0\\#t hf a
 ug-cc-pvdz iop(5/13=1,5/36=2,99/5=2) pseudo=read geom=check guess=(rea
 d,tcheck) scf=(maxcycle=1)\\title\\0,1\C,0,2.782896,0.485045,0.\C,0,2.
 194136,-0.770352,0.\C,0,1.968374,1.616338,0.\C,0,0.807719,-0.912627,0.
 \C,0,0.589648,1.491986,0.\C,0,0.,0.224518,0.\C,0,-3.525326,-0.78267,0.
 \C,0,-2.036225,-1.053818,0.\O,0,-1.362668,0.203627,0.\H,0,3.859197,0.5
 85368,0.\H,0,2.812468,-1.658314,0.\H,0,2.412071,2.603099,0.\H,0,0.3762
 93,-1.901643,0.\H,0,-0.052598,2.36169,0.\H,0,-4.074153,-1.725007,0.\H,

 Normal termination of Gaussian 16 at Sat Apr  5 22:58:17 2025.
