 Gaussian 16, Revision C.01,

 ----------------------------------------------------------------------
 #t hf aug-cc-pvdz symm=none int=(grid=ultrafine) guess=(read,tcheck) s
 table=(opt,rrhf)
 ----------------------------------------------------------------------
 -----
 title
 -----
 Symbolic Z-matrix:
 Charge =  0 Multiplicity = 1

 SCF Done:  E(RHF) =  -232.175030578     A.U. after   11 cycles

 1\1\GINC-SE222\Stability\RHF\Aug-CC-pVDZ\C4H10O1\OHZDE\05-Apr-2025\0\\
 #t hf aug-cc-pvdz symm=none int=(grid=ultrafine) guess=(read,tcheck) s
 table=(opt,rrhf)\\title\\0,1\C,0,0.,2.382161,0.411002\C,0,0.,-2.382161
 ,0.411002\C,0,0.,1.185118,-0.517097\C,0,0.,-1.185118,-0.517097\O,0,0.,
 0.,0.260427\H,0,0.,3.307756,-0.166158\H,0,-0.883458,2.373885,1.04936\H
 ,0,0.883458,2.373885,1.04936\H,0,0.,-3.307756,-0.166158\H,0,0.883458,-
 2.373885,1.04936\H,0,-0.883458,-2.373885,1.04936\H,0,0.884361,1.20187,
 -1.16885\H,0,-0.884361,1.20187,-1.16885\H,0,-0.884361,-1.20187,-1.1688

 Normal termination of Gaussian 16 at Sat Apr  5 22:56:47 2025.
 Gaussian 16:  ES64L-G16RevC.01  3-Jul-2019

 ----------------------------------------------------------------------
 #t hf aug-cc-pvdz iop(5/13=1,5/36=2,99/5=2) pseudo=read geom=check gue
 ss=(read,tcheck) scf=(maxcycle=1)
 ----------------------------------------------------------------------
 -----
 title
 -----
 Structure from the checkpoint file:  "ethoxyethane.chk"
 Charge =  0 Multiplicity = 1

                         Standard orientation:
 ---------------------------------------------------------------------
 Center     Atomic      Atomic             Coordinates (Angstroms)
 Number     Number       Type             X           Y           Z
 ---------------------------------------------------------------------
      1          6           0        0.000000    2.382161    0.411002
      2          6           0       -0.000000   -2.382161    0.411002
      3          6           0        0.000000    1.185118   -0.517097
      4          6           0       -0.000000   -1.185118   -0.517097
      5          8           0       -0.000000   -0.000000    0.260427
      6          1           0        0.000000    3.307756   -0.166158
      7          1           0       -0.883458    2.373885    1.049360
      8          1           0        0.883458    2.373885    1.049360
      9          1           0       -0.000000   -3.307756   -0.166158
     10          1           0        0.883458   -2.373885    1.049360
     11          1           0       -0.883458   -2.373885    1.049360
     12          1           0        0.884361    1.201870   -1.168850
     13          1           0       -0.884361    1.201870   -1.168850
     14          1           0       -0.884361   -1.201870   -1.168850
     15          1           0        0.884361   -1.201870   -1.168850
 ---------------------------------------------------------------------

 SCF Done:  E(RHF) =  -232.252950387     A.U. after    2 cycles

 The electronic state is 1-A1.
 Alpha  occ. eigenvalues --  -20.56289 -11.28186 -11.28159 -11.22188 -11.22185
 Alpha  occ. eigenvalues --   -1.32788  -1.03754  -0.97730  -0.84324  -0.82709
 Alpha  occ. eigenvalues --   -0.68151  -0.67114  -0.60673  -0.60479  -0.55229
 Alpha  occ. eigenvalues --   -0.53434  -0.52447  -0.49832  -0.48836  -0.47926
 Alpha  occ. eigenvalues --   -0.42884
 Alpha virt. eigenvalues --    0.03645   0.04516   0.04908   0.05014   0.06447
 Alpha virt. eigenvalues --    0.06481   0.06780   0.07608   0.09014   0.09974
 Alpha virt. eigenvalues --    0.12048   0.13209   0.14593   0.15911   0.16183

 Mulliken charges:
               1
     1  C    0.291249
     2  C    0.291249
     3  C    0.472315
     4  C    0.472315
     5  O   -0.674176
     6  H   -0.046989
     7  H   -0.049253
     8  H   -0.049253
     9  H   -0.046989
    10  H   -0.049253
    11  H   -0.049253
    12  H   -0.140490
    13  H   -0.140490
    14  H   -0.140490
    15  H   -0.140490
 Sum of Mulliken charges =  -0.00000

 Dipole moment (field-independent basis, Debye):
    X=             -0.0000    Y=             -0.0000    Z=             -1.3759  Tot=              1.3759

 Test job not archived.
 1\1\GINC-SE222\SP\RHF\Aug-CC-pVDZ\C4H10O1\OHZDE\05-Apr-2025\0\\#t hf a
 ug-cc-pvdz iop(5/13=1,5/36=2,99/5=2) pseudo=read geom=check guess=(rea
 d,tcheck) scf=(maxcycle=1)\\title\\0,1\C,0,0.,2.382161,0.411002\C,0,0.
 ,-2.382161,0.411002\C,0,0.,1.185118,-0.517097\C,0,0.,-1.185118,-0.5170
 97\O,0,0.,0.,0.260427\H,0,0.,3.307756,-0.166158\H,0,-0.883458,2.373885
 ,1.04936\H,0,0.883458,2.373885,1.04936\H,0,0.,-3.307756,-0.166158\H,0,
 0.883458,-2.373885,1.04936\H,0,-0.883458,-2.373885,1.04936\H,0,0.88436
 1,1.20187,-1.16885\H,0,-0.884361,1.20187,-1.16885\H,0,-0.884361,-1.201

 Normal termination of Gaussian 16 at Sat Apr  5 22:56:50 2025.
