 Gaussian 16, Revision C.01,

 ----------------------------------------------------------------------
 #t hf aug-cc-pvdz symm=none int=(grid=ultrafine) guess=(read,tcheck) s
 table=(opt,rrhf)
 ----------------------------------------------------------------------
 -----
 title
 -----
 Symbolic Z-matrix:
 Charge =  0 Multiplicity = 1

 SCF Done:  E(RHF) =  -230.985490656     A.U. after   13 cycles
 Normal termination of Gaussian 16 at Sat Apr  5 22:56:44 2025.
 Gaussian 16:  ES64L-G16RevC.01  3-Jul-2019

 ----------------------------------------------------------------------
 #t hf aug-cc-pvdz iop(5/13=1,5/36=2,99/5=2) pseudo=read geom=check gue
 ss=(read,tcheck) scf=(maxcycle=1)
 ----------------------------------------------------------------------
 -----
 title
 -----
 Structure from the checkpoint file:  "ethoxyethene.chk"
 Charge =  0 Multiplicity = 1

                         Standard orientation:
 ---------------------------------------------------------------------
 Center     Atomic      Atomic             Coordinates (Angstroms)
 Number     Number       Type             X           Y           Z
 ---------------------------------------------------------------------
      1          6           0        2.445855   -0.294356   -0.000008
      2          1           0        2.499430   -1.373583    0.000358
      3          1           0        3.364930    0.269880   -0.000226
      4          6           0        1.282938    0.346338   -0.000141
      5          1           0        1.226582    1.430931   -0.000503
      6          8           0        0.088531   -0.298764    0.000118
      7          6           0       -1.073605    0.536374    0.000222
      8          1           0       -1.057562    1.179175   -0.885919
      9          1           0       -1.057825    1.178653    0.886755
     10          6           0       -2.298114   -0.351311   -0.000172
     11          1           0       -2.312414   -0.988238   -0.884210
     12          1           0       -2.312552   -0.988828    0.883437
     13          1           0       -3.201281    0.259848   -0.000035
 ---------------------------------------------------------------------

 SCF Done:  E(RHF) =  -231.062803244     A.U. after    2 cycles

 The electronic state is 1-A.
 Alpha  occ. eigenvalues --  -20.59082 -11.30036 -11.29911 -11.23267 -11.21750
 Alpha  occ. eigenvalues --   -1.36200  -1.05352  -0.98893  -0.85540  -0.79861
 Alpha  occ. eigenvalues --   -0.69873  -0.67583  -0.64174  -0.57194  -0.56354
 Alpha  occ. eigenvalues --   -0.54165  -0.53380  -0.50145  -0.48966  -0.34356
 Alpha virt. eigenvalues --    0.03466   0.04508   0.04792   0.05186   0.06230
 Alpha virt. eigenvalues --    0.06476   0.07779   0.08469   0.11670   0.11811
 Alpha virt. eigenvalues --    0.12931   0.13932   0.14843   0.15615   0.16250

 Mulliken charges:
               1
     1  C    0.708627
     2  H   -0.375260
     3  H   -0.267379
     4  C    0.528162
     5  H   -0.396058
     6  O   -0.650072
     7  C    0.652733
     8  H   -0.173047
     9  H   -0.172962
    10  C    0.232795
    11  H   -0.037425
    12  H   -0.037421
    13  H   -0.012693
 Sum of Mulliken charges =  -0.00000

 Dipole moment (field-independent basis, Debye):
    X=             -1.1754    Y=              1.5178    Z=             -0.0001  Tot=              1.9197

 Test job not archived.
 1\1\GINC-SE106\SP\RHF\Aug-CC-pVDZ\C4H8O1\OHZDE\05-Apr-2025\0\\#t hf au
 g-cc-pvdz iop(5/13=1,5/36=2,99/5=2) pseudo=read geom=check guess=(read
 ,tcheck) scf=(maxcycle=1)\\title\\0,1\C,0,2.445855,-0.294356,-0.000008
 \H,0,2.49943,-1.373583,0.000358\H,0,3.36493,0.26988,-0.000226\C,0,1.28
 2938,0.346338,-0.000141\H,0,1.226582,1.430931,-0.000503\O,0,0.088531,-
 0.298764,0.000118\C,0,-1.073605,0.536374,0.000222\H,0,-1.057562,1.1791
 75,-0.885919\H,0,-1.057825,1.178653,0.886755\C,0,-2.298114,-0.351311,-
 0.000172\H,0,-2.312414,-0.988238,-0.88421\H,0,-2.312552,-0.988828,0.88

 Normal termination of Gaussian 16 at Sat Apr  5 22:56:48 2025.
