 Gaussian 16, Revision C.01,

 ----------------------------------------------------------------------
 #t hf aug-cc-pvdz symm=none int=(grid=ultrafine) guess=(read,tcheck) s
 table=(opt,rrhf)
 ----------------------------------------------------------------------
 -----
 title
 -----
 Symbolic Z-matrix:
 Charge =  0 Multiplicity = 1

 SCF Done:  E(RHF) =  -206.709134736     A.U. after   12 cycles
 Normal termination of Gaussian 16 at Sat Apr  5 22:57:07 2025.
 Gaussian 16:  ES64L-G16RevC.01  3-Jul-2019

 ----------------------------------------------------------------------
 #t hf aug-cc-pvdz iop(5/13=1,5/36=2,99/5=2) pseudo=read geom=check gue
 ss=(read,tcheck) scf=(maxcycle=1)
 ----------------------------------------------------------------------
 -----
 title
 -----
 Structure from the checkpoint file:  "ethylidyneazane_oxide.chk"
 Charge =  0 Multiplicity = 1

                         Standard orientation:
 ---------------------------------------------------------------------
 Center     Atomic      Atomic             Coordinates (Angstroms)
 Number     Number       Type             X           Y           Z
 ---------------------------------------------------------------------
      1          8           0       -1.941721    0.000054   -0.000024
      2          7           0       -0.729470   -0.000047    0.000008
      3          6           0        1.881444    0.000042   -0.000025
      4          6           0        0.425458   -0.000109    0.000075
      5          1           0        2.266021    1.018563   -0.064600
      6          1           0        2.266367   -0.453230    0.914221
      7          1           0        2.266253   -0.565029   -0.849781
 ---------------------------------------------------------------------

 SCF Done:  E(RHF) =  -206.777668079     A.U. after    2 cycles

 The electronic state is 1-A.
 Alpha  occ. eigenvalues --  -20.57435 -15.79952 -11.32344 -11.30834  -1.42999
 Alpha  occ. eigenvalues --   -1.20233  -1.04261  -0.73494  -0.69054  -0.67777
 Alpha  occ. eigenvalues --   -0.67776  -0.61681  -0.61681  -0.39584  -0.39584
 Alpha virt. eigenvalues --    0.02177   0.04772   0.04772   0.06742   0.10501
 Alpha virt. eigenvalues --    0.10502   0.11943   0.13945   0.13945   0.14028
 Alpha virt. eigenvalues --    0.17792   0.19406   0.19406   0.20720   0.25695

 Mulliken charges:
               1
     1  O   -0.638292
     2  N    0.296442
     3  C    0.360520
     4  C   -0.256176
     5  H    0.079211
     6  H    0.079132
     7  H    0.079163
 Sum of Mulliken charges =  -0.00000

 Dipole moment (field-independent basis, Debye):
    X=              5.7865    Y=             -0.0000    Z=             -0.0000  Tot=              5.7865

 Test job not archived.
 1\1\GINC-SE011\SP\RHF\Aug-CC-pVDZ\C2H3N1O1\OHZDE\05-Apr-2025\0\\#t hf
 aug-cc-pvdz iop(5/13=1,5/36=2,99/5=2) pseudo=read geom=check guess=(re
 ad,tcheck) scf=(maxcycle=1)\\title\\0,1\O,0,-0.000024,0.000054,1.94172
 1\N,0,0.000008,-0.000047,0.72947\C,0,-0.000025,0.000042,-1.881444\C,0,
 0.000075,-0.000109,-0.425458\H,0,-0.0632,1.018651,-2.266021\H,0,0.9135
 97,-0.454486,-2.266367\H,0,-0.850557,-0.563861,-2.266253\\Version=ES64
 L-G16RevC.01\State=1-A\HF=-206.7776681\RMSD=5.862e-03\Dipole=-0.000005
 6,-0.0000089,-2.2765759\Quadrupole=0.9079302,0.9080061,-1.8159363,-0.0

 Normal termination of Gaussian 16 at Sat Apr  5 22:58:07 2025.
