 Gaussian 16, Revision C.01,

 ----------------------------------------------------------------------
 #t hf aug-cc-pvdz symm=none int=(grid=ultrafine) guess=(read,tcheck) s
 table=(opt,rrhf)
 ----------------------------------------------------------------------
 -----
 title
 -----
 Symbolic Z-matrix:
 Charge =  0 Multiplicity = 1

 SCF Done:  E(RHF) =  -532.593026438     A.U. after   13 cycles

 1\1\GINC-SE047\Stability\RHF\Aug-CC-pVDZ\C6H10O4\OHZDE\05-Apr-2025\0\\
 #t hf aug-cc-pvdz symm=none int=(grid=ultrafine) guess=(read,tcheck) s
 table=(opt,rrhf)\\title\\0,1\C,0,-0.035271,2.693968,0.165692\C,0,0.035
 271,-2.693968,0.165692\C,0,-0.708324,3.282365,1.375353\C,0,0.708324,-3
 .282365,1.375353\C,0,0.235431,0.714142,-1.108083\C,0,-0.235431,-0.7141
 42,-1.108083\O,0,0.708324,3.280261,-0.579645\O,0,-0.708324,-3.280261,-
 0.579645\O,0,-0.367648,1.393029,0.009128\O,0,0.367648,-1.393029,0.0091
 28\H,0,-0.362315,2.770947,2.273853\H,0,-1.78658,3.138698,1.314018\H,0,

 Normal termination of Gaussian 16 at Sat Apr  5 22:59:59 2025.
 Gaussian 16:  ES64L-G16RevC.01  3-Jul-2019

 ----------------------------------------------------------------------
 #t hf aug-cc-pvdz iop(5/13=1,5/36=2,99/5=2) pseudo=read geom=check gue
 ss=(read,tcheck) scf=(maxcycle=1)
 ----------------------------------------------------------------------
 -----
 title
 -----
 Structure from the checkpoint file:  "ethylene_diacetate.chk"
 Charge =  0 Multiplicity = 1

                         Standard orientation:
 ---------------------------------------------------------------------
 Center     Atomic      Atomic             Coordinates (Angstroms)
 Number     Number       Type             X           Y           Z
 ---------------------------------------------------------------------
      1          6           0       -0.035271    2.693968    0.165692
      2          6           0        0.035271   -2.693968    0.165692
      3          6           0       -0.708324    3.282365    1.375353
      4          6           0        0.708324   -3.282365    1.375353
      5          6           0        0.235431    0.714142   -1.108083
      6          6           0       -0.235431   -0.714142   -1.108083
      7          8           0        0.708324    3.280261   -0.579645
      8          8           0       -0.708324   -3.280261   -0.579645
      9          8           0       -0.367648    1.393029    0.009128
     10          8           0        0.367648   -1.393029    0.009128
     11          1           0       -0.362315    2.770947    2.273853
     12          1           0       -1.786580    3.138698    1.314018
     13          1           0       -0.474667    4.340124    1.441134
     14          1           0        0.362315   -2.770947    2.273853
     15          1           0        1.786580   -3.138698    1.314018
     16          1           0        0.474667   -4.340124    1.441134
     17          1           0       -0.066747    1.203955   -2.034470
     18          1           0        1.320178    0.776496   -1.028180
     19          1           0        0.066747   -1.203955   -2.034470
     20          1           0       -1.320178   -0.776496   -1.028180
 ---------------------------------------------------------------------

 SCF Done:  E(RHF) =  -532.765141558     A.U. after    2 cycles

 The electronic state is 1-A.
 Alpha  occ. eigenvalues --  -20.62118 -20.62118 -20.56477 -20.56477 -11.39951
 Alpha  occ. eigenvalues --  -11.39951 -11.31091 -11.31031 -11.25490 -11.25490
 Alpha  occ. eigenvalues --   -1.42817  -1.42176  -1.33397  -1.32570  -1.07430
 Alpha  occ. eigenvalues --   -1.02637  -0.99402  -0.88802  -0.80916  -0.79364
 Alpha  occ. eigenvalues --   -0.71568  -0.71357  -0.70359  -0.69142  -0.68430
 Alpha  occ. eigenvalues --   -0.66783  -0.61018  -0.60233  -0.59753  -0.58358
 Alpha  occ. eigenvalues --   -0.56856  -0.55685  -0.53936  -0.53712  -0.52476
 Alpha  occ. eigenvalues --   -0.48783  -0.48448  -0.47058  -0.47035
 Alpha virt. eigenvalues --    0.03030   0.04049   0.04332   0.04802   0.05566
 Alpha virt. eigenvalues --    0.06048   0.06562   0.07186   0.07361   0.07607
 Alpha virt. eigenvalues --    0.09828   0.10695   0.12837   0.13028   0.13516

 Mulliken charges:
               1
     1  C    0.224665
     2  C    0.224665
     3  C    0.312647
     4  C    0.312647
     5  C    0.753739
     6  C    0.753739
     7  O   -0.455553
     8  O   -0.455553
     9  O   -0.565280
    10  O   -0.565280
    11  H    0.039703
    12  H    0.021752
    13  H   -0.024312
    14  H    0.039703
    15  H    0.021752
    16  H   -0.024312
    17  H   -0.129669
    18  H   -0.177691
    19  H   -0.129669
    20  H   -0.177691
 Sum of Mulliken charges =  -0.00000

 Dipole moment (field-independent basis, Debye):
    X=             -0.0000    Y=              0.0000    Z=              2.1911  Tot=              2.1911

 Test job not archived.
 1\1\GINC-SE047\SP\RHF\Aug-CC-pVDZ\C6H10O4\OHZDE\05-Apr-2025\0\\#t hf a
 ug-cc-pvdz iop(5/13=1,5/36=2,99/5=2) pseudo=read geom=check guess=(rea
 d,tcheck) scf=(maxcycle=1)\\title\\0,1\C,0,-0.035271,2.693968,0.165692
 \C,0,0.035271,-2.693968,0.165692\C,0,-0.708324,3.282365,1.375353\C,0,0
 .708324,-3.282365,1.375353\C,0,0.235431,0.714142,-1.108083\C,0,-0.2354
 31,-0.714142,-1.108083\O,0,0.708324,3.280261,-0.579645\O,0,-0.708324,-
 3.280261,-0.579645\O,0,-0.367648,1.393029,0.009128\O,0,0.367648,-1.393
 029,0.009128\H,0,-0.362315,2.770947,2.273853\H,0,-1.78658,3.138698,1.3

 Normal termination of Gaussian 16 at Sat Apr  5 23:00:05 2025.
