 Gaussian 16, Revision C.01,

 ----------------------------------------------------------------------
 #t hf aug-cc-pvdz symm=none int=(grid=ultrafine) guess=(read,tcheck) s
 table=(opt,rrhf)
 ----------------------------------------------------------------------
 -----
 title
 -----
 Symbolic Z-matrix:
 Charge =  0 Multiplicity = 1

 SCF Done:  E(RHF) =  -462.072499587     A.U. after   13 cycles

 1\1\GINC-SE009\Stability\RHF\Aug-CC-pVDZ\C8H16O2\OHZDE\05-Apr-2025\0\\
 #t hf aug-cc-pvdz symm=none int=(grid=ultrafine) guess=(read,tcheck) s
 table=(opt,rrhf)\\title\\0,1\C,0,0.023324,-0.446803,-0.001938\C,0,-1.2
 48311,0.370867,-0.000992\O,0,-1.311122,1.575337,-0.000848\C,0,1.295426
 ,0.393952,0.000986\H,0,-0.011251,-1.111297,0.865725\H,0,-0.010002,-1.1
 06796,-0.873123\O,0,-2.335846,-0.428912,-0.000518\C,0,-3.622317,0.2322
 51,-0.000074\H,0,-3.685904,0.871725,-0.880589\H,0,-3.684388,0.873508,0
 .879239\C,0,-4.691361,-0.836651,0.001907\H,0,-5.676911,-0.369592,0.002

 Normal termination of Gaussian 16 at Sat Apr  5 22:59:33 2025.
 Gaussian 16:  ES64L-G16RevC.01  3-Jul-2019

 ----------------------------------------------------------------------
 #t hf aug-cc-pvdz iop(5/13=1,5/36=2,99/5=2) pseudo=read geom=check gue
 ss=(read,tcheck) scf=(maxcycle=1)
 ----------------------------------------------------------------------
 -----
 title
 -----
 Structure from the checkpoint file:  "ethyl_hexanoate.chk"
 Charge =  0 Multiplicity = 1

                         Standard orientation:
 ---------------------------------------------------------------------
 Center     Atomic      Atomic             Coordinates (Angstroms)
 Number     Number       Type             X           Y           Z
 ---------------------------------------------------------------------
      1          6           0        0.023324   -0.446803   -0.001938
      2          6           0       -1.248311    0.370867   -0.000992
      3          8           0       -1.311122    1.575337   -0.000848
      4          6           0        1.295426    0.393952    0.000986
      5          1           0       -0.011251   -1.111297    0.865725
      6          1           0       -0.010002   -1.106796   -0.873123
      7          8           0       -2.335846   -0.428912   -0.000518
      8          6           0       -3.622317    0.232251   -0.000074
      9          1           0       -3.685904    0.871725   -0.880589
     10          1           0       -3.684388    0.873508    0.879239
     11          6           0       -4.691361   -0.836651    0.001907
     12          1           0       -5.676911   -0.369592    0.002210
     13          1           0       -4.612492   -1.468437    0.886478
     14          1           0       -4.613940   -1.470332   -0.881440
     15          1           0        1.291757    1.055257   -0.868109
     16          6           0        2.564097   -0.458735   -0.000991
     17          1           0        1.291137    1.050182    0.873940
     18          1           0        2.560871   -1.120937    0.871655
     19          6           0        3.850414    0.368061    0.002127
     20          1           0        2.561668   -1.115615   -0.877655
     21          1           0        3.854143    1.028939   -0.869607
     22          6           0        5.116582   -0.486575   -0.000026
     23          1           0        3.853418    1.023461    0.877993
     24          1           0        5.157271   -1.133612    0.878700
     25          1           0        6.015118    0.131837    0.002416
     26          1           0        5.158130   -1.127901   -0.882890
 ---------------------------------------------------------------------

 SCF Done:  E(RHF) =  -462.221037485     A.U. after    2 cycles

 The electronic state is 1-A.
 Alpha  occ. eigenvalues --  -20.60914 -20.55528 -11.38709 -11.29716 -11.24829
 Alpha  occ. eigenvalues --  -11.23448 -11.22963 -11.22822 -11.22696 -11.22166
 Alpha  occ. eigenvalues --   -1.41294  -1.31882  -1.08496  -1.04833  -1.01979
 Alpha  occ. eigenvalues --   -0.94753  -0.87631  -0.83151  -0.79422  -0.77672
 Alpha  occ. eigenvalues --   -0.70181  -0.69420  -0.67405  -0.65645  -0.61783
 Alpha  occ. eigenvalues --   -0.59353  -0.58050  -0.57223  -0.56816  -0.54965
 Alpha  occ. eigenvalues --   -0.53888  -0.51753  -0.51051  -0.51018  -0.48595
 Alpha  occ. eigenvalues --   -0.47549  -0.47065  -0.47005  -0.46452  -0.45046
 Alpha virt. eigenvalues --    0.03371   0.03757   0.04486   0.04578   0.05187
 Alpha virt. eigenvalues --    0.05390   0.05498   0.06768   0.06828   0.07303
 Alpha virt. eigenvalues --    0.07556   0.08213   0.09092   0.10307   0.10706

 Mulliken charges:
               1
     1  C    0.469936
     2  C   -0.089141
     3  O   -0.434012
     4  C    0.336225
     5  H   -0.101383
     6  H   -0.100387
     7  O   -0.508853
     8  C    0.698501
     9  H   -0.162960
    10  H   -0.163050
    11  C    0.301199
    12  H   -0.035835
    13  H   -0.047576
    14  H   -0.047568
    15  H   -0.202706
    16  C    0.088772
    17  H   -0.202803
    18  H   -0.190007
    19  C    0.536690
    20  H   -0.189740
    21  H   -0.149176
    22  C    0.605572
    23  H   -0.149200
    24  H   -0.095907
    25  H   -0.070668
    26  H   -0.095923
 Sum of Mulliken charges =  -0.00000

 Dipole moment (field-independent basis, Debye):
    X=             -0.3887    Y=             -1.9546    Z=             -0.0001  Tot=              1.9929

 Test job not archived.
 1\1\GINC-SE009\SP\RHF\Aug-CC-pVDZ\C8H16O2\OHZDE\05-Apr-2025\0\\#t hf a
 ug-cc-pvdz iop(5/13=1,5/36=2,99/5=2) pseudo=read geom=check guess=(rea
 d,tcheck) scf=(maxcycle=1)\\title\\0,1\C,0,0.023324,-0.446803,-0.00193
 8\C,0,-1.248311,0.370867,-0.000992\O,0,-1.311122,1.575337,-0.000848\C,
 0,1.295426,0.393952,0.000986\H,0,-0.011251,-1.111297,0.865725\H,0,-0.0
 10002,-1.106796,-0.873123\O,0,-2.335846,-0.428912,-0.000518\C,0,-3.622
 317,0.232251,-0.000074\H,0,-3.685904,0.871725,-0.880589\H,0,-3.684388,
 0.873508,0.879239\C,0,-4.691361,-0.836651,0.001907\H,0,-5.676911,-0.36

 Normal termination of Gaussian 16 at Sat Apr  5 23:00:13 2025.
