 Gaussian 16, Revision C.01,

 ----------------------------------------------------------------------
 #t hf aug-cc-pvdz symm=none int=(grid=ultrafine) guess=(read,tcheck) s
 table=(opt,rrhf)
 ----------------------------------------------------------------------
 -----
 title
 -----
 Symbolic Z-matrix:
 Charge =  0 Multiplicity = 1

 SCF Done:  E(RHF) =  -383.994789542     A.U. after   13 cycles

 1\1\GINC-SE107\Stability\RHF\Aug-CC-pVDZ\C6H12O2\OHZDE\05-Apr-2025\0\\
 #t hf aug-cc-pvdz symm=none int=(grid=ultrafine) guess=(read,tcheck) s
 table=(opt,rrhf)\\title\\0,1\C,0,0.075104,0.3591,0.000098\C,0,-3.70178
 9,-0.60267,-0.000001\C,0,3.556061,-0.733886,-0.000152\C,0,-1.1689,-0.4
 99935,0.000212\C,0,-2.468473,0.298186,-0.000293\C,0,2.452426,0.299222,
 0.000029\O,0,0.097456,1.565027,0.000074\O,0,1.188412,-0.404077,0.00005
 9\H,0,-4.618593,-0.01246,-0.000388\H,0,-3.723582,-1.248219,-0.880573\H
 ,0,-3.723777,-1.24737,0.881188\H,0,4.525714,-0.234679,-0.000156\H,0,3.

 Normal termination of Gaussian 16 at Sat Apr  5 22:57:35 2025.
 Gaussian 16:  ES64L-G16RevC.01  3-Jul-2019

 ----------------------------------------------------------------------
 #t hf aug-cc-pvdz iop(5/13=1,5/36=2,99/5=2) pseudo=read geom=check gue
 ss=(read,tcheck) scf=(maxcycle=1)
 ----------------------------------------------------------------------
 -----
 title
 -----
 Structure from the checkpoint file:  "ethyl_butanoate.chk"
 Charge =  0 Multiplicity = 1

                         Standard orientation:
 ---------------------------------------------------------------------
 Center     Atomic      Atomic             Coordinates (Angstroms)
 Number     Number       Type             X           Y           Z
 ---------------------------------------------------------------------
      1          6           0        0.075104    0.359100    0.000098
      2          6           0       -3.701789   -0.602670   -0.000001
      3          6           0        3.556061   -0.733886   -0.000152
      4          6           0       -1.168900   -0.499935    0.000212
      5          6           0       -2.468473    0.298186   -0.000293
      6          6           0        2.452426    0.299222    0.000029
      7          8           0        0.097456    1.565027    0.000074
      8          8           0        1.188412   -0.404077    0.000059
      9          1           0       -4.618593   -0.012460   -0.000388
     10          1           0       -3.723582   -1.248219   -0.880573
     11          1           0       -3.723777   -1.247370    0.881188
     12          1           0        4.525714   -0.234679   -0.000156
     13          1           0        3.498825   -1.368972    0.883727
     14          1           0        3.498716   -1.368774   -0.884166
     15          1           0       -1.114011   -1.161253   -0.869006
     16          1           0       -1.114289   -1.160543    0.869994
     17          1           0       -2.485329    0.956406    0.869828
     18          1           0       -2.485160    0.955591   -0.871038
     19          1           0        2.493919    0.941368   -0.879840
     20          1           0        2.494054    0.941198    0.880017
 ---------------------------------------------------------------------

 SCF Done:  E(RHF) =  -384.119369150     A.U. after    2 cycles

 The electronic state is 1-A.
 Alpha  occ. eigenvalues --  -20.60952 -20.55570 -11.38751 -11.29747 -11.24877
 Alpha  occ. eigenvalues --  -11.23472 -11.23267 -11.22684  -1.41338  -1.31928
 Alpha  occ. eigenvalues --   -1.07493  -1.03600  -0.96310  -0.87300  -0.81954
 Alpha  occ. eigenvalues --   -0.77672  -0.70403  -0.69432  -0.67683  -0.64427
 Alpha  occ. eigenvalues --   -0.59198  -0.58703  -0.57637  -0.55601  -0.54506
 Alpha  occ. eigenvalues --   -0.51898  -0.50994  -0.50739  -0.49013  -0.48123
 Alpha  occ. eigenvalues --   -0.46833  -0.45658
 Alpha virt. eigenvalues --    0.03368   0.03930   0.04728   0.04762   0.05635
 Alpha virt. eigenvalues --    0.05787   0.05925   0.07165   0.07787   0.08805
 Alpha virt. eigenvalues --    0.08827   0.09056   0.11114   0.12747   0.13174

 Mulliken charges:
               1
     1  C   -0.018615
     2  C    0.496665
     3  C    0.293563
     4  C    0.305655
     5  C    0.295910
     6  C    0.682073
     7  O   -0.427478
     8  O   -0.509685
     9  H   -0.046021
    10  H   -0.080665
    11  H   -0.080670
    12  H   -0.031948
    13  H   -0.046828
    14  H   -0.046829
    15  H   -0.080853
    16  H   -0.080681
    17  H   -0.147572
    18  H   -0.147591
    19  H   -0.164220
    20  H   -0.164212
 Sum of Mulliken charges =  -0.00000

 Dipole moment (field-independent basis, Debye):
    X=              0.5086    Y=             -1.9736    Z=              0.0001  Tot=              2.0381

 Test job not archived.
 1\1\GINC-SE107\SP\RHF\Aug-CC-pVDZ\C6H12O2\OHZDE\05-Apr-2025\0\\#t hf a
 ug-cc-pvdz iop(5/13=1,5/36=2,99/5=2) pseudo=read geom=check guess=(rea
 d,tcheck) scf=(maxcycle=1)\\title\\0,1\C,0,0.075104,0.3591,0.000098\C,
 0,-3.701789,-0.60267,-0.000001\C,0,3.556061,-0.733886,-0.000152\C,0,-1
 .1689,-0.499935,0.000212\C,0,-2.468473,0.298186,-0.000293\C,0,2.452426
 ,0.299222,0.000029\O,0,0.097456,1.565027,0.000074\O,0,1.188412,-0.4040
 77,0.000059\H,0,-4.618593,-0.01246,-0.000388\H,0,-3.723582,-1.248219,-
 0.880573\H,0,-3.723777,-1.24737,0.881188\H,0,4.525714,-0.234679,-0.000

 Normal termination of Gaussian 16 at Sat Apr  5 22:58:14 2025.
