 Gaussian 16, Revision C.01,

 ----------------------------------------------------------------------
 #t hf aug-cc-pvdz symm=none int=(grid=ultrafine) guess=(read,tcheck) s
 table=(opt,rrhf)
 ----------------------------------------------------------------------
 -----
 title
 -----
 Symbolic Z-matrix:
 Charge =  0 Multiplicity = 1

 SCF Done:  E(RHF) =  -593.882683852     A.U. after   12 cycles

 1\1\GINC-SE183\Stability\RHF\Aug-CC-pVDZ\C5H12S1\OHZDE\05-Apr-2025\0\\
 #t hf aug-cc-pvdz symm=none int=(grid=ultrafine) guess=(read,tcheck) s
 table=(opt,rrhf)\\title\\0,1\C,0,2.375076,2.291871,0.\H,0,3.465991,2.2
 77864,0.\H,0,2.044631,2.840367,0.882327\H,0,2.044631,2.840367,-0.88232
 7\C,0,1.831458,0.869153,0.\H,0,2.172537,0.327306,-0.883073\H,0,2.17253
 7,0.327306,0.883073\S,0,0.,0.889482,0.\C,0,-0.338622,-0.909728,0.\H,0,
 0.126062,-1.351508,-0.883539\H,0,0.126062,-1.351508,0.883539\C,0,-1.84
 0977,-1.176175,0.\H,0,-2.290661,-0.701679,0.875094\H,0,-2.290661,-0.70

 Normal termination of Gaussian 16 at Sat Apr  5 22:58:48 2025.
 Gaussian 16:  ES64L-G16RevC.01  3-Jul-2019

 ----------------------------------------------------------------------
 #t hf aug-cc-pvdz iop(5/13=1,5/36=2,99/5=2) pseudo=read geom=check gue
 ss=(read,tcheck) scf=(maxcycle=1)
 ----------------------------------------------------------------------
 -----
 title
 -----
 Structure from the checkpoint file:  "ethylpropylsulfide.chk"
 Charge =  0 Multiplicity = 1

                         Standard orientation:
 ---------------------------------------------------------------------
 Center     Atomic      Atomic             Coordinates (Angstroms)
 Number     Number       Type             X           Y           Z
 ---------------------------------------------------------------------
      1          6           0        2.375076    2.291871    0.000000
      2          1           0        3.465991    2.277864    0.000000
      3          1           0        2.044631    2.840367    0.882327
      4          1           0        2.044631    2.840367   -0.882327
      5          6           0        1.831458    0.869153    0.000000
      6          1           0        2.172537    0.327306   -0.883073
      7          1           0        2.172537    0.327306    0.883073
      8         16           0        0.000000    0.889482    0.000000
      9          6           0       -0.338622   -0.909728    0.000000
     10          1           0        0.126062   -1.351508   -0.883539
     11          1           0        0.126062   -1.351508    0.883539
     12          6           0       -1.840977   -1.176175    0.000000
     13          1           0       -2.290661   -0.701679    0.875094
     14          1           0       -2.290661   -0.701679   -0.875094
     15          6           0       -2.164305   -2.670386    0.000000
     16          1           0       -1.752397   -3.165193   -0.881569
     17          1           0       -1.752397   -3.165193    0.881569
     18          1           0       -3.242119   -2.836574    0.000000
 ---------------------------------------------------------------------

 SCF Done:  E(RHF) =  -593.967647307     A.U. after    2 cycles

 The electronic state is 1-A'.
 Alpha  occ. eigenvalues --  -93.51500 -11.26342 -11.26052 -11.23588 -11.23201
 Alpha  occ. eigenvalues --  -11.22771  -8.81260  -6.15425  -6.15195  -6.14858
 Alpha  occ. eigenvalues --   -1.07882  -1.04226  -0.96391  -0.88033  -0.81201
 Alpha  occ. eigenvalues --   -0.78051  -0.64857  -0.62468  -0.60493  -0.58350
 Alpha  occ. eigenvalues --   -0.55652  -0.54488  -0.53238  -0.50859  -0.49354
 Alpha  occ. eigenvalues --   -0.48177  -0.45006  -0.41865  -0.32921
 Alpha virt. eigenvalues --    0.03531   0.03928   0.04775   0.04831   0.06004
 Alpha virt. eigenvalues --    0.06185   0.06454   0.07321   0.07930   0.08854
 Alpha virt. eigenvalues --    0.09678   0.10224   0.11338   0.12589   0.13255

 Mulliken charges:
               1
     1  C    0.475246
     2  H   -0.026323
     3  H   -0.078531
     4  H   -0.078531
     5  C   -0.063288
     6  H   -0.148391
     7  H   -0.148391
     8  S    0.381134
     9  C   -0.244761
    10  H   -0.171157
    11  H   -0.171157
    12  C    0.295594
    13  H   -0.117585
    14  H   -0.117585
    15  C    0.451256
    16  H   -0.080481
    17  H   -0.080481
    18  H   -0.076567
 Sum of Mulliken charges =  -0.00000

 Dipole moment (field-independent basis, Debye):
    X=              1.0397    Y=             -1.3904    Z=             -0.0000  Tot=              1.7362

 Test job not archived.
 1\1\GINC-SE183\SP\RHF\Aug-CC-pVDZ\C5H12S1\OHZDE\05-Apr-2025\0\\#t hf a
 ug-cc-pvdz iop(5/13=1,5/36=2,99/5=2) pseudo=read geom=check guess=(rea
 d,tcheck) scf=(maxcycle=1)\\title\\0,1\C,0,2.375076,2.291871,0.\H,0,3.
 465991,2.277864,0.\H,0,2.044631,2.840367,0.882327\H,0,2.044631,2.84036
 7,-0.882327\C,0,1.831458,0.869153,0.\H,0,2.172537,0.327306,-0.883073\H
 ,0,2.172537,0.327306,0.883073\S,0,0.,0.889482,0.\C,0,-0.338622,-0.9097
 28,0.\H,0,0.126062,-1.351508,-0.883539\H,0,0.126062,-1.351508,0.883539
 \C,0,-1.840977,-1.176175,0.\H,0,-2.290661,-0.701679,0.875094\H,0,-2.29

 Normal termination of Gaussian 16 at Sat Apr  5 22:58:54 2025.
