 Gaussian 16, Revision C.01,

 ----------------------------------------------------------------------
 #t hf aug-cc-pvdz symm=none int=(grid=ultrafine) guess=(read,tcheck) s
 table=(opt,rrhf)
 ----------------------------------------------------------------------
 -----
 title
 -----
 Symbolic Z-matrix:
 Charge =  0 Multiplicity = 1

 SCF Done:  E(RHF) =  -423.033668129     A.U. after   13 cycles

 1\1\GINC-SE010\Stability\RHF\Aug-CC-pVDZ\C7H14O2\OHZDE\05-Apr-2025\0\\
 #t hf aug-cc-pvdz symm=none int=(grid=ultrafine) guess=(read,tcheck) s
 table=(opt,rrhf)\\title\\0,1\C,0,0.,0.729498,0.\C,0,-2.141505,-3.89140
 2,0.\C,0,2.54932,3.3398,0.\C,0,0.207382,-0.768043,0.\C,0,-0.847268,-3.
 079942,0.\C,0,-1.088975,-1.570401,0.\C,0,1.128138,2.824006,0.\O,0,-1.0
 66056,1.293479,0.\O,0,1.183521,1.378692,0.\H,0,-2.7467,-3.66722,0.8805
 66\H,0,-2.7467,-3.66722,-0.880566\H,0,-1.939443,-4.963233,0.\H,0,2.543
 948,4.430393,0.\H,0,3.089196,3.000657,0.883914\H,0,3.089196,3.000657,-

 Normal termination of Gaussian 16 at Sat Apr  5 22:58:11 2025.
 Gaussian 16:  ES64L-G16RevC.01  3-Jul-2019

 ----------------------------------------------------------------------
 #t hf aug-cc-pvdz iop(5/13=1,5/36=2,99/5=2) pseudo=read geom=check gue
 ss=(read,tcheck) scf=(maxcycle=1)
 ----------------------------------------------------------------------
 -----
 title
 -----
 Structure from the checkpoint file:  "ethyl_pentanoate.chk"
 Charge =  0 Multiplicity = 1

                         Standard orientation:
 ---------------------------------------------------------------------
 Center     Atomic      Atomic             Coordinates (Angstroms)
 Number     Number       Type             X           Y           Z
 ---------------------------------------------------------------------
      1          6           0        0.000000    0.729498    0.000000
      2          6           0       -2.141504   -3.891402    0.000000
      3          6           0        2.549320    3.339800    0.000000
      4          6           0        0.207382   -0.768043    0.000000
      5          6           0       -0.847267   -3.079942    0.000000
      6          6           0       -1.088975   -1.570401    0.000000
      7          6           0        1.128138    2.824006    0.000000
      8          8           0       -1.066056    1.293479    0.000000
      9          8           0        1.183521    1.378692    0.000000
     10          1           0       -2.746699   -3.667220    0.880566
     11          1           0       -2.746699   -3.667220   -0.880566
     12          1           0       -1.939442   -4.963233    0.000000
     13          1           0        2.543948    4.430393    0.000000
     14          1           0        3.089196    3.000657    0.883914
     15          1           0        3.089196    3.000657   -0.883914
     16          1           0        0.822926   -1.014904   -0.869453
     17          1           0        0.822926   -1.014904    0.869453
     18          1           0       -0.247535   -3.351756    0.874139
     19          1           0       -0.247535   -3.351756   -0.874139
     20          1           0       -1.685980   -1.291579    0.871119
     21          1           0       -1.685980   -1.291579   -0.871119
     22          1           0        0.574702    3.151987   -0.879985
     23          1           0        0.574702    3.151987    0.879985
 ---------------------------------------------------------------------

 SCF Done:  E(RHF) =  -423.170228311     A.U. after    2 cycles

 The electronic state is 1-A'.
 Alpha  occ. eigenvalues --  -20.60922 -20.55543 -11.38727 -11.29731 -11.24844
 Alpha  occ. eigenvalues --  -11.23457 -11.23099 -11.22973 -11.22272  -1.41306
 Alpha  occ. eigenvalues --   -1.31901  -1.08137  -1.04216  -0.99922  -0.90702
 Alpha  occ. eigenvalues --   -0.85320  -0.80243  -0.77679  -0.70157  -0.69428
 Alpha  occ. eigenvalues --   -0.67434  -0.65182  -0.60547  -0.59449  -0.57833
 Alpha  occ. eigenvalues --   -0.56663  -0.55476  -0.53842  -0.51817  -0.51757
 Alpha  occ. eigenvalues --   -0.50057  -0.48473  -0.47913  -0.47402  -0.46630
 Alpha  occ. eigenvalues --   -0.45405
 Alpha virt. eigenvalues --    0.03369   0.03799   0.04651   0.04671   0.05346
 Alpha virt. eigenvalues --    0.05567   0.05685   0.06940   0.07102   0.08118
 Alpha virt. eigenvalues --    0.08168   0.08630   0.09544   0.10957   0.11114

 Mulliken charges:
               1
     1  C   -0.073257
     2  C    0.623339
     3  C    0.299143
     4  C    0.392664
     5  C    0.358333
     6  C    0.200951
     7  C    0.697993
     8  O   -0.432760
     9  O   -0.508964
    10  H   -0.076890
    11  H   -0.076890
    12  H   -0.063495
    13  H   -0.034919
    14  H   -0.047776
    15  H   -0.047776
    16  H   -0.090999
    17  H   -0.090999
    18  H   -0.162308
    19  H   -0.162308
    20  H   -0.188729
    21  H   -0.188729
    22  H   -0.162812
    23  H   -0.162812
 Sum of Mulliken charges =  -0.00000

 Dipole moment (field-independent basis, Debye):
    X=              2.0289    Y=             -0.4885    Z=             -0.0000  Tot=              2.0869

 Test job not archived.
 1\1\GINC-SE010\SP\RHF\Aug-CC-pVDZ\C7H14O2\OHZDE\05-Apr-2025\0\\#t hf a
 ug-cc-pvdz iop(5/13=1,5/36=2,99/5=2) pseudo=read geom=check guess=(rea
 d,tcheck) scf=(maxcycle=1)\\title\\0,1\C,0,0.,0.729498,0.\C,0,-2.14150
 5,-3.891402,0.\C,0,2.54932,3.3398,0.\C,0,0.207382,-0.768043,0.\C,0,-0.
 847268,-3.079942,0.\C,0,-1.088975,-1.570401,0.\C,0,1.128138,2.824006,0
 .\O,0,-1.066056,1.293479,0.\O,0,1.183521,1.378692,0.\H,0,-2.7467,-3.66
 722,0.880566\H,0,-2.7467,-3.66722,-0.880566\H,0,-1.939443,-4.963233,0.
 \H,0,2.543948,4.430393,0.\H,0,3.089196,3.000657,0.883914\H,0,3.089196,

 Normal termination of Gaussian 16 at Sat Apr  5 22:58:20 2025.
