 Gaussian 16, Revision C.01,

 ----------------------------------------------------------------------
 #t hf aug-cc-pvdz symm=none int=(grid=ultrafine) guess=(read,tcheck) s
 table=(opt,rrhf)
 ----------------------------------------------------------------------
 -----
 title
 -----
 Symbolic Z-matrix:
 Charge =  0 Multiplicity = 1

 SCF Done:  E(RHF) =  -266.865783491     A.U. after   13 cycles
 Normal termination of Gaussian 16 at Sat Apr  5 22:58:16 2025.
 Gaussian 16:  ES64L-G16RevC.01  3-Jul-2019

 ----------------------------------------------------------------------
 #t hf aug-cc-pvdz iop(5/13=1,5/36=2,99/5=2) pseudo=read geom=check gue
 ss=(read,tcheck) scf=(maxcycle=1)
 ----------------------------------------------------------------------
 -----
 title
 -----
 Structure from the checkpoint file:  "ethylformate.chk"
 Charge =  0 Multiplicity = 1

                         Standard orientation:
 ---------------------------------------------------------------------
 Center     Atomic      Atomic             Coordinates (Angstroms)
 Number     Number       Type             X           Y           Z
 ---------------------------------------------------------------------
      1          6           0        1.335737    0.637655    0.000000
      2          6           0       -2.183624   -0.287568    0.000000
      3          6           0       -0.700940   -0.578325    0.000000
      4          8           0        2.002533   -0.361066    0.000000
      5          8           0        0.000000    0.693290    0.000000
      6          1           0        1.739533    1.657904    0.000000
      7          1           0       -2.739422   -1.225778    0.000000
      8          1           0       -2.471547    0.280474    0.884202
      9          1           0       -2.471547    0.280474   -0.884202
     10          1           0       -0.392160   -1.140715   -0.880841
     11          1           0       -0.392160   -1.140715    0.880841
 ---------------------------------------------------------------------

 SCF Done:  E(RHF) =  -266.954500064     A.U. after    2 cycles

 The electronic state is 1-A'.
 Alpha  occ. eigenvalues --  -20.62350 -20.57036 -11.39752 -11.30627 -11.24052
 Alpha  occ. eigenvalues --   -1.42457  -1.33355  -1.04766  -0.90213  -0.81102
 Alpha  occ. eigenvalues --   -0.74299  -0.69612  -0.69424  -0.59849  -0.58904
 Alpha  occ. eigenvalues --   -0.56177  -0.52668  -0.52483  -0.47918  -0.47849
 Alpha virt. eigenvalues --    0.03392   0.04398   0.05071   0.05162   0.06713
 Alpha virt. eigenvalues --    0.07826   0.09916   0.10055   0.12179   0.13967
 Alpha virt. eigenvalues --    0.14716   0.15634   0.16213   0.16405   0.17221

 Mulliken charges:
               1
     1  C    0.623658
     2  C    0.256769
     3  C    0.635396
     4  O   -0.383647
     5  O   -0.500384
     6  H   -0.222226
     7  H   -0.015913
     8  H   -0.037854
     9  H   -0.037854
    10  H   -0.158973
    11  H   -0.158973
 Sum of Mulliken charges =  -0.00000

 Dipole moment (field-independent basis, Debye):
    X=             -2.2370    Y=              0.8293    Z=              0.0000  Tot=              2.3857

 Test job not archived.
 1\1\GINC-SE185\SP\RHF\Aug-CC-pVDZ\C3H6O2\OHZDE\05-Apr-2025\0\\#t hf au
 g-cc-pvdz iop(5/13=1,5/36=2,99/5=2) pseudo=read geom=check guess=(read
 ,tcheck) scf=(maxcycle=1)\\title\\0,1\C,0,1.335737,0.637655,0.\C,0,-2.
 183624,-0.287568,0.\C,0,-0.70094,-0.578325,0.\O,0,2.002533,-0.361066,0
 .\O,0,0.,0.69329,0.\H,0,1.739533,1.657904,0.\H,0,-2.739422,-1.225778,0
 .\H,0,-2.471547,0.280474,0.884202\H,0,-2.471547,0.280474,-0.884202\H,0
 ,-0.39216,-1.140715,-0.880841\H,0,-0.39216,-1.140715,0.880841\\Version
 =ES64L-G16RevC.01\State=1-A'\HF=-266.9545001\RMSD=3.177e-03\Dipole=-0.

 Normal termination of Gaussian 16 at Sat Apr  5 22:58:19 2025.
