 Gaussian 16, Revision C.01,

 ----------------------------------------------------------------------
 #t hf aug-cc-pvdz symm=none int=(grid=ultrafine) guess=(read,tcheck) s
 table=(opt,rrhf)
 ----------------------------------------------------------------------
 -----
 title
 -----
 Symbolic Z-matrix:
 Charge =  0 Multiplicity = 1

 SCF Done:  E(RHF) =  -282.748384479     A.U. after   14 cycles
 Normal termination of Gaussian 16 at Sat Apr  5 22:57:12 2025.
 Gaussian 16:  ES64L-G16RevC.01  3-Jul-2019

 ----------------------------------------------------------------------
 #t hf aug-cc-pvdz iop(5/13=1,5/36=2,99/5=2) pseudo=read geom=check gue
 ss=(read,tcheck) scf=(maxcycle=1)
 ----------------------------------------------------------------------
 -----
 title
 -----
 Structure from the checkpoint file:  "ethylnitrite.chk"
 Charge =  0 Multiplicity = 1

                         Standard orientation:
 ---------------------------------------------------------------------
 Center     Atomic      Atomic             Coordinates (Angstroms)
 Number     Number       Type             X           Y           Z
 ---------------------------------------------------------------------
      1          6           0       -0.721786    0.465243    0.000043
      2          8           0        0.102893   -0.724419   -0.000006
      3          6           0       -2.163450    0.006048    0.000234
      4          1           0       -0.479504    1.060827    0.881644
      5          1           0       -0.479710    1.060747   -0.881667
      6          7           0        1.487781   -0.524975   -0.000126
      7          8           0        1.827924    0.603525   -0.000194
      8          1           0       -2.384003   -0.591203   -0.883644
      9          1           0       -2.822542    0.874902    0.000221
     10          1           0       -2.383821   -0.591040    0.884268
 ---------------------------------------------------------------------

 SCF Done:  E(RHF) =  -282.838080752     A.U. after    2 cycles

 The electronic state is 1-A.
 Alpha  occ. eigenvalues --  -20.66460 -20.64287 -15.85054 -11.30859 -11.24410
 Alpha  occ. eigenvalues --   -1.54492  -1.35921  -1.05627  -0.93214  -0.84382
 Alpha  occ. eigenvalues --   -0.77339  -0.72177  -0.71599  -0.63210  -0.59089
 Alpha  occ. eigenvalues --   -0.57235  -0.54600  -0.53280  -0.48802  -0.46178
 Alpha virt. eigenvalues --    0.03386   0.04867   0.04870   0.06029   0.07759
 Alpha virt. eigenvalues --    0.09206   0.10769   0.11592   0.13906   0.14199
 Alpha virt. eigenvalues --    0.15171   0.16147   0.16820   0.17051   0.17244

 Mulliken charges:
               1
     1  C    0.797271
     2  O   -0.575578
     3  C    0.123609
     4  H   -0.146204
     5  H   -0.146223
     6  N    0.330414
     7  O   -0.305707
     8  H   -0.040919
     9  H    0.004251
    10  H   -0.040913
 Sum of Mulliken charges =  -0.00000

 Dipole moment (field-independent basis, Debye):
    X=             -2.0836    Y=              0.9070    Z=              0.0002  Tot=              2.2725

 Test job not archived.
 1\1\GINC-SE180\SP\RHF\Aug-CC-pVDZ\C2H5N1O2\OHZDE\05-Apr-2025\0\\#t hf
 aug-cc-pvdz iop(5/13=1,5/36=2,99/5=2) pseudo=read geom=check guess=(re
 ad,tcheck) scf=(maxcycle=1)\\title\\0,1\C,0,-0.721786,0.465243,0.00004
 3\O,0,0.102893,-0.724419,-0.000006\C,0,-2.16345,0.006048,0.000234\H,0,
 -0.479504,1.060827,0.881644\H,0,-0.47971,1.060747,-0.881667\N,0,1.4877
 81,-0.524975,-0.000126\O,0,1.827924,0.603525,-0.000194\H,0,-2.384003,-
 0.591203,-0.883644\H,0,-2.822542,0.874902,0.000221\H,0,-2.383821,-0.59
 104,0.884268\\Version=ES64L-G16RevC.01\State=1-A\HF=-282.8380808\RMSD=

 Normal termination of Gaussian 16 at Sat Apr  5 22:58:08 2025.
