 Gaussian 16, Revision C.01,

 ----------------------------------------------------------------------
 #t hf aug-cc-pvdz symm=none int=(grid=ultrafine) guess=(read,tcheck) s
 table=(opt,rrhf)
 ----------------------------------------------------------------------
 -----
 title
 -----
 Symbolic Z-matrix:
 Charge =  0 Multiplicity = 1

 SCF Done:  E(RHF) =  -986.594038711     A.U. after   15 cycles
 Normal termination of Gaussian 16 at Sat Apr  5 22:57:20 2025.
 Gaussian 16:  ES64L-G16RevC.01  3-Jul-2019

 ----------------------------------------------------------------------
 #t hf aug-cc-pvdz iop(5/13=1,5/36=2,99/5=2) pseudo=read geom=check gue
 ss=(read,tcheck) scf=(maxcycle=1)
 ----------------------------------------------------------------------
 -----
 title
 -----
 Structure from the checkpoint file:  "ethynylsulfanylmethylsulfanylethyne.chk"
 Charge =  0 Multiplicity = 1

                         Standard orientation:
 ---------------------------------------------------------------------
 Center     Atomic      Atomic             Coordinates (Angstroms)
 Number     Number       Type             X           Y           Z
 ---------------------------------------------------------------------
      1         16           0       -1.085714    0.117394    0.777209
      2         16           0        1.616055   -1.007193    0.004656
      3          6           0       -0.092200   -0.704472   -0.547441
      4          6           0       -2.551811    0.291449   -0.041856
      5          6           0        2.295903    0.534104   -0.121587
      6          6           0       -3.614199    0.432090   -0.592782
      7          6           0        2.852247    1.598818   -0.193854
      8          1           0       -0.096062   -0.091324   -1.442322
      9          1           0       -0.512041   -1.685333   -0.754731
     10          1           0       -4.551006    0.558816   -1.074999
     11          1           0        3.334006    2.542688   -0.252663
 ---------------------------------------------------------------------

 SCF Done:  E(RHF) =  -986.699932035     A.U. after    2 cycles

 The electronic state is 1-A.
 Alpha  occ. eigenvalues --  -93.58789 -93.57854 -11.32911 -11.27822 -11.27691
 Alpha  occ. eigenvalues --  -11.26022 -11.25784  -8.88393  -8.87463  -6.22615
 Alpha  occ. eigenvalues --   -6.22339  -6.21976  -6.21670  -6.21387  -6.21019
 Alpha  occ. eigenvalues --   -1.11868  -1.07158  -1.02511  -0.96676  -0.87941
 Alpha  occ. eigenvalues --   -0.73616  -0.73394  -0.66647  -0.64390  -0.60670
 Alpha  occ. eigenvalues --   -0.52398  -0.51395  -0.48067  -0.47228  -0.41841
 Alpha  occ. eigenvalues --   -0.40106  -0.35059  -0.34475
 Alpha virt. eigenvalues --    0.03411   0.03861   0.04629   0.06051   0.07903
 Alpha virt. eigenvalues --    0.08144   0.08613   0.10009   0.10347   0.10548
 Alpha virt. eigenvalues --    0.11205   0.12027   0.12543   0.13999   0.14227

 Mulliken charges:
               1
     1  S    0.449685
     2  S    0.515826
     3  C   -0.269348
     4  C   -0.253168
     5  C   -0.383425
     6  C    0.380696
     7  C    0.535408
     8  H   -0.076960
     9  H   -0.111691
    10  H   -0.385967
    11  H   -0.401057
 Sum of Mulliken charges =   0.00000

 Dipole moment (field-independent basis, Debye):
    X=             -0.4968    Y=              0.1775    Z=             -1.6692  Tot=              1.7506

 Test job not archived.
 1\1\GINC-SE226\SP\RHF\Aug-CC-pVDZ\C5H4S2\OHZDE\05-Apr-2025\0\\#t hf au
 g-cc-pvdz iop(5/13=1,5/36=2,99/5=2) pseudo=read geom=check guess=(read
 ,tcheck) scf=(maxcycle=1)\\title\\0,1\S,0,-1.085714,0.117394,0.777209\
 S,0,1.616055,-1.007193,0.004656\C,0,-0.0922,-0.704472,-0.547441\C,0,-2
 .551811,0.291449,-0.041856\C,0,2.295903,0.534104,-0.121587\C,0,-3.6141
 99,0.43209,-0.592782\C,0,2.852247,1.598818,-0.193854\H,0,-0.096062,-0.
 091324,-1.442322\H,0,-0.512041,-1.685333,-0.754731\H,0,-4.551006,0.558
 816,-1.074999\H,0,3.334006,2.542688,-0.252663\\Version=ES64L-G16RevC.0

 Normal termination of Gaussian 16 at Sat Apr  5 22:58:10 2025.
