 Gaussian 16, Revision C.01,

 ----------------------------------------------------------------------
 #t hf aug-cc-pvdz symm=none int=(grid=ultrafine) guess=(read,tcheck) s
 table=(opt,rrhf)
 ----------------------------------------------------------------------
 -----
 title
 -----
 Symbolic Z-matrix:
 Charge =  0 Multiplicity = 1

 SCF Done:  E(RHF) =  -1057.75361237     A.U. after   14 cycles
 Normal termination of Gaussian 16 at Sat Apr  5 22:58:29 2025.
 Gaussian 16:  ES64L-G16RevC.01  3-Jul-2019

 ----------------------------------------------------------------------
 #t hf aug-cc-pvdz iop(5/13=1,5/36=2,99/5=2) pseudo=read geom=check gue
 ss=(read,tcheck) scf=(maxcycle=1)
 ----------------------------------------------------------------------
 -----
 title
 -----
 Structure from the checkpoint file:  "ethylenedithiocyanate.chk"
 Charge =  0 Multiplicity = 1

                         Standard orientation:
 ---------------------------------------------------------------------
 Center     Atomic      Atomic             Coordinates (Angstroms)
 Number     Number       Type             X           Y           Z
 ---------------------------------------------------------------------
      1         16           0       -0.485479    1.616939   -0.499622
      2         16           0        0.485479   -1.616939   -0.499622
      3          7           0        0.485479    4.238358    0.048550
      4          7           0       -0.485479   -4.238358    0.048550
      5          6           0        0.219813    0.726015    0.967138
      6          6           0       -0.219813   -0.726015    0.967138
      7          6           0        0.100064    3.168473   -0.157999
      8          6           0       -0.100064   -3.168473   -0.157999
      9          1           0       -0.158457    1.213127    1.862783
     10          1           0        1.302444    0.822259    0.936478
     11          1           0       -1.302444   -0.822259    0.936478
     12          1           0        0.158457   -1.213127    1.862783
 ---------------------------------------------------------------------

 SCF Done:  E(RHF) =  -1057.87292031     A.U. after    2 cycles

 The electronic state is 1-A.
 Alpha  occ. eigenvalues --  -93.61760 -93.61759 -15.66653 -15.66653 -11.34057
 Alpha  occ. eigenvalues --  -11.33999 -11.32530 -11.32530  -8.91420  -8.91420
 Alpha  occ. eigenvalues --   -6.25654  -6.25639  -6.25321  -6.25320  -6.24970
 Alpha  occ. eigenvalues --   -6.24964  -1.21973  -1.21834  -1.15018  -1.07225
 Alpha  occ. eigenvalues --   -0.99783  -0.87982  -0.73229  -0.71921  -0.65238
 Alpha  occ. eigenvalues --   -0.62982  -0.61715  -0.57205  -0.56632  -0.55000
 Alpha  occ. eigenvalues --   -0.54796  -0.53357  -0.53261  -0.47166  -0.46533
 Alpha  occ. eigenvalues --   -0.40671  -0.39387
 Alpha virt. eigenvalues --    0.02084   0.03969   0.04826   0.05166   0.06323
 Alpha virt. eigenvalues --    0.07245   0.08633   0.09067   0.09517   0.10376
 Alpha virt. eigenvalues --    0.10893   0.11835   0.12311   0.12665   0.13406

 Mulliken charges:
               1
     1  S    0.796037
     2  S    0.796037
     3  N   -0.148899
     4  N   -0.148899
     5  C    0.066297
     6  C    0.066297
     7  C   -0.522181
     8  C   -0.522181
     9  H   -0.049853
    10  H   -0.141401
    11  H   -0.141401
    12  H   -0.049853
 Sum of Mulliken charges =  -0.00000

 Dipole moment (field-independent basis, Debye):
    X=              0.0000    Y=             -0.0000    Z=              1.8437  Tot=              1.8437

 Test job not archived.
 1\1\GINC-SE129\SP\RHF\Aug-CC-pVDZ\C4H4N2S2\OHZDE\05-Apr-2025\0\\#t hf
 aug-cc-pvdz iop(5/13=1,5/36=2,99/5=2) pseudo=read geom=check guess=(re
 ad,tcheck) scf=(maxcycle=1)\\title\\0,1\S,0,-0.485479,1.616939,-0.4996
 22\S,0,0.485479,-1.616939,-0.499622\N,0,0.485479,4.238358,0.04855\N,0,
 -0.485479,-4.238358,0.04855\C,0,0.219813,0.726015,0.967138\C,0,-0.2198
 13,-0.726015,0.967138\C,0,0.100064,3.168473,-0.157999\C,0,-0.100064,-3
 .168473,-0.157999\H,0,-0.158457,1.213127,1.862783\H,0,1.302444,0.82225
 9,0.936478\H,0,-1.302444,-0.822259,0.936478\H,0,0.158457,-1.213127,1.8

 Normal termination of Gaussian 16 at Sat Apr  5 22:58:34 2025.
