 Gaussian 16, Revision C.01,

 ----------------------------------------------------------------------
 #t hf aug-cc-pvdz symm=none int=(grid=ultrafine) guess=(read,tcheck) s
 table=(opt,rrhf)
 ----------------------------------------------------------------------
 -----
 title
 -----
 Symbolic Z-matrix:
 Charge =  0 Multiplicity = 1

 SCF Done:  E(RHF) =  -1057.77191509     A.U. after   14 cycles
 Normal termination of Gaussian 16 at Sat Apr  5 22:58:31 2025.
 Gaussian 16:  ES64L-G16RevC.01  3-Jul-2019

 ----------------------------------------------------------------------
 #t hf aug-cc-pvdz iop(5/13=1,5/36=2,99/5=2) pseudo=read geom=check gue
 ss=(read,tcheck) scf=(maxcycle=1)
 ----------------------------------------------------------------------
 -----
 title
 -----
 Structure from the checkpoint file:  "ethylenediisothiocyanate.chk"
 Charge =  0 Multiplicity = 1

                         Standard orientation:
 ---------------------------------------------------------------------
 Center     Atomic      Atomic             Coordinates (Angstroms)
 Number     Number       Type             X           Y           Z
 ---------------------------------------------------------------------
      1         16           0       -4.596838   -0.003107   -0.000137
      2         16           0        4.596838    0.003103   -0.000056
      3          7           0       -1.832054   -0.149686    0.000108
      4          7           0        1.832054    0.149689    0.000098
      5          6           0       -0.565103    0.514998    0.000097
      6          6           0        0.565103   -0.514994    0.000093
      7          6           0       -3.015809   -0.039311   -0.000005
      8          6           0        3.015809    0.039311    0.000027
      9          1           0       -0.483266    1.151721    0.883482
     10          1           0       -0.483277    1.151723   -0.883288
     11          1           0        0.483272   -1.151716   -0.883294
     12          1           0        0.483270   -1.151720    0.883476
 ---------------------------------------------------------------------

 SCF Done:  E(RHF) =  -1057.89120772     A.U. after    2 cycles

 The electronic state is 1-A.
 Alpha  occ. eigenvalues --  -93.54077 -93.54077 -15.68773 -15.68772 -11.40069
 Alpha  occ. eigenvalues --  -11.40068 -11.33810 -11.33756  -8.84001  -8.84001
 Alpha  occ. eigenvalues --   -6.18326  -6.18323  -6.17632  -6.17631  -6.17588
 Alpha  occ. eigenvalues --   -6.17588  -1.28499  -1.27299  -1.11258  -1.04225
 Alpha  occ. eigenvalues --   -1.01402  -0.94628  -0.78070  -0.71942  -0.71574
 Alpha  occ. eigenvalues --   -0.65539  -0.62900  -0.60079  -0.59828  -0.57113
 Alpha  occ. eigenvalues --   -0.54850  -0.52557  -0.52511  -0.37515  -0.37329
 Alpha  occ. eigenvalues --   -0.36619  -0.36271
 Alpha virt. eigenvalues --    0.02667   0.03694   0.03834   0.05801   0.06839
 Alpha virt. eigenvalues --    0.07008   0.08444   0.08951   0.09984   0.10129
 Alpha virt. eigenvalues --    0.10365   0.10884   0.11577   0.11797   0.12373

 Mulliken charges:
               1
     1  S    0.156583
     2  S    0.156583
     3  N   -0.065282
     4  N   -0.065283
     5  C    0.867649
     6  C    0.867649
     7  C   -0.657886
     8  C   -0.657885
     9  H   -0.150533
    10  H   -0.150531
    11  H   -0.150529
    12  H   -0.150535
 Sum of Mulliken charges =  -0.00000

 Dipole moment (field-independent basis, Debye):
    X=              0.0000    Y=              0.0000    Z=              0.0002  Tot=              0.0002

 Test job not archived.
 1\1\GINC-SE108\SP\RHF\Aug-CC-pVDZ\C4H4N2S2\OHZDE\05-Apr-2025\0\\#t hf
 aug-cc-pvdz iop(5/13=1,5/36=2,99/5=2) pseudo=read geom=check guess=(re
 ad,tcheck) scf=(maxcycle=1)\\title\\0,1\S,0,-4.596838,-0.003107,-0.000
 137\S,0,4.596838,0.003103,-0.000056\N,0,-1.832054,-0.149686,0.000108\N
 ,0,1.832054,0.149689,0.000098\C,0,-0.565103,0.514998,0.000097\C,0,0.56
 5103,-0.514994,0.000093\C,0,-3.015809,-0.039311,-0.000005\C,0,3.015809
 ,0.039311,0.000027\H,0,-0.483266,1.151721,0.883482\H,0,-0.483277,1.151
 723,-0.883288\H,0,0.483272,-1.151716,-0.883294\H,0,0.48327,-1.15172,0.

 Normal termination of Gaussian 16 at Sat Apr  5 22:58:37 2025.
