 Gaussian 16, Revision C.01,

 ----------------------------------------------------------------------
 #t hf aug-cc-pvdz symm=none int=(grid=ultrafine) guess=(read,tcheck) s
 table=(opt,rrhf)
 ----------------------------------------------------------------------
 -----
 title
 -----
 Symbolic Z-matrix:
 Charge =  0 Multiplicity = 1

 SCF Done:  E(RHF) =  -228.875114248     A.U. after   13 cycles
 Normal termination of Gaussian 16 at Sat Apr  5 22:57:10 2025.
 Gaussian 16:  ES64L-G16RevC.01  3-Jul-2019

 ----------------------------------------------------------------------
 #t hf aug-cc-pvdz iop(5/13=1,5/36=2,99/5=2) pseudo=read geom=check gue
 ss=(read,tcheck) scf=(maxcycle=1)
 ----------------------------------------------------------------------
 -----
 title
 -----
 Structure from the checkpoint file:  "ethylhydroperoxide.chk"
 Charge =  0 Multiplicity = 1

                         Standard orientation:
 ---------------------------------------------------------------------
 Center     Atomic      Atomic             Coordinates (Angstroms)
 Number     Number       Type             X           Y           Z
 ---------------------------------------------------------------------
      1          6           0        0.459938    0.519040    0.021772
      2          8           0       -0.510152   -0.525067   -0.027869
      3          8           0       -1.815721    0.108175   -0.095134
      4          6           0        1.818413   -0.154922    0.004015
      5          1           0        0.327982    1.173442   -0.843321
      6          1           0        0.318113    1.110577    0.931373
      7          1           0       -2.200256   -0.182756    0.742877
      8          1           0        1.942232   -0.811711    0.864757
      9          1           0        2.600069    0.604443    0.037023
     10          1           0        1.948740   -0.743562   -0.903410
 ---------------------------------------------------------------------

 SCF Done:  E(RHF) =  -228.950781846     A.U. after    2 cycles

 The electronic state is 1-A.
 Alpha  occ. eigenvalues --  -20.63515 -20.63469 -11.29301 -11.23462  -1.42033
 Alpha  occ. eigenvalues --   -1.20598  -1.00334  -0.84711  -0.73647  -0.67723
 Alpha  occ. eigenvalues --   -0.65963  -0.61691  -0.55013  -0.53808  -0.51522
 Alpha  occ. eigenvalues --   -0.50636  -0.46190
 Alpha virt. eigenvalues --    0.03526   0.04532   0.05174   0.05452   0.07147
 Alpha virt. eigenvalues --    0.07871   0.11979   0.13554   0.14324   0.15309
 Alpha virt. eigenvalues --    0.15878   0.16991   0.17514   0.18041   0.19829

 Mulliken charges:
               1
     1  C    0.747680
     2  O   -0.449586
     3  O   -0.275383
     4  C    0.167957
     5  H   -0.141472
     6  H   -0.142231
     7  H    0.200754
     8  H   -0.050934
     9  H   -0.026584
    10  H   -0.030201
 Sum of Mulliken charges =  -0.00000

 Dipole moment (field-independent basis, Debye):
    X=              0.9329    Y=              0.7884    Z=              1.5435  Tot=              1.9683

 Test job not archived.
 1\1\GINC-SE208\SP\RHF\Aug-CC-pVDZ\C2H6O2\OHZDE\05-Apr-2025\0\\#t hf au
 g-cc-pvdz iop(5/13=1,5/36=2,99/5=2) pseudo=read geom=check guess=(read
 ,tcheck) scf=(maxcycle=1)\\title\\0,1\C,0,0.459938,0.51904,0.021772\O,
 0,-0.510152,-0.525067,-0.027869\O,0,-1.815721,0.108175,-0.095134\C,0,1
 .818413,-0.154922,0.004015\H,0,0.327982,1.173442,-0.843321\H,0,0.31811
 3,1.110577,0.931373\H,0,-2.200256,-0.182756,0.742877\H,0,1.942232,-0.8
 11711,0.864757\H,0,2.600069,0.604443,0.037023\H,0,1.94874,-0.743562,-0
 .90341\\Version=ES64L-G16RevC.01\State=1-A\HF=-228.9507818\RMSD=3.219e

 Normal termination of Gaussian 16 at Sat Apr  5 22:58:08 2025.
