 Gaussian 16, Revision C.01,

 ----------------------------------------------------------------------
 #t hf aug-cc-pvdz symm=none int=(grid=ultrafine) guess=(read,tcheck) s
 table=(opt,rrhf)
 ----------------------------------------------------------------------
 -----
 title
 -----
 Symbolic Z-matrix:
 Charge =  0 Multiplicity = 1

 SCF Done:  E(RHF) =  -725.784140155     A.U. after   13 cycles
 Normal termination of Gaussian 16 at Sat Apr  5 22:57:16 2025.
 Gaussian 16:  ES64L-G16RevC.01  3-Jul-2019

 ----------------------------------------------------------------------
 #t hf aug-cc-pvdz iop(5/13=1,5/36=2,99/5=2) pseudo=read geom=check gue
 ss=(read,tcheck) scf=(maxcycle=1)
 ----------------------------------------------------------------------
 -----
 title
 -----
 Structure from the checkpoint file:  "ethylestercarbonochloridic_acid.chk"
 Charge =  0 Multiplicity = 1

                         Standard orientation:
 ---------------------------------------------------------------------
 Center     Atomic      Atomic             Coordinates (Angstroms)
 Number     Number       Type             X           Y           Z
 ---------------------------------------------------------------------
      1          8           0        0.000000    0.875253    0.000000
      2          1           0       -1.597409   -0.112403    0.885605
      3          1           0       -1.597409   -0.112403   -0.885605
      4          6           0       -1.403897    0.489442    0.000000
      5          1           0       -1.992692    2.365984    0.884747
      6          1           0       -3.270428    1.523039    0.000000
      7          1           0       -1.992692    2.365984   -0.884747
      8          6           0       -2.208098    1.768537    0.000000
      9          8           0        2.148853    0.326496    0.000000
     10         17           0        0.523259   -1.724654    0.000000
     11          6           0        1.006061    0.021175    0.000000
 ---------------------------------------------------------------------

 SCF Done:  E(RHF) =  -725.890591489     A.U. after    2 cycles

 The electronic state is 1-A'.
 Alpha  occ. eigenvalues -- -103.68714 -20.65111 -20.59480 -11.47168 -11.33116
 Alpha  occ. eigenvalues --  -11.25418 -10.72022  -8.37731  -8.37430  -8.37430
 Alpha  occ. eigenvalues --   -1.45933  -1.37457  -1.17381  -1.06701  -0.90818
 Alpha  occ. eigenvalues --   -0.82393  -0.73903  -0.72623  -0.71138  -0.63478
 Alpha  occ. eigenvalues --   -0.60696  -0.57929  -0.55306  -0.54635  -0.50929
 Alpha  occ. eigenvalues --   -0.50898  -0.48515  -0.47958
 Alpha virt. eigenvalues --    0.02874   0.04606   0.04635   0.05513   0.07355
 Alpha virt. eigenvalues --    0.08983   0.09725   0.10699   0.11704   0.12551
 Alpha virt. eigenvalues --    0.13706   0.13737   0.15266   0.15907   0.15982

 Mulliken charges:
               1
     1  O   -0.455419
     2  H   -0.164270
     3  H   -0.164270
     4  C    0.724134
     5  H   -0.033605
     6  H   -0.003827
     7  H   -0.033605
     8  C    0.238864
     9  O   -0.330485
    10  Cl  -0.123139
    11  C    0.345623
 Sum of Mulliken charges =  -0.00000

 Dipole moment (field-independent basis, Debye):
    X=             -4.6005    Y=              0.0127    Z=              0.0000  Tot=              4.6005

 Test job not archived.
 1\1\GINC-SE165\SP\RHF\Aug-CC-pVDZ\C3H5Cl1O2\OHZDE\05-Apr-2025\0\\#t hf
  aug-cc-pvdz iop(5/13=1,5/36=2,99/5=2) pseudo=read geom=check guess=(r
 ead,tcheck) scf=(maxcycle=1)\\title\\0,1\O,0,0.,0.875253,0.\H,0,-1.597
 409,-0.112403,0.885605\H,0,-1.597409,-0.112403,-0.885605\C,0,-1.403897
 ,0.489442,0.\H,0,-1.992692,2.365984,0.884747\H,0,-3.270428,1.523039,0.
 \H,0,-1.992692,2.365984,-0.884747\C,0,-2.208098,1.768537,0.\O,0,2.1488
 53,0.326496,0.\Cl,0,0.523259,-1.724654,0.\C,0,1.006061,0.021175,0.\\Ve
 rsion=ES64L-G16RevC.01\State=1-A'\HF=-725.8905915\RMSD=3.658e-03\Dipol

 Normal termination of Gaussian 16 at Sat Apr  5 22:58:10 2025.
