 Gaussian 16, Revision C.01,

 ----------------------------------------------------------------------
 #t hf aug-cc-pvdz symm=none int=(grid=ultrafine) guess=(read,tcheck) s
 table=(opt,rrhf)
 ----------------------------------------------------------------------
 -----
 title
 -----
 Symbolic Z-matrix:
 Charge =  0 Multiplicity = 1

 SCF Done:  E(RHF) =  -357.567176836     A.U. after   15 cycles
 Normal termination of Gaussian 16 at Sat Apr  5 22:57:15 2025.
 Gaussian 16:  ES64L-G16RevC.01  3-Jul-2019

 ----------------------------------------------------------------------
 #t hf aug-cc-pvdz iop(5/13=1,5/36=2,99/5=2) pseudo=read geom=check gue
 ss=(read,tcheck) scf=(maxcycle=1)
 ----------------------------------------------------------------------
 -----
 title
 -----
 Structure from the checkpoint file:  "ethylnitrate.chk"
 Charge =  0 Multiplicity = 1

                         Standard orientation:
 ---------------------------------------------------------------------
 Center     Atomic      Atomic             Coordinates (Angstroms)
 Number     Number       Type             X           Y           Z
 ---------------------------------------------------------------------
      1          7           0       -1.111550   -0.313232    0.000000
      2          8           0        0.000000    0.559326    0.000000
      3          8           0       -2.159770    0.267327    0.000000
      4          8           0       -0.888584   -1.499078    0.000000
      5          6           0        2.325207    0.990121    0.000000
      6          6           0        1.286493   -0.110502    0.000000
      7          1           0        3.318360    0.540497    0.000000
      8          1           0        2.232623    1.618133    0.884918
      9          1           0        2.232623    1.618133   -0.884918
     10          1           0        1.356935   -0.741228    0.885089
     11          1           0        1.356935   -0.741228   -0.885089
 ---------------------------------------------------------------------

 SCF Done:  E(RHF) =  -357.681112060     A.U. after    2 cycles

 The electronic state is 1-A'.
 Alpha  occ. eigenvalues --  -20.68077 -20.64536 -20.64371 -15.98780 -11.32692
 Alpha  occ. eigenvalues --  -11.25633  -1.61172  -1.41656  -1.38881  -1.06695
 Alpha  occ. eigenvalues --   -0.93096  -0.86201  -0.81872  -0.79290  -0.77430
 Alpha  occ. eigenvalues --   -0.68044  -0.64886  -0.59965  -0.57461  -0.55718
 Alpha  occ. eigenvalues --   -0.54002  -0.53019  -0.51838  -0.49871
 Alpha virt. eigenvalues --    0.02938   0.04510   0.04583   0.05704   0.07438
 Alpha virt. eigenvalues --    0.08806   0.10337   0.11277   0.12632   0.13962
 Alpha virt. eigenvalues --    0.14958   0.15418   0.16093   0.16136   0.16958

 Mulliken charges:
               1
     1  N    0.851233
     2  O   -0.562968
     3  O   -0.448985
     4  O   -0.418859
     5  C    0.132522
     6  C    0.792073
     7  H   -0.006066
     8  H   -0.040632
     9  H   -0.040632
    10  H   -0.128843
    11  H   -0.128843
 Sum of Mulliken charges =  -0.00000

 Dipole moment (field-independent basis, Debye):
    X=              4.0093    Y=              0.2914    Z=             -0.0000  Tot=              4.0198

 Test job not archived.
 1\1\GINC-SE146\SP\RHF\Aug-CC-pVDZ\C2H5N1O3\OHZDE\05-Apr-2025\0\\#t hf
 aug-cc-pvdz iop(5/13=1,5/36=2,99/5=2) pseudo=read geom=check guess=(re
 ad,tcheck) scf=(maxcycle=1)\\title\\0,1\N,0,-1.11155,-0.313232,0.\O,0,
 0.,0.559326,0.\O,0,-2.15977,0.267328,0.\O,0,-0.888584,-1.499078,0.\C,0
 ,2.325207,0.990121,0.\C,0,1.286493,-0.110502,0.\H,0,3.31836,0.540496,0
 .\H,0,2.232623,1.618133,0.884918\H,0,2.232623,1.618133,-0.884918\H,0,1
 .356935,-0.741228,0.885089\H,0,1.356935,-0.741228,-0.885089\\Version=E
 S64L-G16RevC.01\State=1-A'\HF=-357.6811121\RMSD=3.621e-03\Dipole=1.577

 Normal termination of Gaussian 16 at Sat Apr  5 22:58:09 2025.
