 Gaussian 16, Revision C.01,

 ----------------------------------------------------------------------
 #t hf aug-cc-pvdz symm=none int=(grid=ultrafine) guess=(read,tcheck) s
 table=(opt,rrhf)
 ----------------------------------------------------------------------
 -----
 title
 -----
 Symbolic Z-matrix:
 Charge =  0 Multiplicity = 1

 SCF Done:  E(RHF) =  -186.865977751     A.U. after   14 cycles
 Normal termination of Gaussian 16 at Sat Apr  5 22:58:12 2025.
 Gaussian 16:  ES64L-G16RevC.01  3-Jul-2019

 ----------------------------------------------------------------------
 #t hf aug-cc-pvdz iop(5/13=1,5/36=2,99/5=2) pseudo=read geom=check gue
 ss=(read,tcheck) scf=(maxcycle=1)
 ----------------------------------------------------------------------
 -----
 title
 -----
 Structure from the checkpoint file:  "ethynylhydrazine.chk"
 Charge =  0 Multiplicity = 1

                         Standard orientation:
 ---------------------------------------------------------------------
 Center     Atomic      Atomic             Coordinates (Angstroms)
 Number     Number       Type             X           Y           Z
 ---------------------------------------------------------------------
      1          7           0        0.512308    0.546801   -0.071754
      2          7           0        1.510698   -0.467956   -0.034828
      3          6           0       -0.763301    0.125139   -0.013554
      4          6           0       -1.913127   -0.223847    0.004210
      5          1           0        0.705929    1.370690    0.481900
      6          1           0        1.827585   -0.633181    0.915230
      7          1           0        2.290894   -0.164761   -0.602259
      8          1           0       -2.926878   -0.532418    0.007263
 ---------------------------------------------------------------------

 SCF Done:  E(RHF) =  -186.925428563     A.U. after    2 cycles

 The electronic state is 1-A.
 Alpha  occ. eigenvalues --  -15.68381 -15.66229 -11.27238 -11.22352  -1.26934
 Alpha  occ. eigenvalues --   -1.07182  -0.97694  -0.76069  -0.70686  -0.69329
 Alpha  occ. eigenvalues --   -0.66842  -0.50312  -0.43658  -0.39384  -0.33945
 Alpha virt. eigenvalues --    0.02818   0.04224   0.04827   0.05096   0.11148
 Alpha virt. eigenvalues --    0.12217   0.12923   0.13906   0.15560   0.16315
 Alpha virt. eigenvalues --    0.16610   0.16864   0.17642   0.19017   0.19980

 Mulliken charges:
               1
     1  N   -0.236721
     2  N   -0.150072
     3  C   -0.130165
     4  C    0.728835
     5  H    0.025327
     6  H    0.050517
     7  H    0.078912
     8  H   -0.366633
 Sum of Mulliken charges =   0.00000

 Dipole moment (field-independent basis, Debye):
    X=              2.0738    Y=              1.1552    Z=              1.3837  Tot=              2.7477

 Test job not archived.
 1\1\GINC-SE225\SP\RHF\Aug-CC-pVDZ\C2H4N2\OHZDE\05-Apr-2025\0\\#t hf au
 g-cc-pvdz iop(5/13=1,5/36=2,99/5=2) pseudo=read geom=check guess=(read
 ,tcheck) scf=(maxcycle=1)\\title\\0,1\N,0,0.512308,0.546801,-0.071754\
 N,0,1.510698,-0.467956,-0.034828\C,0,-0.763301,0.125139,-0.013554\C,0,
 -1.913127,-0.223847,0.00421\H,0,0.705929,1.37069,0.4819\H,0,1.827585,-
 0.633181,0.91523\H,0,2.290894,-0.164761,-0.602259\H,0,-2.926878,-0.532
 418,0.007263\\Version=ES64L-G16RevC.01\State=1-A\HF=-186.9254286\RMSD=
 4.654e-03\Dipole=0.8159117,0.4545066,0.544385\Quadrupole=4.0759912,-2.

 Normal termination of Gaussian 16 at Sat Apr  5 22:58:14 2025.
