 Gaussian 16, Revision C.01,

 ----------------------------------------------------------------------
 #t hf aug-cc-pvdz symm=none int=(grid=ultrafine) guess=(read,tcheck) s
 table=(opt,rrhf)
 ----------------------------------------------------------------------
 -----
 title
 -----
 Symbolic Z-matrix:
 Charge =  0 Multiplicity = 1

 SCF Done:  E(RHF) =  -740.339577059     A.U. after   14 cycles
 Normal termination of Gaussian 16 at Sat Apr  5 22:57:39 2025.
 Gaussian 16:  ES64L-G16RevC.01  3-Jul-2019

 ----------------------------------------------------------------------
 #t hf aug-cc-pvdz iop(5/13=1,5/36=2,99/5=2) pseudo=read geom=check gue
 ss=(read,tcheck) scf=(maxcycle=1)
 ----------------------------------------------------------------------
 -----
 title
 -----
 Structure from the checkpoint file:  "ethylmethylestersulfurous_acid.chk"
 Charge =  0 Multiplicity = 1

                         Standard orientation:
 ---------------------------------------------------------------------
 Center     Atomic      Atomic             Coordinates (Angstroms)
 Number     Number       Type             X           Y           Z
 ---------------------------------------------------------------------
      1          6           0        3.202611   -0.606388   -0.196480
      2          6           0        2.057940    0.309114    0.175790
      3          8           0        0.826178   -0.417197   -0.065662
      4         16           0       -0.533353    0.384629    0.403904
      5          8           0       -0.730154    1.533535   -0.482721
      6          8           0       -1.448610   -0.871512   -0.158233
      7          6           0       -2.865846   -0.639006   -0.072695
      8          1           0        3.194710   -1.508286    0.414470
      9          1           0        3.137485   -0.896520   -1.244359
     10          1           0        4.150175   -0.089481   -0.039400
     11          1           0        2.057795    1.214467   -0.432283
     12          1           0        2.110019    0.595329    1.230062
     13          1           0       -3.159148    0.196081   -0.707639
     14          1           0       -3.330310   -1.554113   -0.428240
     15          1           0       -3.174611   -0.452460    0.958160
 ---------------------------------------------------------------------

 SCF Done:  E(RHF) =  -740.507872744     A.U. after    2 cycles

 The electronic state is 1-A.
 Alpha  occ. eigenvalues --  -93.75780 -20.61700 -20.61498 -20.55843 -11.31025
 Alpha  occ. eigenvalues --  -11.30639 -11.23982  -9.02747  -6.37048  -6.36946
 Alpha  occ. eigenvalues --   -6.36460  -1.42647  -1.34015  -1.31273  -1.04374
 Alpha  occ. eigenvalues --   -0.97140  -0.87780  -0.84353  -0.73051  -0.70696
 Alpha  occ. eigenvalues --   -0.69351  -0.66970  -0.63639  -0.60664  -0.60337
 Alpha  occ. eigenvalues --   -0.55864  -0.55618  -0.54480  -0.53291  -0.50035
 Alpha  occ. eigenvalues --   -0.49167  -0.48245  -0.42280
 Alpha virt. eigenvalues --    0.03481   0.04044   0.04945   0.05380   0.05937
 Alpha virt. eigenvalues --    0.06638   0.06800   0.08072   0.09979   0.10949
 Alpha virt. eigenvalues --    0.12103   0.12589   0.13570   0.14015   0.14880

 Mulliken charges:
               1
     1  C    0.284865
     2  C    0.538425
     3  O   -0.837223
     4  S    1.854238
     5  O   -0.932287
     6  O   -0.851291
     7  C    0.761959
     8  H   -0.067279
     9  H   -0.064250
    10  H   -0.039114
    11  H   -0.142381
    12  H   -0.118524
    13  H   -0.069998
    14  H   -0.248801
    15  H   -0.068338
 Sum of Mulliken charges =  -0.00000

 Dipole moment (field-independent basis, Debye):
    X=              0.3864    Y=             -0.9158    Z=              2.0334  Tot=              2.2633

 Test job not archived.
 1\1\GINC-SE106\SP\RHF\Aug-CC-pVDZ\C3H8O3S1\OHZDE\05-Apr-2025\0\\#t hf
 aug-cc-pvdz iop(5/13=1,5/36=2,99/5=2) pseudo=read geom=check guess=(re
 ad,tcheck) scf=(maxcycle=1)\\title\\0,1\C,0,3.202611,-0.606388,-0.1964
 8\C,0,2.05794,0.309114,0.17579\O,0,0.826178,-0.417197,-0.065662\S,0,-0
 .533353,0.384629,0.403904\O,0,-0.730154,1.533535,-0.482721\O,0,-1.4486
 1,-0.871512,-0.158233\C,0,-2.865846,-0.639006,-0.072695\H,0,3.19471,-1
 .508286,0.41447\H,0,3.137485,-0.89652,-1.244359\H,0,4.150175,-0.089481
 ,-0.0394\H,0,2.057795,1.214467,-0.432283\H,0,2.110019,0.595329,1.23006

 Normal termination of Gaussian 16 at Sat Apr  5 22:58:11 2025.
