 Gaussian 16, Revision C.01,

 ----------------------------------------------------------------------
 #t hf aug-cc-pvdz symm=none int=(grid=ultrafine) guess=(read,tcheck) s
 table=(opt,rrhf)
 ----------------------------------------------------------------------
 -----
 title
 -----
 Symbolic Z-matrix:
 Charge =  0 Multiplicity = 1

 SCF Done:  E(RHF) =  -189.307336118     A.U. after   11 cycles
 Normal termination of Gaussian 16 at Sat Apr  5 22:58:12 2025.
 Gaussian 16:  ES64L-G16RevC.01  3-Jul-2019

 ----------------------------------------------------------------------
 #t hf aug-cc-pvdz iop(5/13=1,5/36=2,99/5=2) pseudo=read geom=check gue
 ss=(read,tcheck) scf=(maxcycle=1)
 ----------------------------------------------------------------------
 -----
 title
 -----
 Structure from the checkpoint file:  "ethylenediamine.chk"
 Charge =  0 Multiplicity = 1

                         Standard orientation:
 ---------------------------------------------------------------------
 Center     Atomic      Atomic             Coordinates (Angstroms)
 Number     Number       Type             X           Y           Z
 ---------------------------------------------------------------------
      1          6           0        0.397467    0.657442    0.000000
      2          6           0       -0.397467   -0.657442    0.000000
      3          7           0       -0.397467    1.884333    0.000000
      4          7           0        0.397467   -1.884333    0.000000
      5          1           0        0.996875   -1.932923    0.815009
      6          1           0        0.996875   -1.932923   -0.815009
      7          1           0       -0.996875    1.932923    0.815009
      8          1           0       -0.996875    1.932923   -0.815009
      9          1           0       -1.053507   -0.679296    0.874859
     10          1           0       -1.053507   -0.679296   -0.874859
     11          1           0        1.053507    0.679296    0.874859
     12          1           0        1.053507    0.679296   -0.874859
 ---------------------------------------------------------------------

 SCF Done:  E(RHF) =  -189.367098279     A.U. after    2 cycles

 The electronic state is 1-AG.
 Alpha  occ. eigenvalues --  -15.60729 -15.60728 -11.25806 -11.25753  -1.16418
 Alpha  occ. eigenvalues --   -1.12901  -0.93915  -0.82795  -0.69198  -0.65123
 Alpha  occ. eigenvalues --   -0.60109  -0.60009  -0.54845  -0.52278  -0.48347
 Alpha  occ. eigenvalues --   -0.42390  -0.36211
 Alpha virt. eigenvalues --    0.03663   0.03855   0.04134   0.05255   0.07040
 Alpha virt. eigenvalues --    0.07171   0.07773   0.10547   0.11653   0.12714
 Alpha virt. eigenvalues --    0.14001   0.15278   0.16690   0.17313   0.18983

 Mulliken charges:
               1
     1  C    0.654714
     2  C    0.654714
     3  N   -0.443437
     4  N   -0.443437
     5  H    0.012660
     6  H    0.012660
     7  H    0.012660
     8  H    0.012660
     9  H   -0.118299
    10  H   -0.118299
    11  H   -0.118299
    12  H   -0.118299
 Sum of Mulliken charges =   0.00000

 Dipole moment (field-independent basis, Debye):
    X=              0.0000    Y=              0.0000    Z=              0.0000  Tot=              0.0000

 Test job not archived.
 1\1\GINC-SE085\SP\RHF\Aug-CC-pVDZ\C2H8N2\OHZDE\05-Apr-2025\0\\#t hf au
 g-cc-pvdz iop(5/13=1,5/36=2,99/5=2) pseudo=read geom=check guess=(read
 ,tcheck) scf=(maxcycle=1)\\title\\0,1\C,0,0.397467,0.657442,0.\C,0,-0.
 397467,-0.657442,0.\N,0,-0.397467,1.884333,0.\N,0,0.397467,-1.884333,0
 .\H,0,0.996875,-1.932923,0.815009\H,0,0.996875,-1.932923,-0.815009\H,0
 ,-0.996875,1.932923,0.815009\H,0,-0.996875,1.932923,-0.815009\H,0,-1.0
 53507,-0.679296,0.874859\H,0,-1.053507,-0.679296,-0.874859\H,0,1.05350
 7,0.679296,0.874859\H,0,1.053507,0.679296,-0.874859\\Version=ES64L-G16

 Normal termination of Gaussian 16 at Sat Apr  5 22:58:15 2025.
