 Gaussian 16, Revision C.01,

 ----------------------------------------------------------------------
 #t hf aug-cc-pvdz symm=none int=(grid=ultrafine) guess=(read,tcheck) s
 table=(opt,rrhf)
 ----------------------------------------------------------------------
 -----
 title
 -----
 Symbolic Z-matrix:
 Charge =  0 Multiplicity = 1

 SCF Done:  E(RHF) =  -302.099183444     A.U. after   13 cycles
 Normal termination of Gaussian 16 at Sat Apr  5 22:57:28 2025.
 Gaussian 16:  ES64L-G16RevC.01  3-Jul-2019

 ----------------------------------------------------------------------
 #t hf aug-cc-pvdz iop(5/13=1,5/36=2,99/5=2) pseudo=read geom=check gue
 ss=(read,tcheck) scf=(maxcycle=1)
 ----------------------------------------------------------------------
 -----
 title
 -----
 Structure from the checkpoint file:  "ethylurea.chk"
 Charge =  0 Multiplicity = 1

                         Standard orientation:
 ---------------------------------------------------------------------
 Center     Atomic      Atomic             Coordinates (Angstroms)
 Number     Number       Type             X           Y           Z
 ---------------------------------------------------------------------
      1          6           0       -2.624091   -0.223414    0.002412
      2          1           0       -2.704638   -0.964618    0.799272
      3          1           0       -3.440588    0.487321    0.123953
      4          1           0       -2.754705   -0.730974   -0.953978
      5          6           0       -1.283867    0.494871    0.060801
      6          1           0       -1.250407    1.248579   -0.732964
      7          1           0       -1.188350    1.024473    1.014316
      8          7           0       -0.191108   -0.449863   -0.112715
      9          1           0       -0.395796   -1.431081   -0.024719
     10          7           0        1.480161    1.166240    0.046537
     11          1           0        2.460546    1.348304   -0.083400
     12          1           0        0.852393    1.859667   -0.321530
     13          6           0        1.149206   -0.174524   -0.013340
     14          8           0        1.993836   -1.054739    0.042882
 ---------------------------------------------------------------------

 SCF Done:  E(RHF) =  -302.195966415     A.U. after    2 cycles

 The electronic state is 1-A.
 Alpha  occ. eigenvalues --  -20.51717 -15.64342 -15.64128 -11.38641 -11.29096
 Alpha  occ. eigenvalues --  -11.24799  -1.34755  -1.20842  -1.15598  -1.02374
 Alpha  occ. eigenvalues --   -0.87283  -0.81587  -0.73909  -0.68446  -0.66289
 Alpha  occ. eigenvalues --   -0.63298  -0.60771  -0.59004  -0.55882  -0.53435
 Alpha  occ. eigenvalues --   -0.52649  -0.44817  -0.42184  -0.39256
 Alpha virt. eigenvalues --    0.02624   0.03511   0.04448   0.04812   0.06240
 Alpha virt. eigenvalues --    0.07348   0.07711   0.08694   0.11076   0.11857
 Alpha virt. eigenvalues --    0.12962   0.14024   0.14277   0.15972   0.16029

 Mulliken charges:
               1
     1  C    0.183471
     2  H   -0.054085
     3  H   -0.042536
     4  H   -0.021423
     5  C    0.963553
     6  H   -0.259142
     7  H   -0.219389
     8  N   -0.467570
     9  H   -0.062038
    10  N   -0.161996
    11  H   -0.001700
    12  H    0.016024
    13  C    0.635374
    14  O   -0.508541
 Sum of Mulliken charges =   0.00000

 Dipole moment (field-independent basis, Debye):
    X=             -3.8049    Y=              3.2355    Z=             -0.5751  Tot=              5.0276

 Test job not archived.
 1\1\GINC-SE196\SP\RHF\Aug-CC-pVDZ\C3H8N2O1\OHZDE\05-Apr-2025\0\\#t hf
 aug-cc-pvdz iop(5/13=1,5/36=2,99/5=2) pseudo=read geom=check guess=(re
 ad,tcheck) scf=(maxcycle=1)\\title\\0,1\C,0,-2.624091,-0.223414,0.0024
 12\H,0,-2.704638,-0.964618,0.799272\H,0,-3.440588,0.487321,0.123953\H,
 0,-2.754705,-0.730974,-0.953978\C,0,-1.283867,0.494871,0.060801\H,0,-1
 .250407,1.248579,-0.732964\H,0,-1.18835,1.024473,1.014316\N,0,-0.19110
 8,-0.449863,-0.112715\H,0,-0.395796,-1.431081,-0.024719\N,0,1.480161,1
 .16624,0.046537\H,0,2.460546,1.348304,-0.0834\H,0,0.852393,1.859667,-0

 Normal termination of Gaussian 16 at Sat Apr  5 22:58:09 2025.
