 Gaussian 16, Revision C.01,

 ----------------------------------------------------------------------
 #t hf aug-cc-pvdz symm=none int=(grid=ultrafine) guess=(read,tcheck) s
 table=(opt,rrhf)
 ----------------------------------------------------------------------
 -----
 title
 -----
 Symbolic Z-matrix:
 Charge =  0 Multiplicity = 1

 SCF Done:  E(RHF) =  -622.335421729     A.U. after   16 cycles
 Normal termination of Gaussian 16 at Sat Apr  5 22:57:16 2025.
 Gaussian 16:  ES64L-G16RevC.01  3-Jul-2019

 ----------------------------------------------------------------------
 #t hf aug-cc-pvdz iop(5/13=1,5/36=2,99/5=2) pseudo=read geom=check gue
 ss=(read,tcheck) scf=(maxcycle=1)
 ----------------------------------------------------------------------
 -----
 title
 -----
 Structure from the checkpoint file:  "ethynylthiourea.chk"
 Charge =  0 Multiplicity = 1

                         Standard orientation:
 ---------------------------------------------------------------------
 Center     Atomic      Atomic             Coordinates (Angstroms)
 Number     Number       Type             X           Y           Z
 ---------------------------------------------------------------------
      1         16           0       -2.081317   -0.343098    0.000000
      2          7           0        0.542113   -0.729566    0.000018
      3          7           0       -0.127051    1.471695   -0.000093
      4          6           0       -0.501303    0.182134   -0.000006
      5          6           0        1.846197   -0.419257   -0.000003
      6          6           0        3.006498   -0.108367    0.000000
      7          1           0        0.254221   -1.695995    0.000037
      8          1           0        0.842627    1.744288    0.000376
      9          1           0       -0.845401    2.171629    0.000218
     10          1           0        4.035849    0.147679   -0.000061
 ---------------------------------------------------------------------

 SCF Done:  E(RHF) =  -622.424680253     A.U. after    2 cycles

 The electronic state is 1-A.
 Alpha  occ. eigenvalues --  -93.48337 -15.71090 -15.68179 -11.41037 -11.31380
 Alpha  occ. eigenvalues --  -11.26743  -8.78289  -6.12554  -6.11967  -6.11911
 Alpha  occ. eigenvalues --   -1.31124  -1.20397  -1.05499  -0.98212  -0.85353
 Alpha  occ. eigenvalues --   -0.81559  -0.75686  -0.72577  -0.68573  -0.62220
 Alpha  occ. eigenvalues --   -0.52477  -0.50226  -0.43889  -0.39082  -0.33505
 Alpha  occ. eigenvalues --   -0.32865
 Alpha virt. eigenvalues --    0.02421   0.03672   0.04626   0.06681   0.08829
 Alpha virt. eigenvalues --    0.09114   0.09538   0.11141   0.12023   0.12136
 Alpha virt. eigenvalues --    0.12853   0.13611   0.14697   0.15627   0.16147

 Mulliken charges:
               1
     1  S   -0.039447
     2  N   -0.420886
     3  N   -0.163450
     4  C    0.523376
     5  C   -0.715906
     6  C    1.190833
     7  H    0.008655
     8  H   -0.014819
     9  H    0.023977
    10  H   -0.392334
 Sum of Mulliken charges =   0.00000

 Dipole moment (field-independent basis, Debye):
    X=              4.2087    Y=              1.8666    Z=              0.0010  Tot=              4.6040

 Test job not archived.
 1\1\GINC-SE042\SP\RHF\Aug-CC-pVDZ\C3H4N2S1\OHZDE\05-Apr-2025\0\\#t hf
 aug-cc-pvdz iop(5/13=1,5/36=2,99/5=2) pseudo=read geom=check guess=(re
 ad,tcheck) scf=(maxcycle=1)\\title\\0,1\S,0,-2.081317,-0.343098,0.\N,0
 ,0.542113,-0.729566,0.000018\N,0,-0.127051,1.471695,-0.000093\C,0,-0.5
 01303,0.182134,-0.000006\C,0,1.846197,-0.419257,-0.000003\C,0,3.006498
 ,-0.108367,0.\H,0,0.254221,-1.695995,0.000037\H,0,0.842627,1.744288,0.
 000376\H,0,-0.845401,2.171629,0.000218\H,0,4.035849,0.147679,-0.000061
 \\Version=ES64L-G16RevC.01\State=1-A\HF=-622.4246803\RMSD=7.333e-03\Di

 Normal termination of Gaussian 16 at Sat Apr  5 22:58:09 2025.
