 Gaussian 16, Revision C.01,

 ----------------------------------------------------------------------
 #t hf aug-cc-pvdz symm=none int=(grid=ultrafine) guess=(read,tcheck) s
 table=(opt,rrhf)
 ----------------------------------------------------------------------
 -----
 title
 -----
 Symbolic Z-matrix:
 Charge =  0 Multiplicity = 1

 SCF Done:  E(RHF) =  -134.272361615     A.U. after   12 cycles
 Normal termination of Gaussian 16 at Sat Apr  5 22:58:11 2025.
 Gaussian 16:  ES64L-G16RevC.01  3-Jul-2019

 ----------------------------------------------------------------------
 #t hf aug-cc-pvdz iop(5/13=1,5/36=2,99/5=2) pseudo=read geom=check gue
 ss=(read,tcheck) scf=(maxcycle=1)
 ----------------------------------------------------------------------
 -----
 title
 -----
 Structure from the checkpoint file:  "ethylamine.chk"
 Charge =  0 Multiplicity = 1

                         Standard orientation:
 ---------------------------------------------------------------------
 Center     Atomic      Atomic             Coordinates (Angstroms)
 Number     Number       Type             X           Y           Z
 ---------------------------------------------------------------------
      1          6           0        1.217924   -0.353536    0.000000
      2          6           0        0.000000    0.571510    0.000000
      3          7           0       -1.306888   -0.088652    0.000000
      4          1           0        1.220384   -0.996853    0.882589
      5          1           0        1.220384   -0.996853   -0.882589
      6          1           0        2.148415    0.218943    0.000000
      7          1           0        0.037134    1.227011   -0.872854
      8          1           0        0.037134    1.227011    0.872854
      9          1           0       -1.411390   -0.683272    0.813701
     10          1           0       -1.411390   -0.683272   -0.813701
 ---------------------------------------------------------------------

 SCF Done:  E(RHF) =  -134.316759490     A.U. after    2 cycles

 The electronic state is 1-A'.
 Alpha  occ. eigenvalues --  -15.60184 -11.25684 -11.22381  -1.14441  -0.97842
 Alpha  occ. eigenvalues --   -0.82921  -0.67171  -0.59873  -0.57108  -0.56472
 Alpha  occ. eigenvalues --   -0.50733  -0.48411  -0.38158
 Alpha virt. eigenvalues --    0.03584   0.04568   0.04696   0.05280   0.07605
 Alpha virt. eigenvalues --    0.08049   0.08259   0.11941   0.12585   0.15213
 Alpha virt. eigenvalues --    0.16529   0.16917   0.17428   0.18218   0.19980

 Mulliken charges:
               1
     1  C    0.292324
     2  C    0.557834
     3  N   -0.408410
     4  H   -0.066912
     5  H   -0.066912
     6  H   -0.074427
     7  H   -0.124919
     8  H   -0.124919
     9  H    0.008170
    10  H    0.008170
 Sum of Mulliken charges =   0.00000

 Dipole moment (field-independent basis, Debye):
    X=              1.0017    Y=             -0.9245    Z=              0.0000  Tot=              1.3631

 Test job not archived.
 1\1\GINC-SE028\SP\RHF\Aug-CC-pVDZ\C2H7N1\OHZDE\05-Apr-2025\0\\#t hf au
 g-cc-pvdz iop(5/13=1,5/36=2,99/5=2) pseudo=read geom=check guess=(read
 ,tcheck) scf=(maxcycle=1)\\title\\0,1\C,0,1.217924,-0.353536,0.\C,0,0.
 ,0.57151,0.\N,0,-1.306888,-0.088652,0.\H,0,1.220384,-0.996853,0.882589
 \H,0,1.220384,-0.996853,-0.882589\H,0,2.148415,0.218943,0.\H,0,0.03713
 4,1.227011,-0.872854\H,0,0.037134,1.227011,0.872854\H,0,-1.41139,-0.68
 3272,0.813701\H,0,-1.41139,-0.683272,-0.813701\\Version=ES64L-G16RevC.
 01\State=1-A'\HF=-134.3167595\RMSD=2.931e-03\Dipole=0.3940879,-0.36373

 Normal termination of Gaussian 16 at Sat Apr  5 22:58:14 2025.
