 Gaussian 16, Revision C.01,

 ----------------------------------------------------------------------
 #t hf aug-cc-pvdz symm=none int=(grid=ultrafine) guess=(read,tcheck) s
 table=(opt,rrhf)
 ----------------------------------------------------------------------
 -----
 title
 -----
 Symbolic Z-matrix:
 Charge =  0 Multiplicity = 1

 SCF Done:  E(RHF) =  -264.432684992     A.U. after   15 cycles
 Normal termination of Gaussian 16 at Sat Apr  5 22:58:12 2025.
 Gaussian 16:  ES64L-G16RevC.01  3-Jul-2019

 ----------------------------------------------------------------------
 #t hf aug-cc-pvdz iop(5/13=1,5/36=2,99/5=2) pseudo=read geom=check gue
 ss=(read,tcheck) scf=(maxcycle=1)
 ----------------------------------------------------------------------
 -----
 title
 -----
 Structure from the checkpoint file:  "ethynylformate.chk"
 Charge =  0 Multiplicity = 1

                         Standard orientation:
 ---------------------------------------------------------------------
 Center     Atomic      Atomic             Coordinates (Angstroms)
 Number     Number       Type             X           Y           Z
 ---------------------------------------------------------------------
      1          8           0       -0.029545   -0.591156   -0.000011
      2          8           0       -2.183481    0.034844   -0.000001
      3          6           0       -1.049749    0.363965    0.000007
      4          6           0        1.205881   -0.154845   -0.000002
      5          6           0        2.343204    0.213694    0.000005
      6          1           0       -0.647409    1.384949    0.000027
      7          1           0        3.355602    0.528657    0.000011
 ---------------------------------------------------------------------

 SCF Done:  E(RHF) =  -264.521719120     A.U. after    2 cycles

 The electronic state is 1-A.
 Alpha  occ. eigenvalues --  -20.68684 -20.61535 -11.44062 -11.33435 -11.26367
 Alpha  occ. eigenvalues --   -1.47765  -1.39944  -1.05270  -0.93568  -0.84056
 Alpha  occ. eigenvalues --   -0.73250  -0.72825  -0.70854  -0.66551  -0.57290
 Alpha  occ. eigenvalues --   -0.52620  -0.42653  -0.41031
 Alpha virt. eigenvalues --    0.02962   0.04402   0.07367   0.07798   0.09188
 Alpha virt. eigenvalues --    0.10770   0.11216   0.13099   0.13452   0.14695
 Alpha virt. eigenvalues --    0.15120   0.15507   0.15793   0.19907   0.21047

 Mulliken charges:
               1
     1  O   -0.517379
     2  O   -0.348689
     3  C    0.772731
     4  C   -0.396413
     5  C    0.975206
     6  H   -0.102604
     7  H   -0.382852
 Sum of Mulliken charges =  -0.00000

 Dipole moment (field-independent basis, Debye):
    X=              2.5235    Y=              2.1817    Z=              0.0000  Tot=              3.3358

 Test job not archived.
 1\1\GINC-SE214\SP\RHF\Aug-CC-pVDZ\C3H2O2\OHZDE\05-Apr-2025\0\\#t hf au
 g-cc-pvdz iop(5/13=1,5/36=2,99/5=2) pseudo=read geom=check guess=(read
 ,tcheck) scf=(maxcycle=1)\\title\\0,1\O,0,-0.029545,-0.591156,-0.00001
 1\O,0,-2.183481,0.034844,-0.000001\C,0,-1.049749,0.363965,0.000007\C,0
 ,1.205881,-0.154845,-0.000002\C,0,2.343204,0.213694,0.000005\H,0,-0.64
 7409,1.384949,0.000027\H,0,3.355602,0.528657,0.000011\\Version=ES64L-G
 16RevC.01\State=1-A\HF=-264.5217191\RMSD=6.250e-03\Dipole=0.9928155,0.
 8583525,0.0000178\Quadrupole=-1.0956589,0.8595892,0.2360698,0.0153392,

 Normal termination of Gaussian 16 at Sat Apr  5 22:58:14 2025.
