 Gaussian 16, Revision C.01,

 ----------------------------------------------------------------------
 #t hf aug-cc-pvdz symm=none int=(grid=ultrafine) guess=(read,tcheck) s
 table=(opt,rrhf)
 ----------------------------------------------------------------------
 -----
 title
 -----
 Symbolic Z-matrix:
 Charge =  0 Multiplicity = 1

 SCF Done:  E(RHF) =  -305.916849755     A.U. after   13 cycles
 Normal termination of Gaussian 16 at Sat Apr  5 22:56:53 2025.
 Gaussian 16:  ES64L-G16RevC.01  3-Jul-2019

 ----------------------------------------------------------------------
 #t hf aug-cc-pvdz iop(5/13=1,5/36=2,99/5=2) pseudo=read geom=check gue
 ss=(read,tcheck) scf=(maxcycle=1)
 ----------------------------------------------------------------------
 -----
 title
 -----
 Structure from the checkpoint file:  "ethylacetate.chk"
 Charge =  0 Multiplicity = 1

                         Standard orientation:
 ---------------------------------------------------------------------
 Center     Atomic      Atomic             Coordinates (Angstroms)
 Number     Number       Type             X           Y           Z
 ---------------------------------------------------------------------
      1          6           0        0.909826   -0.524796    0.000000
      2          6           0        2.312486    0.022275    0.000000
      3          6           0       -2.229581    1.332555    0.000000
      4          6           0       -1.391432    0.074275    0.000000
      5          8           0        0.616627   -1.694503    0.000000
      6          8           0        0.000000    0.471377    0.000000
      7          1           0        2.468339    0.648836    0.878091
      8          1           0        2.468339    0.648836   -0.878091
      9          1           0        3.022001   -0.799004    0.000000
     10          1           0       -3.287649    1.068276    0.000000
     11          1           0       -2.028233    1.937197    0.884062
     12          1           0       -2.028233    1.937197   -0.884062
     13          1           0       -1.577685   -0.541093   -0.880090
     14          1           0       -1.577685   -0.541093    0.880090
 ---------------------------------------------------------------------

 SCF Done:  E(RHF) =  -306.017558635     A.U. after    2 cycles

 The electronic state is 1-A'.
 Alpha  occ. eigenvalues --  -20.61181 -20.55721 -11.39199 -11.29879 -11.24961
 Alpha  occ. eigenvalues --  -11.23574  -1.41546  -1.32107  -1.05252  -0.99669
 Alpha  occ. eigenvalues --   -0.86898  -0.78754  -0.70164  -0.69386  -0.67614
 Alpha  occ. eigenvalues --   -0.61445  -0.58679  -0.57243  -0.55741  -0.54569
 Alpha  occ. eigenvalues --   -0.51901  -0.51115  -0.47198  -0.46310
 Alpha virt. eigenvalues --    0.03338   0.04284   0.04980   0.05183   0.06488
 Alpha virt. eigenvalues --    0.06666   0.07078   0.07975   0.10481   0.12394
 Alpha virt. eigenvalues --    0.12599   0.14154   0.14425   0.15688   0.15904

 Mulliken charges:
               1
     1  C    0.208067
     2  C    0.316623
     3  C    0.267919
     4  C    0.651475
     5  O   -0.454918
     6  O   -0.576804
     7  H    0.025858
     8  H    0.025858
     9  H   -0.028780
    10  H   -0.024350
    11  H   -0.047095
    12  H   -0.047095
    13  H   -0.158379
    14  H   -0.158379
 Sum of Mulliken charges =  -0.00000

 Dipole moment (field-independent basis, Debye):
    X=             -0.1636    Y=              2.3031    Z=              0.0000  Tot=              2.3089

 Test job not archived.
 1\1\GINC-SE208\SP\RHF\Aug-CC-pVDZ\C4H8O2\OHZDE\05-Apr-2025\0\\#t hf au
 g-cc-pvdz iop(5/13=1,5/36=2,99/5=2) pseudo=read geom=check guess=(read
 ,tcheck) scf=(maxcycle=1)\\title\\0,1\C,0,0.909826,-0.524796,0.\C,0,2.
 312486,0.022275,0.\C,0,-2.229581,1.332555,0.\C,0,-1.391432,0.074275,0.
 \O,0,0.616627,-1.694503,0.\O,0,0.,0.471377,0.\H,0,2.468339,0.648836,0.
 878091\H,0,2.468339,0.648836,-0.878091\H,0,3.022001,-0.799004,0.\H,0,-
 3.287649,1.068275,0.\H,0,-2.028233,1.937197,0.884062\H,0,-2.028233,1.9
 37197,-0.884062\H,0,-1.577685,-0.541093,-0.88009\H,0,-1.577685,-0.5410

 Normal termination of Gaussian 16 at Sat Apr  5 22:56:56 2025.
