 Gaussian 16, Revision C.01,

 ----------------------------------------------------------------------
 #t hf aug-cc-pvdz symm=none int=(grid=ultrafine) guess=(read,tcheck) s
 table=(opt,rrhf)
 ----------------------------------------------------------------------
 -----
 title
 -----
 Symbolic Z-matrix:
 Charge =  0 Multiplicity = 1

 SCF Done:  E(RHF) =  -227.326419495     A.U. after   13 cycles
 Normal termination of Gaussian 16 at Sat Apr  5 22:58:12 2025.
 Gaussian 16:  ES64L-G16RevC.01  3-Jul-2019

 ----------------------------------------------------------------------
 #t hf aug-cc-pvdz iop(5/13=1,5/36=2,99/5=2) pseudo=read geom=check gue
 ss=(read,tcheck) scf=(maxcycle=1)
 ----------------------------------------------------------------------
 -----
 title
 -----
 Structure from the checkpoint file:  "ethynoxyethyne.chk"
 Charge =  0 Multiplicity = 1

                         Standard orientation:
 ---------------------------------------------------------------------
 Center     Atomic      Atomic             Coordinates (Angstroms)
 Number     Number       Type             X           Y           Z
 ---------------------------------------------------------------------
      1          8           0        0.000001    0.762059   -0.000003
      2          6           0        1.132678    0.087612   -0.000010
      3          6           0       -1.132682    0.087622    0.000031
      4          6           0        2.202434   -0.441297    0.000011
      5          6           0       -2.202430   -0.441306   -0.000042
      6          1           0        3.145026   -0.926136   -0.000026
      7          1           0       -3.145031   -0.926124    0.000107
 ---------------------------------------------------------------------

 SCF Done:  E(RHF) =  -227.405440831     A.U. after    2 cycles

 The electronic state is 1-A.
 Alpha  occ. eigenvalues --  -20.70549 -11.33390 -11.33351 -11.26014 -11.26013
 Alpha  occ. eigenvalues --   -1.47698  -1.07191  -1.03110  -0.90824  -0.75527
 Alpha  occ. eigenvalues --   -0.72380  -0.72117  -0.71501  -0.44294  -0.42745
 Alpha  occ. eigenvalues --   -0.42465  -0.38797
 Alpha virt. eigenvalues --    0.03283   0.03615   0.07620   0.09829   0.10597
 Alpha virt. eigenvalues --    0.10840   0.11033   0.11666   0.13071   0.13302
 Alpha virt. eigenvalues --    0.13662   0.14775   0.16730   0.18987   0.19955

 Mulliken charges:
               1
     1  O   -0.432696
     2  C   -0.514415
     3  C   -0.514407
     4  C    1.129103
     5  C    1.129111
     6  H   -0.398351
     7  H   -0.398346
 Sum of Mulliken charges =  -0.00000

 Dipole moment (field-independent basis, Debye):
    X=             -0.0000    Y=             -1.0002    Z=              0.0001  Tot=              1.0002

 Test job not archived.
 1\1\GINC-SE188\SP\RHF\Aug-CC-pVDZ\C4H2O1\OHZDE\05-Apr-2025\0\\#t hf au
 g-cc-pvdz iop(5/13=1,5/36=2,99/5=2) pseudo=read geom=check guess=(read
 ,tcheck) scf=(maxcycle=1)\\title\\0,1\O,0,0.000001,0.762059,-0.000003\
 C,0,1.132678,0.087612,-0.00001\C,0,-1.132682,0.087622,0.000031\C,0,2.2
 02434,-0.441297,0.000011\C,0,-2.20243,-0.441306,-0.000042\H,0,3.145026
 ,-0.926136,-0.000026\H,0,-3.145031,-0.926124,0.000107\\Version=ES64L-G
 16RevC.01\State=1-A\HF=-227.4054408\RMSD=9.465e-03\Dipole=-0.0000028,-
 0.3934959,0.0000565\Quadrupole=5.2440647,-2.0773894,-3.1666753,-0.0000

 Normal termination of Gaussian 16 at Sat Apr  5 22:58:14 2025.
