 Gaussian 16, Revision C.01,

 ----------------------------------------------------------------------
 #t hf aug-cc-pvdz symm=none int=(grid=ultrafine) guess=(read,tcheck) s
 table=(opt,rrhf)
 ----------------------------------------------------------------------
 -----
 title
 -----
 Symbolic Z-matrix:
 Charge =  0 Multiplicity = 1

 SCF Done:  E(RHF) =  -871.895028279     A.U. after   15 cycles
 Normal termination of Gaussian 16 at Sat Apr  5 22:58:11 2025.
 Gaussian 16:  ES64L-G16RevC.01  3-Jul-2019

 ----------------------------------------------------------------------
 #t hf aug-cc-pvdz iop(5/13=1,5/36=2,99/5=2) pseudo=read geom=check gue
 ss=(read,tcheck) scf=(maxcycle=1)
 ----------------------------------------------------------------------
 -----
 title
 -----
 Structure from the checkpoint file:  "ethynyl_hydrodisulfide.chk"
 Charge =  0 Multiplicity = 1

                         Standard orientation:
 ---------------------------------------------------------------------
 Center     Atomic      Atomic             Coordinates (Angstroms)
 Number     Number       Type             X           Y           Z
 ---------------------------------------------------------------------
      1         16           0        0.004284    0.891567    0.012200
      2         16           0       -1.557225   -0.508946   -0.087104
      3          6           0        1.406295   -0.051449   -0.001347
      4          6           0        2.452012   -0.649297   -0.003520
      5          1           0       -1.672295   -0.734996    1.238559
      6          1           0        3.369516   -1.182461   -0.010889
 ---------------------------------------------------------------------

 SCF Done:  E(RHF) =  -871.963008466     A.U. after    2 cycles

 The electronic state is 1-A.
 Alpha  occ. eigenvalues --  -93.60367 -93.58285 -11.27959 -11.26291  -8.89785
 Alpha  occ. eigenvalues --   -8.87859  -6.23950  -6.23679  -6.23282  -6.21968
 Alpha  occ. eigenvalues --   -6.21731  -6.21364  -1.09332  -1.01584  -0.90801
 Alpha  occ. eigenvalues --   -0.73668  -0.63539  -0.56805  -0.51536  -0.47586
 Alpha  occ. eigenvalues --   -0.40700  -0.39539  -0.35611
 Alpha virt. eigenvalues --    0.03566   0.04101   0.05679   0.07901   0.09383
 Alpha virt. eigenvalues --    0.10210   0.11056   0.12082   0.12312   0.14413
 Alpha virt. eigenvalues --    0.14725   0.15545   0.16002   0.16854   0.17130

 Mulliken charges:
               1
     1  S    0.012911
     2  S   -0.056334
     3  C   -0.034648
     4  C    0.302128
     5  H    0.149087
     6  H   -0.373143
 Sum of Mulliken charges =  -0.00000

 Dipole moment (field-independent basis, Debye):
    X=              0.3324    Y=             -0.8301    Z=              0.8498  Tot=              1.2336

 Test job not archived.
 1\1\GINC-SE198\SP\RHF\Aug-CC-pVDZ\C2H2S2\OHZDE\05-Apr-2025\0\\#t hf au
 g-cc-pvdz iop(5/13=1,5/36=2,99/5=2) pseudo=read geom=check guess=(read
 ,tcheck) scf=(maxcycle=1)\\title\\0,1\S,0,0.004284,0.891567,0.0122\S,0
 ,-1.557225,-0.508946,-0.087104\C,0,1.406295,-0.051449,-0.001347\C,0,2.
 452012,-0.649297,-0.00352\H,0,-1.672295,-0.734996,1.238559\H,0,3.36951
 6,-1.182461,-0.010889\\Version=ES64L-G16RevC.01\State=1-A\HF=-871.9630
 085\RMSD=1.154e-02\Dipole=0.13079,-0.3265701,0.3343508\Quadrupole=2.96
 72234,-1.2379912,-1.7292322,-1.0365155,-1.3108492,-0.7492107\PG=C01 [X

 Normal termination of Gaussian 16 at Sat Apr  5 22:58:13 2025.
