 Gaussian 16, Revision C.01,

 ----------------------------------------------------------------------
 #t hf aug-cc-pvdz symm=none int=(grid=ultrafine) guess=(read,tcheck) s
 table=(opt,rrhf)
 ----------------------------------------------------------------------
 -----
 title
 -----
 Symbolic Z-matrix:
 Charge =  0 Multiplicity = 1

 SCF Done:  E(RHF) =  -341.237339025     A.U. after   14 cycles
 Normal termination of Gaussian 16 at Sat Apr  5 22:58:20 2025.
 Gaussian 16:  ES64L-G16RevC.01  3-Jul-2019

 ----------------------------------------------------------------------
 #t hf aug-cc-pvdz iop(5/13=1,5/36=2,99/5=2) pseudo=read geom=check gue
 ss=(read,tcheck) scf=(maxcycle=1)
 ----------------------------------------------------------------------
 -----
 title
 -----
 Structure from the checkpoint file:  "ethynoxymethoxyacetylene.chk"
 Charge =  0 Multiplicity = 1

                         Standard orientation:
 ---------------------------------------------------------------------
 Center     Atomic      Atomic             Coordinates (Angstroms)
 Number     Number       Type             X           Y           Z
 ---------------------------------------------------------------------
      1          8           0        1.114134   -0.637896    0.000386
      2          8           0       -1.114134   -0.637904   -0.000379
      3          6           0       -0.000004    0.243836    0.000033
      4          6           0        2.273010   -0.042046    0.000077
      5          6           0       -2.273014   -0.042063   -0.000138
      6          6           0        3.353062    0.474479   -0.000141
      7          6           0       -3.353053    0.474491    0.000162
      8          1           0       -0.000326    0.856536    0.903526
      9          1           0        0.000313    0.856601   -0.903415
     10          1           0        4.314214    0.920528   -0.000423
     11          1           0       -4.314202    0.920549    0.000292
 ---------------------------------------------------------------------

 SCF Done:  E(RHF) =  -341.353314608     A.U. after    2 cycles

 The electronic state is 1-A.
 Alpha  occ. eigenvalues --  -20.66305 -20.66303 -11.40632 -11.32223 -11.32222
 Alpha  occ. eigenvalues --  -11.24867 -11.24867  -1.46348  -1.41230  -1.06235
 Alpha  occ. eigenvalues --   -1.02857  -0.98469  -0.83628  -0.78956  -0.76202
 Alpha  occ. eigenvalues --   -0.72411  -0.71737  -0.68909  -0.65307  -0.62654
 Alpha  occ. eigenvalues --   -0.55031  -0.41637  -0.40801  -0.39523  -0.39352
 Alpha virt. eigenvalues --    0.03142   0.03653   0.05105   0.05612   0.07913
 Alpha virt. eigenvalues --    0.09217   0.10546   0.11361   0.11384   0.11646
 Alpha virt. eigenvalues --    0.12796   0.14130   0.14453   0.14468   0.15085

 Mulliken charges:
               1
     1  O   -0.451091
     2  O   -0.451093
     3  C    1.036822
     4  C   -0.462146
     5  C   -0.462102
     6  C    1.014623
     7  C    1.014568
     8  H   -0.202469
     9  H   -0.202471
    10  H   -0.417329
    11  H   -0.417311
 Sum of Mulliken charges =  -0.00000

 Dipole moment (field-independent basis, Debye):
    X=             -0.0000    Y=              2.5845    Z=             -0.0001  Tot=              2.5845

 Test job not archived.
 1\1\GINC-SE199\SP\RHF\Aug-CC-pVDZ\C5H4O2\OHZDE\05-Apr-2025\0\\#t hf au
 g-cc-pvdz iop(5/13=1,5/36=2,99/5=2) pseudo=read geom=check guess=(read
 ,tcheck) scf=(maxcycle=1)\\title\\0,1\O,0,1.114134,-0.637896,0.000386\
 O,0,-1.114134,-0.637904,-0.000379\C,0,-0.000004,0.243836,0.000033\C,0,
 2.27301,-0.042046,0.000077\C,0,-2.273014,-0.042063,-0.000138\C,0,3.353
 062,0.474479,-0.000141\C,0,-3.353053,0.474491,0.000162\H,0,-0.000326,0
 .856536,0.903526\H,0,0.000313,0.856601,-0.903415\H,0,4.314214,0.920528
 ,-0.000423\H,0,-4.314202,0.920549,0.000292\\Version=ES64L-G16RevC.01\S

 Normal termination of Gaussian 16 at Sat Apr  5 22:58:24 2025.
