 Gaussian 16, Revision C.01,

 ----------------------------------------------------------------------
 #t hf aug-cc-pvdz symm=none int=(grid=ultrafine) guess=(read,tcheck) s
 table=(opt,rrhf)
 ----------------------------------------------------------------------
 -----
 title
 -----
 Symbolic Z-matrix:
 Charge =  0 Multiplicity = 1

 SCF Done:  E(RHF) =  -308.807391111     A.U. after   14 cycles
 Normal termination of Gaussian 16 at Sat Apr  5 22:59:05 2025.
 Gaussian 16:  ES64L-G16RevC.01  3-Jul-2019

 ----------------------------------------------------------------------
 #t hf aug-cc-pvdz iop(5/13=1,5/36=2,99/5=2) pseudo=read geom=check gue
 ss=(read,tcheck) scf=(maxcycle=1)
 ----------------------------------------------------------------------
 -----
 title
 -----
 Structure from the checkpoint file:  "ethylbenzene.chk"
 Charge =  0 Multiplicity = 1

                         Standard orientation:
 ---------------------------------------------------------------------
 Center     Atomic      Atomic             Coordinates (Angstroms)
 Number     Number       Type             X           Y           Z
 ---------------------------------------------------------------------
      1          6           0        0.232915   -2.318566   -0.000000
      2          6           0        0.234056   -1.617939    1.200385
      3          6           0        0.234056   -1.617939   -1.200385
      4          6           0        0.234056   -0.228276    1.197195
      5          6           0        0.234056   -0.228276   -1.197195
      6          6           0        0.231803    0.488886    0.000000
      7          6           0       -1.235575    2.562053   -0.000000
      8          6           0        0.192517    1.998175    0.000000
      9          1           0        0.236268   -3.400335   -0.000000
     10          1           0        0.239777   -2.153732    2.140626
     11          1           0        0.239777   -2.153732   -2.140626
     12          1           0        0.241085    0.308775    2.138169
     13          1           0        0.241085    0.308775   -2.138169
     14          1           0       -1.787127    2.229520   -0.880348
     15          1           0       -1.223850    3.653141   -0.000000
     16          1           0       -1.787127    2.229520    0.880348
     17          1           0        0.726399    2.374684    0.875281
     18          1           0        0.726399    2.374684   -0.875281
 ---------------------------------------------------------------------

 SCF Done:  E(RHF) =  -308.901143810     A.U. after    2 cycles

 The electronic state is 1-A'.
 Alpha  occ. eigenvalues --  -11.24545 -11.24121 -11.24104 -11.23734 -11.23675
 Alpha  occ. eigenvalues --  -11.23660 -11.23651 -11.22612  -1.14494  -1.05517
 Alpha  occ. eigenvalues --   -1.00675  -0.97793  -0.86390  -0.82714  -0.79061
 Alpha  occ. eigenvalues --   -0.69747  -0.64656  -0.63715  -0.59642  -0.59116
 Alpha  occ. eigenvalues --   -0.58230  -0.54968  -0.52418  -0.50263  -0.48823
 Alpha  occ. eigenvalues --   -0.48058  -0.47664  -0.33771  -0.32746
 Alpha virt. eigenvalues --    0.03462   0.03928   0.04129   0.05236   0.05476
 Alpha virt. eigenvalues --    0.05804   0.07222   0.07481   0.08240   0.08612
 Alpha virt. eigenvalues --    0.10804   0.11130   0.11331   0.12347   0.13794

 Mulliken charges:
               1
     1  C    0.591667
     2  C    0.240787
     3  C    0.240787
     4  C    0.449255
     5  C    0.449255
     6  C    0.679843
     7  C    0.318496
     8  C    0.116480
     9  H   -0.444837
    10  H   -0.446540
    11  H   -0.446540
    12  H   -0.598209
    13  H   -0.598209
    14  H   -0.101670
    15  H   -0.077776
    16  H   -0.101670
    17  H   -0.135559
    18  H   -0.135559
 Sum of Mulliken charges =  -0.00000

 Dipole moment (field-independent basis, Debye):
    X=             -0.0552    Y=              0.4160    Z=             -0.0000  Tot=              0.4196

 Test job not archived.
 1\1\GINC-SE036\SP\RHF\Aug-CC-pVDZ\C8H10\OHZDE\05-Apr-2025\0\\#t hf aug
 -cc-pvdz iop(5/13=1,5/36=2,99/5=2) pseudo=read geom=check guess=(read,
 tcheck) scf=(maxcycle=1)\\title\\0,1\C,0,0.232915,-2.318566,0.\C,0,0.2
 34056,-1.617939,1.200385\C,0,0.234056,-1.617939,-1.200385\C,0,0.234056
 ,-0.228276,1.197195\C,0,0.234056,-0.228276,-1.197195\C,0,0.231803,0.48
 8886,0.\C,0,-1.235575,2.562053,0.\C,0,0.192517,1.998175,0.\H,0,0.23626
 8,-3.400335,0.\H,0,0.239777,-2.153732,2.140626\H,0,0.239777,-2.153732,
 -2.140626\H,0,0.241085,0.308775,2.138169\H,0,0.241085,0.308775,-2.1381

 Normal termination of Gaussian 16 at Sat Apr  5 23:00:02 2025.
