 Gaussian 16, Revision C.01,

 ----------------------------------------------------------------------
 #t hf aug-cc-pvdz symm=none int=(grid=ultrafine) guess=(read,tcheck) s
 table=(opt,rrhf)
 ----------------------------------------------------------------------
 -----
 title
 -----
 Symbolic Z-matrix:
 Charge =  0 Multiplicity = 1

 SCF Done:  E(RHF) =  -344.956162633     A.U. after   13 cycles

 1\1\GINC-SE013\Stability\RHF\Aug-CC-pVDZ\C5H10O2\OHZDE\05-Apr-2025\0\\
 #t hf aug-cc-pvdz symm=none int=(grid=ultrafine) guess=(read,tcheck) s
 table=(opt,rrhf)\\title\\0,1\C,0,0.,0.540816,0.\C,0,1.243175,2.7516,0.
 \C,0,-0.679664,-3.043361,0.\C,0,1.345131,1.232352,0.\C,0,-1.070032,-1.
 582821,0.\O,0,-1.072742,1.091993,0.\O,0,0.146706,-0.800498,0.\H,0,0.70
 6894,3.109292,0.877772\H,0,2.237781,3.19741,0.\H,0,0.706894,3.109292,-
 0.877772\H,0,-1.57723,-3.662892,0.\H,0,-0.09276,-3.292082,-0.884003\H,
 0,-0.09276,-3.292082,0.884003\H,0,1.899563,0.870429,0.869102\H,0,1.899

 Normal termination of Gaussian 16 at Sat Apr  5 22:57:09 2025.
 Gaussian 16:  ES64L-G16RevC.01  3-Jul-2019

 ----------------------------------------------------------------------
 #t hf aug-cc-pvdz iop(5/13=1,5/36=2,99/5=2) pseudo=read geom=check gue
 ss=(read,tcheck) scf=(maxcycle=1)
 ----------------------------------------------------------------------
 -----
 title
 -----
 Structure from the checkpoint file:  "ethyl_propanoate.chk"
 Charge =  0 Multiplicity = 1

                         Standard orientation:
 ---------------------------------------------------------------------
 Center     Atomic      Atomic             Coordinates (Angstroms)
 Number     Number       Type             X           Y           Z
 ---------------------------------------------------------------------
      1          6           0        0.000000    0.540816    0.000000
      2          6           0        1.243175    2.751600    0.000000
      3          6           0       -0.679664   -3.043361    0.000000
      4          6           0        1.345131    1.232352    0.000000
      5          6           0       -1.070032   -1.582821    0.000000
      6          8           0       -1.072742    1.091993    0.000000
      7          8           0        0.146706   -0.800498    0.000000
      8          1           0        0.706894    3.109292    0.877772
      9          1           0        2.237781    3.197410    0.000000
     10          1           0        0.706894    3.109292   -0.877772
     11          1           0       -1.577230   -3.662892    0.000000
     12          1           0       -0.092760   -3.292082   -0.884003
     13          1           0       -0.092760   -3.292082    0.884003
     14          1           0        1.899563    0.870429    0.869102
     15          1           0        1.899563    0.870429   -0.869102
     16          1           0       -1.655657   -1.316641    0.880006
     17          1           0       -1.655657   -1.316641   -0.880006
 ---------------------------------------------------------------------

 SCF Done:  E(RHF) =  -345.068794245     A.U. after    2 cycles

 The electronic state is 1-A'.
 Alpha  occ. eigenvalues --  -20.61003 -20.55620 -11.38771 -11.29788 -11.25185
 Alpha  occ. eigenvalues --  -11.23501 -11.22890  -1.41396  -1.31987  -1.06390
 Alpha  occ. eigenvalues --   -1.02564  -0.90903  -0.84574  -0.77924  -0.70604
 Alpha  occ. eigenvalues --   -0.69424  -0.67474  -0.63180  -0.59185  -0.57756
 Alpha  occ. eigenvalues --   -0.56132  -0.53041  -0.52446  -0.51831  -0.51671
 Alpha  occ. eigenvalues --   -0.49784  -0.47026  -0.45815
 Alpha virt. eigenvalues --    0.03327   0.04005   0.04842   0.04918   0.05935
 Alpha virt. eigenvalues --    0.06161   0.06297   0.07400   0.08198   0.09109
 Alpha virt. eigenvalues --    0.11186   0.12119   0.13670   0.13978   0.14065

 Mulliken charges:
               1
     1  C   -0.037599
     2  C    0.478465
     3  C    0.282548
     4  C    0.277450
     5  C    0.686861
     6  O   -0.440396
     7  O   -0.520477
     8  H   -0.061830
     9  H   -0.044124
    10  H   -0.061830
    11  H   -0.027451
    12  H   -0.048967
    13  H   -0.048967
    14  H   -0.051813
    15  H   -0.051813
    16  H   -0.165029
    17  H   -0.165029
 Sum of Mulliken charges =  -0.00000

 Dipole moment (field-independent basis, Debye):
    X=              1.5442    Y=             -1.4890    Z=              0.0000  Tot=              2.1452

 Test job not archived.
 1\1\GINC-SE013\SP\RHF\Aug-CC-pVDZ\C5H10O2\OHZDE\05-Apr-2025\0\\#t hf a
 ug-cc-pvdz iop(5/13=1,5/36=2,99/5=2) pseudo=read geom=check guess=(rea
 d,tcheck) scf=(maxcycle=1)\\title\\0,1\C,0,0.,0.540816,0.\C,0,1.243175
 ,2.7516,0.\C,0,-0.679664,-3.043361,0.\C,0,1.345131,1.232352,0.\C,0,-1.
 070032,-1.582821,0.\O,0,-1.072742,1.091993,0.\O,0,0.146706,-0.800498,0
 .\H,0,0.706894,3.109292,0.877772\H,0,2.237781,3.19741,0.\H,0,0.706894,
 3.109292,-0.877772\H,0,-1.57723,-3.662892,0.\H,0,-0.09276,-3.292082,-0
 .884003\H,0,-0.09276,-3.292082,0.884003\H,0,1.899563,0.870429,0.869102

 Normal termination of Gaussian 16 at Sat Apr  5 22:58:10 2025.
