 Gaussian 16, Revision C.01,

 ----------------------------------------------------------------------
 #t hf aug-cc-pvdz symm=none int=(grid=ultrafine) guess=(read,tcheck) s
 table=(opt,rrhf)
 ----------------------------------------------------------------------
 -----
 title
 -----
 Symbolic Z-matrix:
 Charge =  0 Multiplicity = 1

 SCF Done:  E(RHF) =  -175.665235039     A.U. after   12 cycles
 Normal termination of Gaussian 16 at Sat Apr  5 22:57:05 2025.
 Gaussian 16:  ES64L-G16RevC.01  3-Jul-2019

 ----------------------------------------------------------------------
 #t hf aug-cc-pvdz iop(5/13=1,5/36=2,99/5=2) pseudo=read geom=check gue
 ss=(read,tcheck) scf=(maxcycle=1)
 ----------------------------------------------------------------------
 -----
 title
 -----
 Structure from the checkpoint file:  "fluoroacetylene.chk"
 Charge =  0 Multiplicity = 1

                         Standard orientation:
 ---------------------------------------------------------------------
 Center     Atomic      Atomic             Coordinates (Angstroms)
 Number     Number       Type             X           Y           Z
 ---------------------------------------------------------------------
      1          6           0        0.000000    0.000000   -0.095596
      2          6           0        0.000000    0.000000   -1.287136
      3          9           0        0.000000    0.000000    1.182582
      4          1           0        0.000000    0.000000   -2.346846
 ---------------------------------------------------------------------

 SCF Done:  E(RHF) =  -175.731036751     A.U. after    2 cycles

 The electronic state is 1-SG.
 Alpha  occ. eigenvalues --  -26.21046 -11.35580 -11.26172  -1.75611  -1.05820
 Alpha  occ. eigenvalues --   -0.91256  -0.81999  -0.81999  -0.72883  -0.42744
 Alpha  occ. eigenvalues --   -0.42744
 Alpha virt. eigenvalues --    0.03354   0.06620   0.11106   0.11106   0.11933
 Alpha virt. eigenvalues --    0.11933   0.13222   0.15266   0.21469   0.23893
 Alpha virt. eigenvalues --    0.23893   0.29412   0.31188   0.31835   0.31835

 Mulliken charges:
               1
     1  C   -0.439417
     2  C    0.960978
     3  F   -0.207108
     4  H   -0.314453
 Sum of Mulliken charges =  -0.00000

 Dipole moment (field-independent basis, Debye):
    X=              0.0000    Y=             -0.0000    Z=             -1.1996  Tot=              1.1996

 Test job not archived.
 1\1\GINC-SE210\SP\RHF\Aug-CC-pVDZ\C2H1F1\OHZDE\05-Apr-2025\0\\#t hf au
 g-cc-pvdz iop(5/13=1,5/36=2,99/5=2) pseudo=read geom=check guess=(read
 ,tcheck) scf=(maxcycle=1)\\title\\0,1\C,0,0.,0.,-0.095596\C,0,0.,0.,-1
 .287136\F,0,0.,0.,1.182582\H,0,0.,0.,-2.346846\\Version=ES64L-G16RevC.
 01\State=1-SG\HF=-175.7310368\RMSD=1.498e-02\Dipole=0.,0.,-0.4719784\Q
 uadrupole=-1.0600061,-1.0600061,2.1200122,0.,0.,0.\PG=C*V [C*(H1C1C1F1
 )]\\@

 Normal termination of Gaussian 16 at Sat Apr  5 22:58:07 2025.
