 Gaussian 16, Revision C.01,

 ----------------------------------------------------------------------
 #t hf aug-cc-pvdz symm=none int=(grid=ultrafine) guess=(read,tcheck) s
 table=(opt,rrhf)
 ----------------------------------------------------------------------
 -----
 title
 -----
 Symbolic Z-matrix:
 Charge =  0 Multiplicity = 1

 SCF Done:  E(RHF) =  -230.792719189     A.U. after   13 cycles
 Normal termination of Gaussian 16 at Sat Apr  5 22:57:07 2025.
 Gaussian 16:  ES64L-G16RevC.01  3-Jul-2019

 ----------------------------------------------------------------------
 #t hf aug-cc-pvdz iop(5/13=1,5/36=2,99/5=2) pseudo=read geom=check gue
 ss=(read,tcheck) scf=(maxcycle=1)
 ----------------------------------------------------------------------
 -----
 title
 -----
 Structure from the checkpoint file:  "fluoroacetonitrile.chk"
 Charge =  0 Multiplicity = 1

                         Standard orientation:
 ---------------------------------------------------------------------
 Center     Atomic      Atomic             Coordinates (Angstroms)
 Number     Number       Type             X           Y           Z
 ---------------------------------------------------------------------
      1          9           0        0.332657   -1.506812    0.000000
      2          7           0        0.468461    1.859310    0.000000
      3          6           0       -0.629654   -0.510772    0.000000
      4          6           0        0.000000    0.810536    0.000000
      5          1           0       -1.247608   -0.626221    0.891185
      6          1           0       -1.247608   -0.626221   -0.891185
 ---------------------------------------------------------------------

 SCF Done:  E(RHF) =  -230.869141103     A.U. after    2 cycles

 The electronic state is 1-A'.
 Alpha  occ. eigenvalues --  -26.15110 -15.66721 -11.39779 -11.30915  -1.68365
 Alpha  occ. eigenvalues --   -1.21958  -1.05659  -0.81602  -0.79407  -0.78060
 Alpha  occ. eigenvalues --   -0.66187  -0.62607  -0.56845  -0.49776  -0.48558
 Alpha virt. eigenvalues --    0.02661   0.04554   0.07145   0.08059   0.11488
 Alpha virt. eigenvalues --    0.12019   0.12172   0.14256   0.15146   0.15219
 Alpha virt. eigenvalues --    0.16564   0.20873   0.22937   0.24262   0.25133

 Mulliken charges:
               1
     1  F   -0.383979
     2  N   -0.143556
     3  C    0.829086
     4  C   -0.280071
     5  H   -0.010740
     6  H   -0.010740
 Sum of Mulliken charges =  -0.00000

 Dipole moment (field-independent basis, Debye):
    X=             -3.0257    Y=             -1.6626    Z=              0.0000  Tot=              3.4524

 Test job not archived.
 1\1\GINC-SE210\SP\RHF\Aug-CC-pVDZ\C2H2F1N1\OHZDE\05-Apr-2025\0\\#t hf
 aug-cc-pvdz iop(5/13=1,5/36=2,99/5=2) pseudo=read geom=check guess=(re
 ad,tcheck) scf=(maxcycle=1)\\title\\0,1\F,0,0.332657,-1.506812,0.\N,0,
 0.468461,1.85931,0.\C,0,-0.629654,-0.510772,0.\C,0,0.,0.810536,0.\H,0,
 -1.247608,-0.626221,0.891185\H,0,-1.247608,-0.626221,-0.891185\\Versio
 n=ES64L-G16RevC.01\State=1-A'\HF=-230.8691411\RMSD=4.879e-03\Dipole=-1
 .190388,-0.6541052,0.\Quadrupole=2.4492175,-4.8089714,2.3597539,0.1512
 418,0.,0.\PG=CS [SG(C2F1N1),X(H2)]\\@

 Normal termination of Gaussian 16 at Sat Apr  5 22:58:07 2025.
