 Gaussian 16, Revision C.01,

 ----------------------------------------------------------------------
 #t hf aug-cc-pvdz symm=none int=(grid=ultrafine) guess=(read,tcheck) s
 table=(opt,rrhf)
 ----------------------------------------------------------------------
 -----
 title
 -----
 Symbolic Z-matrix:
 Charge =  0 Multiplicity = 1

 SCF Done:  E(RHF) =  -176.908084479     A.U. after   12 cycles
 Normal termination of Gaussian 16 at Sat Apr  5 22:58:11 2025.
 Gaussian 16:  ES64L-G16RevC.01  3-Jul-2019

 ----------------------------------------------------------------------
 #t hf aug-cc-pvdz iop(5/13=1,5/36=2,99/5=2) pseudo=read geom=check gue
 ss=(read,tcheck) scf=(maxcycle=1)
 ----------------------------------------------------------------------
 -----
 title
 -----
 Structure from the checkpoint file:  "fluoroethene.chk"
 Charge =  0 Multiplicity = 1

                         Standard orientation:
 ---------------------------------------------------------------------
 Center     Atomic      Atomic             Coordinates (Angstroms)
 Number     Number       Type             X           Y           Z
 ---------------------------------------------------------------------
      1          6           0        0.000000    0.434774    0.000000
      2          6           0        1.185792   -0.138856    0.000000
      3          9           0       -1.143002   -0.282121    0.000000
      4          1           0       -0.195129    1.498103    0.000000
      5          1           0        1.296848   -1.213206    0.000000
      6          1           0        2.070547    0.478682    0.000000
 ---------------------------------------------------------------------

 SCF Done:  E(RHF) =  -176.971395682     A.U. after    2 cycles

 The electronic state is 1-A'.
 Alpha  occ. eigenvalues --  -26.13344 -11.34162 -11.24814  -1.67214  -1.05790
 Alpha  occ. eigenvalues --   -0.86597  -0.77740  -0.74625  -0.70960  -0.61015
 Alpha  occ. eigenvalues --   -0.56943  -0.39538
 Alpha virt. eigenvalues --    0.03703   0.04751   0.05560   0.10279   0.10625
 Alpha virt. eigenvalues --    0.11236   0.12348   0.15302   0.16915   0.18306
 Alpha virt. eigenvalues --    0.19808   0.21845   0.24932   0.27950   0.29121

 Mulliken charges:
               1
     1  C    0.623559
     2  C    0.383964
     3  F   -0.337855
     4  H   -0.211216
     5  H   -0.234022
     6  H   -0.224428
 Sum of Mulliken charges =  -0.00000

 Dipole moment (field-independent basis, Debye):
    X=              1.6116    Y=              1.0045    Z=              0.0000  Tot=              1.8990

 Test job not archived.
 1\1\GINC-SE220\SP\RHF\Aug-CC-pVDZ\C2H3F1\OHZDE\05-Apr-2025\0\\#t hf au
 g-cc-pvdz iop(5/13=1,5/36=2,99/5=2) pseudo=read geom=check guess=(read
 ,tcheck) scf=(maxcycle=1)\\title\\0,1\C,0,0.,0.434774,0.\C,0,1.185792,
 -0.138856,0.\F,0,-1.143002,-0.282121,0.\H,0,-0.195129,1.498103,0.\H,0,
 1.296848,-1.213206,0.\H,0,2.070547,0.478682,0.\\Version=ES64L-G16RevC.
 01\State=1-A'\HF=-176.9713957\RMSD=6.737e-03\Dipole=0.6340536,0.395184
 1,0.\Quadrupole=-0.2005975,1.5800792,-1.3794816,-0.8471194,0.,0.\PG=CS
  [SG(C2H3F1)]\\@

 Normal termination of Gaussian 16 at Sat Apr  5 22:58:13 2025.
