 Gaussian 16, Revision C.01,

 ----------------------------------------------------------------------
 #t hf aug-cc-pvdz symm=none int=(grid=ultrafine) guess=(read,tcheck) s
 table=(opt,rrhf)
 ----------------------------------------------------------------------
 -----
 title
 -----
 Symbolic Z-matrix:
 Charge =  0 Multiplicity = 1

 SCF Done:  E(RHF) =  -329.592716437     A.U. after   14 cycles
 Normal termination of Gaussian 16 at Sat Apr  5 22:57:19 2025.
 Gaussian 16:  ES64L-G16RevC.01  3-Jul-2019

 ----------------------------------------------------------------------
 #t hf aug-cc-pvdz iop(5/13=1,5/36=2,99/5=2) pseudo=read geom=check gue
 ss=(read,tcheck) scf=(maxcycle=1)
 ----------------------------------------------------------------------
 -----
 title
 -----
 Structure from the checkpoint file:  "fluorobenzene.chk"
 Charge =  0 Multiplicity = 1

                         Standard orientation:
 ---------------------------------------------------------------------
 Center     Atomic      Atomic             Coordinates (Angstroms)
 Number     Number       Type             X           Y           Z
 ---------------------------------------------------------------------
      1          6           0        0.000000    0.000000   -1.828651
      2          6           0        0.000000    1.203661   -1.131682
      3          6           0       -0.000000   -1.203661   -1.131682
      4          6           0        0.000000    1.212801    0.259047
      5          6           0       -0.000000   -1.212801    0.259047
      6          6           0        0.000000   -0.000000    0.924672
      7          9           0        0.000000   -0.000000    2.277491
      8          1           0        0.000000    0.000000   -2.909624
      9          1           0        0.000000    2.141917   -1.669399
     10          1           0       -0.000000   -2.141917   -1.669399
     11          1           0        0.000000    2.134302    0.823249
     12          1           0       -0.000000   -2.134302    0.823249
 ---------------------------------------------------------------------

 SCF Done:  E(RHF) =  -329.697736607     A.U. after    2 cycles

 The electronic state is 1-A1.
 Alpha  occ. eigenvalues --  -26.13391 -11.34124 -11.26065 -11.26059 -11.25489
 Alpha  occ. eigenvalues --  -11.25488 -11.25071  -1.67210  -1.16131  -1.03073
 Alpha  occ. eigenvalues --   -1.02737  -0.86491  -0.86491  -0.76991  -0.74869
 Alpha  occ. eigenvalues --   -0.74078  -0.69782  -0.63224  -0.62367  -0.60850
 Alpha  occ. eigenvalues --   -0.53849  -0.51844  -0.51512  -0.35680  -0.34863
 Alpha virt. eigenvalues --    0.03336   0.03953   0.04479   0.05811   0.06194
 Alpha virt. eigenvalues --    0.09564   0.10486   0.10511   0.12004   0.13861
 Alpha virt. eigenvalues --    0.14147   0.14249   0.14263   0.14461   0.14509

 Mulliken charges:
               1
     1  C    0.367891
     2  C    0.591160
     3  C    0.591160
     4  C    0.303516
     5  C    0.303516
     6  C    0.279280
     7  F   -0.362639
     8  H   -0.428291
     9  H   -0.427656
    10  H   -0.427656
    11  H   -0.395141
    12  H   -0.395141
 Sum of Mulliken charges =   0.00000

 Dipole moment (field-independent basis, Debye):
    X=              0.0000    Y=              0.0000    Z=             -2.0924  Tot=              2.0924

 Test job not archived.
 1\1\GINC-SE211\SP\RHF\Aug-CC-pVDZ\C6H5F1\OHZDE\05-Apr-2025\0\\#t hf au
 g-cc-pvdz iop(5/13=1,5/36=2,99/5=2) pseudo=read geom=check guess=(read
 ,tcheck) scf=(maxcycle=1)\\title\\0,1\C,0,0.,0.,-1.828651\C,0,0.,1.203
 661,-1.131682\C,0,0.,-1.203661,-1.131682\C,0,0.,1.212801,0.259047\C,0,
 0.,-1.212801,0.259047\C,0,0.,0.,0.924672\F,0,0.,0.,2.277491\H,0,0.,0.,
 -2.909624\H,0,0.,2.141917,-1.669399\H,0,0.,-2.141917,-1.669399\H,0,0.,
 2.134302,0.823249\H,0,0.,-2.134302,0.823249\\Version=ES64L-G16RevC.01\
 State=1-A1\HF=-329.6977366\RMSD=1.541e-02\Dipole=0.,0.,-0.8232187\Quad

 Normal termination of Gaussian 16 at Sat Apr  5 22:58:10 2025.
