 Gaussian 16, Revision C.01,

 ----------------------------------------------------------------------
 #t hf aug-cc-pvdz symm=none int=(grid=ultrafine) guess=(read,tcheck) s
 table=(opt,rrhf)
 ----------------------------------------------------------------------
 -----
 title
 -----
 Symbolic Z-matrix:
 Charge =  0 Multiplicity = 1

 SCF Done:  E(RHF) =  -139.057395301     A.U. after   10 cycles
 Normal termination of Gaussian 16 at Sat Apr  5 22:58:10 2025.
 Gaussian 16:  ES64L-G16RevC.01  3-Jul-2019

 ----------------------------------------------------------------------
 #t hf aug-cc-pvdz iop(5/13=1,5/36=2,99/5=2) pseudo=read geom=check gue
 ss=(read,tcheck) scf=(maxcycle=1)
 ----------------------------------------------------------------------
 -----
 title
 -----
 Structure from the checkpoint file:  "fluoromethane.chk"
 Charge =  0 Multiplicity = 1

                         Standard orientation:
 ---------------------------------------------------------------------
 Center     Atomic      Atomic             Coordinates (Angstroms)
 Number     Number       Type             X           Y           Z
 ---------------------------------------------------------------------
      1          6           0        0.000000   -0.637684    0.000000
      2          9           0        0.000000    0.754062    0.000000
      3          1           0        1.032068   -0.986819    0.000000
      4          1           0       -0.516034   -0.986819    0.893797
      5          1           0       -0.516034   -0.986819   -0.893797
 ---------------------------------------------------------------------

 SCF Done:  E(RHF) =  -139.108882657     A.U. after    2 cycles

 The electronic state is 1-A'.
 Alpha  occ. eigenvalues --  -26.10238 -11.32099  -1.63268  -0.97053  -0.73896
 Alpha  occ. eigenvalues --   -0.73896  -0.71343  -0.55307  -0.55307
 Alpha virt. eigenvalues --    0.03427   0.05807   0.05807   0.08705   0.14474
 Alpha virt. eigenvalues --    0.14474   0.16948   0.24684   0.27405   0.27405
 Alpha virt. eigenvalues --    0.28450   0.28660   0.28660   0.37866   0.41221

 Mulliken charges:
               1
     1  C    0.766363
     2  F   -0.427716
     3  H   -0.112882
     4  H   -0.112883
     5  H   -0.112883
 Sum of Mulliken charges =  -0.00000

 Dipole moment (field-independent basis, Debye):
    X=             -0.0000    Y=             -2.3175    Z=              0.0000  Tot=              2.3175

 Test job not archived.
 1\1\GINC-SE151\SP\RHF\Aug-CC-pVDZ\C1H3F1\OHZDE\05-Apr-2025\0\\#t hf au
 g-cc-pvdz iop(5/13=1,5/36=2,99/5=2) pseudo=read geom=check guess=(read
 ,tcheck) scf=(maxcycle=1)\\title\\0,1\C,0,0.,0.,-0.637684\F,0,0.,0.,0.
 754062\H,0,0.,1.032068,-0.986819\H,0,0.893797,-0.516034,-0.986819\H,0,
 -0.893797,-0.516034,-0.986819\\Version=ES64L-G16RevC.01\State=1-A'\HF=
 -139.1088827\RMSD=4.512e-03\Dipole=0.,0.,-0.9117705\Quadrupole=0.21815
 71,0.2181574,-0.4363144,0.,0.,0.\PG=CS [SG(C1H1F1),X(H2)]\\@

 Normal termination of Gaussian 16 at Sat Apr  5 22:58:11 2025.
