 Gaussian 16, Revision C.01,

 ----------------------------------------------------------------------
 #t hf aug-cc-pvdz symm=none int=(grid=ultrafine) guess=(read,tcheck) s
 table=(opt,rrhf)
 ----------------------------------------------------------------------
 -----
 title
 -----
 Symbolic Z-matrix:
 Charge =  0 Multiplicity = 1

 SCF Done:  E(RHF) =  -168.963862079     A.U. after   12 cycles
 Normal termination of Gaussian 16 at Sat Apr  5 22:57:06 2025.
 Gaussian 16:  ES64L-G16RevC.01  3-Jul-2019

 ----------------------------------------------------------------------
 #t hf aug-cc-pvdz iop(5/13=1,5/36=2,99/5=2) pseudo=read geom=check gue
 ss=(read,tcheck) scf=(maxcycle=1)
 ----------------------------------------------------------------------
 -----
 title
 -----
 Structure from the checkpoint file:  "formamide.chk"
 Charge =  0 Multiplicity = 1

                         Standard orientation:
 ---------------------------------------------------------------------
 Center     Atomic      Atomic             Coordinates (Angstroms)
 Number     Number       Type             X           Y           Z
 ---------------------------------------------------------------------
      1          6           0        0.000000    0.418868   -0.000000
      2          7           0       -0.937301   -0.562370   -0.000000
      3          8           0        1.196475    0.233416    0.000000
      4          1           0       -0.446374    1.428379   -0.000000
      5          1           0       -0.646661   -1.526108   -0.000000
      6          1           0       -1.917653   -0.346221   -0.000000
 ---------------------------------------------------------------------

 SCF Done:  E(RHF) =  -169.019167724     A.U. after    2 cycles

 The electronic state is 1-A'.
 Alpha  occ. eigenvalues --  -20.54602 -15.66153 -11.37225  -1.35357  -1.18840
 Alpha  occ. eigenvalues --   -0.85149  -0.75482  -0.68232  -0.62186  -0.58183
 Alpha  occ. eigenvalues --   -0.45272  -0.42701
 Alpha virt. eigenvalues --    0.02695   0.04037   0.05712   0.09332   0.11759
 Alpha virt. eigenvalues --    0.12525   0.15543   0.15727   0.16794   0.19459
 Alpha virt. eigenvalues --    0.19579   0.23932   0.26773   0.27603   0.28193

 Mulliken charges:
               1
     1  C    0.757351
     2  N   -0.119028
     3  O   -0.459615
     4  H   -0.163036
     5  H   -0.014190
     6  H   -0.001482
 Sum of Mulliken charges =  -0.00000

 Dipole moment (field-independent basis, Debye):
    X=             -4.4633    Y=             -0.4743    Z=             -0.0000  Tot=              4.4884

 Test job not archived.
 1\1\GINC-SE154\SP\RHF\Aug-CC-pVDZ\C1H3N1O1\OHZDE\05-Apr-2025\0\\#t hf
 aug-cc-pvdz iop(5/13=1,5/36=2,99/5=2) pseudo=read geom=check guess=(re
 ad,tcheck) scf=(maxcycle=1)\\title\\0,1\C,0,0.,0.418868,0.\N,0,-0.9373
 01,-0.56237,0.\O,0,1.196475,0.233417,0.\H,0,-0.446375,1.428379,0.\H,0,
 -0.64666,-1.526108,0.\H,0,-1.917653,-0.346222,0.\\Version=ES64L-G16Rev
 C.01\State=1-A'\HF=-169.0191677\RMSD=2.480e-03\Dipole=-1.7560017,-0.18
 66205,0.\Quadrupole=-1.2031,2.2850803,-1.0819803,-0.2489391,0.,0.\PG=C
 S [SG(C1H3N1O1)]\\@

 Normal termination of Gaussian 16 at Sat Apr  5 22:58:07 2025.
