 Gaussian 16, Revision C.01,

 ----------------------------------------------------------------------
 #t hf aug-cc-pvdz symm=none int=(grid=ultrafine) guess=(read,tcheck) s
 table=(opt,rrhf)
 ----------------------------------------------------------------------
 -----
 title
 -----
 Symbolic Z-matrix:
 Charge =  0 Multiplicity = 1

 SCF Done:  E(RHF) =  -572.824694074     A.U. after   13 cycles
 Normal termination of Gaussian 16 at Sat Apr  5 22:58:09 2025.
 Gaussian 16:  ES64L-G16RevC.01  3-Jul-2019

 ----------------------------------------------------------------------
 #t hf aug-cc-pvdz iop(5/13=1,5/36=2,99/5=2) pseudo=read geom=check gue
 ss=(read,tcheck) scf=(maxcycle=1)
 ----------------------------------------------------------------------
 -----
 title
 -----
 Structure from the checkpoint file:  "formyl_chloride.chk"
 Charge =  0 Multiplicity = 1

                         Standard orientation:
 ---------------------------------------------------------------------
 Center     Atomic      Atomic             Coordinates (Angstroms)
 Number     Number       Type             X           Y           Z
 ---------------------------------------------------------------------
      1          6           0        0.000000    0.806204    0.000000
      2          8           0        1.118460    1.175635    0.000000
      3         17           0       -0.473479   -0.921920    0.000000
      4          1           0       -0.898535    1.430335    0.000000
 ---------------------------------------------------------------------

 SCF Done:  E(RHF) =  -572.881137685     A.U. after    2 cycles

 The electronic state is 1-A'.
 Alpha  occ. eigenvalues -- -103.68730 -20.63208 -11.43511 -10.72090  -8.37791
 Alpha  occ. eigenvalues --   -8.37497  -8.37478  -1.43476  -1.18186  -0.86995
 Alpha  occ. eigenvalues --   -0.73438  -0.69153  -0.62341  -0.49633  -0.49328
 Alpha  occ. eigenvalues --   -0.48935
 Alpha virt. eigenvalues --    0.03358   0.07132   0.07379   0.09276   0.11737
 Alpha virt. eigenvalues --    0.12439   0.15107   0.15776   0.16123   0.20172
 Alpha virt. eigenvalues --    0.22985   0.25572   0.27379   0.29325   0.32210

 Mulliken charges:
               1
     1  C    0.393144
     2  O   -0.285239
     3  Cl  -0.142504
     4  H    0.034600
 Sum of Mulliken charges =   0.00000

 Dipole moment (field-independent basis, Debye):
    X=             -2.2122    Y=              0.7618    Z=              0.0000  Tot=              2.3397

 Test job not archived.
 1\1\GINC-SE173\SP\RHF\Aug-CC-pVDZ\C1H1Cl1O1\OHZDE\05-Apr-2025\0\\#t hf
  aug-cc-pvdz iop(5/13=1,5/36=2,99/5=2) pseudo=read geom=check guess=(r
 ead,tcheck) scf=(maxcycle=1)\\title\\0,1\C,0,0.,0.806204,0.\O,0,1.1184
 6,1.175635,0.\Cl,0,-0.473479,-0.92192,0.\H,0,-0.898535,1.430335,0.\\Ve
 rsion=ES64L-G16RevC.01\State=1-A'\HF=-572.8811377\RMSD=3.097e-03\Dipol
 e=-0.8703373,0.2997051,0.\Quadrupole=-1.3337585,0.7435741,0.5901844,-2
 .5883022,0.,0.\PG=CS [SG(C1H1Cl1O1)]\\@

 Normal termination of Gaussian 16 at Sat Apr  5 22:58:10 2025.
