 Gaussian 16, Revision C.01,

 ----------------------------------------------------------------------
 #t hf aug-cc-pvdz symm=none int=(grid=ultrafine) guess=(read,tcheck) s
 table=(opt,rrhf)
 ----------------------------------------------------------------------
 -----
 title
 -----
 Symbolic Z-matrix:
 Charge =  0 Multiplicity = 1

 SCF Done:  E(RHF) =  -188.797503536     A.U. after   12 cycles
 Normal termination of Gaussian 16 at Sat Apr  5 22:57:06 2025.
 Gaussian 16:  ES64L-G16RevC.01  3-Jul-2019

 ----------------------------------------------------------------------
 #t hf aug-cc-pvdz iop(5/13=1,5/36=2,99/5=2) pseudo=read geom=check gue
 ss=(read,tcheck) scf=(maxcycle=1)
 ----------------------------------------------------------------------
 -----
 title
 -----
 Structure from the checkpoint file:  "formic_acid.chk"
 Charge =  0 Multiplicity = 1

                         Standard orientation:
 ---------------------------------------------------------------------
 Center     Atomic      Atomic             Coordinates (Angstroms)
 Number     Number       Type             X           Y           Z
 ---------------------------------------------------------------------
      1          6           0        0.000000    0.421048   -0.000000
      2          8           0       -1.028183   -0.446143   -0.000000
      3          8           0        1.158545    0.117343    0.000000
      4          1           0       -0.383251    1.447877   -0.000000
      5          1           0       -0.659643   -1.343762   -0.000000
 ---------------------------------------------------------------------

 SCF Done:  E(RHF) =  -188.860547350     A.U. after    2 cycles

 The electronic state is 1-A'.
 Alpha  occ. eigenvalues --  -20.64166 -20.58373 -11.41293  -1.43953  -1.34604
 Alpha  occ. eigenvalues --   -0.90682  -0.74077  -0.72917  -0.65566  -0.62170
 Alpha  occ. eigenvalues --   -0.51807  -0.49352
 Alpha virt. eigenvalues --    0.03622   0.04471   0.08525   0.09470   0.12154
 Alpha virt. eigenvalues --    0.15307   0.16001   0.18876   0.20642   0.22070
 Alpha virt. eigenvalues --    0.23212   0.27349   0.27917   0.30020   0.32917

 Mulliken charges:
               1
     1  C    0.747154
     2  O   -0.378333
     3  O   -0.384589
     4  H   -0.129633
     5  H    0.145401
 Sum of Mulliken charges =   0.00000

 Dipole moment (field-independent basis, Debye):
    X=             -1.7851    Y=             -0.0767    Z=             -0.0000  Tot=              1.7868

 Test job not archived.
 1\1\GINC-SE170\SP\RHF\Aug-CC-pVDZ\C1H2O2\OHZDE\05-Apr-2025\0\\#t hf au
 g-cc-pvdz iop(5/13=1,5/36=2,99/5=2) pseudo=read geom=check guess=(read
 ,tcheck) scf=(maxcycle=1)\\title\\0,1\C,0,0.,0.421048,0.\O,0,-1.028183
 ,-0.446144,0.\O,0,1.158545,0.117343,0.\H,0,-0.383251,1.447877,0.\H,0,-
 0.659642,-1.343762,0.\\Version=ES64L-G16RevC.01\State=1-A'\HF=-188.860
 5474\RMSD=2.958e-03\Dipole=-0.7023312,-0.0301833,0.\Quadrupole=-4.1338
 145,3.8138793,0.3199352,-0.201965,0.,0.\PG=CS [SG(C1H2O2)]\\@

 Normal termination of Gaussian 16 at Sat Apr  5 22:58:08 2025.
