 Gaussian 16, Revision C.01,

 ----------------------------------------------------------------------
 #t hf aug-cc-pvdz symm=none int=(grid=ultrafine) guess=(read,tcheck) s
 table=(opt,rrhf)
 ----------------------------------------------------------------------
 -----
 title
 -----
 Symbolic Z-matrix:
 Charge =  0 Multiplicity = 1

 SCF Done:  E(RHF) =  -167.656870559     A.U. after   11 cycles
 Normal termination of Gaussian 16 at Sat Apr  5 22:57:06 2025.
 Gaussian 16:  ES64L-G16RevC.01  3-Jul-2019

 ----------------------------------------------------------------------
 #t hf aug-cc-pvdz iop(5/13=1,5/36=2,99/5=2) pseudo=read geom=check gue
 ss=(read,tcheck) scf=(maxcycle=1)
 ----------------------------------------------------------------------
 -----
 title
 -----
 Structure from the checkpoint file:  "fulminic_acid.chk"
 Charge =  0 Multiplicity = 1

                         Standard orientation:
 ---------------------------------------------------------------------
 Center     Atomic      Atomic             Coordinates (Angstroms)
 Number     Number       Type             X           Y           Z
 ---------------------------------------------------------------------
      1          8           0        0.000000    0.000000    1.179618
      2          7           0        0.000000    0.000000   -0.020937
      3          6           0        0.000000    0.000000   -1.175868
      4          1           0        0.000000    0.000000   -2.235178
 ---------------------------------------------------------------------

 SCF Done:  E(RHF) =  -167.712888388     A.U. after    2 cycles

 The electronic state is 1-SG.
 Alpha  occ. eigenvalues --  -20.60066 -15.82915 -11.33326  -1.46244  -1.21662
 Alpha  occ. eigenvalues --   -0.81925  -0.74153  -0.68726  -0.68726  -0.42122
 Alpha  occ. eigenvalues --   -0.42122
 Alpha virt. eigenvalues --    0.02393   0.06951   0.06951   0.08164   0.14465
 Alpha virt. eigenvalues --    0.14646   0.18414   0.18414   0.20319   0.20319
 Alpha virt. eigenvalues --    0.23423   0.27379   0.29439   0.29439   0.34497

 Mulliken charges:
               1
     1  O   -0.607165
     2  N    0.295931
     3  C    0.371422
     4  H   -0.060189
 Sum of Mulliken charges =  -0.00000

 Dipole moment (field-independent basis, Debye):
    X=              0.0000    Y=              0.0000    Z=             -4.4893  Tot=              4.4893

 Test job not archived.
 1\1\GINC-SE206\SP\RHF\Aug-CC-pVDZ\C1H1N1O1\OHZDE\05-Apr-2025\0\\#t hf
 aug-cc-pvdz iop(5/13=1,5/36=2,99/5=2) pseudo=read geom=check guess=(re
 ad,tcheck) scf=(maxcycle=1)\\title\\0,1\O,0,0.,0.,1.179618\N,0,0.,0.,-
 0.020937\C,0,0.,0.,-1.175868\H,0,0.,0.,-2.235178\\Version=ES64L-G16Rev
 C.01\State=1-SG\HF=-167.7128884\RMSD=4.764e-03\Dipole=0.,0.,-1.7662074
 \Quadrupole=-0.7261472,-0.7261472,1.4522943,0.,0.,0.\PG=C*V [C*(H1C1N1
 O1)]\\@

 Normal termination of Gaussian 16 at Sat Apr  5 22:58:07 2025.
