 Gaussian 16, Revision C.01,

 ----------------------------------------------------------------------
 #t hf aug-cc-pvdz symm=none int=(grid=ultrafine) guess=(read,tcheck) s
 table=(opt,rrhf)
 ----------------------------------------------------------------------
 -----
 title
 -----
 Symbolic Z-matrix:
 Charge =  0 Multiplicity = 1

 SCF Done:  E(RHF) =  -230.672292185     A.U. after   13 cycles
 Normal termination of Gaussian 16 at Sat Apr  5 22:58:20 2025.
 Gaussian 16:  ES64L-G16RevC.01  3-Jul-2019

 ----------------------------------------------------------------------
 #t hf aug-cc-pvdz iop(5/13=1,5/36=2,99/5=2) pseudo=read geom=check gue
 ss=(read,tcheck) scf=(maxcycle=1)
 ----------------------------------------------------------------------
 -----
 title
 -----
 Structure from the checkpoint file:  "fulvene.chk"
 Charge =  0 Multiplicity = 1

                         Standard orientation:
 ---------------------------------------------------------------------
 Center     Atomic      Atomic             Coordinates (Angstroms)
 Number     Number       Type             X           Y           Z
 ---------------------------------------------------------------------
      1          6           0        0.000000    0.735787   -1.400081
      2          6           0       -0.000000   -0.735787   -1.400081
      3          6           0        0.000000    1.175419   -0.125488
      4          6           0       -0.000000   -1.175419   -0.125488
      5          6           0        0.000000    0.000000    0.758403
      6          6           0        0.000000    0.000000    2.096421
      7          1           0        0.000000    1.347657   -2.289398
      8          1           0       -0.000000   -1.347657   -2.289398
      9          1           0        0.000000    2.197794    0.217520
     10          1           0       -0.000000   -2.197794    0.217520
     11          1           0        0.000000   -0.923202    2.660823
     12          1           0        0.000000    0.923202    2.660823
 ---------------------------------------------------------------------

 SCF Done:  E(RHF) =  -230.741625695     A.U. after    2 cycles

 The electronic state is 1-A1.
 Alpha  occ. eigenvalues --  -11.25933 -11.25243 -11.24227 -11.24159 -11.23562
 Alpha  occ. eigenvalues --  -11.23553  -1.15521  -1.02366  -0.96732  -0.86098
 Alpha  occ. eigenvalues --   -0.74748  -0.73060  -0.69323  -0.61213  -0.57050
 Alpha  occ. eigenvalues --   -0.56209  -0.52573  -0.50712  -0.49457  -0.34932
 Alpha  occ. eigenvalues --   -0.31344
 Alpha virt. eigenvalues --    0.03589   0.03976   0.04338   0.05296   0.05744
 Alpha virt. eigenvalues --    0.05973   0.08005   0.10057   0.11145   0.13668
 Alpha virt. eigenvalues --    0.13954   0.14173   0.14309   0.15003   0.15109

 Mulliken charges:
               1
     1  C    0.400041
     2  C    0.400041
     3  C    0.393035
     4  C    0.393035
     5  C   -0.389780
     6  C    1.171602
     7  H   -0.336980
     8  H   -0.336980
     9  H   -0.483530
    10  H   -0.483530
    11  H   -0.363477
    12  H   -0.363477
 Sum of Mulliken charges =  -0.00000

 Dipole moment (field-independent basis, Debye):
    X=              0.0000    Y=             -0.0000    Z=              0.5115  Tot=              0.5115

 Test job not archived.
 1\1\GINC-SE204\SP\RHF\Aug-CC-pVDZ\C6H6\OHZDE\05-Apr-2025\0\\#t hf aug-
 cc-pvdz iop(5/13=1,5/36=2,99/5=2) pseudo=read geom=check guess=(read,t
 check) scf=(maxcycle=1)\\title\\0,1\C,0,0.,0.735787,-1.400081\C,0,0.,-
 0.735787,-1.400081\C,0,0.,1.175419,-0.125488\C,0,0.,-1.175419,-0.12548
 8\C,0,0.,0.,0.758403\C,0,0.,0.,2.096421\H,0,0.,1.347657,-2.289398\H,0,
 0.,-1.347657,-2.289398\H,0,0.,2.197794,0.21752\H,0,0.,-2.197794,0.2175
 2\H,0,0.,-0.923202,2.660823\H,0,0.,0.923202,2.660823\\Version=ES64L-G1
 6RevC.01\State=1-A1\HF=-230.7416257\RMSD=1.168e-02\Dipole=0.,0.,0.2012

 Normal termination of Gaussian 16 at Sat Apr  5 22:58:24 2025.
