 Gaussian 16, Revision C.01,

 ----------------------------------------------------------------------
 #t hf aug-cc-pvdz symm=none int=(grid=ultrafine) guess=(read,tcheck) s
 table=(opt,rrhf)
 ----------------------------------------------------------------------
 -----
 title
 -----
 Symbolic Z-matrix:
 Charge =  0 Multiplicity = 1

 SCF Done:  E(RHF) =  -261.524556360     A.U. after   13 cycles
 Normal termination of Gaussian 16 at Sat Apr  5 22:57:11 2025.
 Gaussian 16:  ES64L-G16RevC.01  3-Jul-2019

 ----------------------------------------------------------------------
 #t hf aug-cc-pvdz iop(5/13=1,5/36=2,99/5=2) pseudo=read geom=check gue
 ss=(read,tcheck) scf=(maxcycle=1)
 ----------------------------------------------------------------------
 -----
 title
 -----
 Structure from the checkpoint file:  "fumaronitrile.chk"
 Charge =  0 Multiplicity = 1

                         Standard orientation:
 ---------------------------------------------------------------------
 Center     Atomic      Atomic             Coordinates (Angstroms)
 Number     Number       Type             X           Y           Z
 ---------------------------------------------------------------------
      1          6           0        0.123949   -1.862885    0.000000
      2          6           0       -0.123949    1.862885    0.000000
      3          6           0       -0.463693    0.483335    0.000000
      4          6           0        0.463693   -0.483335    0.000000
      5          7           0       -0.123949   -2.988322    0.000000
      6          7           0        0.123949    2.988322    0.000000
      7          1           0       -1.519242    0.244524    0.000000
      8          1           0        1.519242   -0.244524    0.000000
 ---------------------------------------------------------------------

 SCF Done:  E(RHF) =  -261.601706859     A.U. after    2 cycles

 The electronic state is 1-AG.
 Alpha  occ. eigenvalues --  -15.67825 -15.67824 -11.35103 -11.34944 -11.32262
 Alpha  occ. eigenvalues --  -11.32262  -1.23592  -1.22727  -1.14537  -0.96883
 Alpha  occ. eigenvalues --   -0.78541  -0.76383  -0.65477  -0.58434  -0.57659
 Alpha  occ. eigenvalues --   -0.57371  -0.52254  -0.50485  -0.49735  -0.41611
 Alpha virt. eigenvalues --    0.01503   0.02642   0.03256   0.06812   0.08255
 Alpha virt. eigenvalues --    0.09452   0.09859   0.11236   0.11606   0.12311
 Alpha virt. eigenvalues --    0.12433   0.12731   0.13670   0.15081   0.16137

 Mulliken charges:
               1
     1  C   -0.950669
     2  C   -0.950669
     3  C    1.342422
     4  C    1.342422
     5  N   -0.044656
     6  N   -0.044656
     7  H   -0.347097
     8  H   -0.347097
 Sum of Mulliken charges =  -0.00000

 Dipole moment (field-independent basis, Debye):
    X=             -0.0000    Y=             -0.0000    Z=              0.0000  Tot=              0.0000

 Test job not archived.
 1\1\GINC-SE205\SP\RHF\Aug-CC-pVDZ\C4H2N2\OHZDE\05-Apr-2025\0\\#t hf au
 g-cc-pvdz iop(5/13=1,5/36=2,99/5=2) pseudo=read geom=check guess=(read
 ,tcheck) scf=(maxcycle=1)\\title\\0,1\C,0,0.123949,-1.862885,0.\C,0,-0
 .123949,1.862885,0.\C,0,-0.463693,0.483335,0.\C,0,0.463693,-0.483335,0
 .\N,0,-0.123949,-2.988322,0.\N,0,0.123949,2.988322,0.\H,0,-1.519242,0.
 244524,0.\H,0,1.519242,-0.244524,0.\\Version=ES64L-G16RevC.01\State=1-
 AG\HF=-261.6017069\RMSD=6.911e-03\Dipole=0.,0.,0.\Quadrupole=8.1443642
 ,-12.7476992,4.6033349,-2.1243254,0.,0.\PG=C02H [SGH(C4H2N2)]\\@

 Normal termination of Gaussian 16 at Sat Apr  5 22:58:07 2025.
