 Gaussian 16, Revision C.01,

 ----------------------------------------------------------------------
 #t hf aug-cc-pvdz symm=none int=(grid=ultrafine) guess=(read,tcheck) s
 table=(opt,rrhf)
 ----------------------------------------------------------------------
 -----
 title
 -----
 Symbolic Z-matrix:
 Charge =  0 Multiplicity = 1

 SCF Done:  E(RHF) =  -228.654526815     A.U. after   13 cycles
 Normal termination of Gaussian 16 at Sat Apr  5 22:58:14 2025.
 Gaussian 16:  ES64L-G16RevC.01  3-Jul-2019

 ----------------------------------------------------------------------
 #t hf aug-cc-pvdz iop(5/13=1,5/36=2,99/5=2) pseudo=read geom=check gue
 ss=(read,tcheck) scf=(maxcycle=1)
 ----------------------------------------------------------------------
 -----
 title
 -----
 Structure from the checkpoint file:  "furan.chk"
 Charge =  0 Multiplicity = 1

                         Standard orientation:
 ---------------------------------------------------------------------
 Center     Atomic      Atomic             Coordinates (Angstroms)
 Number     Number       Type             X           Y           Z
 ---------------------------------------------------------------------
      1          6           0        0.000000    0.716076   -0.955449
      2          6           0       -0.000000   -0.716076   -0.955449
      3          6           0        0.000000    1.093572    0.345603
      4          6           0       -0.000000   -1.093572    0.345603
      5          8           0        0.000000   -0.000000    1.157159
      6          1           0        0.000000    1.369847   -1.810079
      7          1           0       -0.000000   -1.369847   -1.810079
      8          1           0        0.000000    2.047381    0.840519
      9          1           0       -0.000000   -2.047381    0.840519
 ---------------------------------------------------------------------

 SCF Done:  E(RHF) =  -228.727292253     A.U. after    2 cycles

 The electronic state is 1-A1.
 Alpha  occ. eigenvalues --  -20.63712 -11.29937 -11.29911 -11.24106 -11.24020
 Alpha  occ. eigenvalues --   -1.41973  -1.07907  -1.00697  -0.81608  -0.78466
 Alpha  occ. eigenvalues --   -0.74894  -0.64878  -0.61947  -0.58279  -0.57771
 Alpha  occ. eigenvalues --   -0.54838  -0.40644  -0.32454
 Alpha virt. eigenvalues --    0.03561   0.04270   0.04570   0.05818   0.09541
 Alpha virt. eigenvalues --    0.10638   0.12197   0.12863   0.13172   0.14012
 Alpha virt. eigenvalues --    0.14025   0.14793   0.15492   0.16367   0.16591

 Mulliken charges:
               1
     1  C    0.400182
     2  C    0.400182
     3  C    0.430509
     4  C    0.430509
     5  O   -0.443941
     6  H   -0.299167
     7  H   -0.299167
     8  H   -0.309554
     9  H   -0.309554
 Sum of Mulliken charges =  -0.00000

 Dipole moment (field-independent basis, Debye):
    X=              0.0000    Y=              0.0000    Z=             -0.9461  Tot=              0.9461

 Test job not archived.
 1\1\GINC-SE252\SP\RHF\Aug-CC-pVDZ\C4H4O1\OHZDE\05-Apr-2025\0\\#t hf au
 g-cc-pvdz iop(5/13=1,5/36=2,99/5=2) pseudo=read geom=check guess=(read
 ,tcheck) scf=(maxcycle=1)\\title\\0,1\C,0,0.,0.716076,-0.955449\C,0,0.
 ,-0.716076,-0.955449\C,0,0.,1.093572,0.345603\C,0,0.,-1.093572,0.34560
 3\O,0,0.,0.,1.157159\H,0,0.,1.369847,-1.810079\H,0,0.,-1.369847,-1.810
 079\H,0,0.,2.047381,0.840519\H,0,0.,-2.047381,0.840519\\Version=ES64L-
 G16RevC.01\State=1-A1\HF=-228.7272923\RMSD=8.859e-03\Dipole=0.,0.,-0.3
 722225\Quadrupole=-3.2588104,3.2251196,0.0336908,0.,0.,0.\PG=C02V [C2(

 Normal termination of Gaussian 16 at Sat Apr  5 22:58:17 2025.
