 Gaussian 16, Revision C.01,

 ----------------------------------------------------------------------
 #t hf aug-cc-pvdz symm=none int=(grid=ultrafine) guess=(read,tcheck) s
 table=(opt,rrhf)
 ----------------------------------------------------------------------
 -----
 title
 -----
 Symbolic Z-matrix:
 Charge =  0 Multiplicity = 1

 SCF Done:  E(RHF) =  -341.399614849     A.U. after   15 cycles
 Normal termination of Gaussian 16 at Sat Apr  5 22:58:18 2025.
 Gaussian 16:  ES64L-G16RevC.01  3-Jul-2019

 ----------------------------------------------------------------------
 #t hf aug-cc-pvdz iop(5/13=1,5/36=2,99/5=2) pseudo=read geom=check gue
 ss=(read,tcheck) scf=(maxcycle=1)
 ----------------------------------------------------------------------
 -----
 title
 -----
 Structure from the checkpoint file:  "furan-2-carbaldehyde.chk"
 Charge =  0 Multiplicity = 1

                         Standard orientation:
 ---------------------------------------------------------------------
 Center     Atomic      Atomic             Coordinates (Angstroms)
 Number     Number       Type             X           Y           Z
 ---------------------------------------------------------------------
      1          6           0       -0.300615   -1.924790    0.000000
      2          6           0       -0.970523   -0.674797    0.000000
      3          6           0        1.032092   -1.640070    0.000000
      4          6           0        0.000000    0.288032    0.000000
      5          6           0       -0.029988    1.739577    0.000000
      6          8           0       -1.049576    2.396115    0.000000
      7          8           0        1.237658   -0.307636    0.000000
      8          1           0       -0.741738   -2.906165    0.000000
      9          1           0       -2.030305   -0.489429    0.000000
     10          1           0        1.913638   -2.256025    0.000000
     11          1           0        0.967952    2.216073    0.000000
 ---------------------------------------------------------------------

 SCF Done:  E(RHF) =  -341.505860901     A.U. after    2 cycles

 The electronic state is 1-A'.
 Alpha  occ. eigenvalues --  -20.66316 -20.57416 -11.35533 -11.33051 -11.31285
 Alpha  occ. eigenvalues --  -11.27304 -11.26125  -1.44750  -1.35882  -1.10527
 Alpha  occ. eigenvalues --   -1.05170  -0.89565  -0.83774  -0.79315  -0.74512
 Alpha  occ. eigenvalues --   -0.68417  -0.67826  -0.64583  -0.60475  -0.60385
 Alpha  occ. eigenvalues --   -0.57707  -0.55325  -0.45490  -0.42756  -0.34422
 Alpha virt. eigenvalues --    0.02864   0.03938   0.04643   0.05072   0.05641
 Alpha virt. eigenvalues --    0.09501   0.09582   0.11022   0.11664   0.11999
 Alpha virt. eigenvalues --    0.12566   0.12616   0.14501   0.15045   0.15393

 Mulliken charges:
               1
     1  C    0.570352
     2  C    0.277462
     3  C    0.481778
     4  C    0.086261
     5  C    0.754414
     6  O   -0.490513
     7  O   -0.531726
     8  H   -0.291657
     9  H   -0.326385
    10  H   -0.323760
    11  H   -0.206225
 Sum of Mulliken charges =  -0.00000

 Dipole moment (field-independent basis, Debye):
    X=              1.6409    Y=             -3.7354    Z=              0.0000  Tot=              4.0799

 Test job not archived.
 1\1\GINC-SE249\SP\RHF\Aug-CC-pVDZ\C5H4O2\OHZDE\05-Apr-2025\0\\#t hf au
 g-cc-pvdz iop(5/13=1,5/36=2,99/5=2) pseudo=read geom=check guess=(read
 ,tcheck) scf=(maxcycle=1)\\title\\0,1\C,0,-0.300615,-1.92479,0.\C,0,-0
 .970523,-0.674797,0.\C,0,1.032092,-1.64007,0.\C,0,0.,0.288032,0.\C,0,-
 0.029988,1.739577,0.\O,0,-1.049576,2.396115,0.\O,0,1.237658,-0.307636,
 0.\H,0,-0.741739,-2.906165,0.\H,0,-2.030305,-0.489429,0.\H,0,1.913637,
 -2.256025,0.\H,0,0.967952,2.216073,0.\\Version=ES64L-G16RevC.01\State=
 1-A'\HF=-341.5058609\RMSD=8.741e-03\Dipole=0.645568,-1.4696085,0.\Quad

 Normal termination of Gaussian 16 at Sat Apr  5 22:58:23 2025.
