 Gaussian 16, Revision C.01,

 ----------------------------------------------------------------------
 #t hf aug-cc-pvdz symm=none int=(grid=ultrafine) guess=(read,tcheck) s
 table=(opt,rrhf)
 ----------------------------------------------------------------------
 -----
 title
 -----
 Symbolic Z-matrix:
 Charge =  0 Multiplicity = 1

 SCF Done:  E(RHF) =  -304.745852858     A.U. after   13 cycles
 Normal termination of Gaussian 16 at Sat Apr  5 22:58:18 2025.
 Gaussian 16:  ES64L-G16RevC.01  3-Jul-2019

 ----------------------------------------------------------------------
 #t hf aug-cc-pvdz iop(5/13=1,5/36=2,99/5=2) pseudo=read geom=check gue
 ss=(read,tcheck) scf=(maxcycle=1)
 ----------------------------------------------------------------------
 -----
 title
 -----
 Structure from the checkpoint file:  "gamma-butyrolactone.chk"
 Charge =  0 Multiplicity = 1

                         Standard orientation:
 ---------------------------------------------------------------------
 Center     Atomic      Atomic             Coordinates (Angstroms)
 Number     Number       Type             X           Y           Z
 ---------------------------------------------------------------------
      1          1           0       -0.333393    2.025670   -0.458487
      2          1           0        1.594629    0.802016   -1.272848
      3          1           0        1.833367   -1.474019   -0.539014
      4          1           0       -0.033158    1.529153    1.201325
      5          6           0        0.022543    1.205712    0.159355
      6          1           0        2.219734    1.139183    0.340551
      7          6           0        1.405703    0.669565   -0.207531
      8          1           0        1.546271   -1.040846    1.156693
      9          6           0        1.270591   -0.821030    0.123306
     10          8           0       -2.082550   -0.030352   -0.067109
     11          6           0       -0.888795   -0.002092    0.002806
     12          8           0       -0.128412   -1.131408   -0.044870
 ---------------------------------------------------------------------

 SCF Done:  E(RHF) =  -304.842137594     A.U. after    2 cycles

 The electronic state is 1-A.
 Alpha  occ. eigenvalues --  -20.61604 -20.55697 -11.39254 -11.31528 -11.26660
 Alpha  occ. eigenvalues --  -11.26421  -1.41751  -1.33308  -1.08760  -0.99146
 Alpha  occ. eigenvalues --   -0.86217  -0.78473  -0.72023  -0.70572  -0.66248
 Alpha  occ. eigenvalues --   -0.61766  -0.60573  -0.59127  -0.55163  -0.52450
 Alpha  occ. eigenvalues --   -0.50689  -0.47101  -0.45331
 Alpha virt. eigenvalues --    0.02728   0.04093   0.04244   0.05153   0.06421
 Alpha virt. eigenvalues --    0.06737   0.09645   0.10694   0.11027   0.13194
 Alpha virt. eigenvalues --    0.13728   0.14341   0.14815   0.14944   0.15286

 Mulliken charges:
               1
     1  H   -0.032017
     2  H   -0.123684
     3  H   -0.174851
     4  H    0.007159
     5  C    0.037545
     6  H   -0.033628
     7  C    0.181601
     8  H   -0.182354
     9  C    0.919305
    10  O   -0.465993
    11  C    0.511883
    12  O   -0.644967
 Sum of Mulliken charges =  -0.00000

 Dipole moment (field-independent basis, Debye):
    X=              5.1146    Y=              1.8861    Z=              0.4571  Tot=              5.4704

 Test job not archived.
 1\1\GINC-SE255\SP\RHF\Aug-CC-pVDZ\C4H6O2\OHZDE\05-Apr-2025\0\\#t hf au
 g-cc-pvdz iop(5/13=1,5/36=2,99/5=2) pseudo=read geom=check guess=(read
 ,tcheck) scf=(maxcycle=1)\\title\\0,1\H,0,-0.333392,2.02567,-0.458487\
 H,0,1.594629,0.802015,-1.272848\H,0,1.833366,-1.47402,-0.539014\H,0,-0
 .033157,1.529153,1.201325\C,0,0.022543,1.205712,0.159355\H,0,2.219734,
 1.139182,0.340551\C,0,1.405703,0.669564,-0.207531\H,0,1.54627,-1.04084
 7,1.156693\C,0,1.270591,-0.821031,0.123306\O,0,-2.08255,-0.030351,-0.0
 67109\C,0,-0.888795,-0.002092,0.002806\O,0,-0.128413,-1.131408,-0.0448

 Normal termination of Gaussian 16 at Sat Apr  5 22:58:22 2025.
