 Gaussian 16, Revision C.01,

 ----------------------------------------------------------------------
 #t hf aug-cc-pvdz symm=none int=(grid=ultrafine) guess=(read,tcheck) s
 table=(opt,rrhf)
 ----------------------------------------------------------------------
 -----
 title
 -----
 Symbolic Z-matrix:
 Charge =  0 Multiplicity = 1

 SCF Done:  E(RHF) =  -683.460945034     A.U. after   12 cycles

 1\1\GINC-SE273\Stability\RHF\Aug-CC-pVDZ\C6H12O6\OHZDE\05-Apr-2025\0\\
 #t hf aug-cc-pvdz symm=none int=(grid=ultrafine) guess=(read,tcheck) s
 table=(opt,rrhf)\\title\\0,1\C,0,1.115853,0.989979,0.20106\C,0,-0.3144
 74,1.262685,-0.24486\C,0,1.590049,-0.399146,-0.223279\C,0,-1.222885,0.
 133264,0.240191\C,0,0.581955,-1.449023,0.245268\C,0,-2.647642,0.247392
 ,-0.273872\O,0,-0.712544,-1.117915,-0.238783\O,0,1.938737,2.012668,-0.
 343122\O,0,-0.797977,2.486634,0.288\O,0,2.916634,-0.629266,0.240675\O,
 0,0.944839,-2.68659,-0.268393\O,0,-3.47743,-0.790535,0.223836\H,0,1.14

 Normal termination of Gaussian 16 at Sat Apr  5 23:01:33 2025.
 Gaussian 16:  ES64L-G16RevC.01  3-Jul-2019

 ----------------------------------------------------------------------
 #t hf aug-cc-pvdz iop(5/13=1,5/36=2,99/5=2) pseudo=read geom=check gue
 ss=(read,tcheck) scf=(maxcycle=1)
 ----------------------------------------------------------------------
 -----
 title
 -----
 Structure from the checkpoint file:  "glucose.chk"
 Charge =  0 Multiplicity = 1

                         Standard orientation:
 ---------------------------------------------------------------------
 Center     Atomic      Atomic             Coordinates (Angstroms)
 Number     Number       Type             X           Y           Z
 ---------------------------------------------------------------------
      1          6           0        1.115853    0.989979    0.201060
      2          6           0       -0.314474    1.262685   -0.244860
      3          6           0        1.590049   -0.399146   -0.223279
      4          6           0       -1.222885    0.133264    0.240191
      5          6           0        0.581955   -1.449023    0.245268
      6          6           0       -2.647642    0.247392   -0.273872
      7          8           0       -0.712544   -1.117915   -0.238783
      8          8           0        1.938737    2.012668   -0.343122
      9          8           0       -0.797977    2.486634    0.288000
     10          8           0        2.916634   -0.629266    0.240675
     11          8           0        0.944839   -2.686590   -0.268393
     12          8           0       -3.477430   -0.790535    0.223836
     13          1           0        1.140111    1.046893    1.299737
     14          1           0       -0.336642    1.288486   -1.341217
     15          1           0        1.646637   -0.454256   -1.310960
     16          1           0       -1.241659    0.127736    1.337503
     17          1           0        0.545143   -1.472520    1.349105
     18          1           0       -2.633844    0.247751   -1.369821
     19          1           0       -3.076579    1.187253    0.065541
     20          1           0        2.858515    1.774040   -0.179127
     21          1           0       -0.153038    3.172141    0.080576
     22          1           0        2.899013   -0.846682    1.179337
     23          1           0        0.327548   -3.352594    0.052774
     24          1           0       -3.090410   -1.629125   -0.048206
 ---------------------------------------------------------------------

 SCF Done:  E(RHF) =  -683.670181129     A.U. after    2 cycles

 The electronic state is 1-A.
 Alpha  occ. eigenvalues --  -20.60093 -20.60006 -20.59937 -20.59105 -20.58571
 Alpha  occ. eigenvalues --  -20.57270 -11.37212 -11.31129 -11.30944 -11.30756
 Alpha  occ. eigenvalues --  -11.30683 -11.28940  -1.40203  -1.36015  -1.34743
 Alpha  occ. eigenvalues --   -1.33246  -1.32484  -1.31538  -1.06779  -1.04675
 Alpha  occ. eigenvalues --   -0.94730  -0.88854  -0.86106  -0.82758  -0.77216
 Alpha  occ. eigenvalues --   -0.74572  -0.73841  -0.72418  -0.69769  -0.68815
 Alpha  occ. eigenvalues --   -0.67700  -0.65027  -0.64215  -0.61922  -0.61122
 Alpha  occ. eigenvalues --   -0.60244  -0.58584  -0.57426  -0.56810  -0.54124
 Alpha  occ. eigenvalues --   -0.53554  -0.53223  -0.51046  -0.49293  -0.47367
 Alpha  occ. eigenvalues --   -0.46891  -0.45212  -0.44772
 Alpha virt. eigenvalues --    0.02617   0.03628   0.04104   0.04875   0.05581
 Alpha virt. eigenvalues --    0.05958   0.06191   0.06683   0.06914   0.08036
 Alpha virt. eigenvalues --    0.08811   0.09267   0.11727   0.12687   0.12867

 Mulliken charges:
               1
     1  C    0.478020
     2  C    0.619624
     3  C    0.102610
     4  C    0.284753
     5  C    1.258951
     6  C    1.051339
     7  O   -0.896800
     8  O   -0.670821
     9  O   -0.670525
    10  O   -0.582248
    11  O   -0.557493
    12  O   -0.561317
    13  H   -0.097506
    14  H   -0.010140
    15  H   -0.082464
    16  H   -0.184200
    17  H   -0.152325
    18  H   -0.107417
    19  H   -0.063827
    20  H    0.179100
    21  H    0.181312
    22  H    0.143754
    23  H    0.163999
    24  H    0.173619
 Sum of Mulliken charges =  -0.00000

 Dipole moment (field-independent basis, Debye):
    X=              1.7231    Y=             -0.7800    Z=              1.7758  Tot=              2.5944

 Test job not archived.
 1\1\GINC-SE273\SP\RHF\Aug-CC-pVDZ\C6H12O6\OHZDE\05-Apr-2025\0\\#t hf a
 ug-cc-pvdz iop(5/13=1,5/36=2,99/5=2) pseudo=read geom=check guess=(rea
 d,tcheck) scf=(maxcycle=1)\\title\\0,1\C,0,1.115853,0.989979,0.20106\C
 ,0,-0.314474,1.262685,-0.24486\C,0,1.590049,-0.399146,-0.223279\C,0,-1
 .222885,0.133264,0.240191\C,0,0.581955,-1.449023,0.245268\C,0,-2.64764
 2,0.247392,-0.273872\O,0,-0.712544,-1.117915,-0.238783\O,0,1.938737,2.
 012668,-0.343122\O,0,-0.797977,2.486634,0.288\O,0,2.916634,-0.629266,0
 .240675\O,0,0.944839,-2.68659,-0.268393\O,0,-3.47743,-0.790535,0.22383

 Normal termination of Gaussian 16 at Sat Apr  5 23:02:31 2025.
