 Gaussian 16, Revision C.01,

 ----------------------------------------------------------------------
 #t hf aug-cc-pvdz symm=none int=(grid=ultrafine) guess=(read,tcheck) s
 table=(opt,rrhf)
 ----------------------------------------------------------------------
 -----
 title
 -----
 Symbolic Z-matrix:
 Charge =  0 Multiplicity = 1

 SCF Done:  E(RHF) =  -548.609588181     A.U. after   14 cycles
 Normal termination of Gaussian 16 at Sat Apr  5 22:59:58 2025.
 Gaussian 16:  ES64L-G16RevC.01  3-Jul-2019

 ----------------------------------------------------------------------
 #t hf aug-cc-pvdz iop(5/13=1,5/36=2,99/5=2) pseudo=read geom=check gue
 ss=(read,tcheck) scf=(maxcycle=1)
 ----------------------------------------------------------------------
 -----
 title
 -----
 Structure from the checkpoint file:  "glutamic_acid.chk"
 Charge =  0 Multiplicity = 1

                         Standard orientation:
 ---------------------------------------------------------------------
 Center     Atomic      Atomic             Coordinates (Angstroms)
 Number     Number       Type             X           Y           Z
 ---------------------------------------------------------------------
      1          7           0        0.630582    1.427132    0.497820
      2          6           0        0.942174   -0.008642    0.479325
      3          6           0        2.405547   -0.219182    0.025066
      4          8           0        2.939125   -1.297716    0.031446
      5          8           0        3.012778    0.899944   -0.375393
      6          1           0        2.332608    1.605804   -0.257569
      7          6           0        0.024429   -0.827843   -0.440883
      8          6           0       -1.389805   -1.084945    0.084499
      9          6           0       -2.385902    0.029375   -0.119800
     10          8           0       -2.158654    1.123873   -0.578738
     11          8           0       -3.623769   -0.339435    0.271599
     12          1           0        0.891335   -0.439220    1.483407
     13          1           0       -0.025257   -0.346028   -1.419975
     14          1           0        0.508995   -1.791744   -0.586679
     15          1           0       -1.813631   -1.966586   -0.401442
     16          1           0       -1.380996   -1.327411    1.150793
     17          1           0       -0.248077    1.634248    0.037933
     18          1           0        0.602211    1.803939    1.434644
     19          1           0       -4.215760    0.411176    0.113596
 ---------------------------------------------------------------------

 SCF Done:  E(RHF) =  -548.780746375     A.U. after    2 cycles

 The electronic state is 1-A.
 Alpha  occ. eigenvalues --  -20.64858 -20.60561 -20.59238 -20.54819 -15.63522
 Alpha  occ. eigenvalues --  -11.42733 -11.38485 -11.30325 -11.28161 -11.26526
 Alpha  occ. eigenvalues --   -1.45197  -1.40926  -1.35352  -1.31924  -1.18736
 Alpha  occ. eigenvalues --   -1.08702  -0.99321  -0.90312  -0.82805  -0.80986
 Alpha  occ. eigenvalues --   -0.74918  -0.73890  -0.73444  -0.69766  -0.68857
 Alpha  occ. eigenvalues --   -0.67115  -0.63845  -0.62882  -0.62343  -0.60717
 Alpha  occ. eigenvalues --   -0.57799  -0.54899  -0.54045  -0.53163  -0.51637
 Alpha  occ. eigenvalues --   -0.49350  -0.48115  -0.47018  -0.41477
 Alpha virt. eigenvalues --    0.02283   0.03487   0.03996   0.04509   0.06237
 Alpha virt. eigenvalues --    0.06482   0.06716   0.07543   0.08352   0.10963
 Alpha virt. eigenvalues --    0.11309   0.11589   0.12516   0.12692   0.13409

 Mulliken charges:
               1
     1  N   -0.499744
     2  C    0.167032
     3  C    0.706110
     4  O   -0.525256
     5  O   -0.488232
     6  H    0.289275
     7  C    0.430820
     8  C    0.254746
     9  C    0.466466
    10  O   -0.486222
    11  O   -0.505166
    12  H   -0.018283
    13  H   -0.089332
    14  H   -0.108903
    15  H    0.042249
    16  H    0.013677
    17  H    0.109972
    18  H    0.049764
    19  H    0.191026
 Sum of Mulliken charges =   0.00000

 Dipole moment (field-independent basis, Debye):
    X=             -5.9568    Y=              0.9979    Z=              1.9609  Tot=              6.3502

 Test job not archived.
 1\1\GINC-SE273\SP\RHF\Aug-CC-pVDZ\C5H9N1O4\OHZDE\05-Apr-2025\0\\#t hf
 aug-cc-pvdz iop(5/13=1,5/36=2,99/5=2) pseudo=read geom=check guess=(re
 ad,tcheck) scf=(maxcycle=1)\\title\\0,1\N,0,0.630582,1.427132,0.49782\
 C,0,0.942174,-0.008642,0.479325\C,0,2.405547,-0.219182,0.025066\O,0,2.
 939125,-1.297716,0.031446\O,0,3.012778,0.899944,-0.375393\H,0,2.332608
 ,1.605804,-0.257569\C,0,0.024429,-0.827843,-0.440883\C,0,-1.389805,-1.
 084945,0.084499\C,0,-2.385902,0.029375,-0.1198\O,0,-2.158654,1.123873,
 -0.578738\O,0,-3.623769,-0.339435,0.271599\H,0,0.891335,-0.43922,1.483

 Normal termination of Gaussian 16 at Sat Apr  5 23:00:09 2025.
