 Gaussian 16, Revision C.01,

 ----------------------------------------------------------------------
 #t hf aug-cc-pvdz symm=none int=(grid=ultrafine) guess=(read,tcheck) s
 table=(opt,rrhf)
 ----------------------------------------------------------------------
 -----
 title
 -----
 Symbolic Z-matrix:
 Charge =  0 Multiplicity = 1

 SCF Done:  E(RHF) =  -528.771712851     A.U. after   14 cycles
 Normal termination of Gaussian 16 at Sat Apr  5 22:59:35 2025.
 Gaussian 16:  ES64L-G16RevC.01  3-Jul-2019

 ----------------------------------------------------------------------
 #t hf aug-cc-pvdz iop(5/13=1,5/36=2,99/5=2) pseudo=read geom=check gue
 ss=(read,tcheck) scf=(maxcycle=1)
 ----------------------------------------------------------------------
 -----
 title
 -----
 Structure from the checkpoint file:  "glutamine.chk"
 Charge =  0 Multiplicity = 1

                         Standard orientation:
 ---------------------------------------------------------------------
 Center     Atomic      Atomic             Coordinates (Angstroms)
 Number     Number       Type             X           Y           Z
 ---------------------------------------------------------------------
      1          7           0       -1.424042    1.687954   -0.315662
      2          6           0       -1.175219    0.248620   -0.494595
      3          6           0       -2.365563   -0.567051    0.058790
      4          8           0       -2.366240   -1.768365    0.103385
      5          8           0       -3.404107    0.178411    0.450947
      6          1           0       -3.124488    1.108651    0.299481
      7          6           0        0.140646   -0.242894    0.117615
      8          6           0        1.376852    0.225616   -0.655543
      9          6           0        2.649673    0.036162    0.158499
     10          8           0        2.767995    0.503567    1.276755
     11          7           0        3.647934   -0.665145   -0.444780
     12          1           0       -1.174045    0.033000   -1.566491
     13          1           0        0.210972    0.115142    1.147316
     14          1           0        0.114142   -1.330876    0.160468
     15          1           0        1.436071   -0.283556   -1.619729
     16          1           0        1.310231    1.297639   -0.858898
     17          1           0        3.536523   -1.093206   -1.344786
     18          1           0        4.500031   -0.822115    0.066469
     19          1           0       -0.866188    2.078023    0.433662
     20          1           0       -1.250015    2.226005   -1.151686
 ---------------------------------------------------------------------

 SCF Done:  E(RHF) =  -528.935817349     A.U. after    2 cycles

 The electronic state is 1-A.
 Alpha  occ. eigenvalues --  -20.61046 -20.55216 -20.54425 -15.66286 -15.65149
 Alpha  occ. eigenvalues --  -11.39003 -11.37808 -11.30854 -11.26888 -11.25848
 Alpha  occ. eigenvalues --   -1.41363  -1.35763  -1.32379  -1.19812  -1.19084
 Alpha  occ. eigenvalues --   -1.07254  -0.98130  -0.88098  -0.81913  -0.80281
 Alpha  occ. eigenvalues --   -0.75290  -0.73068  -0.70791  -0.69585  -0.67795
 Alpha  occ. eigenvalues --   -0.64101  -0.63588  -0.62931  -0.61372  -0.58958
 Alpha  occ. eigenvalues --   -0.57438  -0.54095  -0.52091  -0.51602  -0.48402
 Alpha  occ. eigenvalues --   -0.47837  -0.45212  -0.43002  -0.42234
 Alpha virt. eigenvalues --    0.01948   0.02824   0.03798   0.04875   0.05394
 Alpha virt. eigenvalues --    0.06112   0.06884   0.07623   0.08332   0.08609
 Alpha virt. eigenvalues --    0.10874   0.11287   0.12676   0.12955   0.13328

 Mulliken charges:
               1
     1  N   -0.625617
     2  C    0.296237
     3  C    0.684786
     4  O   -0.485304
     5  O   -0.481488
     6  H    0.272198
     7  C    0.287643
     8  C    0.421274
     9  C    0.601037
    10  O   -0.556293
    11  N   -0.096729
    12  H    0.032262
    13  H   -0.094619
    14  H   -0.157390
    15  H   -0.211834
    16  H   -0.018093
    17  H   -0.009078
    18  H   -0.029688
    19  H    0.098898
    20  H    0.071798
 Sum of Mulliken charges =  -0.00000

 Dipole moment (field-independent basis, Debye):
    X=              3.7359    Y=              2.7350    Z=             -5.0262  Tot=              6.8337

 Test job not archived.
 1\1\GINC-SE388\SP\RHF\Aug-CC-pVDZ\C5H10N2O3\OHZDE\05-Apr-2025\0\\#t hf
  aug-cc-pvdz iop(5/13=1,5/36=2,99/5=2) pseudo=read geom=check guess=(r
 ead,tcheck) scf=(maxcycle=1)\\title\\0,1\N,0,-1.424042,1.687954,-0.315
 662\C,0,-1.175219,0.24862,-0.494595\C,0,-2.365563,-0.567051,0.05879\O,
 0,-2.36624,-1.768365,0.103385\O,0,-3.404107,0.178411,0.450947\H,0,-3.1
 24488,1.108651,0.299481\C,0,0.140646,-0.242894,0.117615\C,0,1.376852,0
 .225616,-0.655543\C,0,2.649673,0.036162,0.158499\O,0,2.767995,0.503567
 ,1.276755\N,0,3.647934,-0.665145,-0.44478\H,0,-1.174045,0.033,-1.56649

 Normal termination of Gaussian 16 at Sat Apr  5 23:00:07 2025.
