 Gaussian 16, Revision C.01,

 ----------------------------------------------------------------------
 #t hf aug-cc-pvdz symm=none int=(grid=ultrafine) guess=(read,tcheck) s
 table=(opt,rrhf)
 ----------------------------------------------------------------------
 -----
 title
 -----
 Symbolic Z-matrix:
 Charge =  0 Multiplicity = 1

 SCF Done:  E(RHF) =  -342.887774761     A.U. after   12 cycles
 Normal termination of Gaussian 16 at Sat Apr  5 22:58:26 2025.
 Gaussian 16:  ES64L-G16RevC.01  3-Jul-2019

 ----------------------------------------------------------------------
 #t hf aug-cc-pvdz iop(5/13=1,5/36=2,99/5=2) pseudo=read geom=check gue
 ss=(read,tcheck) scf=(maxcycle=1)
 ----------------------------------------------------------------------
 -----
 title
 -----
 Structure from the checkpoint file:  "glycerine.chk"
 Charge =  0 Multiplicity = 1

                         Standard orientation:
 ---------------------------------------------------------------------
 Center     Atomic      Atomic             Coordinates (Angstroms)
 Number     Number       Type             X           Y           Z
 ---------------------------------------------------------------------
      1          8           0       -2.417963    0.047987   -0.123897
      2          1           0       -1.254547   -0.774720    1.304580
      3          1           0       -1.302489   -1.718686   -0.195314
      4          6           0       -1.251091   -0.706463    0.216624
      5          8           0        0.061919    1.328254    0.263126
      6          1           0        0.015456    0.038391   -1.353421
      7          6           0        0.012297    0.000165   -0.254588
      8          1           0        1.281639   -0.756010    1.300499
      9          1           0        1.324011   -1.707294   -0.195753
     10          6           0        1.283432   -0.694142    0.205599
     11          1           0        2.364208    0.899324   -0.013832
     12          8           0        2.446879   -0.029282   -0.258813
     13          1           0       -0.816557    1.714063    0.164460
     14          1           0       -2.606229   -0.068088   -1.060358
 ---------------------------------------------------------------------

 SCF Done:  E(RHF) =  -342.996455485     A.U. after    2 cycles

 The electronic state is 1-A.
 Alpha  occ. eigenvalues --  -20.59431 -20.57895 -20.56897 -11.30308 -11.29840
 Alpha  occ. eigenvalues --  -11.29062  -1.35228  -1.32985  -1.30910  -1.03731
 Alpha  occ. eigenvalues --   -0.92467  -0.83480  -0.74430  -0.72029  -0.69085
 Alpha  occ. eigenvalues --   -0.66275  -0.63727  -0.60124  -0.59450  -0.55776
 Alpha  occ. eigenvalues --   -0.54389  -0.51857  -0.49752  -0.45708  -0.45268
 Alpha virt. eigenvalues --    0.02933   0.04300   0.04745   0.05201   0.06752
 Alpha virt. eigenvalues --    0.06990   0.07058   0.08348   0.11053   0.12661
 Alpha virt. eigenvalues --    0.13664   0.14902   0.15312   0.15516   0.16276

 Mulliken charges:
               1
     1  O   -0.599769
     2  H   -0.107064
     3  H   -0.087520
     4  C    0.834144
     5  O   -0.637858
     6  H   -0.138637
     7  C    0.015423
     8  H   -0.073229
     9  H   -0.125732
    10  C    0.990544
    11  H    0.178824
    12  O   -0.580380
    13  H    0.170441
    14  H    0.160813
 Sum of Mulliken charges =  -0.00000

 Dipole moment (field-independent basis, Debye):
    X=             -2.0894    Y=             -1.1677    Z=             -0.9287  Tot=              2.5674

 Test job not archived.
 1\1\GINC-SE388\SP\RHF\Aug-CC-pVDZ\C3H8O3\OHZDE\05-Apr-2025\0\\#t hf au
 g-cc-pvdz iop(5/13=1,5/36=2,99/5=2) pseudo=read geom=check guess=(read
 ,tcheck) scf=(maxcycle=1)\\title\\0,1\O,0,-2.417963,0.047987,-0.123897
 \H,0,-1.254547,-0.77472,1.30458\H,0,-1.302489,-1.718686,-0.195314\C,0,
 -1.251091,-0.706463,0.216624\O,0,0.061919,1.328254,0.263126\H,0,0.0154
 56,0.038391,-1.353421\C,0,0.012297,0.000165,-0.254588\H,0,1.281639,-0.
 75601,1.300499\H,0,1.324011,-1.707294,-0.195753\C,0,1.283432,-0.694142
 ,0.205599\H,0,2.364208,0.899324,-0.013832\O,0,2.446879,-0.029282,-0.25

 Normal termination of Gaussian 16 at Sat Apr  5 22:58:31 2025.
