 Gaussian 16, Revision C.01,

 ----------------------------------------------------------------------
 #t hf aug-cc-pvdz symm=none int=(grid=ultrafine) guess=(read,tcheck) s
 table=(opt,rrhf)
 ----------------------------------------------------------------------
 -----
 title
 -----
 Symbolic Z-matrix:
 Charge =  0 Multiplicity = 1

 SCF Done:  E(RHF) =  -302.716200845     A.U. after   13 cycles
 Normal termination of Gaussian 16 at Sat Apr  5 22:58:14 2025.
 Gaussian 16:  ES64L-G16RevC.01  3-Jul-2019

 ----------------------------------------------------------------------
 #t hf aug-cc-pvdz iop(5/13=1,5/36=2,99/5=2) pseudo=read geom=check gue
 ss=(read,tcheck) scf=(maxcycle=1)
 ----------------------------------------------------------------------
 -----
 title
 -----
 Structure from the checkpoint file:  "glycolic_acid.chk"
 Charge =  0 Multiplicity = 1

                         Standard orientation:
 ---------------------------------------------------------------------
 Center     Atomic      Atomic             Coordinates (Angstroms)
 Number     Number       Type             X           Y           Z
 ---------------------------------------------------------------------
      1          6           0       -0.738863   -0.744609    0.000092
      2          6           0        0.514163    0.098603    0.000027
      3          8           0        1.636178   -0.642445   -0.000068
      4          8           0        0.505631    1.304270    0.000046
      5          8           0       -1.893095    0.053803   -0.000097
      6          1           0       -0.715438   -1.394908   -0.880519
      7          1           0       -0.715500   -1.394600    0.880937
      8          1           0       -1.602727    0.976905   -0.000086
      9          1           0        2.392158   -0.036384   -0.000096
 ---------------------------------------------------------------------

 SCF Done:  E(RHF) =  -302.814096966     A.U. after    2 cycles

 The electronic state is 1-A.
 Alpha  occ. eigenvalues --  -20.64794 -20.58915 -20.58367 -11.42023 -11.31971
 Alpha  occ. eigenvalues --   -1.45057  -1.35953  -1.33256  -1.00983  -0.85270
 Alpha  occ. eigenvalues --   -0.76114  -0.74271  -0.69804  -0.66503  -0.62963
 Alpha  occ. eigenvalues --   -0.62958  -0.56294  -0.52646  -0.49474  -0.48107
 Alpha virt. eigenvalues --    0.03044   0.04748   0.05385   0.06237   0.09854
 Alpha virt. eigenvalues --    0.11038   0.11203   0.12086   0.14205   0.14892
 Alpha virt. eigenvalues --    0.16031   0.16189   0.18822   0.20451   0.22119

 Mulliken charges:
               1
     1  C    0.744686
     2  C    0.402689
     3  O   -0.464603
     4  O   -0.487765
     5  O   -0.538150
     6  H   -0.009918
     7  H   -0.009867
     8  H    0.184738
     9  H    0.178191
 Sum of Mulliken charges =  -0.00000

 Dipole moment (field-independent basis, Debye):
    X=              2.0989    Y=             -1.3022    Z=              0.0002  Tot=              2.4700

 Test job not archived.
 1\1\GINC-SE398\SP\RHF\Aug-CC-pVDZ\C2H4O3\OHZDE\05-Apr-2025\0\\#t hf au
 g-cc-pvdz iop(5/13=1,5/36=2,99/5=2) pseudo=read geom=check guess=(read
 ,tcheck) scf=(maxcycle=1)\\title\\0,1\C,0,-0.738863,-0.744609,0.000092
 \C,0,0.514163,0.098603,0.000027\O,0,1.636178,-0.642444,-0.000068\O,0,0
 .50563,1.30427,0.000046\O,0,-1.893095,0.053802,-0.000097\H,0,-0.715437
 ,-1.394908,-0.880519\H,0,-0.715499,-1.3946,0.880937\H,0,-1.602727,0.97
 6904,-0.000086\H,0,2.392158,-0.036383,-0.000096\\Version=ES64L-G16RevC
 .01\State=1-A\HF=-302.814097\RMSD=3.612e-03\Dipole=0.82576,-0.5123413,

 Normal termination of Gaussian 16 at Sat Apr  5 22:58:17 2025.
