 Gaussian 16, Revision C.01,

 ----------------------------------------------------------------------
 #t hf aug-cc-pvdz symm=none int=(grid=ultrafine) guess=(read,tcheck) s
 table=(opt,rrhf)
 ----------------------------------------------------------------------
 -----
 title
 -----
 Symbolic Z-matrix:
 Charge =  0 Multiplicity = 1

 SCF Done:  E(RHF) =  -282.885044295     A.U. after   13 cycles
 Normal termination of Gaussian 16 at Sat Apr  5 22:58:14 2025.
 Gaussian 16:  ES64L-G16RevC.01  3-Jul-2019

 ----------------------------------------------------------------------
 #t hf aug-cc-pvdz iop(5/13=1,5/36=2,99/5=2) pseudo=read geom=check gue
 ss=(read,tcheck) scf=(maxcycle=1)
 ----------------------------------------------------------------------
 -----
 title
 -----
 Structure from the checkpoint file:  "glycine.chk"
 Charge =  0 Multiplicity = 1

                         Standard orientation:
 ---------------------------------------------------------------------
 Center     Atomic      Atomic             Coordinates (Angstroms)
 Number     Number       Type             X           Y           Z
 ---------------------------------------------------------------------
      1          6           0        0.000000    0.554399    0.000000
      2          8           0        1.166268    0.850486    0.000000
      3          8           0       -0.993246    1.475442    0.000000
      4          6           0       -0.558650   -0.860872    0.000000
      5          7           0        0.418261   -1.927134    0.000000
      6          1           0       -0.577661    2.350468    0.000000
      7          1           0       -1.213149   -0.954876    0.869365
      8          1           0       -1.213149   -0.954876   -0.869365
      9          1           0        1.021928   -1.859686    0.809956
     10          1           0        1.021928   -1.859686   -0.809956
 ---------------------------------------------------------------------

 SCF Done:  E(RHF) =  -282.975033825     A.U. after    2 cycles

 The electronic state is 1-A'.
 Alpha  occ. eigenvalues --  -20.63230 -20.57337 -15.61949 -11.40334 -11.29085
 Alpha  occ. eigenvalues --   -1.43244  -1.33560  -1.16808  -0.97509  -0.82781
 Alpha  occ. eigenvalues --   -0.72567  -0.71212  -0.69974  -0.64276  -0.61564
 Alpha  occ. eigenvalues --   -0.59238  -0.54051  -0.51021  -0.48603  -0.40902
 Alpha virt. eigenvalues --    0.03312   0.04711   0.04712   0.05244   0.08182
 Alpha virt. eigenvalues --    0.09800   0.11575   0.11601   0.12230   0.14658
 Alpha virt. eigenvalues --    0.15844   0.16015   0.17169   0.19068   0.19207

 Mulliken charges:
               1
     1  C    0.466260
     2  O   -0.474306
     3  O   -0.497182
     4  C    0.630588
     5  N   -0.355020
     6  H    0.184640
     7  H   -0.007201
     8  H   -0.007201
     9  H    0.029711
    10  H    0.029711
 Sum of Mulliken charges =  -0.00000

 Dipole moment (field-independent basis, Debye):
    X=             -1.1083    Y=              0.5984    Z=              0.0000  Tot=              1.2595

 Test job not archived.
 1\1\GINC-SE396\SP\RHF\Aug-CC-pVDZ\C2H5N1O2\OHZDE\05-Apr-2025\0\\#t hf
 aug-cc-pvdz iop(5/13=1,5/36=2,99/5=2) pseudo=read geom=check guess=(re
 ad,tcheck) scf=(maxcycle=1)\\title\\0,1\C,0,0.,0.554399,0.\O,0,1.16626
 8,0.850486,0.\O,0,-0.993246,1.475442,0.\C,0,-0.55865,-0.860872,0.\N,0,
 0.418261,-1.927134,0.\H,0,-0.577661,2.350468,0.\H,0,-1.213149,-0.95487
 6,0.869365\H,0,-1.213149,-0.954876,-0.869365\H,0,1.021928,-1.859686,0.
 809956\H,0,1.021928,-1.859686,-0.809956\\Version=ES64L-G16RevC.01\Stat
 e=1-A'\HF=-282.9750338\RMSD=3.434e-03\Dipole=-0.4360337,0.2354377,0.\Q

 Normal termination of Gaussian 16 at Sat Apr  5 22:58:17 2025.
