 Gaussian 16, Revision C.01,

 ----------------------------------------------------------------------
 #t hf aug-cc-pvdz symm=none int=(grid=ultrafine) guess=(read,tcheck) s
 table=(opt,rrhf)
 ----------------------------------------------------------------------
 -----
 title
 -----
 Symbolic Z-matrix:
 Charge =  0 Multiplicity = 1

 SCF Done:  E(RHF) =  -336.586315073     A.U. after   13 cycles
 Normal termination of Gaussian 16 at Sat Apr  5 22:58:17 2025.
 Gaussian 16:  ES64L-G16RevC.01  3-Jul-2019

 ----------------------------------------------------------------------
 #t hf aug-cc-pvdz iop(5/13=1,5/36=2,99/5=2) pseudo=read geom=check gue
 ss=(read,tcheck) scf=(maxcycle=1)
 ----------------------------------------------------------------------
 -----
 title
 -----
 Structure from the checkpoint file:  "glyoxime.chk"
 Charge =  0 Multiplicity = 1

                         Standard orientation:
 ---------------------------------------------------------------------
 Center     Atomic      Atomic             Coordinates (Angstroms)
 Number     Number       Type             X           Y           Z
 ---------------------------------------------------------------------
      1          8           0        1.166590    2.672477    0.000000
      2          8           0       -1.166590   -2.672477    0.000000
      3          7           0        1.166590    1.298532    0.000000
      4          7           0       -1.166590   -1.298532    0.000000
      5          6           0        0.027863    0.723227    0.000000
      6          6           0       -0.027863   -0.723227    0.000000
      7          1           0        0.248784    2.997834    0.000000
      8          1           0       -0.248784   -2.997834    0.000000
      9          1           0       -0.917383    1.269774    0.000000
     10          1           0        0.917383   -1.269774    0.000000
 ---------------------------------------------------------------------

 SCF Done:  E(RHF) =  -336.687318313     A.U. after    2 cycles

 The electronic state is 1-AG.
 Alpha  occ. eigenvalues --  -20.64061 -20.64060 -15.72545 -15.72544 -11.31762
 Alpha  occ. eigenvalues --  -11.31683  -1.41569  -1.41349  -1.19390  -1.13214
 Alpha  occ. eigenvalues --   -0.91602  -0.84321  -0.76649  -0.75898  -0.67703
 Alpha  occ. eigenvalues --   -0.64225  -0.63483  -0.62825  -0.57222  -0.48759
 Alpha  occ. eigenvalues --   -0.48301  -0.48172  -0.38235
 Alpha virt. eigenvalues --    0.02656   0.03366   0.05892   0.06732   0.07173
 Alpha virt. eigenvalues --    0.10789   0.10833   0.11211   0.11682   0.13390
 Alpha virt. eigenvalues --    0.14620   0.16758   0.17374   0.17495   0.18491

 Mulliken charges:
               1
     1  O   -0.454121
     2  O   -0.454121
     3  N   -0.168937
     4  N   -0.168937
     5  C    0.836994
     6  C    0.836994
     7  H    0.162707
     8  H    0.162707
     9  H   -0.376643
    10  H   -0.376643
 Sum of Mulliken charges =  -0.00000

 Dipole moment (field-independent basis, Debye):
    X=             -0.0000    Y=             -0.0000    Z=              0.0000  Tot=              0.0000

 Test job not archived.
 1\1\GINC-SE398\SP\RHF\Aug-CC-pVDZ\C2H4N2O2\OHZDE\05-Apr-2025\0\\#t hf
 aug-cc-pvdz iop(5/13=1,5/36=2,99/5=2) pseudo=read geom=check guess=(re
 ad,tcheck) scf=(maxcycle=1)\\title\\0,1\O,0,1.16659,2.672477,0.\O,0,-1
 .16659,-2.672477,0.\N,0,1.16659,1.298532,0.\N,0,-1.16659,-1.298532,0.\
 C,0,0.027863,0.723227,0.\C,0,-0.027863,-0.723227,0.\H,0,0.248784,2.997
 834,0.\H,0,-0.248784,-2.997834,0.\H,0,-0.917383,1.269774,0.\H,0,0.9173
 83,-1.269774,0.\\Version=ES64L-G16RevC.01\State=1-AG\HF=-336.6873183\R
 MSD=4.514e-03\Dipole=0.,0.,0.\Quadrupole=-4.6934813,3.9254202,0.768061

 Normal termination of Gaussian 16 at Sat Apr  5 22:58:19 2025.
