 Gaussian 16, Revision C.01,

 ----------------------------------------------------------------------
 #t hf aug-cc-pvdz symm=none int=(grid=ultrafine) guess=(read,tcheck) s
 table=(opt,rrhf)
 ----------------------------------------------------------------------
 -----
 title
 -----
 Symbolic Z-matrix:
 Charge =  0 Multiplicity = 1

 SCF Done:  E(RHF) =  -204.167999322     A.U. after   13 cycles
 Normal termination of Gaussian 16 at Sat Apr  5 22:57:08 2025.
 Gaussian 16:  ES64L-G16RevC.01  3-Jul-2019

 ----------------------------------------------------------------------
 #t hf aug-cc-pvdz iop(5/13=1,5/36=2,99/5=2) pseudo=read geom=check gue
 ss=(read,tcheck) scf=(maxcycle=1)
 ----------------------------------------------------------------------
 -----
 title
 -----
 Structure from the checkpoint file:  "guanidine.chk"
 Charge =  0 Multiplicity = 1

                         Standard orientation:
 ---------------------------------------------------------------------
 Center     Atomic      Atomic             Coordinates (Angstroms)
 Number     Number       Type             X           Y           Z
 ---------------------------------------------------------------------
      1          6           0       -0.017918    0.121480    0.000209
      2          7           0       -0.222839    1.381238    0.009408
      3          7           0       -0.973010   -0.891051    0.074673
      4          7           0        1.277017   -0.374144   -0.080092
      5          1           0       -1.210359    1.609787   -0.043242
      6          1           0       -1.924503   -0.586110   -0.046428
      7          1           0       -0.761142   -1.727615   -0.447294
      8          1           0        1.968808    0.351335    0.024724
      9          1           0        1.466533   -1.188580    0.483063
 ---------------------------------------------------------------------

 SCF Done:  E(RHF) =  -204.230931072     A.U. after    2 cycles

 The electronic state is 1-A.
 Alpha  occ. eigenvalues --  -15.64545 -15.63447 -15.57737 -11.35872  -1.26350
 Alpha  occ. eigenvalues --   -1.13507  -1.10171  -0.80709  -0.72856  -0.70720
 Alpha  occ. eigenvalues --   -0.62812  -0.60939  -0.56129  -0.42831  -0.41484
 Alpha  occ. eigenvalues --   -0.35851
 Alpha virt. eigenvalues --    0.02909   0.03606   0.04989   0.06486   0.07608
 Alpha virt. eigenvalues --    0.10884   0.13385   0.14788   0.15066   0.16798
 Alpha virt. eigenvalues --    0.17774   0.18468   0.18952   0.19810   0.20898

 Mulliken charges:
               1
     1  C    0.896850
     2  N   -0.363884
     3  N   -0.223360
     4  N   -0.268160
     5  H   -0.016310
     6  H    0.006312
     7  H   -0.017550
     8  H    0.019080
     9  H   -0.032978
 Sum of Mulliken charges =  -0.00000

 Dipole moment (field-independent basis, Debye):
    X=             -0.8691    Y=             -2.9323    Z=             -0.0433  Tot=              3.0587

 Test job not archived.
 1\1\GINC-SE412\SP\RHF\Aug-CC-pVDZ\C1H5N3\OHZDE\05-Apr-2025\0\\#t hf au
 g-cc-pvdz iop(5/13=1,5/36=2,99/5=2) pseudo=read geom=check guess=(read
 ,tcheck) scf=(maxcycle=1)\\title\\0,1\C,0,-0.017919,0.12148,0.000209\N
 ,0,-0.222845,1.381237,0.009408\N,0,-0.973006,-0.891055,0.074673\N,0,1.
 277018,-0.374139,-0.080092\H,0,-1.210366,1.609782,-0.043242\H,0,-1.924
 501,-0.586118,-0.046428\H,0,-0.761135,-1.727618,-0.447294\H,0,1.968806
 ,0.351343,0.024724\H,0,1.466538,-1.188574,0.483063\\Version=ES64L-G16R
 evC.01\State=1-A\HF=-204.2309311\RMSD=1.772e-03\Dipole=-0.3419392,-1.1

 Normal termination of Gaussian 16 at Sat Apr  5 22:58:08 2025.
