 Gaussian 16, Revision C.01,

 ----------------------------------------------------------------------
 #t hf aug-cc-pvdz symm=none int=(grid=ultrafine) guess=(read,tcheck) s
 table=(opt,rrhf)
 ----------------------------------------------------------------------
 -----
 title
 -----
 Symbolic Z-matrix:
 Charge =  0 Multiplicity = 1

 SCF Done:  E(RHF) =  -348.133716155     A.U. after   13 cycles

 1\1\GINC-SE271\Stability\RHF\Aug-CC-pVDZ\C7H14O1\OHZDE\05-Apr-2025\0\\
 #t hf aug-cc-pvdz symm=none int=(grid=ultrafine) guess=(read,tcheck) s
 table=(opt,rrhf)\\title\\0,1\C,0,2.934907,-1.847531,0.\C,0,-3.741441,1
 .922109,0.\C,0,2.204069,-0.532137,0.\C,0,-2.216713,2.017532,0.\C,0,0.6
 83613,-0.629266,0.\C,0,-1.526489,0.65337,0.\C,0,0.,0.738127,0.\O,0,2.4
 12916,-2.933644,0.\H,0,4.042127,-1.761298,0.\H,0,-4.203476,2.910263,0.
 \H,0,-4.102888,1.387142,0.88065\H,0,-4.102888,1.387142,-0.88065\H,0,2.
 570407,0.032064,0.867377\H,0,2.570407,0.032064,-0.867377\H,0,-1.88739,

 Normal termination of Gaussian 16 at Sat Apr  5 22:58:15 2025.
 Gaussian 16:  ES64L-G16RevC.01  3-Jul-2019

 ----------------------------------------------------------------------
 #t hf aug-cc-pvdz iop(5/13=1,5/36=2,99/5=2) pseudo=read geom=check gue
 ss=(read,tcheck) scf=(maxcycle=1)
 ----------------------------------------------------------------------
 -----
 title
 -----
 Structure from the checkpoint file:  "heptanal.chk"
 Charge =  0 Multiplicity = 1

                         Standard orientation:
 ---------------------------------------------------------------------
 Center     Atomic      Atomic             Coordinates (Angstroms)
 Number     Number       Type             X           Y           Z
 ---------------------------------------------------------------------
      1          6           0        2.934907   -1.847531    0.000000
      2          6           0       -3.741441    1.922109    0.000000
      3          6           0        2.204069   -0.532137    0.000000
      4          6           0       -2.216713    2.017532    0.000000
      5          6           0        0.683613   -0.629266    0.000000
      6          6           0       -1.526489    0.653370    0.000000
      7          6           0        0.000000    0.738127    0.000000
      8          8           0        2.412916   -2.933644    0.000000
      9          1           0        4.042127   -1.761298    0.000000
     10          1           0       -4.203476    2.910263    0.000000
     11          1           0       -4.102888    1.387142    0.880650
     12          1           0       -4.102888    1.387142   -0.880650
     13          1           0        2.570407    0.032064    0.867377
     14          1           0        2.570407    0.032064   -0.867377
     15          1           0       -1.887390    2.587509    0.874110
     16          1           0       -1.887390    2.587509   -0.874110
     17          1           0        0.362464   -1.205426   -0.870679
     18          1           0        0.362464   -1.205426    0.870679
     19          1           0       -1.856331    0.082600    0.874379
     20          1           0       -1.856331    0.082600   -0.874379
     21          1           0        0.328909    1.309595   -0.874725
     22          1           0        0.328909    1.309595    0.874725
 ---------------------------------------------------------------------

 SCF Done:  E(RHF) =  -348.244330133     A.U. after    2 cycles

 The electronic state is 1-A'.
 Alpha  occ. eigenvalues --  -20.57189 -11.34362 -11.25132 -11.23336 -11.23132
 Alpha  occ. eigenvalues --  -11.22809 -11.22667 -11.22203  -1.35977  -1.08858
 Alpha  occ. eigenvalues --   -1.04973  -0.98678  -0.90703  -0.82911  -0.79302
 Alpha  occ. eigenvalues --   -0.77188  -0.68352  -0.66545  -0.64171  -0.63125
 Alpha  occ. eigenvalues --   -0.59139  -0.58127  -0.55866  -0.53891  -0.53265
 Alpha  occ. eigenvalues --   -0.50410  -0.49677  -0.47775  -0.47090  -0.46599
 Alpha  occ. eigenvalues --   -0.46574  -0.42666
 Alpha virt. eigenvalues --    0.03176   0.03609   0.04366   0.04576   0.05208
 Alpha virt. eigenvalues --    0.05946   0.06499   0.06904   0.07446   0.08160
 Alpha virt. eigenvalues --    0.08912   0.09587   0.10399   0.10557   0.11549

 Mulliken charges:
               1
     1  C    0.793226
     2  C    0.626891
     3  C    0.029431
     4  C    0.424785
     5  C    0.330653
     6  C    0.138478
     7  C    0.124516
     8  O   -0.470549
     9  H   -0.140716
    10  H   -0.069570
    11  H   -0.092858
    12  H   -0.092858
    13  H   -0.072386
    14  H   -0.072386
    15  H   -0.165526
    16  H   -0.165526
    17  H   -0.173974
    18  H   -0.173974
    19  H   -0.187141
    20  H   -0.187141
    21  H   -0.201688
    22  H   -0.201688
 Sum of Mulliken charges =  -0.00000

 Dipole moment (field-independent basis, Debye):
    X=              0.7114    Y=              3.2332    Z=             -0.0000  Tot=              3.3106

 Test job not archived.
 1\1\GINC-SE271\SP\RHF\Aug-CC-pVDZ\C7H14O1\OHZDE\05-Apr-2025\0\\#t hf a
 ug-cc-pvdz iop(5/13=1,5/36=2,99/5=2) pseudo=read geom=check guess=(rea
 d,tcheck) scf=(maxcycle=1)\\title\\0,1\C,0,2.934907,-1.847531,0.\C,0,-
 3.741441,1.922109,0.\C,0,2.204069,-0.532137,0.\C,0,-2.216713,2.017532,
 0.\C,0,0.683613,-0.629266,0.\C,0,-1.526489,0.65337,0.\C,0,0.,0.738127,
 0.\O,0,2.412916,-2.933644,0.\H,0,4.042127,-1.761298,0.\H,0,-4.203476,2
 .910263,0.\H,0,-4.102888,1.387142,0.88065\H,0,-4.102888,1.387142,-0.88
 065\H,0,2.570407,0.032064,0.867377\H,0,2.570407,0.032064,-0.867377\H,0

 Normal termination of Gaussian 16 at Sat Apr  5 22:58:21 2025.
