 Gaussian 16, Revision C.01,

 ----------------------------------------------------------------------
 #t hf aug-cc-pvdz symm=none int=(grid=ultrafine) guess=(read,tcheck) s
 table=(opt,rrhf)
 ----------------------------------------------------------------------
 -----
 title
 -----
 Symbolic Z-matrix:
 Charge =  0 Multiplicity = 1

 SCF Done:  E(RHF) =  -460.197887758     A.U. after   16 cycles
 Normal termination of Gaussian 16 at Sat Apr  5 23:02:35 2025.
 Gaussian 16:  ES64L-G16RevC.01  3-Jul-2019

 ----------------------------------------------------------------------
 #t hf aug-cc-pvdz iop(5/13=1,5/36=2,99/5=2) pseudo=read geom=check gue
 ss=(read,tcheck) scf=(maxcycle=1)
 ----------------------------------------------------------------------
 -----
 title
 -----
 Structure from the checkpoint file:  "heptalene.chk"
 Charge =  0 Multiplicity = 1

                         Standard orientation:
 ---------------------------------------------------------------------
 Center     Atomic      Atomic             Coordinates (Angstroms)
 Number     Number       Type             X           Y           Z
 ---------------------------------------------------------------------
      1          6           0        1.510583    1.057959   -0.207635
      2          6           0        1.131202    2.378179   -0.627087
      3          6           0       -0.031282    3.021695   -0.376287
      4          6           0       -1.131202    2.495684    0.390765
      5          6           0       -1.415623    1.207590    0.659413
      6          6           0       -0.736352    0.000021    0.155956
      7          6           0        0.736352   -0.000021    0.155956
      8          6           0        1.415623   -1.207590    0.659413
      9          6           0        1.131202   -2.495684    0.390765
     10          6           0        0.031282   -3.021695   -0.376287
     11          6           0       -1.131202   -2.378179   -0.627087
     12          6           0       -1.510583   -1.057959   -0.207635
     13          1           0        2.580111    0.874669   -0.203910
     14          1           0        1.905624    2.939917   -1.136925
     15          1           0       -0.119386    4.051335   -0.699854
     16          1           0       -1.817588    3.233906    0.791454
     17          1           0       -2.284527    1.012644    1.278492
     18          1           0        2.284527   -1.012644    1.278492
     19          1           0        1.817588   -3.233906    0.791454
     20          1           0        0.119386   -4.051335   -0.699854
     21          1           0       -1.905624   -2.939917   -1.136925
     22          1           0       -2.580111   -0.874669   -0.203910
 ---------------------------------------------------------------------

 SCF Done:  E(RHF) =  -460.331180821     A.U. after    2 cycles

 The electronic state is 1-A.
 Alpha  occ. eigenvalues --  -11.26895 -11.26823 -11.25141 -11.25141 -11.25067
 Alpha  occ. eigenvalues --  -11.25067 -11.24963 -11.24962 -11.24436 -11.24436
 Alpha  occ. eigenvalues --  -11.24057 -11.24056  -1.15140  -1.10147  -1.06686
 Alpha  occ. eigenvalues --   -1.04762  -1.01875  -0.94212  -0.89870  -0.86346
 Alpha  occ. eigenvalues --   -0.80751  -0.74215  -0.73228  -0.70438  -0.67314
 Alpha  occ. eigenvalues --   -0.66629  -0.62422  -0.61862  -0.59552  -0.58398
 Alpha  occ. eigenvalues --   -0.55827  -0.52929  -0.52748  -0.51435  -0.48142
 Alpha  occ. eigenvalues --   -0.47699  -0.45668  -0.39953  -0.37136  -0.34494
 Alpha  occ. eigenvalues --   -0.25214
 Alpha virt. eigenvalues --    0.03344   0.03656   0.03899   0.04576   0.04888
 Alpha virt. eigenvalues --    0.05069   0.06121   0.06294   0.06523   0.07701
 Alpha virt. eigenvalues --    0.08125   0.08463   0.10494   0.10854   0.11172

 Mulliken charges:
               1
     1  C    0.089649
     2  C   -0.150132
     3  C    0.009393
     4  C    0.545418
     5  C    0.347831
     6  C    1.622256
     7  C    1.622256
     8  C    0.347831
     9  C    0.545418
    10  C    0.009393
    11  C   -0.150132
    12  C    0.089649
    13  H   -0.553268
    14  H   -0.458249
    15  H   -0.452808
    16  H   -0.458701
    17  H   -0.541389
    18  H   -0.541389
    19  H   -0.458701
    20  H   -0.452808
    21  H   -0.458249
    22  H   -0.553268
 Sum of Mulliken charges =   0.00000

 Dipole moment (field-independent basis, Debye):
    X=              0.0000    Y=             -0.0000    Z=              0.1781  Tot=              0.1781

 Test job not archived.
 1\1\GINC-SE422\SP\RHF\Aug-CC-pVDZ\C12H10\OHZDE\05-Apr-2025\0\\#t hf au
 g-cc-pvdz iop(5/13=1,5/36=2,99/5=2) pseudo=read geom=check guess=(read
 ,tcheck) scf=(maxcycle=1)\\title\\0,1\C,0,1.510583,1.057959,-0.207635\
 C,0,1.131202,2.378179,-0.627087\C,0,-0.031282,3.021695,-0.376287\C,0,-
 1.131202,2.495684,0.390765\C,0,-1.415623,1.20759,0.659413\C,0,-0.73635
 2,0.000021,0.155956\C,0,0.736352,-0.000021,0.155956\C,0,1.415623,-1.20
 759,0.659413\C,0,1.131202,-2.495684,0.390765\C,0,0.031282,-3.021695,-0
 .376287\C,0,-1.131202,-2.378179,-0.627087\C,0,-1.510583,-1.057959,-0.2

 Normal termination of Gaussian 16 at Sat Apr  5 23:03:12 2025.
