 Gaussian 16, Revision C.01,

 ----------------------------------------------------------------------
 #t hf aug-cc-pvdz symm=none int=(grid=ultrafine) guess=(read,tcheck) s
 table=(opt,rrhf)
 ----------------------------------------------------------------------
 -----
 title
 -----
 Symbolic Z-matrix:
 Charge =  0 Multiplicity = 1

 SCF Done:  E(RHF) =  -348.144382175     A.U. after   13 cycles

 1\1\GINC-SE454\Stability\RHF\Aug-CC-pVDZ\C7H14O1\OHZDE\05-Apr-2025\0\\
 #t hf aug-cc-pvdz symm=none int=(grid=ultrafine) guess=(read,tcheck) s
 table=(opt,rrhf)\\title\\0,1\C,0,2.331625,0.140596,-0.002766\C,0,3.562
 671,-0.742228,0.006967\C,0,-4.097798,-0.269419,-0.00178\C,0,0.990909,-
 0.574254,-0.007194\C,0,-2.775391,0.495292,0.007306\C,0,-0.224164,0.345
 462,0.004932\C,0,-1.548821,-0.417709,-0.003855\O,0,2.419096,1.348033,-
 0.005792\H,0,3.571661,-1.365777,0.903608\H,0,3.553384,-1.419544,-0.849
 424\H,0,4.460036,-0.129875,-0.019314\H,0,-4.18373,-0.919977,0.871115\H

 Normal termination of Gaussian 16 at Sat Apr  5 22:59:18 2025.
 Gaussian 16:  ES64L-G16RevC.01  3-Jul-2019

 ----------------------------------------------------------------------
 #t hf aug-cc-pvdz iop(5/13=1,5/36=2,99/5=2) pseudo=read geom=check gue
 ss=(read,tcheck) scf=(maxcycle=1)
 ----------------------------------------------------------------------
 -----
 title
 -----
 Structure from the checkpoint file:  "heptan-2-one.chk"
 Charge =  0 Multiplicity = 1

                         Standard orientation:
 ---------------------------------------------------------------------
 Center     Atomic      Atomic             Coordinates (Angstroms)
 Number     Number       Type             X           Y           Z
 ---------------------------------------------------------------------
      1          6           0        2.331625    0.140596   -0.002766
      2          6           0        3.562671   -0.742228    0.006967
      3          6           0       -4.097798   -0.269419   -0.001780
      4          6           0        0.990909   -0.574254   -0.007194
      5          6           0       -2.775391    0.495292    0.007306
      6          6           0       -0.224164    0.345462    0.004932
      7          6           0       -1.548821   -0.417709   -0.003855
      8          8           0        2.419096    1.348033   -0.005792
      9          1           0        3.571661   -1.365777    0.903608
     10          1           0        3.553384   -1.419544   -0.849424
     11          1           0        4.460036   -0.129875   -0.019314
     12          1           0       -4.183730   -0.919977    0.871115
     13          1           0       -4.951146    0.409944    0.006808
     14          1           0       -4.184176   -0.898252   -0.890409
     15          1           0        0.972256   -1.232580   -0.883480
     16          1           0        0.975011   -1.253830    0.852590
     17          1           0       -2.733388    1.141611    0.888893
     18          1           0       -2.733543    1.162627   -0.858464
     19          1           0       -0.175148    1.014310   -0.856999
     20          1           0       -0.174496    0.992679    0.883335
     21          1           0       -1.591964   -1.065480   -0.886410
     22          1           0       -1.591700   -1.086565    0.862830
 ---------------------------------------------------------------------

 SCF Done:  E(RHF) =  -348.255061671     A.U. after    2 cycles

 The electronic state is 1-A.
 Alpha  occ. eigenvalues --  -20.55828 -11.33989 -11.24515 -11.24326 -11.22825
 Alpha  occ. eigenvalues --  -11.22773 -11.22671 -11.22174  -1.35054  -1.08226
 Alpha  occ. eigenvalues --   -1.03822  -0.99836  -0.93330  -0.84123  -0.79287
 Alpha  occ. eigenvalues --   -0.73763  -0.66168  -0.66019  -0.63338  -0.62565
 Alpha  occ. eigenvalues --   -0.58657  -0.58578  -0.56416  -0.55007  -0.54021
 Alpha  occ. eigenvalues --   -0.50716  -0.50263  -0.48389  -0.47357  -0.46851
 Alpha  occ. eigenvalues --   -0.46552  -0.41803
 Alpha virt. eigenvalues --    0.03116   0.03701   0.04392   0.04692   0.05532
 Alpha virt. eigenvalues --    0.05790   0.06261   0.07128   0.07806   0.08043
 Alpha virt. eigenvalues --    0.08205   0.10180   0.10567   0.10686   0.11587

 Mulliken charges:
               1
     1  C   -0.101978
     2  C    0.547281
     3  C    0.619164
     4  C    0.052228
     5  C    0.439802
     6  C    0.162542
     7  C    0.219922
     8  O   -0.532120
     9  H    0.035110
    10  H    0.029168
    11  H   -0.083507
    12  H   -0.094706
    13  H   -0.065861
    14  H   -0.095507
    15  H   -0.043545
    16  H   -0.048506
    17  H   -0.159574
    18  H   -0.159071
    19  H   -0.166003
    20  H   -0.168656
    21  H   -0.192029
    22  H   -0.194153
 Sum of Mulliken charges =  -0.00000

 Dipole moment (field-independent basis, Debye):
    X=             -0.4156    Y=             -3.2816    Z=              0.0117  Tot=              3.3079

 Test job not archived.
 1\1\GINC-SE454\SP\RHF\Aug-CC-pVDZ\C7H14O1\OHZDE\05-Apr-2025\0\\#t hf a
 ug-cc-pvdz iop(5/13=1,5/36=2,99/5=2) pseudo=read geom=check guess=(rea
 d,tcheck) scf=(maxcycle=1)\\title\\0,1\C,0,2.331625,0.140596,-0.002766
 \C,0,3.562671,-0.742228,0.006967\C,0,-4.097798,-0.269419,-0.00178\C,0,
 0.990909,-0.574254,-0.007194\C,0,-2.775391,0.495292,0.007306\C,0,-0.22
 4164,0.345462,0.004932\C,0,-1.548821,-0.417709,-0.003855\O,0,2.419096,
 1.348033,-0.005792\H,0,3.571661,-1.365777,0.903608\H,0,3.553384,-1.419
 544,-0.849424\H,0,4.460036,-0.129875,-0.019314\H,0,-4.18373,-0.919977,

 Normal termination of Gaussian 16 at Sat Apr  5 23:00:07 2025.
