 Gaussian 16, Revision C.01,

 ----------------------------------------------------------------------
 #t hf aug-cc-pvdz symm=none int=(grid=ultrafine) guess=(read,tcheck) s
 table=(opt,rrhf)
 ----------------------------------------------------------------------
 -----
 title
 -----
 Symbolic Z-matrix:
 Charge =  0 Multiplicity = 1

 SCF Done:  E(RHF) =  -823.859767590     A.U. after   11 cycles
 Normal termination of Gaussian 16 at Sat Apr  5 22:57:37 2025.
 Gaussian 16:  ES64L-G16RevC.01  3-Jul-2019

 ----------------------------------------------------------------------
 #t hf aug-cc-pvdz iop(5/13=1,5/36=2,99/5=2) pseudo=read geom=check gue
 ss=(read,tcheck) scf=(maxcycle=1)
 ----------------------------------------------------------------------
 -----
 title
 -----
 Structure from the checkpoint file:  "hexafluorobenzene.chk"
 Charge =  0 Multiplicity = 1

                         Standard orientation:
 ---------------------------------------------------------------------
 Center     Atomic      Atomic             Coordinates (Angstroms)
 Number     Number       Type             X           Y           Z
 ---------------------------------------------------------------------
      1          6           0       -0.000000   -0.000000    1.388365
      2          6           0        0.000000    1.202359    0.694182
      3          6           0       -0.000000   -1.202359    0.694182
      4          6           0        0.000000    1.202359   -0.694182
      5          6           0       -0.000000   -1.202359   -0.694182
      6          6           0        0.000000   -0.000000   -1.388365
      7          9           0       -0.000000   -0.000000    2.719949
      8          9           0        0.000000    2.355545    1.359975
      9          9           0       -0.000000   -2.355545    1.359975
     10          9           0        0.000000    2.355545   -1.359975
     11          9           0       -0.000000   -2.355545   -1.359975
     12          9           0        0.000000   -0.000000   -2.719949
 ---------------------------------------------------------------------

 SCF Done:  E(RHF) =  -824.144214308     A.U. after    2 cycles

 The electronic state is 1-AG.
 Alpha  occ. eigenvalues --  -26.18925 -26.18917 -26.18917 -26.18913 -26.18913
 Alpha  occ. eigenvalues --  -26.18913 -11.40369 -11.40321 -11.40321 -11.40199
 Alpha  occ. eigenvalues --  -11.40199 -11.40145  -1.74001  -1.73488  -1.73488
 Alpha  occ. eigenvalues --   -1.72552  -1.72552  -1.72110  -1.23800  -1.10661
 Alpha  occ. eigenvalues --   -1.10661  -0.97709  -0.97709  -0.89907  -0.89092
 Alpha  occ. eigenvalues --   -0.88806  -0.83304  -0.83304  -0.82895  -0.82408
 Alpha  occ. eigenvalues --   -0.82407  -0.81057  -0.81057  -0.79160  -0.79160
 Alpha  occ. eigenvalues --   -0.78515  -0.77260  -0.77260  -0.76571  -0.67944
 Alpha  occ. eigenvalues --   -0.67944  -0.64008  -0.56663  -0.40444  -0.40444
 Alpha virt. eigenvalues --    0.04716   0.06825   0.06825   0.08289   0.08289
 Alpha virt. eigenvalues --    0.09031   0.09031   0.09365   0.10869   0.12406
 Alpha virt. eigenvalues --    0.12406   0.13029   0.14594   0.15151   0.15151

 Mulliken charges:
               1
     1  C    0.228016
     2  C    0.228022
     3  C    0.228022
     4  C    0.228022
     5  C    0.228022
     6  C    0.228016
     7  F   -0.228018
     8  F   -0.228021
     9  F   -0.228021
    10  F   -0.228021
    11  F   -0.228021
    12  F   -0.228018
 Sum of Mulliken charges =  -0.00000

 Dipole moment (field-independent basis, Debye):
    X=              0.0000    Y=              0.0000    Z=              0.0000  Tot=              0.0000

 Test job not archived.
 1\1\GINC-SE350\SP\RHF\Aug-CC-pVDZ\C6F6\OHZDE\05-Apr-2025\0\\#t hf aug-
 cc-pvdz iop(5/13=1,5/36=2,99/5=2) pseudo=read geom=check guess=(read,t
 check) scf=(maxcycle=1)\\title\\0,1\C,0,0.,1.388365,0.\C,0,1.202359,0.
 694182,0.\C,0,-1.202359,0.694182,0.\C,0,1.202359,-0.694182,0.\C,0,-1.2
 02359,-0.694182,0.\C,0,0.,-1.388365,0.\F,0,0.,2.719949,0.\F,0,2.355545
 ,1.359975,0.\F,0,-2.355545,1.359975,0.\F,0,2.355545,-1.359975,0.\F,0,-
 2.355545,-1.359975,0.\F,0,0.,-2.719949,0.\\Version=ES64L-G16RevC.01\St
 ate=1-AG\HF=-824.1442143\RMSD=4.189e-02\Dipole=0.,0.,0.\Quadrupole=-3.

 Normal termination of Gaussian 16 at Sat Apr  5 22:58:10 2025.
