 Gaussian 16, Revision C.01,

 ----------------------------------------------------------------------
 #t hf aug-cc-pvdz symm=none int=(grid=ultrafine) guess=(read,tcheck) s
 table=(opt,rrhf)
 ----------------------------------------------------------------------
 -----
 title
 -----
 Symbolic Z-matrix:
 Charge =  0 Multiplicity = 1

 SCF Done:  E(RHF) =  -309.094906257     A.U. after   13 cycles

 1\1\GINC-SE359\Stability\RHF\Aug-CC-pVDZ\C6H12O1\OHZDE\05-Apr-2025\0\\
 #t hf aug-cc-pvdz symm=none int=(grid=ultrafine) guess=(read,tcheck) s
 table=(opt,rrhf)\\title\\0,1\C,0,1.730475,2.260799,0.\C,0,-1.877092,-3
 .067542,0.\C,0,1.469179,0.778822,0.\C,0,-1.675526,-1.553237,0.\C,0,0.,
 0.375846,0.\C,0,-0.203783,-1.139524,0.\O,0,0.882361,3.116832,0.\H,0,2.
 805089,2.541058,0.\H,0,-2.936193,-3.328318,0.\H,0,-1.423356,-3.526632,
 0.880821\H,0,-1.423356,-3.526632,-0.880821\H,0,1.999279,0.36497,0.8674
 25\H,0,1.999279,0.36497,-0.867425\H,0,-2.170087,-1.119104,0.87384\H,0,

 Normal termination of Gaussian 16 at Sat Apr  5 22:58:51 2025.
 Gaussian 16:  ES64L-G16RevC.01  3-Jul-2019

 ----------------------------------------------------------------------
 #t hf aug-cc-pvdz iop(5/13=1,5/36=2,99/5=2) pseudo=read geom=check gue
 ss=(read,tcheck) scf=(maxcycle=1)
 ----------------------------------------------------------------------
 -----
 title
 -----
 Structure from the checkpoint file:  "hexanal.chk"
 Charge =  0 Multiplicity = 1

                         Standard orientation:
 ---------------------------------------------------------------------
 Center     Atomic      Atomic             Coordinates (Angstroms)
 Number     Number       Type             X           Y           Z
 ---------------------------------------------------------------------
      1          6           0        1.730475    2.260799    0.000000
      2          6           0       -1.877093   -3.067542    0.000000
      3          6           0        1.469179    0.778822    0.000000
      4          6           0       -1.675526   -1.553237    0.000000
      5          6           0        0.000000    0.375846    0.000000
      6          6           0       -0.203783   -1.139524    0.000000
      7          8           0        0.882362    3.116832    0.000000
      8          1           0        2.805089    2.541057    0.000000
      9          1           0       -2.936194   -3.328318    0.000000
     10          1           0       -1.423357   -3.526632    0.880821
     11          1           0       -1.423357   -3.526632   -0.880821
     12          1           0        1.999279    0.364970    0.867425
     13          1           0        1.999279    0.364970   -0.867425
     14          1           0       -2.170087   -1.119104    0.873840
     15          1           0       -2.170087   -1.119104   -0.873840
     16          1           0       -0.491084    0.816415    0.870631
     17          1           0       -0.491084    0.816415   -0.870631
     18          1           0        0.291599   -1.574837   -0.874744
     19          1           0        0.291599   -1.574837    0.874744
 ---------------------------------------------------------------------

 SCF Done:  E(RHF) =  -309.193537906     A.U. after    2 cycles

 The electronic state is 1-A'.
 Alpha  occ. eigenvalues --  -20.57202 -11.34375 -11.25148 -11.23352 -11.23151
 Alpha  occ. eigenvalues --  -11.22939 -11.22375  -1.35993  -1.08612  -1.03491
 Alpha  occ. eigenvalues --   -0.95450  -0.86147  -0.79861  -0.77307  -0.68408
 Alpha  occ. eigenvalues --   -0.66326  -0.64141  -0.61930  -0.58276  -0.56606
 Alpha  occ. eigenvalues --   -0.55981  -0.51734  -0.51149  -0.48745  -0.48036
 Alpha  occ. eigenvalues --   -0.47341  -0.46896  -0.42787
 Alpha virt. eigenvalues --    0.03186   0.03753   0.04454   0.04738   0.05635
 Alpha virt. eigenvalues --    0.06258   0.06748   0.07073   0.08224   0.09030
 Alpha virt. eigenvalues --    0.09398   0.10104   0.10796   0.12233   0.12446

 Mulliken charges:
               1
     1  C    0.727204
     2  C    0.566214
     3  C   -0.026086
     4  C    0.358738
     5  C    0.226959
     6  C    0.157785
     7  O   -0.467732
     8  H   -0.136460
     9  H   -0.062880
    10  H   -0.091602
    11  H   -0.091602
    12  H   -0.064606
    13  H   -0.064606
    14  H   -0.153023
    15  H   -0.153023
    16  H   -0.169080
    17  H   -0.169080
    18  H   -0.193559
    19  H   -0.193559
 Sum of Mulliken charges =  -0.00000

 Dipole moment (field-independent basis, Debye):
    X=              1.6853    Y=             -2.7609    Z=             -0.0000  Tot=              3.2346

 Test job not archived.
 1\1\GINC-SE359\SP\RHF\Aug-CC-pVDZ\C6H12O1\OHZDE\05-Apr-2025\0\\#t hf a
 ug-cc-pvdz iop(5/13=1,5/36=2,99/5=2) pseudo=read geom=check guess=(rea
 d,tcheck) scf=(maxcycle=1)\\title\\0,1\C,0,1.730475,2.260799,0.\C,0,-1
 .877092,-3.067542,0.\C,0,1.469179,0.778822,0.\C,0,-1.675526,-1.553237,
 0.\C,0,0.,0.375846,0.\C,0,-0.203783,-1.139524,0.\O,0,0.882361,3.116832
 ,0.\H,0,2.805089,2.541058,0.\H,0,-2.936193,-3.328318,0.\H,0,-1.423356,
 -3.526632,0.880821\H,0,-1.423356,-3.526632,-0.880821\H,0,1.999279,0.36
 497,0.867425\H,0,1.999279,0.36497,-0.867425\H,0,-2.170087,-1.119104,0.

 Normal termination of Gaussian 16 at Sat Apr  5 22:58:56 2025.
