 Gaussian 16, Revision C.01,

 ----------------------------------------------------------------------
 #t hf aug-cc-pvdz symm=none int=(grid=ultrafine) guess=(read,tcheck) s
 table=(opt,rrhf)
 ----------------------------------------------------------------------
 -----
 title
 -----
 Symbolic Z-matrix:
 Charge =  0 Multiplicity = 1

 SCF Done:  E(RHF) =  -384.005603982     A.U. after   13 cycles

 1\1\GINC-SE364\Stability\RHF\Aug-CC-pVDZ\C6H12O2\OHZDE\05-Apr-2025\0\\
 #t hf aug-cc-pvdz symm=none int=(grid=ultrafine) guess=(read,tcheck) s
 table=(opt,rrhf)\\title\\0,1\C,0,-2.062686,-1.102443,0.\C,0,3.632108,1
 .858226,0.\C,0,-0.556479,-1.037078,0.\C,0,2.104874,1.82966,0.\C,0,0.,0
 .382472,0.\C,0,1.528055,0.413443,0.\O,0,-2.819045,-0.165656,0.\O,0,-2.
 503459,-2.387142,0.\H,0,4.011459,2.880818,0.\H,0,4.036027,1.354785,0.8
 80787\H,0,4.036027,1.354785,-0.880787\H,0,-0.205394,-1.600622,0.869012
 \H,0,-0.205394,-1.600622,-0.869012\H,0,1.729349,2.370062,0.87383\H,0,1

 Normal termination of Gaussian 16 at Sat Apr  5 22:58:08 2025.
 Gaussian 16:  ES64L-G16RevC.01  3-Jul-2019

 ----------------------------------------------------------------------
 #t hf aug-cc-pvdz iop(5/13=1,5/36=2,99/5=2) pseudo=read geom=check gue
 ss=(read,tcheck) scf=(maxcycle=1)
 ----------------------------------------------------------------------
 -----
 title
 -----
 Structure from the checkpoint file:  "hexanoic_acid.chk"
 Charge =  0 Multiplicity = 1

                         Standard orientation:
 ---------------------------------------------------------------------
 Center     Atomic      Atomic             Coordinates (Angstroms)
 Number     Number       Type             X           Y           Z
 ---------------------------------------------------------------------
      1          6           0       -2.062686   -1.102443    0.000000
      2          6           0        3.632108    1.858225    0.000000
      3          6           0       -0.556479   -1.037078    0.000000
      4          6           0        2.104874    1.829660    0.000000
      5          6           0        0.000000    0.382472    0.000000
      6          6           0        1.528055    0.413443    0.000000
      7          8           0       -2.819045   -0.165656    0.000000
      8          8           0       -2.503459   -2.387142    0.000000
      9          1           0        4.011459    2.880817    0.000000
     10          1           0        4.036027    1.354784    0.880787
     11          1           0        4.036027    1.354784   -0.880787
     12          1           0       -0.205394   -1.600622    0.869012
     13          1           0       -0.205394   -1.600622   -0.869012
     14          1           0        1.729349    2.370062    0.873830
     15          1           0        1.729349    2.370062   -0.873830
     16          1           0       -0.381981    0.918569    0.871350
     17          1           0       -0.381981    0.918569   -0.871350
     18          1           0        1.904359   -0.128002   -0.874719
     19          1           0        1.904359   -0.128002    0.874719
     20          1           0       -3.471375   -2.353691    0.000000
 ---------------------------------------------------------------------

 SCF Done:  E(RHF) =  -384.128404828     A.U. after    2 cycles

 The electronic state is 1-A'.
 Alpha  occ. eigenvalues --  -20.62385 -20.56541 -11.39911 -11.25579 -11.23488
 Alpha  occ. eigenvalues --  -11.23187 -11.22973 -11.22376  -1.42436  -1.32675
 Alpha  occ. eigenvalues --   -1.08868  -1.03777  -0.95785  -0.86872  -0.80477
 Alpha  occ. eigenvalues --   -0.79202  -0.71735  -0.69644  -0.67665  -0.64428
 Alpha  occ. eigenvalues --   -0.60912  -0.59896  -0.57813  -0.57087  -0.54176
 Alpha  occ. eigenvalues --   -0.51538  -0.50246  -0.48997  -0.48096  -0.47449
 Alpha  occ. eigenvalues --   -0.46936  -0.45961
 Alpha virt. eigenvalues --    0.03352   0.03891   0.04576   0.04580   0.05450
 Alpha virt. eigenvalues --    0.06525   0.06724   0.07057   0.07970   0.09515
 Alpha virt. eigenvalues --    0.09521   0.10157   0.10818   0.11941   0.13318

 Mulliken charges:
               1
     1  C    0.552961
     2  C    0.599495
     3  C    0.188110
     4  C    0.454411
     5  C    0.212920
     6  C    0.139797
     7  O   -0.463733
     8  O   -0.543903
     9  H   -0.068459
    10  H   -0.094188
    11  H   -0.094188
    12  H   -0.017713
    13  H   -0.017713
    14  H   -0.150120
    15  H   -0.150120
    16  H   -0.185045
    17  H   -0.185045
    18  H   -0.194908
    19  H   -0.194908
    20  H    0.212348
 Sum of Mulliken charges =  -0.00000

 Dipole moment (field-independent basis, Debye):
    X=              1.4645    Y=             -1.1551    Z=             -0.0000  Tot=              1.8652

 Test job not archived.
 1\1\GINC-SE364\SP\RHF\Aug-CC-pVDZ\C6H12O2\OHZDE\05-Apr-2025\0\\#t hf a
 ug-cc-pvdz iop(5/13=1,5/36=2,99/5=2) pseudo=read geom=check guess=(rea
 d,tcheck) scf=(maxcycle=1)\\title\\0,1\C,0,-2.062686,-1.102443,0.\C,0,
 3.632108,1.858226,0.\C,0,-0.556479,-1.037078,0.\C,0,2.104874,1.82966,0
 .\C,0,0.,0.382472,0.\C,0,1.528055,0.413443,0.\O,0,-2.819045,-0.165656,
 0.\O,0,-2.503459,-2.387142,0.\H,0,4.011459,2.880818,0.\H,0,4.036027,1.
 354785,0.880787\H,0,4.036027,1.354785,-0.880787\H,0,-0.205394,-1.60062
 2,0.869012\H,0,-0.205394,-1.600622,-0.869012\H,0,1.729349,2.370062,0.8

 Normal termination of Gaussian 16 at Sat Apr  5 22:58:16 2025.
