 Gaussian 16, Revision C.01,

 ----------------------------------------------------------------------
 #t hf aug-cc-pvdz symm=none int=(grid=ultrafine) guess=(read,tcheck) s
 table=(opt,rrhf)
 ----------------------------------------------------------------------
 -----
 title
 -----
 Symbolic Z-matrix:
 Charge =  0 Multiplicity = 1

 SCF Done:  E(RHF) =  -228.196578938     A.U. after   12 cycles
 Normal termination of Gaussian 16 at Sat Apr  5 22:57:10 2025.
 Gaussian 16:  ES64L-G16RevC.01  3-Jul-2019

 ----------------------------------------------------------------------
 #t hf aug-cc-pvdz iop(5/13=1,5/36=2,99/5=2) pseudo=read geom=check gue
 ss=(read,tcheck) scf=(maxcycle=1)
 ----------------------------------------------------------------------
 -----
 title
 -----
 Structure from the checkpoint file:  "hexatriyne.chk"
 Charge =  0 Multiplicity = 1

                         Standard orientation:
 ---------------------------------------------------------------------
 Center     Atomic      Atomic             Coordinates (Angstroms)
 Number     Number       Type             X           Y           Z
 ---------------------------------------------------------------------
      1          6           0       -0.000000    0.607495    0.000000
      2          6           0       -0.022300   -0.607096   -0.000000
      3          6           0        0.032288    1.961729    0.000000
      4          6           0       -0.037787   -1.961626   -0.000000
      5          6           0        0.067261    3.167962    0.000000
      6          6           0       -0.047216   -3.168328   -0.000000
      7          1           0        0.098665    4.228824    0.000000
      8          1           0       -0.052142   -4.229643   -0.000000
 ---------------------------------------------------------------------

 SCF Done:  E(RHF) =  -228.271544268     A.U. after    2 cycles

 The electronic state is 1-A'.
 Alpha  occ. eigenvalues --  -11.29547 -11.29193 -11.28516 -11.28511 -11.27865
 Alpha  occ. eigenvalues --  -11.27865  -1.11116  -1.06911  -1.01822  -0.89263
 Alpha  occ. eigenvalues --   -0.81435  -0.73186  -0.72267  -0.53026  -0.53026
 Alpha  occ. eigenvalues --   -0.45569  -0.45569  -0.35258  -0.35258
 Alpha virt. eigenvalues --    0.03155   0.03372   0.05649   0.05649   0.07186
 Alpha virt. eigenvalues --    0.09283   0.09948   0.09949   0.11637   0.11638
 Alpha virt. eigenvalues --    0.13280   0.13672   0.13675   0.14559   0.16155

 Mulliken charges:
               1
     1  C    0.304309
     2  C    0.305297
     3  C    0.105235
     4  C    0.104624
     5  C    0.230152
     6  C    0.230694
     7  H   -0.640110
     8  H   -0.640201
 Sum of Mulliken charges =  -0.00000

 Dipole moment (field-independent basis, Debye):
    X=              0.0352    Y=             -0.0005    Z=              0.0000  Tot=              0.0352

 Test job not archived.
 1\1\GINC-SE365\SP\RHF\Aug-CC-pVDZ\C6H2\OHZDE\05-Apr-2025\0\\#t hf aug-
 cc-pvdz iop(5/13=1,5/36=2,99/5=2) pseudo=read geom=check guess=(read,t
 check) scf=(maxcycle=1)\\title\\0,1\C,0,0.,0.607495,0.\C,0,-0.0223,-0.
 607096,0.\C,0,0.032288,1.961729,0.\C,0,-0.037787,-1.961626,0.\C,0,0.06
 7261,3.167962,0.\C,0,-0.047216,-3.168328,0.\H,0,0.098665,4.228824,0.\H
 ,0,-0.052142,-4.229643,0.\\Version=ES64L-G16RevC.01\State=1-A'\HF=-228
 .2715443\RMSD=5.104e-02\Dipole=0.0138542,-0.000216,0.\Quadrupole=-5.48
 0658,10.967448,-5.4867901,0.2909566,0.,0.\PG=CS [SG(C6H2)]\\@

 Normal termination of Gaussian 16 at Sat Apr  5 22:58:09 2025.
