 Gaussian 16, Revision C.01,

 ----------------------------------------------------------------------
 #t hf aug-cc-pvdz symm=none int=(grid=ultrafine) guess=(read,tcheck) s
 table=(opt,rrhf)
 ----------------------------------------------------------------------
 -----
 title
 -----
 Symbolic Z-matrix:
 Charge =  0 Multiplicity = 1

 SCF Done:  E(RHF) =  -235.389619149     A.U. after   11 cycles
 Normal termination of Gaussian 16 at Sat Apr  5 22:58:08 2025.
 Gaussian 16:  ES64L-G16RevC.01  3-Jul-2019

 ----------------------------------------------------------------------
 #t hf aug-cc-pvdz iop(5/13=1,5/36=2,99/5=2) pseudo=read geom=check gue
 ss=(read,tcheck) scf=(maxcycle=1)
 ----------------------------------------------------------------------
 -----
 title
 -----
 Structure from the checkpoint file:  "hexane.chk"
 Charge =  0 Multiplicity = 1

                         Standard orientation:
 ---------------------------------------------------------------------
 Center     Atomic      Atomic             Coordinates (Angstroms)
 Number     Number       Type             X           Y           Z
 ---------------------------------------------------------------------
      1          6           0        1.752978    0.132983    0.595759
      2          6           0        2.270241   -1.006545   -0.282683
      3          6           0        0.797724    1.099291   -0.117681
      4          6           0       -0.524607    0.497784   -0.611141
      5          6           0       -1.447868   -0.017439    0.494787
      6          6           0       -2.787022   -0.527764   -0.035684
      7          1           0       -2.645338   -1.354700   -0.734820
      8          1           0        2.766819   -0.619752   -1.175521
      9          1           0       -3.427267   -0.884472    0.772434
     10          1           0        2.992417   -1.620604    0.257299
     11          1           0        1.465980   -1.665190   -0.613039
     12          1           0       -3.327819    0.259908   -0.564432
     13          1           0        1.267957   -0.282455    1.482703
     14          1           0       -0.954091   -0.819080    1.049556
     15          1           0        2.605211    0.708606    0.966413
     16          1           0       -1.624471    0.786112    1.216882
     17          1           0        0.573150    1.931568    0.556617
     18          1           0        1.322016    1.537463   -0.972764
     19          1           0       -0.325283   -0.311677   -1.319828
     20          1           0       -1.057960    1.264417   -1.181643
 ---------------------------------------------------------------------

 SCF Done:  E(RHF) =  -235.466817162     A.U. after    2 cycles

 The electronic state is 1-A.
 Alpha  occ. eigenvalues --  -11.22311 -11.22289 -11.22179 -11.22046 -11.21882
 Alpha  occ. eigenvalues --  -11.21835  -1.07504  -1.02464  -0.95463  -0.87649
 Alpha  occ. eigenvalues --   -0.81684  -0.75905  -0.64360  -0.62428  -0.59446
 Alpha  occ. eigenvalues --   -0.58163  -0.55689  -0.53491  -0.52865  -0.49512
 Alpha  occ. eigenvalues --   -0.48944  -0.47616  -0.45387  -0.44858  -0.44414
 Alpha virt. eigenvalues --    0.03599   0.04283   0.04466   0.04557   0.06297
 Alpha virt. eigenvalues --    0.06405   0.06420   0.06866   0.07367   0.08777
 Alpha virt. eigenvalues --    0.09082   0.09343   0.09554   0.11252   0.13364

 Mulliken charges:
               1
     1  C    0.171973
     2  C    0.406487
     3  C    0.334017
     4  C    0.131510
     5  C    0.130206
     6  C    0.488679
     7  H   -0.071778
     8  H   -0.084092
     9  H   -0.069606
    10  H   -0.098015
    11  H   -0.138539
    12  H   -0.076373
    13  H   -0.140592
    14  H   -0.201740
    15  H   -0.104832
    16  H   -0.155324
    17  H   -0.121359
    18  H   -0.090848
    19  H   -0.193247
    20  H   -0.116525
 Sum of Mulliken charges =   0.00000

 Dipole moment (field-independent basis, Debye):
    X=              0.0429    Y=              0.0608    Z=              0.0761  Tot=              0.1065

 Test job not archived.
 1\1\GINC-SE360\SP\RHF\Aug-CC-pVDZ\C6H14\OHZDE\05-Apr-2025\0\\#t hf aug
 -cc-pvdz iop(5/13=1,5/36=2,99/5=2) pseudo=read geom=check guess=(read,
 tcheck) scf=(maxcycle=1)\\title\\0,1\C,0,1.752978,0.132983,0.595759\C,
 0,2.270241,-1.006545,-0.282683\C,0,0.797724,1.099291,-0.117681\C,0,-0.
 524607,0.497784,-0.611141\C,0,-1.447868,-0.017439,0.494787\C,0,-2.7870
 22,-0.527764,-0.035684\H,0,-2.645338,-1.3547,-0.73482\H,0,2.766819,-0.
 619752,-1.175521\H,0,-3.427267,-0.884472,0.772434\H,0,2.992417,-1.6206
 04,0.257299\H,0,1.46598,-1.66519,-0.613039\H,0,-3.327819,0.259908,-0.5

 Normal termination of Gaussian 16 at Sat Apr  5 22:58:17 2025.
