 Gaussian 16, Revision C.01,

 ----------------------------------------------------------------------
 #t hf aug-cc-pvdz symm=none int=(grid=ultrafine) guess=(read,tcheck) s
 table=(opt,rrhf)
 ----------------------------------------------------------------------
 -----
 title
 -----
 Symbolic Z-matrix:
 Charge =  0 Multiplicity = 1

 SCF Done:  E(RHF) =  -464.946113199     A.U. after   11 cycles
 Normal termination of Gaussian 16 at Sat Apr  5 23:02:52 2025.
 Gaussian 16:  ES64L-G16RevC.01  3-Jul-2019

 ----------------------------------------------------------------------
 #t hf aug-cc-pvdz iop(5/13=1,5/36=2,99/5=2) pseudo=read geom=check gue
 ss=(read,tcheck) scf=(maxcycle=1)
 ----------------------------------------------------------------------
 -----
 title
 -----
 Structure from the checkpoint file:  "hexamethylbenzene.chk"
 Charge =  0 Multiplicity = 1

                         Standard orientation:
 ---------------------------------------------------------------------
 Center     Atomic      Atomic             Coordinates (Angstroms)
 Number     Number       Type             X           Y           Z
 ---------------------------------------------------------------------
      1          6           0       -0.011190    1.402717    0.000000
      2          6           0        0.011190    0.701358    1.214788
      3          6           0        0.011190    0.701358   -1.214788
      4          6           0       -0.011190   -0.701358    1.214788
      5          6           0       -0.011190   -0.701358   -1.214788
      6          6           0        0.011190   -1.402717   -0.000000
      7          6           0       -0.082337    2.914685    0.000000
      8          6           0        0.082337    1.457342    2.524191
      9          6           0        0.082337    1.457342   -2.524191
     10          6           0       -0.082337   -1.457342    2.524191
     11          6           0       -0.082337   -1.457342   -2.524191
     12          6           0        0.082337   -2.914685   -0.000000
     13          1           0       -0.610244    3.289820   -0.873575
     14          1           0       -0.610244    3.289820    0.873575
     15          1           0        0.910531    3.376329    0.000000
     16          1           0       -0.910531    1.688164    2.923987
     17          1           0        0.610244    0.888372    3.285855
     18          1           0        0.610244    2.401448    2.412280
     19          1           0        0.610244    0.888372   -3.285855
     20          1           0       -0.910531    1.688164   -2.923987
     21          1           0        0.610244    2.401448   -2.412280
     22          1           0       -0.610244   -2.401448    2.412280
     23          1           0        0.910531   -1.688164    2.923987
     24          1           0       -0.610244   -0.888372    3.285855
     25          1           0        0.910531   -1.688164   -2.923987
     26          1           0       -0.610244   -2.401448   -2.412280
     27          1           0       -0.610244   -0.888372   -3.285855
     28          1           0        0.610244   -3.289820   -0.873575
     29          1           0        0.610244   -3.289820    0.873575
     30          1           0       -0.910531   -3.376329   -0.000000
 ---------------------------------------------------------------------

 SCF Done:  E(RHF) =  -465.087426701     A.U. after    2 cycles

 The electronic state is 1-AG.
 Alpha  occ. eigenvalues --  -11.23088 -11.23056 -11.23056 -11.22933 -11.22933
 Alpha  occ. eigenvalues --  -11.22884 -11.22293 -11.22291 -11.22291 -11.22289
 Alpha  occ. eigenvalues --  -11.22289 -11.22287  -1.14558  -1.05903  -1.05903
 Alpha  occ. eigenvalues --   -0.97321  -0.97321  -0.94279  -0.93643  -0.86710
 Alpha  occ. eigenvalues --   -0.86710  -0.75022  -0.75022  -0.68594  -0.62287
 Alpha  occ. eigenvalues --   -0.60397  -0.57622  -0.57622  -0.57548  -0.57548
 Alpha  occ. eigenvalues --   -0.57384  -0.54994  -0.54994  -0.54043  -0.53410
 Alpha  occ. eigenvalues --   -0.53410  -0.52649  -0.52649  -0.51949  -0.50022
 Alpha  occ. eigenvalues --   -0.45565  -0.45565  -0.44305  -0.29876  -0.29876
 Alpha virt. eigenvalues --    0.03440   0.03805   0.03805   0.04662   0.05098
 Alpha virt. eigenvalues --    0.05098   0.06006   0.06006   0.06821   0.07462
 Alpha virt. eigenvalues --    0.07954   0.07954   0.08208   0.09955   0.09955

 Mulliken charges:
               1
     1  C   -0.740928
     2  C   -0.740930
     3  C   -0.740930
     4  C   -0.740930
     5  C   -0.740930
     6  C   -0.740928
     7  C    0.420069
     8  C    0.420065
     9  C    0.420065
    10  C    0.420065
    11  C    0.420065
    12  C    0.420069
    13  H    0.035013
    14  H    0.035013
    15  H    0.250836
    16  H    0.250837
    17  H    0.035012
    18  H    0.035014
    19  H    0.035012
    20  H    0.250837
    21  H    0.035014
    22  H    0.035014
    23  H    0.250837
    24  H    0.035012
    25  H    0.250837
    26  H    0.035014
    27  H    0.035012
    28  H    0.035013
    29  H    0.035013
    30  H    0.250836
 Sum of Mulliken charges =  -0.00000

 Dipole moment (field-independent basis, Debye):
    X=             -0.0000    Y=              0.0000    Z=             -0.0000  Tot=              0.0000

 Test job not archived.
 1\1\GINC-SE358\SP\RHF\Aug-CC-pVDZ\C12H18\OHZDE\05-Apr-2025\0\\#t hf au
 g-cc-pvdz iop(5/13=1,5/36=2,99/5=2) pseudo=read geom=check guess=(read
 ,tcheck) scf=(maxcycle=1)\\title\\0,1\C,0,0.,1.402717,0.01119\C,0,1.21
 4788,0.701358,-0.01119\C,0,-1.214788,0.701358,-0.01119\C,0,1.214788,-0
 .701358,0.01119\C,0,-1.214788,-0.701358,0.01119\C,0,0.,-1.402717,-0.01
 119\C,0,0.,2.914685,0.082337\C,0,2.524191,1.457342,-0.082337\C,0,-2.52
 4191,1.457342,-0.082337\C,0,2.524191,-1.457342,0.082337\C,0,-2.524191,
 -1.457342,0.082337\C,0,0.,-2.914685,-0.082337\H,0,-0.873575,3.28982,0.

 Normal termination of Gaussian 16 at Sat Apr  5 23:03:13 2025.
