 Gaussian 16, Revision C.01,

 ----------------------------------------------------------------------
 #t hf aug-cc-pvdz symm=none int=(grid=ultrafine) guess=(read,tcheck) s
 table=(opt,rrhf)
 ----------------------------------------------------------------------
 -----
 title
 -----
 Symbolic Z-matrix:
 Charge =  0 Multiplicity = 1

 SCF Done:  E(RHF) =  -2984.21134579     A.U. after   11 cycles
 Normal termination of Gaussian 16 at Sat Apr  5 22:58:09 2025.
 Gaussian 16:  ES64L-G16RevC.01  3-Jul-2019

 ----------------------------------------------------------------------
 #t hf aug-cc-pvdz iop(5/13=1,5/36=2,99/5=2) pseudo=read geom=check gue
 ss=(read,tcheck) scf=(maxcycle=1)
 ----------------------------------------------------------------------
 -----
 title
 -----
 Structure from the checkpoint file:  "hexachlorobenzene.chk"
 Charge =  0 Multiplicity = 1

                         Standard orientation:
 ---------------------------------------------------------------------
 Center     Atomic      Atomic             Coordinates (Angstroms)
 Number     Number       Type             X           Y           Z
 ---------------------------------------------------------------------
      1          6           0       -0.000000   -0.000000    1.397768
      2          6           0        0.000000    1.210502    0.698884
      3          6           0       -0.000000   -1.210502    0.698884
      4          6           0        0.000000    1.210502   -0.698884
      5          6           0       -0.000000   -1.210502   -0.698884
      6          6           0        0.000000   -0.000000   -1.397768
      7         17           0       -0.000000   -0.000000    3.126245
      8         17           0        0.000000    2.707407    1.563122
      9         17           0       -0.000000   -2.707407    1.563122
     10         17           0        0.000000    2.707407   -1.563122
     11         17           0       -0.000000   -2.707407   -1.563122
     12         17           0        0.000000   -0.000000   -3.126245
 ---------------------------------------------------------------------

 SCF Done:  E(RHF) =  -2984.38904941     A.U. after    2 cycles

 The electronic state is 1-AG.
 Alpha  occ. eigenvalues -- -103.69945-103.69944-103.69944-103.69944-103.69944
 Alpha  occ. eigenvalues -- -103.69942 -11.36851 -11.36809 -11.36809 -11.36691
 Alpha  occ. eigenvalues --  -11.36691 -11.36637 -10.73256 -10.73253 -10.73253
 Alpha  occ. eigenvalues --  -10.73252 -10.73252 -10.73246  -8.39002  -8.38994
 Alpha  occ. eigenvalues --   -8.38994  -8.38988  -8.38988  -8.38983  -8.38659
 Alpha  occ. eigenvalues --   -8.38657  -8.38657  -8.38650  -8.38650  -8.38644
 Alpha  occ. eigenvalues --   -8.38644  -8.38642  -8.38642  -8.38641  -8.38641
 Alpha  occ. eigenvalues --   -8.38639  -1.29319  -1.24560  -1.24560  -1.19993
 Alpha  occ. eigenvalues --   -1.19993  -1.18010  -1.13517  -1.02137  -1.02137
 Alpha  occ. eigenvalues --   -0.86549  -0.86549  -0.76949  -0.71044  -0.66585
 Alpha  occ. eigenvalues --   -0.65081  -0.63590  -0.63590  -0.59749  -0.59749
 Alpha  occ. eigenvalues --   -0.57320  -0.57320  -0.52113  -0.52113  -0.52042
 Alpha  occ. eigenvalues --   -0.51979  -0.51979  -0.50760  -0.49186  -0.49186
 Alpha  occ. eigenvalues --   -0.46913  -0.46052  -0.37184  -0.37184
 Alpha virt. eigenvalues --    0.04600   0.05586   0.05586   0.06545   0.06545
 Alpha virt. eigenvalues --    0.08510   0.08538   0.08538   0.10028   0.11189
 Alpha virt. eigenvalues --    0.11553   0.11553   0.12519   0.13864   0.13864

 Mulliken charges:
               1
     1  C    0.295120
     2  C    0.295118
     3  C    0.295118
     4  C    0.295118
     5  C    0.295118
     6  C    0.295120
     7  Cl  -0.295118
     8  Cl  -0.295119
     9  Cl  -0.295119
    10  Cl  -0.295119
    11  Cl  -0.295119
    12  Cl  -0.295118
 Sum of Mulliken charges =   0.00000

 Dipole moment (field-independent basis, Debye):
    X=              0.0000    Y=             -0.0000    Z=              0.0000  Tot=              0.0000

 Test job not archived.
 1\1\GINC-SE301\SP\RHF\Aug-CC-pVDZ\C6Cl6\OHZDE\05-Apr-2025\0\\#t hf aug
 -cc-pvdz iop(5/13=1,5/36=2,99/5=2) pseudo=read geom=check guess=(read,
 tcheck) scf=(maxcycle=1)\\title\\0,1\C,0,0.,1.397768,0.\C,0,1.210502,0
 .698884,0.\C,0,-1.210502,0.698884,0.\C,0,1.210502,-0.698884,0.\C,0,-1.
 210502,-0.698884,0.\C,0,0.,-1.397768,0.\Cl,0,0.,3.126245,0.\Cl,0,2.707
 407,1.563122,0.\Cl,0,-2.707407,1.563122,0.\Cl,0,2.707407,-1.563122,0.\
 Cl,0,-2.707407,-1.563122,0.\Cl,0,0.,-3.126245,0.\\Version=ES64L-G16Rev
 C.01\State=1-AG\HF=-2984.3890494\RMSD=2.087e-02\Dipole=0.,0.,0.\Quadru

 Normal termination of Gaussian 16 at Sat Apr  5 22:58:15 2025.
