 Gaussian 16, Revision C.01,

 ----------------------------------------------------------------------
 #t hf aug-cc-pvdz symm=none int=(grid=ultrafine) guess=(read,tcheck) s
 table=(opt,rrhf)
 ----------------------------------------------------------------------
 -----
 title
 -----
 Symbolic Z-matrix:
 Charge =  0 Multiplicity = 1

 SCF Done:  E(RHF) =  -2832.71294284     A.U. after   12 cycles
 Normal termination of Gaussian 16 at Sat Apr  5 22:57:18 2025.
 Gaussian 16:  ES64L-G16RevC.01  3-Jul-2019

 ----------------------------------------------------------------------
 #t hf aug-cc-pvdz iop(5/13=1,5/36=2,99/5=2) pseudo=read geom=check gue
 ss=(read,tcheck) scf=(maxcycle=1)
 ----------------------------------------------------------------------
 -----
 title
 -----
 Structure from the checkpoint file:  "hexachloroethane.chk"
 Charge =  0 Multiplicity = 1

                         Standard orientation:
 ---------------------------------------------------------------------
 Center     Atomic      Atomic             Coordinates (Angstroms)
 Number     Number       Type             X           Y           Z
 ---------------------------------------------------------------------
      1          6           0        0.227058    0.759035    0.000000
      2          6           0       -0.227058   -0.759035   -0.000000
      3         17           0       -1.206603    1.825782    0.000000
      4         17           0        1.206603    1.103896    1.454268
      5         17           0        1.206603    1.103896   -1.454268
      6         17           0        1.206603   -1.825782    0.000000
      7         17           0       -1.206603   -1.103896    1.454268
      8         17           0       -1.206603   -1.103896   -1.454268
 ---------------------------------------------------------------------

 SCF Done:  E(RHF) =  -2832.84398905     A.U. after    2 cycles

 The electronic state is 1-AG.
 Alpha  occ. eigenvalues -- -103.70357-103.70357-103.70357-103.70357-103.70356
 Alpha  occ. eigenvalues -- -103.70356 -11.48337 -11.48293 -10.73677 -10.73677
 Alpha  occ. eigenvalues --  -10.73670 -10.73670 -10.73646 -10.73636  -8.39386
 Alpha  occ. eigenvalues --   -8.39386  -8.39384  -8.39384  -8.39376  -8.39374
 Alpha  occ. eigenvalues --   -8.39039  -8.39037  -8.39037  -8.39035  -8.39035
 Alpha  occ. eigenvalues --   -8.39033  -8.39032  -8.39028  -8.39028  -8.39028
 Alpha  occ. eigenvalues --   -8.39025  -8.39025  -1.31108  -1.25171  -1.18223
 Alpha  occ. eigenvalues --   -1.18223  -1.16359  -1.16359  -0.97022  -0.81192
 Alpha  occ. eigenvalues --   -0.70280  -0.68604  -0.68604  -0.62649  -0.62649
 Alpha  occ. eigenvalues --   -0.53571  -0.53571  -0.52369  -0.52009  -0.52009
 Alpha  occ. eigenvalues --   -0.50355  -0.50355  -0.49180  -0.48645  -0.47000
 Alpha  occ. eigenvalues --   -0.47000  -0.46586
 Alpha virt. eigenvalues --    0.05143   0.06579   0.07134   0.07134   0.08923
 Alpha virt. eigenvalues --    0.09384   0.09384   0.10392   0.11195   0.11195
 Alpha virt. eigenvalues --    0.14167   0.14167   0.15072   0.15901   0.17169

 Mulliken charges:
               1
     1  C   -0.177829
     2  C   -0.177829
     3  Cl   0.059276
     4  Cl   0.059276
     5  Cl   0.059276
     6  Cl   0.059276
     7  Cl   0.059276
     8  Cl   0.059276
 Sum of Mulliken charges =  -0.00000

 Dipole moment (field-independent basis, Debye):
    X=              0.0000    Y=             -0.0000    Z=             -0.0000  Tot=              0.0000

 Test job not archived.
 1\1\GINC-SE348\SP\RHF\Aug-CC-pVDZ\C2Cl6\OHZDE\05-Apr-2025\0\\#t hf aug
 -cc-pvdz iop(5/13=1,5/36=2,99/5=2) pseudo=read geom=check guess=(read,
 tcheck) scf=(maxcycle=1)\\title\\0,1\C,0,0.,0.,0.792268\C,0,0.,0.,-0.7
 92268\Cl,0,0.,1.679244,1.403393\Cl,0,-1.454268,-0.839622,1.403393\Cl,0
 ,1.454268,-0.839622,1.403393\Cl,0,0.,-1.679244,-1.403393\Cl,0,-1.45426
 8,0.839622,-1.403393\Cl,0,1.454268,0.839622,-1.403393\\Version=ES64L-G
 16RevC.01\State=1-AG\HF=-2832.8439891\RMSD=5.167e-03\Dipole=0.,0.,0.\Q
 uadrupole=0.6323064,0.6323063,-1.2646127,0.,0.,0.0000002\PG=C02H [SGH(

 Normal termination of Gaussian 16 at Sat Apr  5 22:58:08 2025.
