 Gaussian 16, Revision C.01,

 ----------------------------------------------------------------------
 #t hf aug-cc-pvdz symm=none int=(grid=ultrafine) guess=(read,tcheck) s
 table=(opt,rrhf)
 ----------------------------------------------------------------------
 -----
 title
 -----
 Symbolic Z-matrix:
 Charge =  0 Multiplicity = 1

 SCF Done:  E(RHF) =  -230.623938769     A.U. after   15 cycles
 Normal termination of Gaussian 16 at Sat Apr  5 22:58:19 2025.
 Gaussian 16:  ES64L-G16RevC.01  3-Jul-2019

 ----------------------------------------------------------------------
 #t hf aug-cc-pvdz iop(5/13=1,5/36=2,99/5=2) pseudo=read geom=check gue
 ss=(read,tcheck) scf=(maxcycle=1)
 ----------------------------------------------------------------------
 -----
 title
 -----
 Structure from the checkpoint file:  "hexa-1-3-diene-5-yne.chk"
 Charge =  0 Multiplicity = 1

                         Standard orientation:
 ---------------------------------------------------------------------
 Center     Atomic      Atomic             Coordinates (Angstroms)
 Number     Number       Type             X           Y           Z
 ---------------------------------------------------------------------
      1          6           0        3.128267   -0.342469   -0.000004
      2          6           0        1.993557    0.059429   -0.000007
      3          6           0        0.675269    0.570452   -0.000011
      4          6           0       -0.435926   -0.189337    0.000004
      5          6           0       -1.776186    0.350545    0.000000
      6          6           0       -2.884737   -0.395944    0.000015
      7          1           0        4.125512   -0.705141   -0.000001
      8          1           0        0.578120    1.651724   -0.000027
      9          1           0       -0.335274   -1.269130    0.000020
     10          1           0       -1.864320    1.432522   -0.000016
     11          1           0       -2.837239   -1.477747    0.000031
     12          1           0       -3.868261    0.051719    0.000011
 ---------------------------------------------------------------------

 SCF Done:  E(RHF) =  -230.697188930     A.U. after    2 cycles

 The electronic state is 1-A.
 Alpha  occ. eigenvalues --  -11.26935 -11.26583 -11.25824 -11.25209 -11.25119
 Alpha  occ. eigenvalues --  -11.24230  -1.11159  -1.05095  -0.99200  -0.86586
 Alpha  occ. eigenvalues --   -0.77616  -0.73111  -0.67992  -0.66216  -0.58963
 Alpha  occ. eigenvalues --   -0.57237  -0.51710  -0.48837  -0.41809  -0.40008
 Alpha  occ. eigenvalues --   -0.31496
 Alpha virt. eigenvalues --    0.03498   0.03838   0.04272   0.05368   0.06398
 Alpha virt. eigenvalues --    0.06759   0.07841   0.10334   0.11135   0.11147
 Alpha virt. eigenvalues --    0.11811   0.12885   0.13097   0.13960   0.14865

 Mulliken charges:
               1
     1  C    0.700545
     2  C   -0.201987
     3  C    0.250791
     4  C    0.579563
     5  C    0.453858
     6  C    0.670403
     7  H   -0.473569
     8  H   -0.437591
     9  H   -0.458079
    10  H   -0.466840
    11  H   -0.300904
    12  H   -0.316190
 Sum of Mulliken charges =  -0.00000

 Dipole moment (field-independent basis, Debye):
    X=             -0.8421    Y=             -0.0374    Z=              0.0000  Tot=              0.8429

 Test job not archived.
 1\1\GINC-SE300\SP\RHF\Aug-CC-pVDZ\C6H6\OHZDE\05-Apr-2025\0\\#t hf aug-
 cc-pvdz iop(5/13=1,5/36=2,99/5=2) pseudo=read geom=check guess=(read,t
 check) scf=(maxcycle=1)\\title\\0,1\C,0,3.128267,-0.342469,-0.000004\C
 ,0,1.993557,0.059429,-0.000007\C,0,0.675269,0.570452,-0.000011\C,0,-0.
 435926,-0.189337,0.000004\C,0,-1.776186,0.350545,0.\C,0,-2.884737,-0.3
 95944,0.000015\H,0,4.125512,-0.705141,-0.000001\H,0,0.57812,1.651724,-
 0.000027\H,0,-0.335274,-1.26913,0.00002\H,0,-1.86432,1.432522,-0.00001
 6\H,0,-2.837239,-1.477747,0.000031\H,0,-3.868261,0.051719,0.000011\\Ve

 Normal termination of Gaussian 16 at Sat Apr  5 22:58:23 2025.
