 Gaussian 16, Revision C.01,

 ----------------------------------------------------------------------
 #t hf aug-cc-pvdz symm=none int=(grid=ultrafine) guess=(read,tcheck) s
 table=(opt,rrhf)
 ----------------------------------------------------------------------
 -----
 title
 -----
 Symbolic Z-matrix:
 Charge =  0 Multiplicity = 1

 SCF Done:  E(RHF) =  -672.462964595     A.U. after   10 cycles
 Normal termination of Gaussian 16 at Sat Apr  5 22:57:13 2025.
 Gaussian 16:  ES64L-G16RevC.01  3-Jul-2019

 ----------------------------------------------------------------------
 #t hf aug-cc-pvdz iop(5/13=1,5/36=2,99/5=2) pseudo=read geom=check gue
 ss=(read,tcheck) scf=(maxcycle=1)
 ----------------------------------------------------------------------
 -----
 title
 -----
 Structure from the checkpoint file:  "hexafluoroethane.chk"
 Charge =  0 Multiplicity = 1

                         Standard orientation:
 ---------------------------------------------------------------------
 Center     Atomic      Atomic             Coordinates (Angstroms)
 Number     Number       Type             X           Y           Z
 ---------------------------------------------------------------------
      1          6           0        0.000000    0.000000    0.778102
      2          6           0        0.000000    0.000000   -0.778102
      3          9           0        0.000000    1.254581    1.232191
      4          9           0       -1.086499   -0.627290    1.232191
      5          9           0        1.086499   -0.627291    1.232191
      6          9           0        0.000000   -1.254581   -1.232191
      7          9           0       -1.086499    0.627291   -1.232191
      8          9           0        1.086499    0.627290   -1.232191
 ---------------------------------------------------------------------

 SCF Done:  E(RHF) =  -672.708935608     A.U. after    2 cycles

 The electronic state is 1-AG.
 Alpha  occ. eigenvalues --  -26.20523 -26.20523 -26.20521 -26.20521 -26.20507
 Alpha  occ. eigenvalues --  -26.20506 -11.57614 -11.57567  -1.81328  -1.79556
 Alpha  occ. eigenvalues --   -1.73651  -1.73651  -1.72918  -1.72918  -1.13494
 Alpha  occ. eigenvalues --   -1.03477  -0.95542  -0.93735  -0.93735  -0.90745
 Alpha  occ. eigenvalues --   -0.90745  -0.82789  -0.80835  -0.80835  -0.80758
 Alpha  occ. eigenvalues --   -0.80758  -0.77401  -0.77401  -0.75940  -0.75940
 Alpha  occ. eigenvalues --   -0.75841  -0.75112  -0.64060
 Alpha virt. eigenvalues --    0.07396   0.07733   0.08669   0.08669   0.11701
 Alpha virt. eigenvalues --    0.11701   0.11963   0.20142   0.20802   0.20802
 Alpha virt. eigenvalues --    0.23253   0.23253   0.28944   0.28944   0.28985

 Mulliken charges:
               1
     1  C    0.810865
     2  C    0.810865
     3  F   -0.270288
     4  F   -0.270288
     5  F   -0.270289
     6  F   -0.270288
     7  F   -0.270289
     8  F   -0.270288
 Sum of Mulliken charges =  -0.00000

 Dipole moment (field-independent basis, Debye):
    X=             -0.0000    Y=             -0.0000    Z=              0.0000  Tot=              0.0000

 Test job not archived.
 1\1\GINC-SE351\SP\RHF\Aug-CC-pVDZ\C2F6\OHZDE\05-Apr-2025\0\\#t hf aug-
 cc-pvdz iop(5/13=1,5/36=2,99/5=2) pseudo=read geom=check guess=(read,t
 check) scf=(maxcycle=1)\\title\\0,1\C,0,0.,0.,0.778102\C,0,0.,0.,-0.77
 8102\F,0,0.,1.254581,1.232191\F,0,-1.086499,-0.62729,1.232191\F,0,1.08
 6499,-0.627291,1.232191\F,0,0.,-1.254581,-1.232191\F,0,-1.086499,0.627
 291,-1.232191\F,0,1.086499,0.62729,-1.232191\\Version=ES64L-G16RevC.01
 \State=1-AG\HF=-672.7089356\RMSD=6.861e-03\Dipole=0.,0.,0.\Quadrupole=
 -0.054367,-0.0543672,0.1087343,0.0000025,-0.000002,0.\PG=CI [X(C2F6)]\

 Normal termination of Gaussian 16 at Sat Apr  5 22:58:08 2025.
