 Gaussian 16, Revision C.01,

 ----------------------------------------------------------------------
 #t hf aug-cc-pvdz symm=none int=(grid=ultrafine) guess=(read,tcheck) s
 table=(opt,rrhf)
 ----------------------------------------------------------------------
 -----
 title
 -----
 Symbolic Z-matrix:
 Charge =  0 Multiplicity = 1

 SCF Done:  E(RHF) =  -364.168125505     A.U. after   13 cycles
 Normal termination of Gaussian 16 at Sat Apr  5 22:58:12 2025.
 Gaussian 16:  ES64L-G16RevC.01  3-Jul-2019

 ----------------------------------------------------------------------
 #t hf aug-cc-pvdz iop(5/13=1,5/36=2,99/5=2) pseudo=read geom=check gue
 ss=(read,tcheck) scf=(maxcycle=1)
 ----------------------------------------------------------------------
 -----
 title
 -----
 Structure from the checkpoint file:  "hexanamide.chk"
 Charge =  0 Multiplicity = 1

                         Standard orientation:
 ---------------------------------------------------------------------
 Center     Atomic      Atomic             Coordinates (Angstroms)
 Number     Number       Type             X           Y           Z
 ---------------------------------------------------------------------
      1          6           0       -2.341682    0.111370    0.062323
      2          6           0        4.074930   -0.182147    0.064954
      3          6           0       -1.005389   -0.584989    0.280499
      4          6           0        2.730567    0.451968   -0.287379
      5          6           0        0.185855    0.257397   -0.174608
      6          6           0        1.531563   -0.380318    0.168545
      7          7           0       -3.379576   -0.706845   -0.277643
      8          8           0       -2.490867    1.311718    0.200335
      9          1           0        4.179038   -0.312677    1.144121
     10          1           0        4.907792    0.434652   -0.275258
     11          1           0        4.181268   -1.165989   -0.397058
     12          1           0       -0.928223   -0.779637    1.355244
     13          1           0       -0.998311   -1.560235   -0.212711
     14          1           0        2.671429    0.604297   -1.369128
     15          1           0        2.667243    1.447267    0.161800
     16          1           0        0.120409    0.418511   -1.254432
     17          1           0        0.107976    1.243573    0.284716
     18          1           0        1.592586   -0.535216    1.251266
     19          1           0        1.594355   -1.376608   -0.283106
     20          1           0       -4.296353   -0.304735   -0.373362
     21          1           0       -3.270304   -1.698720   -0.377277
 ---------------------------------------------------------------------

 SCF Done:  E(RHF) =  -364.283641486     A.U. after    2 cycles

 The electronic state is 1-A.
 Alpha  occ. eigenvalues --  -20.53073 -15.64861 -11.36266 -11.24836 -11.22971
 Alpha  occ. eigenvalues --  -11.22823 -11.22682 -11.22172  -1.34328  -1.17639
 Alpha  occ. eigenvalues --   -1.08061  -1.02691  -0.94349  -0.84975  -0.79489
 Alpha  occ. eigenvalues --   -0.78197  -0.72117  -0.67767  -0.65464  -0.61791
 Alpha  occ. eigenvalues --   -0.60887  -0.57971  -0.57394  -0.55579  -0.52909
 Alpha  occ. eigenvalues --   -0.50734  -0.48493  -0.47411  -0.46754  -0.46574
 Alpha  occ. eigenvalues --   -0.43059  -0.41688
 Alpha virt. eigenvalues --    0.02751   0.03744   0.04451   0.04616   0.05522
 Alpha virt. eigenvalues --    0.05856   0.06509   0.07250   0.08072   0.08290
 Alpha virt. eigenvalues --    0.09625   0.10236   0.10865   0.11299   0.12805

 Mulliken charges:
               1
     1  C    0.616832
     2  C    0.600604
     3  C    0.346610
     4  C    0.394559
     5  C    0.047282
     6  C    0.183268
     7  N   -0.116823
     8  O   -0.548129
     9  H   -0.095226
    10  H   -0.065022
    11  H   -0.097297
    12  H   -0.006833
    13  H   -0.204047
    14  H   -0.155092
    15  H   -0.145943
    16  H   -0.180819
    17  H   -0.154364
    18  H   -0.174714
    19  H   -0.189593
    20  H   -0.032452
    21  H   -0.022803
 Sum of Mulliken charges =   0.00000

 Dipole moment (field-independent basis, Debye):
    X=              0.0559    Y=             -4.0566    Z=             -0.5329  Tot=              4.0918

 Test job not archived.
 1\1\GINC-SE360\SP\RHF\Aug-CC-pVDZ\C6H13N1O1\OHZDE\05-Apr-2025\0\\#t hf
  aug-cc-pvdz iop(5/13=1,5/36=2,99/5=2) pseudo=read geom=check guess=(r
 ead,tcheck) scf=(maxcycle=1)\\title\\0,1\C,0,-2.341682,0.11137,0.06232
 3\C,0,4.07493,-0.182147,0.064954\C,0,-1.005389,-0.584989,0.280499\C,0,
 2.730567,0.451968,-0.287379\C,0,0.185855,0.257397,-0.174608\C,0,1.5315
 63,-0.380318,0.168545\N,0,-3.379576,-0.706845,-0.277643\O,0,-2.490867,
 1.311718,0.200335\H,0,4.179038,-0.312677,1.144121\H,0,4.907792,0.43465
 2,-0.275258\H,0,4.181268,-1.165989,-0.397058\H,0,-0.928223,-0.779637,1

 Normal termination of Gaussian 16 at Sat Apr  5 22:58:21 2025.
