 Gaussian 16, Revision C.01,

 ----------------------------------------------------------------------
 #t hf aug-cc-pvdz symm=none int=(grid=ultrafine) guess=(read,tcheck) s
 table=(opt,rrhf)
 ----------------------------------------------------------------------
 -----
 title
 -----
 Symbolic Z-matrix:
 Charge =  0 Multiplicity = 1

 SCF Done:  E(RHF) =  -339.971246630     A.U. after   12 cycles
 Normal termination of Gaussian 16 at Sat Apr  5 22:57:35 2025.
 Gaussian 16:  ES64L-G16RevC.01  3-Jul-2019

 ----------------------------------------------------------------------
 #t hf aug-cc-pvdz iop(5/13=1,5/36=2,99/5=2) pseudo=read geom=check gue
 ss=(read,tcheck) scf=(maxcycle=1)
 ----------------------------------------------------------------------
 -----
 title
 -----
 Structure from the checkpoint file:  "hexahydropyrimidin-2-one.chk"
 Charge =  0 Multiplicity = 1

                         Standard orientation:
 ---------------------------------------------------------------------
 Center     Atomic      Atomic             Coordinates (Angstroms)
 Number     Number       Type             X           Y           Z
 ---------------------------------------------------------------------
      1          6           0       -0.164367    1.106122    0.000000
      2          6           0        0.630174   -1.644396   -0.000000
      3          6           0       -0.028352   -1.065946    1.246291
      4          6           0       -0.028352   -1.065946   -1.246291
      5          7           0       -0.028352    0.386872    1.163911
      6          7           0       -0.028352    0.386872   -1.163911
      7          8           0       -0.348128    2.315601    0.000000
      8          1           0        1.692401   -1.394346   -0.000000
      9          1           0        0.538186   -2.730567   -0.000000
     10          1           0       -1.047815   -1.460098    1.343027
     11          1           0        0.519860   -1.364705    2.140522
     12          1           0        0.519860   -1.364705   -2.140522
     13          1           0       -1.047815   -1.460098   -1.343027
     14          1           0       -0.223673    0.927248    1.988963
     15          1           0       -0.223673    0.927248   -1.988963
 ---------------------------------------------------------------------

 SCF Done:  E(RHF) =  -340.076569183     A.U. after    2 cycles

 The electronic state is 1-A'.
 Alpha  occ. eigenvalues --  -20.51104 -15.63842 -15.63840 -11.38074 -11.28832
 Alpha  occ. eigenvalues --  -11.28824 -11.25318  -1.34331  -1.22126  -1.16535
 Alpha  occ. eigenvalues --   -1.05131  -0.93182  -0.86891  -0.77712  -0.70684
 Alpha  occ. eigenvalues --   -0.68318  -0.66111  -0.64098  -0.61166  -0.60551
 Alpha  occ. eigenvalues --   -0.58810  -0.53317  -0.51080  -0.50495  -0.43998
 Alpha  occ. eigenvalues --   -0.39400  -0.38451
 Alpha virt. eigenvalues --    0.02635   0.03491   0.03964   0.04729   0.06524
 Alpha virt. eigenvalues --    0.06734   0.06943   0.07440   0.10767   0.12616
 Alpha virt. eigenvalues --    0.12618   0.13622   0.14114   0.14228   0.14247

 Mulliken charges:
               1
     1  C    0.559577
     2  C    0.022335
     3  C    0.833362
     4  C    0.833362
     5  N   -0.356739
     6  N   -0.356739
     7  O   -0.504953
     8  H   -0.131340
     9  H   -0.030467
    10  H   -0.153260
    11  H   -0.161705
    12  H   -0.161705
    13  H   -0.153260
    14  H   -0.119234
    15  H   -0.119234
 Sum of Mulliken charges =  -0.00000

 Dipole moment (field-independent basis, Debye):
    X=              0.1489    Y=             -5.3553    Z=             -0.0000  Tot=              5.3574

 Test job not archived.
 1\1\GINC-SE352\SP\RHF\Aug-CC-pVDZ\C4H8N2O1\OHZDE\05-Apr-2025\0\\#t hf
 aug-cc-pvdz iop(5/13=1,5/36=2,99/5=2) pseudo=read geom=check guess=(re
 ad,tcheck) scf=(maxcycle=1)\\title\\0,1\C,0,-0.164367,1.106122,0.\C,0,
 0.630174,-1.644396,0.\C,0,-0.028352,-1.065946,1.246291\C,0,-0.028352,-
 1.065946,-1.246291\N,0,-0.028352,0.386872,1.163911\N,0,-0.028352,0.386
 872,-1.163911\O,0,-0.348128,2.315601,0.\H,0,1.692401,-1.394346,0.\H,0,
 0.538186,-2.730567,0.\H,0,-1.047815,-1.460098,1.343027\H,0,0.51986,-1.
 364705,2.140522\H,0,0.51986,-1.364705,-2.140522\H,0,-1.047815,-1.46009

 Normal termination of Gaussian 16 at Sat Apr  5 22:58:09 2025.
