 Gaussian 16, Revision C.01,

 ----------------------------------------------------------------------
 #t hf aug-cc-pvdz symm=none int=(grid=ultrafine) guess=(read,tcheck) s
 table=(opt,rrhf)
 ----------------------------------------------------------------------
 -----
 title
 -----
 Symbolic Z-matrix:
 Charge =  0 Multiplicity = 1

 SCF Done:  E(RHF) =  -545.617033985     A.U. after   15 cycles
 Normal termination of Gaussian 16 at Sat Apr  5 23:00:16 2025.
 Gaussian 16:  ES64L-G16RevC.01  3-Jul-2019

 ----------------------------------------------------------------------
 #t hf aug-cc-pvdz iop(5/13=1,5/36=2,99/5=2) pseudo=read geom=check gue
 ss=(read,tcheck) scf=(maxcycle=1)
 ----------------------------------------------------------------------
 -----
 title
 -----
 Structure from the checkpoint file:  "histidine.chk"
 Charge =  0 Multiplicity = 1

                         Standard orientation:
 ---------------------------------------------------------------------
 Center     Atomic      Atomic             Coordinates (Angstroms)
 Number     Number       Type             X           Y           Z
 ---------------------------------------------------------------------
      1          7           0       -1.201957    1.645890    0.152460
      2          6           0       -1.122137    0.221629   -0.199424
      3          6           0       -2.533221   -0.393283   -0.152217
      4          8           0       -2.748314   -1.574901   -0.095497
      5          8           0       -3.514020    0.517294   -0.229519
      6          1           0       -3.060866    1.389226   -0.232101
      7          6           0       -0.112058   -0.609453    0.605562
      8          6           0        1.310812   -0.315666    0.248158
      9          7           0        1.798228    0.972889    0.135796
     10          6           0        3.064823    0.857017   -0.182550
     11          7           0        3.431444   -0.446678   -0.283277
     12          6           0        2.315898   -1.207793   -0.013417
     13          1           0       -0.839634    0.175548   -1.255509
     14          1           0       -0.281816   -0.417857    1.670751
     15          1           0       -0.320702   -1.665837    0.443593
     16          1           0        3.752508    1.668827   -0.350821
     17          1           0        4.345579   -0.792723   -0.516050
     18          1           0        2.335670   -2.282388   -0.032339
     19          1           0       -1.210332    1.750849    1.162273
     20          1           0       -0.360429    2.115801   -0.161192
 ---------------------------------------------------------------------

 SCF Done:  E(RHF) =  -545.780313363     A.U. after    2 cycles

 The electronic state is 1-A.
 Alpha  occ. eigenvalues --  -20.60239 -20.54630 -15.69983 -15.62845 -15.62531
 Alpha  occ. eigenvalues --  -11.38280 -11.32566 -11.29290 -11.28071 -11.27348
 Alpha  occ. eigenvalues --  -11.24931  -1.40556  -1.32647  -1.31626  -1.18301
 Alpha  occ. eigenvalues --   -1.14911  -1.05233  -0.98885  -0.90488  -0.83889
 Alpha  occ. eigenvalues --   -0.81191  -0.78859  -0.75873  -0.73766  -0.67701
 Alpha  occ. eigenvalues --   -0.66110  -0.63806  -0.62510  -0.62283  -0.61738
 Alpha  occ. eigenvalues --   -0.60777  -0.58767  -0.55677  -0.53669  -0.52659
 Alpha  occ. eigenvalues --   -0.47971  -0.45826  -0.45400  -0.41280  -0.40623
 Alpha  occ. eigenvalues --   -0.33145
 Alpha virt. eigenvalues --    0.01816   0.03095   0.03957   0.04405   0.05516
 Alpha virt. eigenvalues --    0.06316   0.07321   0.07775   0.08486   0.09114
 Alpha virt. eigenvalues --    0.10560   0.11409   0.12340   0.12539   0.13025

 Mulliken charges:
               1
     1  N   -0.461452
     2  C   -0.036418
     3  C    0.747310
     4  O   -0.483062
     5  O   -0.498083
     6  H    0.256431
     7  C    0.476952
     8  C    0.154999
     9  N   -0.702236
    10  C    0.662864
    11  N   -0.514649
    12  C    0.975335
    13  H   -0.027712
    14  H    0.033671
    15  H   -0.092465
    16  H   -0.272582
    17  H   -0.085887
    18  H   -0.288703
    19  H    0.072020
    20  H    0.083667
 Sum of Mulliken charges =  -0.00000

 Dipole moment (field-independent basis, Debye):
    X=              7.7113    Y=              1.5755    Z=             -0.1736  Tot=              7.8725

 Test job not archived.
 1\1\GINC-SE053\SP\RHF\Aug-CC-pVDZ\C6H9N3O2\OHZDE\05-Apr-2025\0\\#t hf
 aug-cc-pvdz iop(5/13=1,5/36=2,99/5=2) pseudo=read geom=check guess=(re
 ad,tcheck) scf=(maxcycle=1)\\title\\0,1\N,0,-1.201957,1.64589,0.15246\
 C,0,-1.122137,0.221629,-0.199424\C,0,-2.533221,-0.393283,-0.152217\O,0
 ,-2.748314,-1.574901,-0.095497\O,0,-3.51402,0.517294,-0.229519\H,0,-3.
 060866,1.389226,-0.232101\C,0,-0.112058,-0.609453,0.605562\C,0,1.31081
 2,-0.315666,0.248158\N,0,1.798228,0.972889,0.135796\C,0,3.064823,0.857
 017,-0.18255\N,0,3.431444,-0.446678,-0.283277\C,0,2.315898,-1.207793,-

 Normal termination of Gaussian 16 at Sat Apr  5 23:00:30 2025.
