 Gaussian 16, Revision C.01,

 ----------------------------------------------------------------------
 #t hf aug-cc-pvdz symm=none int=(grid=ultrafine) guess=(read,tcheck) s
 table=(opt,rrhf)
 ----------------------------------------------------------------------
 -----
 title
 -----
 Symbolic Z-matrix:
 Charge =  0 Multiplicity = 1

 SCF Done:  E(RHF) =  -1024.03839656     A.U. after   13 cycles
 Normal termination of Gaussian 16 at Sat Apr  5 22:58:35 2025.
 Gaussian 16:  ES64L-G16RevC.01  3-Jul-2019

 ----------------------------------------------------------------------
 #t hf aug-cc-pvdz iop(5/13=1,5/36=2,99/5=2) pseudo=read geom=check gue
 ss=(read,tcheck) scf=(maxcycle=1)
 ----------------------------------------------------------------------
 -----
 title
 -----
 Structure from the checkpoint file:  "hydroxymethyldisulfanylmethanol.chk"
 Charge =  0 Multiplicity = 1

                         Standard orientation:
 ---------------------------------------------------------------------
 Center     Atomic      Atomic             Coordinates (Angstroms)
 Number     Number       Type             X           Y           Z
 ---------------------------------------------------------------------
      1         16           0       -0.588948   -0.854750   -0.597619
      2         16           0        0.588932    0.854989   -0.597326
      3          8           0       -2.696710    0.623868    0.346427
      4          8           0        2.696697   -0.624032    0.346082
      5          6           0       -1.855232   -0.435708    0.688286
      6          6           0        1.855275    0.435453    0.688361
      7          1           0       -1.332873   -0.262522    1.630730
      8          1           0       -2.466770   -1.333392    0.769900
      9          1           0        1.332960    0.261952    1.630771
     10          1           0        2.466846    1.333087    0.770258
     11          1           0       -2.164171    1.423911    0.259063
     12          1           0        2.164119   -1.424019    0.258442
 ---------------------------------------------------------------------

 SCF Done:  E(RHF) =  -1024.15312187     A.U. after    2 cycles

 The electronic state is 1-A.
 Alpha  occ. eigenvalues --  -93.56845 -93.56844 -20.59798 -20.59798 -11.34247
 Alpha  occ. eigenvalues --  -11.34247  -8.86484  -8.86468  -6.20642  -6.20532
 Alpha  occ. eigenvalues --   -6.20334  -6.20309  -6.20026  -6.20024  -1.35450
 Alpha  occ. eigenvalues --   -1.35356  -1.06508  -0.98837  -0.91063  -0.81023
 Alpha  occ. eigenvalues --   -0.73240  -0.72273  -0.66010  -0.65225  -0.62920
 Alpha  occ. eigenvalues --   -0.61557  -0.54763  -0.53164  -0.49163  -0.46639
 Alpha  occ. eigenvalues --   -0.44688  -0.37417  -0.37376
 Alpha virt. eigenvalues --    0.03218   0.04183   0.05232   0.05315   0.06040
 Alpha virt. eigenvalues --    0.07632   0.08840   0.09457   0.10357   0.11632
 Alpha virt. eigenvalues --    0.13535   0.13795   0.15444   0.15503   0.15544

 Mulliken charges:
               1
     1  S    0.096352
     2  S    0.096357
     3  O   -0.495834
     4  O   -0.495837
     5  C    0.479152
     6  C    0.479160
     7  H   -0.116451
     8  H   -0.145613
     9  H   -0.116451
    10  H   -0.145617
    11  H    0.182388
    12  H    0.182392
 Sum of Mulliken charges =  -0.00000

 Dipole moment (field-independent basis, Debye):
    X=              0.0000    Y=             -0.0004    Z=              2.4275  Tot=              2.4275

 Test job not archived.
 1\1\GINC-SE165\SP\RHF\Aug-CC-pVDZ\C2H6O2S2\OHZDE\05-Apr-2025\0\\#t hf
 aug-cc-pvdz iop(5/13=1,5/36=2,99/5=2) pseudo=read geom=check guess=(re
 ad,tcheck) scf=(maxcycle=1)\\title\\0,1\S,0,-0.588948,-0.85475,-0.5976
 19\S,0,0.588932,0.854989,-0.597326\O,0,-2.69671,0.623868,0.346427\O,0,
 2.696697,-0.624032,0.346082\C,0,-1.855232,-0.435708,0.688286\C,0,1.855
 275,0.435453,0.688361\H,0,-1.332873,-0.262522,1.63073\H,0,-2.46677,-1.
 333392,0.7699\H,0,1.33296,0.261952,1.630771\H,0,2.466846,1.333087,0.77
 0258\H,0,-2.164171,1.423911,0.259063\H,0,2.164119,-1.424019,0.258442\\

 Normal termination of Gaussian 16 at Sat Apr  5 22:58:41 2025.
