 Gaussian 16, Revision C.01,

 ----------------------------------------------------------------------
 #t hf aug-cc-pvdz symm=none int=(grid=ultrafine) guess=(read,tcheck) s
 table=(opt,rrhf)
 ----------------------------------------------------------------------
 -----
 title
 -----
 Symbolic Z-matrix:
 Charge =  0 Multiplicity = 1

 SCF Done:  E(RHF) =  -92.8880547786     A.U. after   10 cycles
 Normal termination of Gaussian 16 at Sat Apr  5 22:58:11 2025.
 Gaussian 16:  ES64L-G16RevC.01  3-Jul-2019

 ----------------------------------------------------------------------
 #t hf aug-cc-pvdz iop(5/13=1,5/36=2,99/5=2) pseudo=read geom=check gue
 ss=(read,tcheck) scf=(maxcycle=1)
 ----------------------------------------------------------------------
 -----
 title
 -----
 Structure from the checkpoint file:  "hydrogen_cyanide.chk"
 Charge =  0 Multiplicity = 1

                         Standard orientation:
 ---------------------------------------------------------------------
 Center     Atomic      Atomic             Coordinates (Angstroms)
 Number     Number       Type             X           Y           Z
 ---------------------------------------------------------------------
      1          6           0        0.000000    0.000000   -0.496902
      2          7           0        0.000000    0.000000    0.649125
      3          1           0        0.000000    0.000000   -1.562463
 ---------------------------------------------------------------------

 SCF Done:  E(RHF) =  -92.9169984962     A.U. after    2 cycles

 The electronic state is 1-SG.
 Alpha  occ. eigenvalues --  -15.66653 -11.30566  -1.21291  -0.81059  -0.57096
 Alpha  occ. eigenvalues --   -0.49786  -0.49786
 Alpha virt. eigenvalues --    0.02809   0.08371   0.08371   0.08407   0.15535
 Alpha virt. eigenvalues --    0.15996   0.15996   0.18284   0.24703   0.24703
 Alpha virt. eigenvalues --    0.27099   0.34072   0.41486   0.41486   0.43355

 Mulliken charges:
               1
     1  C    0.232400
     2  N   -0.225545
     3  H   -0.006855
 Sum of Mulliken charges =   0.00000

 Dipole moment (field-independent basis, Debye):
    X=             -0.0000    Y=             -0.0000    Z=             -3.1915  Tot=              3.1915

 Test job not archived.
 1\1\GINC-SE188\SP\RHF\Aug-CC-pVDZ\C1H1N1\OHZDE\05-Apr-2025\0\\#t hf au
 g-cc-pvdz iop(5/13=1,5/36=2,99/5=2) pseudo=read geom=check guess=(read
 ,tcheck) scf=(maxcycle=1)\\title\\0,1\C,0,0.,0.,-0.496902\N,0,0.,0.,0.
 649125\H,0,0.,0.,-1.562463\\Version=ES64L-G16RevC.01\State=1-SG\HF=-92
 .9169985\RMSD=2.675e-03\Dipole=0.,0.,-1.2556242\Quadrupole=-0.5713387,
 -0.5713387,1.1426774,0.,0.,0.\PG=C*V [C*(H1C1N1)]\\@

 Normal termination of Gaussian 16 at Sat Apr  5 22:58:13 2025.
