 Gaussian 16, Revision C.01,

 ----------------------------------------------------------------------
 #t hf aug-cc-pvdz symm=none int=(grid=ultrafine) guess=(read,tcheck) s
 table=(opt,rrhf)
 ----------------------------------------------------------------------
 -----
 title
 -----
 Symbolic Z-matrix:
 Charge =  0 Multiplicity = 1

 SCF Done:  E(RHF) =  -264.707006825     A.U. after   13 cycles
 Normal termination of Gaussian 16 at Sat Apr  5 22:58:36 2025.
 Gaussian 16:  ES64L-G16RevC.01  3-Jul-2019

 ----------------------------------------------------------------------
 #t hf aug-cc-pvdz iop(5/13=1,5/36=2,99/5=2) pseudo=read geom=check gue
 ss=(read,tcheck) scf=(maxcycle=1)
 ----------------------------------------------------------------------
 -----
 title
 -----
 Structure from the checkpoint file:  "hydroxymethylperoxide.chk"
 Charge =  0 Multiplicity = 1

                         Standard orientation:
 ---------------------------------------------------------------------
 Center     Atomic      Atomic             Coordinates (Angstroms)
 Number     Number       Type             X           Y           Z
 ---------------------------------------------------------------------
      1          6           0       -0.521080    0.491811    0.031617
      2          8           0       -1.757960   -0.126244   -0.064518
      3          8           0        0.469147   -0.535551   -0.126038
      4          8           0        1.752362    0.137407   -0.041874
      5          1           0       -1.897823   -0.685361    0.707197
      6          1           0        2.117970   -0.266792    0.756685
      7          1           0       -0.442357    1.205959   -0.787605
      8          1           0       -0.359703    0.990434    0.993457
 ---------------------------------------------------------------------

 SCF Done:  E(RHF) =  -264.794007074     A.U. after    2 cycles

 The electronic state is 1-A.
 Alpha  occ. eigenvalues --  -20.64719 -20.64476 -20.59909 -11.35682  -1.43807
 Alpha  occ. eigenvalues --   -1.35737  -1.19851  -0.91913  -0.75791  -0.74516
 Alpha  occ. eigenvalues --   -0.69927  -0.64907  -0.62718  -0.56014  -0.53280
 Alpha  occ. eigenvalues --   -0.51596  -0.47361
 Alpha virt. eigenvalues --    0.03089   0.04693   0.05498   0.06016   0.11251
 Alpha virt. eigenvalues --    0.11993   0.14552   0.16421   0.17448   0.18034
 Alpha virt. eigenvalues --    0.20444   0.21385   0.22933   0.23986   0.25639

 Mulliken charges:
               1
     1  C    1.161060
     2  O   -0.466556
     3  O   -0.452851
     4  O   -0.259092
     5  H    0.140986
     6  H    0.205737
     7  H   -0.180711
     8  H   -0.148572
 Sum of Mulliken charges =  -0.00000

 Dipole moment (field-independent basis, Debye):
    X=              0.3047    Y=              0.3355    Z=              3.0531  Tot=              3.0866

 Test job not archived.
 1\1\GINC-SE185\SP\RHF\Aug-CC-pVDZ\C1H4O3\OHZDE\05-Apr-2025\0\\#t hf au
 g-cc-pvdz iop(5/13=1,5/36=2,99/5=2) pseudo=read geom=check guess=(read
 ,tcheck) scf=(maxcycle=1)\\title\\0,1\C,0,-0.52108,0.491811,0.031617\O
 ,0,-1.75796,-0.126244,-0.064518\O,0,0.469147,-0.535551,-0.126038\O,0,1
 .752362,0.137407,-0.041874\H,0,-1.897823,-0.685361,0.707197\H,0,2.1179
 7,-0.266792,0.756685\H,0,-0.442357,1.205959,-0.787605\H,0,-0.359703,0.
 990434,0.993457\\Version=ES64L-G16RevC.01\State=1-A\HF=-264.7940071\RM
 SD=2.386e-03\Dipole=0.1198743,0.1319836,1.2011847\Quadrupole=-0.791734

 Normal termination of Gaussian 16 at Sat Apr  5 22:58:38 2025.
