 Gaussian 16, Revision C.01,

 ----------------------------------------------------------------------
 #t hf aug-cc-pvdz symm=none int=(grid=ultrafine) guess=(read,tcheck) s
 table=(opt,rrhf)
 ----------------------------------------------------------------------
 -----
 title
 -----
 Symbolic Z-matrix:
 Charge =  0 Multiplicity = 1

 SCF Done:  E(RHF) =  -380.471737828     A.U. after   12 cycles
 Normal termination of Gaussian 16 at Sat Apr  5 22:58:53 2025.
 Gaussian 16:  ES64L-G16RevC.01  3-Jul-2019

 ----------------------------------------------------------------------
 #t hf aug-cc-pvdz iop(5/13=1,5/36=2,99/5=2) pseudo=read geom=check gue
 ss=(read,tcheck) scf=(maxcycle=1)
 ----------------------------------------------------------------------
 -----
 title
 -----
 Structure from the checkpoint file:  "hydroquinone.chk"
 Charge =  0 Multiplicity = 1

                         Standard orientation:
 ---------------------------------------------------------------------
 Center     Atomic      Atomic             Coordinates (Angstroms)
 Number     Number       Type             X           Y           Z
 ---------------------------------------------------------------------
      1          8           0       -0.055278    2.766941    0.000000
      2          6           0        0.001661    1.395041    0.000000
      3          6           0        1.201394    0.689669    0.000000
      4          6           0        1.201394   -0.699360    0.000000
      5          6           0       -0.001661   -1.395041    0.000000
      6          8           0        0.055278   -2.766941    0.000000
      7          6           0       -1.201394   -0.689669    0.000000
      8          6           0       -1.201394    0.699360    0.000000
      9          1           0        0.835947    3.128399    0.000000
     10          1           0        2.144114    1.223949    0.000000
     11          1           0        2.130783   -1.251030    0.000000
     12          1           0       -0.835947   -3.128399    0.000000
     13          1           0       -2.144114   -1.223949    0.000000
     14          1           0       -2.130783    1.251030    0.000000
 ---------------------------------------------------------------------

 SCF Done:  E(RHF) =  -380.588391598     A.U. after    2 cycles

 The electronic state is 1-AG.
 Alpha  occ. eigenvalues --  -20.60177 -20.60176 -11.30747 -11.30740 -11.25103
 Alpha  occ. eigenvalues --  -11.25095 -11.24662 -11.24654  -1.36342  -1.36172
 Alpha  occ. eigenvalues --   -1.14142  -1.02405  -0.99854  -0.87088  -0.83132
 Alpha  occ. eigenvalues --   -0.76075  -0.74370  -0.67874  -0.63849  -0.62524
 Alpha  occ. eigenvalues --   -0.61131  -0.60244  -0.59542  -0.56436  -0.56181
 Alpha  occ. eigenvalues --   -0.50281  -0.47653  -0.35370  -0.30695
 Alpha virt. eigenvalues --    0.03234   0.03403   0.04502   0.05545   0.06467
 Alpha virt. eigenvalues --    0.07855   0.09659   0.11294   0.11302   0.12789
 Alpha virt. eigenvalues --    0.13121   0.13723   0.14189   0.14234   0.14409

 Mulliken charges:
               1
     1  O   -0.580097
     2  C    0.372158
     3  C    0.612847
     4  C    0.515847
     5  C    0.372158
     6  O   -0.580097
     7  C    0.612847
     8  C    0.515847
     9  H    0.122882
    10  H   -0.575892
    11  H   -0.467744
    12  H    0.122882
    13  H   -0.575892
    14  H   -0.467744
 Sum of Mulliken charges =  -0.00000

 Dipole moment (field-independent basis, Debye):
    X=             -0.0000    Y=              0.0000    Z=              0.0000  Tot=              0.0000

 Test job not archived.
 1\1\GINC-SE028\SP\RHF\Aug-CC-pVDZ\C6H6O2\OHZDE\05-Apr-2025\0\\#t hf au
 g-cc-pvdz iop(5/13=1,5/36=2,99/5=2) pseudo=read geom=check guess=(read
 ,tcheck) scf=(maxcycle=1)\\title\\0,1\O,0,-0.055278,2.766941,0.\C,0,0.
 001661,1.395041,0.\C,0,1.201394,0.689669,0.\C,0,1.201394,-0.69936,0.\C
 ,0,-0.001661,-1.395041,0.\O,0,0.055278,-2.766941,0.\C,0,-1.201394,-0.6
 89669,0.\C,0,-1.201394,0.69936,0.\H,0,0.835947,3.128399,0.\H,0,2.14411
 4,1.223949,0.\H,0,2.130783,-1.25103,0.\H,0,-0.835947,-3.128399,0.\H,0,
 -2.144114,-1.223949,0.\H,0,-2.130783,1.25103,0.\\Version=ES64L-G16RevC

 Normal termination of Gaussian 16 at Sat Apr  5 22:58:58 2025.
