 Gaussian 16, Revision C.01,

 ----------------------------------------------------------------------
 #t hf aug-cc-pvdz symm=none int=(grid=ultrafine) guess=(read,tcheck) s
 table=(opt,rrhf)
 ----------------------------------------------------------------------
 -----
 title
 -----
 Symbolic Z-matrix:
 Charge =  0 Multiplicity = 1

 SCF Done:  E(RHF) =  -168.945035407     A.U. after   13 cycles
 Normal termination of Gaussian 16 at Sat Apr  5 22:58:36 2025.
 Gaussian 16:  ES64L-G16RevC.01  3-Jul-2019

 ----------------------------------------------------------------------
 #t hf aug-cc-pvdz iop(5/13=1,5/36=2,99/5=2) pseudo=read geom=check gue
 ss=(read,tcheck) scf=(maxcycle=1)
 ----------------------------------------------------------------------
 -----
 title
 -----
 Structure from the checkpoint file:  "hydroxymethylimine.chk"
 Charge =  0 Multiplicity = 1

                         Standard orientation:
 ---------------------------------------------------------------------
 Center     Atomic      Atomic             Coordinates (Angstroms)
 Number     Number       Type             X           Y           Z
 ---------------------------------------------------------------------
      1          6           0        0.000000    0.416584    0.000000
      2          8           0       -1.110472   -0.343382    0.000000
      3          7           0        1.156625   -0.083800    0.000000
      4          1           0       -0.263473    1.473242    0.000000
      5          1           0       -0.825628   -1.270023    0.000000
      6          1           0        1.876503    0.630934    0.000000
 ---------------------------------------------------------------------

 SCF Done:  E(RHF) =  -168.999463305     A.U. after    2 cycles

 The electronic state is 1-A'.
 Alpha  occ. eigenvalues --  -20.61912 -15.61635 -11.36287  -1.39379  -1.17210
 Alpha  occ. eigenvalues --   -0.87527  -0.74178  -0.68078  -0.61957  -0.59890
 Alpha  occ. eigenvalues --   -0.44490  -0.42332
 Alpha virt. eigenvalues --    0.03538   0.04794   0.05393   0.09272   0.11927
 Alpha virt. eigenvalues --    0.12656   0.15155   0.15731   0.18590   0.20134
 Alpha virt. eigenvalues --    0.20990   0.22163   0.25335   0.25402   0.28111

 Mulliken charges:
               1
     1  C    0.768238
     2  O   -0.412098
     3  N   -0.335042
     4  H   -0.188686
     5  H    0.131855
     6  H    0.035733
 Sum of Mulliken charges =  -0.00000

 Dipole moment (field-independent basis, Debye):
    X=              0.1228    Y=              1.1842    Z=              0.0000  Tot=              1.1906

 Test job not archived.
 1\1\GINC-SE104\SP\RHF\Aug-CC-pVDZ\C1H3N1O1\OHZDE\05-Apr-2025\0\\#t hf
 aug-cc-pvdz iop(5/13=1,5/36=2,99/5=2) pseudo=read geom=check guess=(re
 ad,tcheck) scf=(maxcycle=1)\\title\\0,1\C,0,0.,0.416584,0.\O,0,-1.1104
 72,-0.343382,0.\N,0,1.156625,-0.0838,0.\H,0,-0.263473,1.473242,0.\H,0,
 -0.825628,-1.270023,0.\H,0,1.876503,0.630934,0.\\Version=ES64L-G16RevC
 .01\State=1-A'\HF=-168.9994633\RMSD=2.389e-03\Dipole=0.0483253,0.46591
 87,0.\Quadrupole=-1.7775565,2.8242169,-1.0466604,2.3977943,0.,0.\PG=CS
  [SG(C1H3N1O1)]\\@

 Normal termination of Gaussian 16 at Sat Apr  5 22:58:38 2025.
