 Gaussian 16, Revision C.01,

 ----------------------------------------------------------------------
 #t hf aug-cc-pvdz symm=none int=(grid=ultrafine) guess=(read,tcheck) s
 table=(opt,rrhf)
 ----------------------------------------------------------------------
 -----
 title
 -----
 Symbolic Z-matrix:
 Charge =  0 Multiplicity = 1

 SCF Done:  E(RHF) =  -336.398337666     A.U. after   16 cycles
 Normal termination of Gaussian 16 at Sat Apr  5 22:58:32 2025.
 Gaussian 16:  ES64L-G16RevC.01  3-Jul-2019

 ----------------------------------------------------------------------
 #t hf aug-cc-pvdz iop(5/13=1,5/36=2,99/5=2) pseudo=read geom=check gue
 ss=(read,tcheck) scf=(maxcycle=1)
 ----------------------------------------------------------------------
 -----
 title
 -----
 Structure from the checkpoint file:  "hydroxymethylenemalononitrile.chk"
 Charge =  0 Multiplicity = 1

                         Standard orientation:
 ---------------------------------------------------------------------
 Center     Atomic      Atomic             Coordinates (Angstroms)
 Number     Number       Type             X           Y           Z
 ---------------------------------------------------------------------
      1          8           0        1.964875   -1.028829    0.000000
      2          7           0       -2.725203   -0.414146    0.000000
      3          7           0        0.766731    2.336947   -0.000002
      4          6           0       -0.171149   -0.063923    0.000000
      5          6           0        0.638308   -1.147035    0.000000
      6          6           0       -1.584579   -0.252310    0.000000
      7          6           0        0.348128    1.264198   -0.000001
      8          1           0        2.392732   -1.891508    0.000000
      9          1           0        0.213330   -2.143050    0.000002
 ---------------------------------------------------------------------

 SCF Done:  E(RHF) =  -336.499472997     A.U. after    2 cycles

 The electronic state is 1-A.
 Alpha  occ. eigenvalues --  -20.68549 -15.66139 -15.65956 -11.41162 -11.33919
 Alpha  occ. eigenvalues --  -11.31425 -11.31020  -1.45550  -1.22737  -1.20802
 Alpha  occ. eigenvalues --   -1.13292  -0.94620  -0.86453  -0.77139  -0.76613
 Alpha  occ. eigenvalues --   -0.67933  -0.63091  -0.57027  -0.56416  -0.56355
 Alpha  occ. eigenvalues --   -0.49916  -0.49570  -0.48212  -0.39151
 Alpha virt. eigenvalues --    0.00644   0.03951   0.04283   0.07188   0.07565
 Alpha virt. eigenvalues --    0.09286   0.09685   0.10407   0.11958   0.12463
 Alpha virt. eigenvalues --    0.13413   0.13630   0.14443   0.15274   0.15561

 Mulliken charges:
               1
     1  O   -0.552226
     2  N   -0.136208
     3  N   -0.112865
     4  C    1.732438
     5  C    1.061573
     6  C   -0.908937
     7  C   -0.964016
     8  H    0.244529
     9  H   -0.364288
 Sum of Mulliken charges =  -0.00000

 Dipole moment (field-independent basis, Debye):
    X=              3.5426    Y=             -6.0380    Z=              0.0000  Tot=              7.0006

 Test job not archived.
 1\1\GINC-SE183\SP\RHF\Aug-CC-pVDZ\C4H2N2O1\OHZDE\05-Apr-2025\0\\#t hf
 aug-cc-pvdz iop(5/13=1,5/36=2,99/5=2) pseudo=read geom=check guess=(re
 ad,tcheck) scf=(maxcycle=1)\\title\\0,1\O,0,1.964875,-1.028829,0.\N,0,
 -2.725203,-0.414146,0.\N,0,0.766731,2.336947,-0.000002\C,0,-0.171149,-
 0.063923,0.\C,0,0.638308,-1.147035,0.\C,0,-1.584579,-0.25231,0.\C,0,0.
 348128,1.264198,-0.000001\H,0,2.392732,-1.891508,0.\H,0,0.21333,-2.143
 05,0.000002\\Version=ES64L-G16RevC.01\State=1-A\HF=-336.499473\RMSD=6.
 374e-03\Dipole=1.3937758,-2.3755418,0.0000014\Quadrupole=-4.5782658,2.

 Normal termination of Gaussian 16 at Sat Apr  5 22:58:35 2025.
