 Gaussian 16, Revision C.01,

 ----------------------------------------------------------------------
 #t hf aug-cc-pvdz symm=none int=(grid=ultrafine) guess=(read,tcheck) s
 table=(opt,rrhf)
 ----------------------------------------------------------------------
 -----
 title
 -----
 Symbolic Z-matrix:
 Charge =  0 Multiplicity = 1

 SCF Done:  E(RHF) =  -151.690666760     A.U. after   13 cycles
 Normal termination of Gaussian 16 at Sat Apr  5 22:58:23 2025.
 Gaussian 16:  ES64L-G16RevC.01  3-Jul-2019

 ----------------------------------------------------------------------
 #t hf aug-cc-pvdz iop(5/13=1,5/36=2,99/5=2) pseudo=read geom=check gue
 ss=(read,tcheck) scf=(maxcycle=1)
 ----------------------------------------------------------------------
 -----
 title
 -----
 Structure from the checkpoint file:  "hydroxyacetylene.chk"
 Charge =  0 Multiplicity = 1

                         Standard orientation:
 ---------------------------------------------------------------------
 Center     Atomic      Atomic             Coordinates (Angstroms)
 Number     Number       Type             X           Y           Z
 ---------------------------------------------------------------------
      1          8           0        1.180945   -0.108391   -0.000024
      2          6           0       -0.123542   -0.002551    0.000003
      3          6           0       -1.320286    0.013531    0.000025
      4          1           0        1.594854    0.763873   -0.000012
      5          1           0       -2.379443    0.037377    0.000043
 ---------------------------------------------------------------------

 SCF Done:  E(RHF) =  -151.742917894     A.U. after    2 cycles

 The electronic state is 1-A.
 Alpha  occ. eigenvalues --  -20.65286 -11.31309 -11.23593  -1.41332  -1.02284
 Alpha  occ. eigenvalues --   -0.84049  -0.71311  -0.68119  -0.64224  -0.40178
 Alpha  occ. eigenvalues --   -0.38544
 Alpha virt. eigenvalues --    0.02834   0.04363   0.09840   0.11767   0.11987
 Alpha virt. eigenvalues --    0.12478   0.12605   0.14336   0.16757   0.20423
 Alpha virt. eigenvalues --    0.23333   0.24657   0.25593   0.27118   0.28010

 Mulliken charges:
               1
     1  O   -0.358014
     2  C   -0.402450
     3  C    0.941495
     4  H    0.174800
     5  H   -0.355831
 Sum of Mulliken charges =   0.00000

 Dipole moment (field-independent basis, Debye):
    X=              0.4676    Y=              1.6322    Z=              0.0000  Tot=              1.6978

 Test job not archived.
 1\1\GINC-SE104\SP\RHF\Aug-CC-pVDZ\C2H2O1\OHZDE\05-Apr-2025\0\\#t hf au
 g-cc-pvdz iop(5/13=1,5/36=2,99/5=2) pseudo=read geom=check guess=(read
 ,tcheck) scf=(maxcycle=1)\\title\\0,1\O,0,1.180945,-0.108391,-0.000024
 \C,0,-0.123542,-0.002551,0.000003\C,0,-1.320286,0.013531,0.000025\H,0,
 1.594854,0.763873,-0.000012\H,0,-2.379443,0.037377,0.000043\\Version=E
 S64L-G16RevC.01\State=1-A\HF=-151.7429179\RMSD=7.595e-03\Dipole=0.1839
 643,0.6421378,0.0000101\Quadrupole=2.9274562,-0.7916456,-2.1358106,2.2
 774463,-0.0000363,-0.000012\PG=C01 [X(C2H2O1)]\\@

 Normal termination of Gaussian 16 at Sat Apr  5 22:58:24 2025.
