 Gaussian 16, Revision C.01,

 ----------------------------------------------------------------------
 #t hf aug-cc-pvdz symm=none int=(grid=ultrafine) guess=(read,tcheck) s
 table=(opt,rrhf)
 ----------------------------------------------------------------------
 -----
 title
 -----
 Symbolic Z-matrix:
 Charge =  0 Multiplicity = 1

 SCF Done:  E(RHF) =  -226.444916537     A.U. after   15 cycles
 Normal termination of Gaussian 16 at Sat Apr  5 22:58:11 2025.
 Gaussian 16:  ES64L-G16RevC.01  3-Jul-2019

 ----------------------------------------------------------------------
 #t hf aug-cc-pvdz iop(5/13=1,5/36=2,99/5=2) pseudo=read geom=check gue
 ss=(read,tcheck) scf=(maxcycle=1)
 ----------------------------------------------------------------------
 -----
 title
 -----
 Structure from the checkpoint file:  "hydroperoxyacetylene.chk"
 Charge =  0 Multiplicity = 1

                         Standard orientation:
 ---------------------------------------------------------------------
 Center     Atomic      Atomic             Coordinates (Angstroms)
 Number     Number       Type             X           Y           Z
 ---------------------------------------------------------------------
      1          8           0        0.500202    0.649433   -0.012191
      2          8           0        1.498887   -0.464552   -0.099113
      3          6           0       -0.689930    0.150600    0.001728
      4          6           0       -1.824334   -0.241903    0.015562
      5          1           0        1.923095   -0.355188    0.766050
      6          1           0       -2.830223   -0.576039    0.020646
 ---------------------------------------------------------------------

 SCF Done:  E(RHF) =  -226.520810848     A.U. after    2 cycles

 The electronic state is 1-A.
 Alpha  occ. eigenvalues --  -20.70686 -20.68956 -11.31731 -11.25087  -1.47723
 Alpha  occ. eigenvalues --   -1.28050  -1.02343  -0.80623  -0.77023  -0.71423
 Alpha  occ. eigenvalues --   -0.69536  -0.61498  -0.57135  -0.41085  -0.39213
 Alpha virt. eigenvalues --    0.03137   0.04142   0.08029   0.09300   0.11677
 Alpha virt. eigenvalues --    0.12232   0.12987   0.14409   0.15232   0.16441
 Alpha virt. eigenvalues --    0.18782   0.20548   0.22835   0.23911   0.24897

 Mulliken charges:
               1
     1  O   -0.330306
     2  O   -0.215309
     3  C   -0.225819
     4  C    0.892941
     5  H    0.243855
     6  H   -0.365363
 Sum of Mulliken charges =  -0.00000

 Dipole moment (field-independent basis, Debye):
    X=              0.3239    Y=             -0.5491    Z=              1.5749  Tot=              1.6990

 Test job not archived.
 1\1\GINC-SE046\SP\RHF\Aug-CC-pVDZ\C2H2O2\OHZDE\05-Apr-2025\0\\#t hf au
 g-cc-pvdz iop(5/13=1,5/36=2,99/5=2) pseudo=read geom=check guess=(read
 ,tcheck) scf=(maxcycle=1)\\title\\0,1\O,0,0.500202,0.649433,-0.012191\
 O,0,1.498887,-0.464552,-0.099113\C,0,-0.68993,0.1506,0.001728\C,0,-1.8
 24334,-0.241903,0.015562\H,0,1.923095,-0.355188,0.76605\H,0,-2.830223,
 -0.576039,0.020646\\Version=ES64L-G16RevC.01\State=1-A\HF=-226.5208108
 \RMSD=6.445e-03\Dipole=0.1274205,-0.2160291,0.619611\Quadrupole=3.9484
 845,-2.4783477,-1.4701367,0.5131647,2.5954413,-0.4376355\PG=C01 [X(C2H

 Normal termination of Gaussian 16 at Sat Apr  5 22:58:13 2025.
