 Gaussian 16, Revision C.01,

 ----------------------------------------------------------------------
 #t hf aug-cc-pvdz symm=none int=(grid=ultrafine) guess=(read,tcheck) s
 table=(opt,rrhf)
 ----------------------------------------------------------------------
 -----
 title
 -----
 Symbolic Z-matrix:
 Charge =  0 Multiplicity = 1

 SCF Done:  E(RHF) =  -549.206036026     A.U. after   15 cycles
 Normal termination of Gaussian 16 at Sat Apr  5 22:58:37 2025.
 Gaussian 16:  ES64L-G16RevC.01  3-Jul-2019

 ----------------------------------------------------------------------
 #t hf aug-cc-pvdz iop(5/13=1,5/36=2,99/5=2) pseudo=read geom=check gue
 ss=(read,tcheck) scf=(maxcycle=1)
 ----------------------------------------------------------------------
 -----
 title
 -----
 Structure from the checkpoint file:  "hydroxysulfanylethyne.chk"
 Charge =  0 Multiplicity = 1

                         Standard orientation:
 ---------------------------------------------------------------------
 Center     Atomic      Atomic             Coordinates (Angstroms)
 Number     Number       Type             X           Y           Z
 ---------------------------------------------------------------------
      1         16           0       -0.560952   -0.610114    0.012357
      2          8           0       -1.476085    0.795532   -0.118724
      3          6           0        1.020613   -0.035441    0.000928
      4          6           0        2.177382    0.307670   -0.001983
      5          1           0       -1.598128    1.151695    0.770681
      6          1           0        3.194069    0.612498   -0.012273
 ---------------------------------------------------------------------

 SCF Done:  E(RHF) =  -549.282991778     A.U. after    2 cycles

 The electronic state is 1-A.
 Alpha  occ. eigenvalues --  -93.62593 -20.62756 -11.27924 -11.26779  -8.91550
 Alpha  occ. eigenvalues --   -6.25789  -6.25478  -6.25038  -1.35488  -1.06964
 Alpha  occ. eigenvalues --   -0.96369  -0.75956  -0.72084  -0.65296  -0.60301
 Alpha  occ. eigenvalues --   -0.50915  -0.48208  -0.42651  -0.35198
 Alpha virt. eigenvalues --    0.03382   0.04140   0.07143   0.07726   0.09820
 Alpha virt. eigenvalues --    0.09863   0.11577   0.13505   0.15311   0.15875
 Alpha virt. eigenvalues --    0.16668   0.16762   0.18223   0.20120   0.21765

 Mulliken charges:
               1
     1  S    0.699881
     2  O   -0.653031
     3  C   -0.208740
     4  C    0.337950
     5  H    0.185295
     6  H   -0.361354
 Sum of Mulliken charges =  -0.00000

 Dipole moment (field-independent basis, Debye):
    X=              0.9322    Y=              0.4630    Z=              1.5203  Tot=              1.8425

 Test job not archived.
 1\1\GINC-SE232\SP\RHF\Aug-CC-pVDZ\C2H2O1S1\OHZDE\05-Apr-2025\0\\#t hf
 aug-cc-pvdz iop(5/13=1,5/36=2,99/5=2) pseudo=read geom=check guess=(re
 ad,tcheck) scf=(maxcycle=1)\\title\\0,1\S,0,-0.560952,-0.610114,0.0123
 57\O,0,-1.476085,0.795532,-0.118724\C,0,1.020613,-0.035441,0.000928\C,
 0,2.177382,0.30767,-0.001983\H,0,-1.598128,1.151695,0.770681\H,0,3.194
 069,0.612498,-0.012273\\Version=ES64L-G16RevC.01\State=1-A\HF=-549.282
 9918\RMSD=9.694e-03\Dipole=0.3667607,0.1821756,0.5981333\Quadrupole=3.
 1445448,-1.0016266,-2.1429182,0.7117846,-2.1347099,1.6243233\PG=C01 [X

 Normal termination of Gaussian 16 at Sat Apr  5 22:58:39 2025.
