 Gaussian 16, Revision C.01,

 ----------------------------------------------------------------------
 #t hf aug-cc-pvdz symm=none int=(grid=ultrafine) guess=(read,tcheck) s
 table=(opt,rrhf)
 ----------------------------------------------------------------------
 -----
 title
 -----
 Symbolic Z-matrix:
 Charge =  0 Multiplicity = 1

 SCF Done:  E(RHF) =  -809.920288559     A.U. after   15 cycles
 Normal termination of Gaussian 16 at Sat Apr  5 22:59:15 2025.
 Gaussian 16:  ES64L-G16RevC.01  3-Jul-2019

 ----------------------------------------------------------------------
 #t hf aug-cc-pvdz iop(5/13=1,5/36=2,99/5=2) pseudo=read geom=check gue
 ss=(read,tcheck) scf=(maxcycle=1)
 ----------------------------------------------------------------------
 -----
 title
 -----
 Structure from the checkpoint file:  "imidazol-1-yloxymethanethioic_O-acid.chk"
 Charge =  0 Multiplicity = 1

                         Standard orientation:
 ---------------------------------------------------------------------
 Center     Atomic      Atomic             Coordinates (Angstroms)
 Number     Number       Type             X           Y           Z
 ---------------------------------------------------------------------
      1         16           0        2.996748    0.021824   -0.268596
      2          8           0        0.456110    0.082338   -0.793882
      3          8           0        0.927761   -0.148682    1.382040
      4          7           0       -0.867057    0.036647   -0.354945
      5          7           0       -2.862943    0.732728    0.190086
      6          6           0        1.424260   -0.020504    0.159117
      7          6           0       -1.640834    1.120155   -0.072639
      8          6           0       -1.634472   -1.100967   -0.292195
      9          6           0       -2.871350   -0.637105    0.057407
     10          1           0        1.677808   -0.212492    1.990373
     11          1           0       -1.254127    2.124562   -0.078045
     12          1           0       -1.230660   -2.075076   -0.495225
     13          1           0       -3.767578   -1.210522    0.219041
 ---------------------------------------------------------------------

 SCF Done:  E(RHF) =  -810.064672331     A.U. after    2 cycles

 The electronic state is 1-A.
 Alpha  occ. eigenvalues --  -93.52916 -20.71897 -20.68429 -15.76504 -15.63165
 Alpha  occ. eigenvalues --  -11.48351 -11.33176 -11.29442 -11.27493  -8.82904
 Alpha  occ. eigenvalues --   -6.17151  -6.16599  -6.16476  -1.51534  -1.43663
 Alpha  occ. eigenvalues --   -1.31913  -1.14770  -1.04806  -1.02376  -0.91982
 Alpha  occ. eigenvalues --   -0.85630  -0.84350  -0.79111  -0.74404  -0.71605
 Alpha  occ. eigenvalues --   -0.70421  -0.65594  -0.64694  -0.60656  -0.60444
 Alpha  occ. eigenvalues --   -0.58882  -0.56372  -0.44814  -0.41424  -0.39399
 Alpha  occ. eigenvalues --   -0.37660  -0.34498
 Alpha virt. eigenvalues --    0.02744   0.03593   0.04559   0.04958   0.07051
 Alpha virt. eigenvalues --    0.07368   0.08136   0.09897   0.10732   0.11405
 Alpha virt. eigenvalues --    0.12162   0.13010   0.13296   0.14229   0.14423

 Mulliken charges:
               1
     1  S    0.121831
     2  O   -0.674998
     3  O   -0.474139
     4  N    0.128358
     5  N   -0.656858
     6  C    0.300305
     7  C    0.624553
     8  C    0.794703
     9  C    0.403608
    10  H    0.259398
    11  H   -0.273885
    12  H   -0.338193
    13  H   -0.214683
 Sum of Mulliken charges =  -0.00000

 Dipole moment (field-independent basis, Debye):
    X=              1.0281    Y=             -1.2278    Z=              1.5785  Tot=              2.2486

 Test job not archived.
 1\1\GINC-SE014\SP\RHF\Aug-CC-pVDZ\C4H4N2O2S1\OHZDE\05-Apr-2025\0\\#t h
 f aug-cc-pvdz iop(5/13=1,5/36=2,99/5=2) pseudo=read geom=check guess=(
 read,tcheck) scf=(maxcycle=1)\\title\\0,1\S,0,2.996748,0.021824,-0.268
 596\O,0,0.45611,0.082338,-0.793882\O,0,0.927761,-0.148682,1.38204\N,0,
 -0.867057,0.036647,-0.354945\N,0,-2.862943,0.732728,0.190086\C,0,1.424
 26,-0.020504,0.159117\C,0,-1.640834,1.120155,-0.072639\C,0,-1.634472,-
 1.100967,-0.292195\C,0,-2.87135,-0.637105,0.057407\H,0,1.677808,-0.212
 492,1.990373\H,0,-1.254127,2.124562,-0.078045\H,0,-1.23066,-2.075076,-

 Normal termination of Gaussian 16 at Sat Apr  5 23:00:03 2025.
