 Gaussian 16, Revision C.01,

 ----------------------------------------------------------------------
 #t hf aug-cc-pvdz symm=none int=(grid=ultrafine) guess=(read,tcheck) s
 table=(opt,rrhf)
 ----------------------------------------------------------------------
 -----
 title
 -----
 Symbolic Z-matrix:
 Charge =  0 Multiplicity = 1

 SCF Done:  E(RHF) =  -315.364938623     A.U. after   15 cycles
 Normal termination of Gaussian 16 at Sat Apr  5 22:58:47 2025.
 Gaussian 16:  ES64L-G16RevC.01  3-Jul-2019

 ----------------------------------------------------------------------
 #t hf aug-cc-pvdz iop(5/13=1,5/36=2,99/5=2) pseudo=read geom=check gue
 ss=(read,tcheck) scf=(maxcycle=1)
 ----------------------------------------------------------------------
 -----
 title
 -----
 Structure from the checkpoint file:  "iminomethylenemalononitrile.chk"
 Charge =  0 Multiplicity = 1

                         Standard orientation:
 ---------------------------------------------------------------------
 Center     Atomic      Atomic             Coordinates (Angstroms)
 Number     Number       Type             X           Y           Z
 ---------------------------------------------------------------------
      1          7           0       -2.466280   -0.000128   -0.115548
      2          7           0        1.326281   -2.243606    0.007368
      3          7           0        1.326031    2.243750    0.007368
      4          6           0        0.059128    0.000000   -0.004517
      5          6           0       -1.277855   -0.000069    0.009938
      6          6           0        0.760956   -1.239786    0.001005
      7          6           0        0.760823    1.239863    0.001005
      8          1           0       -3.120536   -0.000162    0.661103
 ---------------------------------------------------------------------

 SCF Done:  E(RHF) =  -315.457109227     A.U. after    2 cycles

 The electronic state is 1-A.
 Alpha  occ. eigenvalues --  -15.74009 -15.66913 -15.66913 -11.43190 -11.36120
 Alpha  occ. eigenvalues --  -11.32430 -11.32429  -1.31312  -1.23473  -1.21687
 Alpha  occ. eigenvalues --   -1.13395  -0.89312  -0.83272  -0.81880  -0.64746
 Alpha  occ. eigenvalues --   -0.58575  -0.57803  -0.56134  -0.56083  -0.50821
 Alpha  occ. eigenvalues --   -0.50606  -0.49108  -0.39270
 Alpha virt. eigenvalues --    0.01343   0.05488   0.06408   0.06631   0.07180
 Alpha virt. eigenvalues --    0.07630   0.09095   0.10575   0.10899   0.11664
 Alpha virt. eigenvalues --    0.12449   0.12729   0.13782   0.14955   0.15588

 Mulliken charges:
               1
     1  N   -0.045254
     2  N   -0.111963
     3  N   -0.111965
     4  C    2.551047
     5  C   -0.651582
     6  C   -0.872997
     7  C   -0.872993
     8  H    0.115708
 Sum of Mulliken charges =  -0.00000

 Dipole moment (field-independent basis, Debye):
    X=             -5.6158    Y=             -0.0003    Z=              1.3933  Tot=              5.7861

 Test job not archived.
 1\1\GINC-SE085\SP\RHF\Aug-CC-pVDZ\C4H1N3\OHZDE\05-Apr-2025\0\\#t hf au
 g-cc-pvdz iop(5/13=1,5/36=2,99/5=2) pseudo=read geom=check guess=(read
 ,tcheck) scf=(maxcycle=1)\\title\\0,1\N,0,-2.46628,-0.000132,-0.115548
 \N,0,1.326285,-2.243604,0.007368\N,0,1.326027,2.243752,0.007368\C,0,0.
 059128,0.,-0.004517\C,0,-1.277855,-0.000071,0.009938\C,0,0.760958,-1.2
 39785,0.001005\C,0,0.760821,1.239864,0.001005\H,0,-3.120536,-0.000167,
 0.661103\\Version=ES64L-G16RevC.01\State=1-A\HF=-315.4571092\RMSD=5.31
 4e-03\Dipole=-2.2094332,-0.000125,0.548163\Quadrupole=5.5373814,-8.525

 Normal termination of Gaussian 16 at Sat Apr  5 22:58:50 2025.
