 Gaussian 16, Revision C.01,

 ----------------------------------------------------------------------
 #t hf aug-cc-pvdz symm=none int=(grid=ultrafine) guess=(read,tcheck) s
 table=(opt,rrhf)
 ----------------------------------------------------------------------
 -----
 title
 -----
 Symbolic Z-matrix:
 Charge =  0 Multiplicity = 1

 SCF Done:  E(RHF) =  -346.682765246     A.U. after   14 cycles
 Normal termination of Gaussian 16 at Sat Apr  5 22:59:57 2025.
 Gaussian 16:  ES64L-G16RevC.01  3-Jul-2019

 ----------------------------------------------------------------------
 #t hf aug-cc-pvdz iop(5/13=1,5/36=2,99/5=2) pseudo=read geom=check gue
 ss=(read,tcheck) scf=(maxcycle=1)
 ----------------------------------------------------------------------
 -----
 title
 -----
 Structure from the checkpoint file:  "indane.chk"
 Charge =  0 Multiplicity = 1

                         Standard orientation:
 ---------------------------------------------------------------------
 Center     Atomic      Atomic             Coordinates (Angstroms)
 Number     Number       Type             X           Y           Z
 ---------------------------------------------------------------------
      1          6           0       -0.045568   -2.249090    0.696137
      2          6           0       -0.045568   -2.249090   -0.696137
      3          6           0        0.004095   -1.048325    1.400520
      4          6           0        0.004095   -1.048325   -1.400520
      5          6           0        0.049674    0.148504    0.698241
      6          6           0        0.049674    0.148504   -0.698241
      7          6           0        0.125739    1.561338    1.227438
      8          6           0        0.125739    1.561338   -1.227438
      9          6           0       -0.258685    2.418849    0.000000
     10          1           0       -0.089794   -3.187131    1.233424
     11          1           0       -0.089794   -3.187131   -1.233424
     12          1           0        0.001095   -1.053757    2.483428
     13          1           0        0.001095   -1.053757   -2.483428
     14          1           0       -0.526446    1.733848    2.084324
     15          1           0        1.145985    1.785770    1.556006
     16          1           0        1.145985    1.785770   -1.556006
     17          1           0       -0.526446    1.733848   -2.084324
     18          1           0       -1.337645    2.583506    0.000000
     19          1           0        0.220799    3.396809    0.000000
 ---------------------------------------------------------------------

 SCF Done:  E(RHF) =  -346.784512994     A.U. after    2 cycles

 The electronic state is 1-A'.
 Alpha  occ. eigenvalues --  -11.23763 -11.23721 -11.23683 -11.23587 -11.23585
 Alpha  occ. eigenvalues --  -11.23520 -11.23442 -11.23433 -11.23234  -1.15726
 Alpha  occ. eigenvalues --   -1.08203  -1.01703  -0.96843  -0.93685  -0.83164
 Alpha  occ. eigenvalues --   -0.79331  -0.78377  -0.68758  -0.65181  -0.63369
 Alpha  occ. eigenvalues --   -0.62157  -0.57704  -0.57122  -0.56047  -0.51488
 Alpha  occ. eigenvalues --   -0.50146  -0.49494  -0.47784  -0.47147  -0.46488
 Alpha  occ. eigenvalues --   -0.33223  -0.31809
 Alpha virt. eigenvalues --    0.03597   0.03927   0.04114   0.05005   0.05450
 Alpha virt. eigenvalues --    0.05545   0.06990   0.07123   0.07545   0.08250
 Alpha virt. eigenvalues --    0.10584   0.11798   0.12201   0.12619   0.12657

 Mulliken charges:
               1
     1  C    0.286651
     2  C    0.286651
     3  C    0.909217
     4  C    0.909217
     5  C   -0.739111
     6  C   -0.739111
     7  C    0.140600
     8  C    0.140600
     9  C    0.731305
    10  H   -0.470777
    11  H   -0.470777
    12  H   -0.528752
    13  H   -0.528752
    14  H    0.031172
    15  H    0.115041
    16  H    0.115041
    17  H    0.031172
    18  H   -0.115808
    19  H   -0.103578
 Sum of Mulliken charges =  -0.00000

 Dipole moment (field-independent basis, Debye):
    X=              0.0495    Y=              0.7001    Z=             -0.0000  Tot=              0.7018

 Test job not archived.
 1\1\GINC-SE190\SP\RHF\Aug-CC-pVDZ\C9H10\OHZDE\05-Apr-2025\0\\#t hf aug
 -cc-pvdz iop(5/13=1,5/36=2,99/5=2) pseudo=read geom=check guess=(read,
 tcheck) scf=(maxcycle=1)\\title\\0,1\C,0,-0.045568,-2.24909,0.696137\C
 ,0,-0.045568,-2.24909,-0.696137\C,0,0.004095,-1.048325,1.40052\C,0,0.0
 04095,-1.048325,-1.40052\C,0,0.049674,0.148504,0.698241\C,0,0.049674,0
 .148504,-0.698241\C,0,0.125739,1.561338,1.227438\C,0,0.125739,1.561338
 ,-1.227438\C,0,-0.258685,2.418849,0.\H,0,-0.089794,-3.187131,1.233424\
 H,0,-0.089794,-3.187131,-1.233424\H,0,0.001095,-1.053757,2.483428\H,0,

 Normal termination of Gaussian 16 at Sat Apr  5 23:00:04 2025.
