 Gaussian 16, Revision C.01,

 ----------------------------------------------------------------------
 #t hf aug-cc-pvdz symm=none int=(grid=ultrafine) guess=(read,tcheck) s
 table=(opt,rrhf)
 ----------------------------------------------------------------------
 -----
 title
 -----
 Symbolic Z-matrix:
 Charge =  0 Multiplicity = 1

 SCF Done:  E(RHF) =  -683.479844843     A.U. after   11 cycles

 1\1\GINC-SE196\Stability\RHF\Aug-CC-pVDZ\C6H12O6\OHZDE\05-Apr-2025\0\\
 #t hf aug-cc-pvdz symm=none int=(grid=ultrafine) guess=(read,tcheck) s
 table=(opt,rrhf)\\title\\0,1\C,0,-1.325775,0.584643,0.23799\C,0,0.1551
 42,-1.44186,0.227032\C,0,1.169971,0.852886,0.241238\C,0,-0.155142,1.44
 186,-0.227032\C,0,-1.169971,-0.852886,-0.241238\C,0,1.325775,-0.584643
 ,-0.23799\O,0,-2.565352,1.060854,-0.274243\O,0,0.365045,-2.749548,-0.2
 93829\O,0,2.199913,1.693855,-0.266419\O,0,-0.365045,2.749548,0.293829\
 O,0,-2.199913,-1.693855,0.266419\O,0,2.565352,-1.060854,0.274243\H,0,-

 Normal termination of Gaussian 16 at Sat Apr  5 23:02:48 2025.
 Gaussian 16:  ES64L-G16RevC.01  3-Jul-2019

 ----------------------------------------------------------------------
 #t hf aug-cc-pvdz iop(5/13=1,5/36=2,99/5=2) pseudo=read geom=check gue
 ss=(read,tcheck) scf=(maxcycle=1)
 ----------------------------------------------------------------------
 -----
 title
 -----
 Structure from the checkpoint file:  "inositol.chk"
 Charge =  0 Multiplicity = 1

                         Standard orientation:
 ---------------------------------------------------------------------
 Center     Atomic      Atomic             Coordinates (Angstroms)
 Number     Number       Type             X           Y           Z
 ---------------------------------------------------------------------
      1          6           0       -1.325775    0.584643    0.237990
      2          6           0        0.155142   -1.441860    0.227032
      3          6           0        1.169971    0.852886    0.241238
      4          6           0       -0.155142    1.441860   -0.227032
      5          6           0       -1.169971   -0.852886   -0.241238
      6          6           0        1.325775   -0.584643   -0.237990
      7          8           0       -2.565352    1.060854   -0.274243
      8          8           0        0.365045   -2.749548   -0.293829
      9          8           0        2.199913    1.693855   -0.266419
     10          8           0       -0.365045    2.749548    0.293829
     11          8           0       -2.199913   -1.693855    0.266419
     12          8           0        2.565352   -1.060854    0.274243
     13          1           0       -1.353744    0.594834    1.334200
     14          1           0        0.153684   -1.479157    1.323029
     15          1           0        1.196484    0.861338    1.337560
     16          1           0       -0.153684    1.479157   -1.323029
     17          1           0       -1.196484   -0.861338   -1.337560
     18          1           0        1.353744   -0.594834   -1.334200
     19          1           0       -2.646403    1.991559   -0.037548
     20          1           0       -0.403701   -3.285449   -0.068670
     21          1           0        3.047455    1.296990   -0.036282
     22          1           0        0.403701    3.285449    0.068670
     23          1           0       -3.047455   -1.296990    0.036282
     24          1           0        2.646403   -1.991559    0.037548
 ---------------------------------------------------------------------

 SCF Done:  E(RHF) =  -683.686293805     A.U. after    2 cycles

 The electronic state is 1-AG.
 Alpha  occ. eigenvalues --  -20.58719 -20.58719 -20.58714 -20.58714 -20.58711
 Alpha  occ. eigenvalues --  -20.58711 -11.30622 -11.30611 -11.30609 -11.30550
 Alpha  occ. eigenvalues --  -11.30549 -11.30505  -1.36690  -1.35082  -1.35076
 Alpha  occ. eigenvalues --   -1.32614  -1.32611  -1.31419  -1.10637  -0.99469
 Alpha  occ. eigenvalues --   -0.99449  -0.86203  -0.86200  -0.81216  -0.78184
 Alpha  occ. eigenvalues --   -0.72860  -0.72842  -0.72593  -0.68267  -0.68259
 Alpha  occ. eigenvalues --   -0.67229  -0.65091  -0.65072  -0.61757  -0.61744
 Alpha  occ. eigenvalues --   -0.61727  -0.57356  -0.57353  -0.55806  -0.53985
 Alpha  occ. eigenvalues --   -0.53972  -0.53747  -0.47775  -0.47462  -0.46995
 Alpha  occ. eigenvalues --   -0.46990  -0.46220  -0.46202
 Alpha virt. eigenvalues --    0.03520   0.04311   0.04314   0.04410   0.05939
 Alpha virt. eigenvalues --    0.05944   0.06190   0.06872   0.06874   0.07985
 Alpha virt. eigenvalues --    0.08826   0.08829   0.12683   0.14307   0.14308

 Mulliken charges:
               1
     1  C    0.490792
     2  C    0.491644
     3  C    0.490810
     4  C    0.491644
     5  C    0.490810
     6  C    0.490792
     7  O   -0.678803
     8  O   -0.679124
     9  O   -0.678913
    10  O   -0.679124
    11  O   -0.678913
    12  O   -0.678803
    13  H    0.007335
    14  H    0.007589
    15  H    0.007600
    16  H    0.007589
    17  H    0.007600
    18  H    0.007335
    19  H    0.180319
    20  H    0.180492
    21  H    0.180259
    22  H    0.180492
    23  H    0.180259
    24  H    0.180319
 Sum of Mulliken charges =  -0.00000

 Dipole moment (field-independent basis, Debye):
    X=             -0.0000    Y=              0.0000    Z=             -0.0000  Tot=              0.0000

 Test job not archived.
 1\1\GINC-SE196\SP\RHF\Aug-CC-pVDZ\C6H12O6\OHZDE\05-Apr-2025\0\\#t hf a
 ug-cc-pvdz iop(5/13=1,5/36=2,99/5=2) pseudo=read geom=check guess=(rea
 d,tcheck) scf=(maxcycle=1)\\title\\0,1\C,0,-1.325775,0.584643,0.23799\
 C,0,0.155142,-1.44186,0.227032\C,0,1.169971,0.852886,0.241238\C,0,-0.1
 55142,1.44186,-0.227032\C,0,-1.169971,-0.852886,-0.241238\C,0,1.325775
 ,-0.584643,-0.23799\O,0,-2.565352,1.060854,-0.274243\O,0,0.365045,-2.7
 49548,-0.293829\O,0,2.199913,1.693855,-0.266419\O,0,-0.365045,2.749548
 ,0.293829\O,0,-2.199913,-1.693855,0.266419\O,0,2.565352,-1.060854,0.27

 Normal termination of Gaussian 16 at Sat Apr  5 23:03:14 2025.
