 Gaussian 16, Revision C.01,

 ----------------------------------------------------------------------
 #t hf aug-cc-pvdz symm=none int=(grid=ultrafine) guess=(read,tcheck) s
 table=(opt,rrhf)
 ----------------------------------------------------------------------
 -----
 title
 -----
 Symbolic Z-matrix:
 Charge =  0 Multiplicity = 1

 SCF Done:  E(RHF) =  -510.109095178     A.U. after   16 cycles
 Normal termination of Gaussian 16 at Sat Apr  5 23:00:02 2025.
 Gaussian 16:  ES64L-G16RevC.01  3-Jul-2019

 ----------------------------------------------------------------------
 #t hf aug-cc-pvdz iop(5/13=1,5/36=2,99/5=2) pseudo=read geom=check gue
 ss=(read,tcheck) scf=(maxcycle=1)
 ----------------------------------------------------------------------
 -----
 title
 -----
 Structure from the checkpoint file:  "isatin.chk"
 Charge =  0 Multiplicity = 1

                         Standard orientation:
 ---------------------------------------------------------------------
 Center     Atomic      Atomic             Coordinates (Angstroms)
 Number     Number       Type             X           Y           Z
 ---------------------------------------------------------------------
      1          8           0       -1.742007    1.965021   -0.000021
      2          6           0       -1.177229    0.903277   -0.000010
      3          6           0        0.255043    0.578698   -0.000007
      4          6           0        0.379731   -0.819241    0.000009
      5          6           0        1.623314   -1.425094    0.000016
      6          6           0        2.745582   -0.595433    0.000007
      7          6           0        2.634874    0.794760   -0.000010
      8          6           0        1.378592    1.391778   -0.000017
      9          7           0       -0.883171   -1.422253    0.000016
     10          6           0       -1.904802   -0.492965    0.000006
     11          8           0       -3.086643   -0.710872    0.000008
     12          1           0        1.729179   -2.501176    0.000029
     13          1           0        3.728266   -1.047628    0.000012
     14          1           0        3.527112    1.404141   -0.000017
     15          1           0        1.265488    2.467328   -0.000029
     16          1           0       -1.049284   -2.414768    0.000030
 ---------------------------------------------------------------------

 SCF Done:  E(RHF) =  -510.259724236     A.U. after    2 cycles

 The electronic state is 1-A.
 Alpha  occ. eigenvalues --  -20.59455 -20.57879 -15.69148 -11.39449 -11.37140
 Alpha  occ. eigenvalues --  -11.33511 -11.28896 -11.28834 -11.27346 -11.26823
 Alpha  occ. eigenvalues --  -11.26493  -1.39631  -1.37024  -1.27854  -1.16433
 Alpha  occ. eigenvalues --   -1.06859  -1.03501  -0.96460  -0.87041  -0.84090
 Alpha  occ. eigenvalues --   -0.80101  -0.75429  -0.72618  -0.69155  -0.67728
 Alpha  occ. eigenvalues --   -0.64910  -0.64772  -0.64438  -0.64268  -0.56573
 Alpha  occ. eigenvalues --   -0.56083  -0.54770  -0.54697  -0.52174  -0.47334
 Alpha  occ. eigenvalues --   -0.42868  -0.37999  -0.33926
 Alpha virt. eigenvalues --    0.01928   0.02152   0.03029   0.04158   0.05574
 Alpha virt. eigenvalues --    0.06438   0.07845   0.09099   0.09897   0.10149
 Alpha virt. eigenvalues --    0.11088   0.11149   0.11790   0.12207   0.13057

 Mulliken charges:
               1
     1  O   -0.456379
     2  C   -0.419477
     3  C    1.038873
     4  C   -0.308630
     5  C    0.789568
     6  C    0.369871
     7  C    0.622036
     8  C    0.744307
     9  N   -0.550828
    10  C    0.611449
    11  O   -0.439361
    12  H   -0.528942
    13  H   -0.445506
    14  H   -0.457327
    15  H   -0.496783
    16  H   -0.072871
 Sum of Mulliken charges =  -0.00000

 Dipole moment (field-independent basis, Debye):
    X=              6.4216    Y=             -3.2581    Z=              0.0000  Tot=              7.2009

 Test job not archived.
 1\1\GINC-SE225\SP\RHF\Aug-CC-pVDZ\C8H5N1O2\OHZDE\05-Apr-2025\0\\#t hf
 aug-cc-pvdz iop(5/13=1,5/36=2,99/5=2) pseudo=read geom=check guess=(re
 ad,tcheck) scf=(maxcycle=1)\\title\\0,1\O,0,-1.742007,1.965021,-0.0000
 21\C,0,-1.177229,0.903277,-0.00001\C,0,0.255043,0.578698,-0.000007\C,0
 ,0.379731,-0.819241,0.000009\C,0,1.623314,-1.425094,0.000016\C,0,2.745
 582,-0.595433,0.000007\C,0,2.634874,0.79476,-0.00001\C,0,1.378592,1.39
 1778,-0.000017\N,0,-0.883171,-1.422253,0.000016\C,0,-1.904802,-0.49296
 5,0.000006\O,0,-3.086643,-0.710872,0.000008\H,0,1.729179,-2.501176,0.0

 Normal termination of Gaussian 16 at Sat Apr  5 23:00:12 2025.
