 Gaussian 16, Revision C.01,

 ----------------------------------------------------------------------
 #t hf aug-cc-pvdz symm=none int=(grid=ultrafine) guess=(read,tcheck) s
 table=(opt,rrhf)
 ----------------------------------------------------------------------
 -----
 title
 -----
 Symbolic Z-matrix:
 Charge =  0 Multiplicity = 1

 SCF Done:  E(RHF) =  -157.315898179     A.U. after   11 cycles
 Normal termination of Gaussian 16 at Sat Apr  5 22:58:47 2025.
 Gaussian 16:  ES64L-G16RevC.01  3-Jul-2019

 ----------------------------------------------------------------------
 #t hf aug-cc-pvdz iop(5/13=1,5/36=2,99/5=2) pseudo=read geom=check gue
 ss=(read,tcheck) scf=(maxcycle=1)
 ----------------------------------------------------------------------
 -----
 title
 -----
 Structure from the checkpoint file:  "isobutane.chk"
 Charge =  0 Multiplicity = 1

                         Standard orientation:
 ---------------------------------------------------------------------
 Center     Atomic      Atomic             Coordinates (Angstroms)
 Number     Number       Type             X           Y           Z
 ---------------------------------------------------------------------
      1          6           0        0.312513    0.199944    0.000000
      2          6           0       -0.866179    1.176773    0.000000
      3          6           0        0.312513   -0.665531    1.262722
      4          6           0        0.312513   -0.665531   -1.262722
      5          1           0        1.170848   -1.339419    1.282986
      6          1           0        1.170848   -1.339419   -1.282986
      7          1           0       -0.850137    1.819393    0.882076
      8          1           0       -0.850137    1.819393   -0.882076
      9          1           0        0.347471   -0.052476    2.165062
     10          1           0       -0.591262   -1.278366    1.313214
     11          1           0        0.347471   -0.052476   -2.165062
     12          1           0       -1.817087    0.637605    0.000000
     13          1           0       -0.591262   -1.278366   -1.313214
     14          1           0        1.235091    0.790202    0.000000
 ---------------------------------------------------------------------

 SCF Done:  E(RHF) =  -157.369096631     A.U. after    2 cycles

 The electronic state is 1-A'.
 Alpha  occ. eigenvalues --  -11.23198 -11.21772 -11.21772 -11.21761  -1.07034
 Alpha  occ. eigenvalues --   -0.92310  -0.92310  -0.76688  -0.63249  -0.59200
 Alpha  occ. eigenvalues --   -0.59200  -0.53504  -0.53504  -0.51193  -0.46483
 Alpha  occ. eigenvalues --   -0.46483  -0.45966
 Alpha virt. eigenvalues --    0.03626   0.04848   0.04848   0.04922   0.07118
 Alpha virt. eigenvalues --    0.07118   0.07486   0.07800   0.07800   0.09490
 Alpha virt. eigenvalues --    0.12862   0.14904   0.14904   0.15957   0.15957

 Mulliken charges:
               1
     1  C   -1.545269
     2  C    0.740170
     3  C    0.740171
     4  C    0.740171
     5  H   -0.085919
     6  H   -0.085919
     7  H   -0.085918
     8  H   -0.085918
     9  H   -0.085919
    10  H   -0.023659
    11  H   -0.085919
    12  H   -0.023659
    13  H   -0.023659
    14  H   -0.088754
 Sum of Mulliken charges =  -0.00000

 Dipole moment (field-independent basis, Debye):
    X=              0.1079    Y=              0.0690    Z=             -0.0000  Tot=              0.1281

 Test job not archived.
 1\1\GINC-SE045\SP\RHF\Aug-CC-pVDZ\C4H10\OHZDE\05-Apr-2025\0\\#t hf aug
 -cc-pvdz iop(5/13=1,5/36=2,99/5=2) pseudo=read geom=check guess=(read,
 tcheck) scf=(maxcycle=1)\\title\\0,1\C,0,0.,0.,0.371001\C,0,0.,1.45806
 5,-0.095429\C,0,-1.262722,-0.729033,-0.095429\C,0,1.262722,-0.729033,-
 0.095429\H,0,-1.282986,-1.759266,0.264412\H,0,1.282986,-1.759266,0.264
 412\H,0,-0.882076,1.990731,0.264412\H,0,0.882076,1.990731,0.264412\H,0
 ,-2.165062,-0.231466,0.264412\H,0,-1.313214,-0.758184,-1.187\H,0,2.165
 062,-0.231466,0.264412\H,0,0.,1.516369,-1.187\H,0,1.313214,-0.758184,-

 Normal termination of Gaussian 16 at Sat Apr  5 22:58:50 2025.
