 Gaussian 16, Revision C.01,

 ----------------------------------------------------------------------
 #t hf aug-cc-pvdz symm=none int=(grid=ultrafine) guess=(read,tcheck) s
 table=(opt,rrhf)
 ----------------------------------------------------------------------
 -----
 title
 -----
 Symbolic Z-matrix:
 Charge =  0 Multiplicity = 1

 SCF Done:  E(RHF) =  -383.994589723     A.U. after   13 cycles

 1\1\GINC-SE047\Stability\RHF\Aug-CC-pVDZ\C6H12O2\OHZDE\05-Apr-2025\0\\
 #t hf aug-cc-pvdz symm=none int=(grid=ultrafine) guess=(read,tcheck) s
 table=(opt,rrhf)\\title\\0,1\C,0,-1.888132,-0.186303,0.038084\C,0,-2.9
 56955,0.82444,-0.283481\C,0,1.958051,1.395183,0.513927\C,0,2.923162,-0
 .824646,-0.220717\C,0,0.456498,-0.579654,0.020652\C,0,1.743964,0.14488
 1,-0.342302\O,0,-2.082486,-1.286641,0.491535\O,0,-0.661558,0.29741,-0.
 245338\H,0,-2.889982,1.121863,-1.329676\H,0,-2.812725,1.721105,0.31952
 3\H,0,-3.933425,0.39682,-0.079568\H,0,2.870252,1.915116,0.218046\H,0,2

 Normal termination of Gaussian 16 at Sat Apr  5 22:59:37 2025.
 Gaussian 16:  ES64L-G16RevC.01  3-Jul-2019

 ----------------------------------------------------------------------
 #t hf aug-cc-pvdz iop(5/13=1,5/36=2,99/5=2) pseudo=read geom=check gue
 ss=(read,tcheck) scf=(maxcycle=1)
 ----------------------------------------------------------------------
 -----
 title
 -----
 Structure from the checkpoint file:  "isobutyl_acetate.chk"
 Charge =  0 Multiplicity = 1

                         Standard orientation:
 ---------------------------------------------------------------------
 Center     Atomic      Atomic             Coordinates (Angstroms)
 Number     Number       Type             X           Y           Z
 ---------------------------------------------------------------------
      1          6           0       -1.888132   -0.186303    0.038084
      2          6           0       -2.956955    0.824440   -0.283481
      3          6           0        1.958051    1.395183    0.513927
      4          6           0        2.923162   -0.824646   -0.220717
      5          6           0        0.456498   -0.579654    0.020652
      6          6           0        1.743964    0.144881   -0.342302
      7          8           0       -2.082486   -1.286641    0.491535
      8          8           0       -0.661558    0.297410   -0.245338
      9          1           0       -2.889982    1.121863   -1.329676
     10          1           0       -2.812725    1.721105    0.319523
     11          1           0       -3.933425    0.396820   -0.079568
     12          1           0        2.870252    1.915116    0.218046
     13          1           0        2.055108    1.129449    1.569732
     14          1           0        1.126417    2.091889    0.417111
     15          1           0        3.854481   -0.335170   -0.506854
     16          1           0        2.793952   -1.698388   -0.861379
     17          1           0        3.038067   -1.176866    0.807098
     18          1           0        0.330891   -1.489124   -0.567547
     19          1           0        0.440158   -0.859686    1.075856
     20          1           0        1.659630    0.453440   -1.388885
 ---------------------------------------------------------------------

 SCF Done:  E(RHF) =  -384.119079829     A.U. after    2 cycles

 The electronic state is 1-A.
 Alpha  occ. eigenvalues --  -20.61117 -20.55666 -11.39169 -11.29330 -11.24950
 Alpha  occ. eigenvalues --  -11.24370 -11.22998 -11.22429  -1.41510  -1.32074
 Alpha  occ. eigenvalues --   -1.08862  -1.01903  -0.93500  -0.93322  -0.79416
 Alpha  occ. eigenvalues --   -0.78335  -0.69956  -0.69422  -0.67783  -0.62980
 Alpha  occ. eigenvalues --   -0.60779  -0.59001  -0.57595  -0.56098  -0.54701
 Alpha  occ. eigenvalues --   -0.53993  -0.52642  -0.48993  -0.48621  -0.47683
 Alpha  occ. eigenvalues --   -0.46609  -0.46142
 Alpha virt. eigenvalues --    0.03278   0.03976   0.04595   0.04778   0.05807
 Alpha virt. eigenvalues --    0.06202   0.06633   0.07002   0.07536   0.08320
 Alpha virt. eigenvalues --    0.08927   0.09094   0.11336   0.13357   0.14019

 Mulliken charges:
               1
     1  C    0.201461
     2  C    0.315334
     3  C    0.757237
     4  C    0.800900
     5  C    0.972423
     6  C   -1.235593
     7  O   -0.456374
     8  O   -0.504003
     9  H    0.019938
    10  H    0.031734
    11  H   -0.030293
    12  H   -0.086787
    13  H   -0.015919
    14  H   -0.088453
    15  H   -0.064424
    16  H   -0.078510
    17  H   -0.015577
    18  H   -0.209333
    19  H   -0.178432
    20  H   -0.135327
 Sum of Mulliken charges =  -0.00000

 Dipole moment (field-independent basis, Debye):
    X=              1.0900    Y=              1.9594    Z=             -0.9213  Tot=              2.4240

 Test job not archived.
 1\1\GINC-SE047\SP\RHF\Aug-CC-pVDZ\C6H12O2\OHZDE\05-Apr-2025\0\\#t hf a
 ug-cc-pvdz iop(5/13=1,5/36=2,99/5=2) pseudo=read geom=check guess=(rea
 d,tcheck) scf=(maxcycle=1)\\title\\0,1\C,0,-1.888132,-0.186303,0.03808
 4\C,0,-2.956955,0.82444,-0.283481\C,0,1.958051,1.395183,0.513927\C,0,2
 .923162,-0.824646,-0.220717\C,0,0.456498,-0.579654,0.020652\C,0,1.7439
 64,0.144881,-0.342302\O,0,-2.082486,-1.286641,0.491535\O,0,-0.661558,0
 .29741,-0.245338\H,0,-2.889982,1.121863,-1.329676\H,0,-2.812725,1.7211
 05,0.319523\H,0,-3.933425,0.39682,-0.079568\H,0,2.870252,1.915116,0.21

 Normal termination of Gaussian 16 at Sat Apr  5 23:00:06 2025.
