 Gaussian 16, Revision C.01,

 ----------------------------------------------------------------------
 #t hf aug-cc-pvdz symm=none int=(grid=ultrafine) guess=(read,tcheck) s
 table=(opt,rrhf)
 ----------------------------------------------------------------------
 -----
 title
 -----
 Symbolic Z-matrix:
 Charge =  0 Multiplicity = 1

 SCF Done:  E(RHF) =  -344.943600618     A.U. after   13 cycles

 1\1\GINC-SE146\Stability\RHF\Aug-CC-pVDZ\C5H10O2\OHZDE\05-Apr-2025\0\\
 #t hf aug-cc-pvdz symm=none int=(grid=ultrafine) guess=(read,tcheck) s
 table=(opt,rrhf)\\title\\0,1\C,0,-2.290734,0.312473,-0.152529\C,0,1.73
 0575,1.318317,0.376938\C,0,2.34948,-1.102336,-0.024284\C,0,-0.050404,-
 0.444296,0.035206\C,0,1.350871,0.017165,-0.333148\O,0,-2.73083,-0.6524
 19,0.410787\O,0,-1.002022,0.556886,-0.408491\H,0,-2.898837,1.139165,-0
 .541138\H,0,2.72614,1.646204,0.075225\H,0,1.741116,1.179254,1.460987\H
 ,0,1.028303,2.11826,0.146337\H,0,3.358716,-0.805723,-0.310746\H,0,2.10

 Normal termination of Gaussian 16 at Sat Apr  5 22:59:11 2025.
 Gaussian 16:  ES64L-G16RevC.01  3-Jul-2019

 ----------------------------------------------------------------------
 #t hf aug-cc-pvdz iop(5/13=1,5/36=2,99/5=2) pseudo=read geom=check gue
 ss=(read,tcheck) scf=(maxcycle=1)
 ----------------------------------------------------------------------
 -----
 title
 -----
 Structure from the checkpoint file:  "isobutyl_formate.chk"
 Charge =  0 Multiplicity = 1

                         Standard orientation:
 ---------------------------------------------------------------------
 Center     Atomic      Atomic             Coordinates (Angstroms)
 Number     Number       Type             X           Y           Z
 ---------------------------------------------------------------------
      1          6           0       -2.290734    0.312473   -0.152529
      2          6           0        1.730575    1.318317    0.376938
      3          6           0        2.349480   -1.102336   -0.024284
      4          6           0       -0.050404   -0.444296    0.035206
      5          6           0        1.350871    0.017165   -0.333148
      6          8           0       -2.730830   -0.652419    0.410787
      7          8           0       -1.002022    0.556886   -0.408491
      8          1           0       -2.898837    1.139165   -0.541138
      9          1           0        2.726140    1.646204    0.075225
     10          1           0        1.741116    1.179254    1.460987
     11          1           0        1.028303    2.118260    0.146337
     12          1           0        3.358716   -0.805723   -0.310746
     13          1           0        2.105762   -2.020077   -0.561819
     14          1           0        2.364512   -1.333019    1.043503
     15          1           0       -0.300747   -1.390490   -0.444761
     16          1           0       -0.160689   -0.574017    1.113477
     17          1           0        1.359807    0.196764   -1.412535
 ---------------------------------------------------------------------

 SCF Done:  E(RHF) =  -345.056103734     A.U. after    2 cycles

 The electronic state is 1-A.
 Alpha  occ. eigenvalues --  -20.62259 -20.56957 -11.39693 -11.30040 -11.24799
 Alpha  occ. eigenvalues --  -11.23333 -11.22725  -1.42389  -1.33295  -1.09168
 Alpha  occ. eigenvalues --   -0.96744  -0.93718  -0.83214  -0.79022  -0.73593
 Alpha  occ. eigenvalues --   -0.69782  -0.69017  -0.63008  -0.61414  -0.57629
 Alpha  occ. eigenvalues --   -0.55820  -0.55035  -0.54106  -0.49628  -0.49245
 Alpha  occ. eigenvalues --   -0.48182  -0.47496  -0.47182
 Alpha virt. eigenvalues --    0.03290   0.04154   0.04566   0.04706   0.06044
 Alpha virt. eigenvalues --    0.06920   0.07203   0.07383   0.07797   0.08890
 Alpha virt. eigenvalues --    0.10925   0.11569   0.13425   0.14081   0.14837

 Mulliken charges:
               1
     1  C    0.662963
     2  C    0.754130
     3  C    0.756214
     4  C    0.974566
     5  C   -1.248390
     6  O   -0.391258
     7  O   -0.457494
     8  H   -0.251009
     9  H   -0.086075
    10  H   -0.017161
    11  H   -0.066155
    12  H   -0.068328
    13  H   -0.079950
    14  H   -0.012254
    15  H   -0.201800
    16  H   -0.167320
    17  H   -0.100680
 Sum of Mulliken charges =   0.00000

 Dipole moment (field-independent basis, Debye):
    X=              2.0794    Y=              1.1250    Z=             -0.8666  Tot=              2.5180

 Test job not archived.
 1\1\GINC-SE146\SP\RHF\Aug-CC-pVDZ\C5H10O2\OHZDE\05-Apr-2025\0\\#t hf a
 ug-cc-pvdz iop(5/13=1,5/36=2,99/5=2) pseudo=read geom=check guess=(rea
 d,tcheck) scf=(maxcycle=1)\\title\\0,1\C,0,-2.290734,0.312473,-0.15252
 9\C,0,1.730575,1.318317,0.376938\C,0,2.34948,-1.102336,-0.024284\C,0,-
 0.050404,-0.444296,0.035206\C,0,1.350871,0.017165,-0.333148\O,0,-2.730
 83,-0.652419,0.410787\O,0,-1.002022,0.556886,-0.408491\H,0,-2.898837,1
 .139165,-0.541138\H,0,2.72614,1.646204,0.075225\H,0,1.741116,1.179254,
 1.460987\H,0,1.028303,2.11826,0.146337\H,0,3.358716,-0.805723,-0.31074

 Normal termination of Gaussian 16 at Sat Apr  5 23:00:03 2025.
