 Gaussian 16, Revision C.01,

 ----------------------------------------------------------------------
 #t hf aug-cc-pvdz symm=none int=(grid=ultrafine) guess=(read,tcheck) s
 table=(opt,rrhf)
 ----------------------------------------------------------------------
 -----
 title
 -----
 Symbolic Z-matrix:
 Charge =  0 Multiplicity = 1

 SCF Done:  E(RHF) =  -386.882463892     A.U. after   14 cycles
 Normal termination of Gaussian 16 at Sat Apr  5 23:01:37 2025.
 Gaussian 16:  ES64L-G16RevC.01  3-Jul-2019

 ----------------------------------------------------------------------
 #t hf aug-cc-pvdz iop(5/13=1,5/36=2,99/5=2) pseudo=read geom=check gue
 ss=(read,tcheck) scf=(maxcycle=1)
 ----------------------------------------------------------------------
 -----
 title
 -----
 Structure from the checkpoint file:  "isobutylbenzene.chk"
 Charge =  0 Multiplicity = 1

                         Standard orientation:
 ---------------------------------------------------------------------
 Center     Atomic      Atomic             Coordinates (Angstroms)
 Number     Number       Type             X           Y           Z
 ---------------------------------------------------------------------
      1          6           0        1.333873    2.598690   -0.000000
      2          6           0        0.875686    2.067268    1.199941
      3          6           0        0.875686    2.067268   -1.199941
      4          6           0       -0.026619    1.009896    1.196493
      5          6           0       -0.026619    1.009896   -1.196493
      6          6           0       -0.488807    0.456180    0.000000
      7          6           0       -0.026619   -2.412117   -1.261997
      8          6           0       -0.026619   -2.412117    1.261997
      9          6           0       -1.461521   -0.699761    0.000000
     10          6           0       -0.842543   -2.122471    0.000000
     11          1           0        2.032977    3.424064   -0.000000
     12          1           0        1.216030    2.479956    2.140563
     13          1           0        1.216030    2.479956   -2.140563
     14          1           0       -0.383900    0.613202    2.138360
     15          1           0       -0.383900    0.613202   -2.138360
     16          1           0        0.854188   -1.771177   -1.323883
     17          1           0       -0.618707   -2.255130   -2.165763
     18          1           0        0.317444   -3.447758   -1.266811
     19          1           0        0.317444   -3.447758    1.266811
     20          1           0        0.854188   -1.771177    1.323883
     21          1           0       -0.618707   -2.255130    2.165763
     22          1           0       -2.110211   -0.616300    0.875339
     23          1           0       -2.110211   -0.616300   -0.875339
     24          1           0       -1.698056   -2.806051    0.000000
 ---------------------------------------------------------------------

 SCF Done:  E(RHF) =  -386.999529295     A.U. after    2 cycles

 The electronic state is 1-A'.
 Alpha  occ. eigenvalues --  -11.24480 -11.24055 -11.24034 -11.23742 -11.23682
 Alpha  occ. eigenvalues --  -11.23624 -11.23616 -11.23260 -11.21770 -11.21763
 Alpha  occ. eigenvalues --   -1.14463  -1.07953  -1.01583  -1.00613  -0.92466
 Alpha  occ. eigenvalues --   -0.92363  -0.82578  -0.81325  -0.76041  -0.69259
 Alpha  occ. eigenvalues --   -0.64221  -0.64164  -0.62661  -0.59473  -0.58852
 Alpha  occ. eigenvalues --   -0.57977  -0.56291  -0.53426  -0.51771  -0.50807
 Alpha  occ. eigenvalues --   -0.50110  -0.48648  -0.46610  -0.46512  -0.45399
 Alpha  occ. eigenvalues --   -0.33690  -0.32656
 Alpha virt. eigenvalues --    0.03328   0.03839   0.04111   0.04700   0.05382
 Alpha virt. eigenvalues --    0.05470   0.06537   0.06698   0.07264   0.07558
 Alpha virt. eigenvalues --    0.08004   0.09253   0.09299   0.09706   0.11062

 Mulliken charges:
               1
     1  C    0.758637
     2  C    0.096524
     3  C    0.096524
     4  C    0.759463
     5  C    0.759463
     6  C    0.346593
     7  C    0.835260
     8  C    0.835260
     9  C    0.534278
    10  C   -1.480789
    11  H   -0.446250
    12  H   -0.472690
    13  H   -0.472690
    14  H   -0.689988
    15  H   -0.689988
    16  H   -0.004117
    17  H   -0.075591
    18  H   -0.107234
    19  H   -0.107234
    20  H   -0.004117
    21  H   -0.075591
    22  H   -0.142772
    23  H   -0.142772
    24  H   -0.110180
 Sum of Mulliken charges =  -0.00000

 Dipole moment (field-independent basis, Debye):
    X=             -0.2193    Y=             -0.4026    Z=             -0.0000  Tot=              0.4585

 Test job not archived.
 1\1\GINC-SE146\SP\RHF\Aug-CC-pVDZ\C10H14\OHZDE\05-Apr-2025\0\\#t hf au
 g-cc-pvdz iop(5/13=1,5/36=2,99/5=2) pseudo=read geom=check guess=(read
 ,tcheck) scf=(maxcycle=1)\\title\\0,1\C,0,1.333873,2.59869,0.\C,0,0.87
 5686,2.067268,1.199941\C,0,0.875686,2.067268,-1.199941\C,0,-0.026619,1
 .009896,1.196493\C,0,-0.026619,1.009896,-1.196493\C,0,-0.488807,0.4561
 8,0.\C,0,-0.026619,-2.412117,-1.261997\C,0,-0.026619,-2.412117,1.26199
 7\C,0,-1.461521,-0.699761,0.\C,0,-0.842543,-2.122471,0.\H,0,2.032977,3
 .424064,0.\H,0,1.21603,2.479956,2.140563\H,0,1.21603,2.479956,-2.14056

 Normal termination of Gaussian 16 at Sat Apr  5 23:02:32 2025.
