 Gaussian 16, Revision C.01,

 ----------------------------------------------------------------------
 #t hf aug-cc-pvdz symm=none int=(grid=ultrafine) guess=(read,tcheck) s
 table=(opt,rrhf)
 ----------------------------------------------------------------------
 -----
 title
 -----
 Symbolic Z-matrix:
 Charge =  0 Multiplicity = 1

 SCF Done:  E(RHF) =  -604.351046596     A.U. after   14 cycles
 Normal termination of Gaussian 16 at Sat Apr  5 22:58:47 2025.
 Gaussian 16:  ES64L-G16RevC.01  3-Jul-2019

 ----------------------------------------------------------------------
 #t hf aug-cc-pvdz iop(5/13=1,5/36=2,99/5=2) pseudo=read geom=check gue
 ss=(read,tcheck) scf=(maxcycle=1)
 ----------------------------------------------------------------------
 -----
 title
 -----
 Structure from the checkpoint file:  "isocyanatomethanethiol.chk"
 Charge =  0 Multiplicity = 1

                         Standard orientation:
 ---------------------------------------------------------------------
 Center     Atomic      Atomic             Coordinates (Angstroms)
 Number     Number       Type             X           Y           Z
 ---------------------------------------------------------------------
      1         16           0       -1.706782   -0.543256   -0.058637
      2          8           0        2.540354   -0.659034   -0.086094
      3          7           0        0.706588    0.801429    0.239004
      4          6           0       -0.664935    0.969752   -0.139339
      5          6           0        1.599379    0.023801    0.031598
      6          1           0       -1.726078   -0.641935    1.283273
      7          1           0       -1.104325    1.734549    0.492248
      8          1           0       -0.736693    1.300429   -1.175164
 ---------------------------------------------------------------------

 SCF Done:  E(RHF) =  -604.437016755     A.U. after    2 cycles

 The electronic state is 1-A.
 Alpha  occ. eigenvalues --  -93.55746 -20.63024 -15.66296 -11.42573 -11.34919
 Alpha  occ. eigenvalues --   -8.85510  -6.19649  -6.19441  -6.19097  -1.43293
 Alpha  occ. eigenvalues --   -1.25532  -1.05342  -0.91678  -0.75715  -0.71883
 Alpha  occ. eigenvalues --   -0.68867  -0.66859  -0.62908  -0.57671  -0.51542
 Alpha  occ. eigenvalues --   -0.44539  -0.42969  -0.38276
 Alpha virt. eigenvalues --    0.03101   0.04301   0.05235   0.07382   0.09376
 Alpha virt. eigenvalues --    0.09906   0.10399   0.11028   0.12368   0.13030
 Alpha virt. eigenvalues --    0.14881   0.15130   0.16494   0.16858   0.18164

 Mulliken charges:
               1
     1  S    0.254517
     2  O   -0.220494
     3  N   -0.123392
     4  C    0.357580
     5  C   -0.111175
     6  H    0.091438
     7  H   -0.186847
     8  H   -0.061627
 Sum of Mulliken charges =  -0.00000

 Dipole moment (field-independent basis, Debye):
    X=             -2.2135    Y=              1.7996    Z=              0.2761  Tot=              2.8661

 Test job not archived.
 1\1\GINC-SE179\SP\RHF\Aug-CC-pVDZ\C2H3N1O1S1\OHZDE\05-Apr-2025\0\\#t h
 f aug-cc-pvdz iop(5/13=1,5/36=2,99/5=2) pseudo=read geom=check guess=(
 read,tcheck) scf=(maxcycle=1)\\title\\0,1\S,0,-1.706782,-0.543256,-0.0
 58637\O,0,2.540354,-0.659034,-0.086094\N,0,0.706588,0.801429,0.239004\
 C,0,-0.664935,0.969752,-0.139339\C,0,1.599379,0.023801,0.031598\H,0,-1
 .726078,-0.641935,1.283273\H,0,-1.104325,1.734549,0.492248\H,0,-0.7366
 93,1.300429,-1.175164\\Version=ES64L-G16RevC.01\State=1-A\HF=-604.4370
 168\RMSD=4.495e-03\Dipole=-0.8708732,0.7080213,0.1086251\Quadrupole=-4

 Normal termination of Gaussian 16 at Sat Apr  5 22:58:51 2025.
