 Gaussian 16, Revision C.01,

 ----------------------------------------------------------------------
 #t hf aug-cc-pvdz symm=none int=(grid=ultrafine) guess=(read,tcheck) s
 table=(opt,rrhf)
 ----------------------------------------------------------------------
 -----
 title
 -----
 Symbolic Z-matrix:
 Charge =  0 Multiplicity = 1

 SCF Done:  E(RHF) =  -809.998880380     A.U. after   13 cycles
 Normal termination of Gaussian 16 at Sat Apr  5 22:59:13 2025.
 Gaussian 16:  ES64L-G16RevC.01  3-Jul-2019

 ----------------------------------------------------------------------
 #t hf aug-cc-pvdz iop(5/13=1,5/36=2,99/5=2) pseudo=read geom=check gue
 ss=(read,tcheck) scf=(maxcycle=1)
 ----------------------------------------------------------------------
 -----
 title
 -----
 Structure from the checkpoint file:  "isocyanatoisocyanatomethylsulfanylmethane.chk"
 Charge =  0 Multiplicity = 1

                         Standard orientation:
 ---------------------------------------------------------------------
 Center     Atomic      Atomic             Coordinates (Angstroms)
 Number     Number       Type             X           Y           Z
 ---------------------------------------------------------------------
      1         16           0       -0.000005   -0.180949   -0.000031
      2          8           0       -4.161913   -1.053413    0.440220
      3          8           0        4.161949   -1.053366   -0.440227
      4          7           0       -2.574769    0.356348   -0.604807
      5          7           0        2.574743    0.356296    0.604841
      6          6           0       -1.346924    1.035946   -0.351650
      7          6           0        1.346915    1.035919    0.351674
      8          6           0       -3.340117   -0.359645   -0.014871
      9          6           0        3.340125   -0.359642    0.014882
     10          1           0       -1.444429    1.712184    0.498745
     11          1           0       -1.081666    1.610562   -1.235849
     12          1           0        1.081634    1.610502    1.235889
     13          1           0        1.444453    1.712191   -0.498690
 ---------------------------------------------------------------------

 SCF Done:  E(RHF) =  -810.149110920     A.U. after    2 cycles

 The electronic state is 1-A.
 Alpha  occ. eigenvalues --  -93.56155 -20.63697 -20.63697 -15.67267 -15.67266
 Alpha  occ. eigenvalues --  -11.43376 -11.43376 -11.35609 -11.35594  -8.85919
 Alpha  occ. eigenvalues --   -6.20031  -6.19834  -6.19453  -1.44017  -1.44009
 Alpha  occ. eigenvalues --   -1.26663  -1.26371  -1.08148  -1.01257  -0.88885
 Alpha  occ. eigenvalues --   -0.76654  -0.76077  -0.73322  -0.71502  -0.69932
 Alpha  occ. eigenvalues --   -0.68979  -0.68344  -0.66918  -0.63873  -0.62219
 Alpha  occ. eigenvalues --   -0.60246  -0.50758  -0.46392  -0.46020  -0.43982
 Alpha  occ. eigenvalues --   -0.42333  -0.37375
 Alpha virt. eigenvalues --    0.02302   0.03820   0.04229   0.05882   0.06622
 Alpha virt. eigenvalues --    0.07948   0.08024   0.09912   0.10106   0.10167
 Alpha virt. eigenvalues --    0.11366   0.11647   0.12937   0.13254   0.13513

 Mulliken charges:
               1
     1  S    0.408282
     2  O   -0.186254
     3  O   -0.186254
     4  N   -0.090965
     5  N   -0.090965
     6  C    0.622277
     7  C    0.622273
     8  C   -0.240866
     9  C   -0.240866
    10  H   -0.119670
    11  H   -0.188661
    12  H   -0.188662
    13  H   -0.119669
 Sum of Mulliken charges =  -0.00000

 Dipole moment (field-independent basis, Debye):
    X=              0.0000    Y=              4.6863    Z=              0.0001  Tot=              4.6863

 Test job not archived.
 1\1\GINC-SE176\SP\RHF\Aug-CC-pVDZ\C4H4N2O2S1\OHZDE\05-Apr-2025\0\\#t h
 f aug-cc-pvdz iop(5/13=1,5/36=2,99/5=2) pseudo=read geom=check guess=(
 read,tcheck) scf=(maxcycle=1)\\title\\0,1\S,0,0.000005,0.180949,-0.000
 031\O,0,4.161913,1.053413,0.44022\O,0,-4.161949,1.053366,-0.440227\N,0
 ,2.574769,-0.356348,-0.604807\N,0,-2.574743,-0.356296,0.604841\C,0,1.3
 46924,-1.035946,-0.35165\C,0,-1.346915,-1.035919,0.351674\C,0,3.340117
 ,0.359645,-0.014871\C,0,-3.340125,0.359642,0.014882\H,0,1.444429,-1.71
 2184,0.498745\H,0,1.081666,-1.610562,-1.235849\H,0,-1.081634,-1.610502

 Normal termination of Gaussian 16 at Sat Apr  5 23:00:02 2025.
