 Gaussian 16, Revision C.01,

 ----------------------------------------------------------------------
 #t hf aug-cc-pvdz symm=none int=(grid=ultrafine) guess=(read,tcheck) s
 table=(opt,rrhf)
 ----------------------------------------------------------------------
 -----
 title
 -----
 Symbolic Z-matrix:
 Charge =  0 Multiplicity = 1

 SCF Done:  E(RHF) =  -642.178814046     A.U. after   16 cycles
 Normal termination of Gaussian 16 at Sat Apr  5 22:58:47 2025.
 Gaussian 16:  ES64L-G16RevC.01  3-Jul-2019

 ----------------------------------------------------------------------
 #t hf aug-cc-pvdz iop(5/13=1,5/36=2,99/5=2) pseudo=read geom=check gue
 ss=(read,tcheck) scf=(maxcycle=1)
 ----------------------------------------------------------------------
 -----
 title
 -----
 Structure from the checkpoint file:  "isocyanatosulfanylethene.chk"
 Charge =  0 Multiplicity = 1

                         Standard orientation:
 ---------------------------------------------------------------------
 Center     Atomic      Atomic             Coordinates (Angstroms)
 Number     Number       Type             X           Y           Z
 ---------------------------------------------------------------------
      1         16           0        0.457966    0.685420   -0.130775
      2          8           0       -3.222564   -0.127058    0.122495
      3          7           0       -0.866252   -0.384315    0.004694
      4          6           0       -2.057415   -0.194178    0.059640
      5          6           0        1.757292   -0.498441   -0.193213
      6          6           0        2.970929   -0.238236    0.278239
      7          1           0        1.512657   -1.411103   -0.721146
      8          1           0        3.781289   -0.934480    0.113673
      9          1           0        3.198043    0.670651    0.819051
 ---------------------------------------------------------------------

 SCF Done:  E(RHF) =  -642.281520047     A.U. after    2 cycles

 The electronic state is 1-A.
 Alpha  occ. eigenvalues --  -93.60996 -20.63707 -15.67871 -11.43111 -11.29659
 Alpha  occ. eigenvalues --  -11.26646  -8.90270  -6.24488  -6.24159  -6.23732
 Alpha  occ. eigenvalues --   -1.43840  -1.25549  -1.09679  -0.97889  -0.80256
 Alpha  occ. eigenvalues --   -0.75611  -0.70864  -0.67562  -0.66874  -0.63146
 Alpha  occ. eigenvalues --   -0.60814  -0.53188  -0.51725  -0.44742  -0.43514
 Alpha  occ. eigenvalues --   -0.33746
 Alpha virt. eigenvalues --    0.03283   0.04497   0.05288   0.06854   0.07874
 Alpha virt. eigenvalues --    0.08574   0.09118   0.10513   0.11409   0.12302
 Alpha virt. eigenvalues --    0.12824   0.13515   0.14038   0.16443   0.16978

 Mulliken charges:
               1
     1  S    0.797866
     2  O   -0.208132
     3  N   -0.317111
     4  C   -0.124587
     5  C    0.198189
     6  C    0.580432
     7  H   -0.441852
     8  H   -0.229390
     9  H   -0.255415
 Sum of Mulliken charges =  -0.00000

 Dipole moment (field-independent basis, Debye):
    X=              3.2046    Y=             -0.1876    Z=             -0.1626  Tot=              3.2142

 Test job not archived.
 1\1\GINC-SE180\SP\RHF\Aug-CC-pVDZ\C3H3N1O1S1\OHZDE\05-Apr-2025\0\\#t h
 f aug-cc-pvdz iop(5/13=1,5/36=2,99/5=2) pseudo=read geom=check guess=(
 read,tcheck) scf=(maxcycle=1)\\title\\0,1\S,0,0.457966,0.68542,-0.1307
 75\O,0,-3.222564,-0.127058,0.122495\N,0,-0.866252,-0.384315,0.004694\C
 ,0,-2.057415,-0.194178,0.05964\C,0,1.757292,-0.498441,-0.193213\C,0,2.
 970929,-0.238236,0.278239\H,0,1.512657,-1.411103,-0.721146\H,0,3.78128
 9,-0.93448,0.113673\H,0,3.198043,0.670651,0.819051\\Version=ES64L-G16R
 evC.01\State=1-A\HF=-642.28152\RMSD=5.050e-03\Dipole=1.2607705,-0.0737

 Normal termination of Gaussian 16 at Sat Apr  5 22:58:50 2025.
