 Gaussian 16, Revision C.01,

 ----------------------------------------------------------------------
 #t hf aug-cc-pvdz symm=none int=(grid=ultrafine) guess=(read,tcheck) s
 table=(opt,rrhf)
 ----------------------------------------------------------------------
 -----
 title
 -----
 Symbolic Z-matrix:
 Charge =  0 Multiplicity = 1

 SCF Done:  E(RHF) =  -1146.42345834     A.U. after   12 cycles
 Normal termination of Gaussian 16 at Sat Apr  5 22:58:59 2025.
 Gaussian 16:  ES64L-G16RevC.01  3-Jul-2019

 ----------------------------------------------------------------------
 #t hf aug-cc-pvdz iop(5/13=1,5/36=2,99/5=2) pseudo=read geom=check gue
 ss=(read,tcheck) scf=(maxcycle=1)
 ----------------------------------------------------------------------
 -----
 title
 -----
 Structure from the checkpoint file:  "isoflurane.chk"
 Charge =  0 Multiplicity = 1

                         Standard orientation:
 ---------------------------------------------------------------------
 Center     Atomic      Atomic             Coordinates (Angstroms)
 Number     Number       Type             X           Y           Z
 ---------------------------------------------------------------------
      1          6           0       -0.218615    0.231720   -0.334249
      2          6           0        2.099372    0.063633    0.050519
      3          6           0       -1.485571   -0.576666   -0.009374
      4          8           0        0.817838   -0.322832    0.399628
      5          9           0        2.373326   -0.321108   -1.226533
      6          9           0        2.924768   -0.591330    0.873399
      7          9           0       -1.301155   -1.854169   -0.377515
      8          9           0       -2.528100   -0.095040   -0.699597
      9          9           0       -1.784593   -0.552251    1.290062
     10         17           0       -0.487352    1.980503    0.064712
     11          1           0       -0.042858    0.187772   -1.406517
     12          1           0        2.255795    1.139294    0.129683
 ---------------------------------------------------------------------

 SCF Done:  E(RHF) =  -1146.68582116     A.U. after    2 cycles

 The electronic state is 1-A.
 Alpha  occ. eigenvalues -- -103.69734 -26.18963 -26.18773 -26.18762 -26.17450
 Alpha  occ. eigenvalues --  -26.17272 -20.66838 -11.55807 -11.51482 -11.43132
 Alpha  occ. eigenvalues --  -10.73036  -8.38750  -8.38451  -8.38429  -1.78691
 Alpha  occ. eigenvalues --   -1.74738  -1.71614  -1.71401  -1.69710  -1.45204
 Alpha  occ. eigenvalues --   -1.20847  -1.09851  -1.03227  -0.96475  -0.90947
 Alpha  occ. eigenvalues --   -0.90476  -0.88827  -0.87127  -0.85644  -0.83132
 Alpha  occ. eigenvalues --   -0.79499  -0.79415  -0.76637  -0.75369  -0.75189
 Alpha  occ. eigenvalues --   -0.73932  -0.73844  -0.73348  -0.71021  -0.67916
 Alpha  occ. eigenvalues --   -0.63785  -0.60405  -0.54404  -0.50773  -0.49734
 Alpha virt. eigenvalues --    0.03688   0.04748   0.07195   0.07837   0.09325
 Alpha virt. eigenvalues --    0.09809   0.10424   0.10983   0.13413   0.13958
 Alpha virt. eigenvalues --    0.14779   0.15614   0.15942   0.16328   0.16734

 Mulliken charges:
               1
     1  C    0.162075
     2  C    1.138397
     3  C    1.078832
     4  O   -0.629902
     5  F   -0.342787
     6  F   -0.285030
     7  F   -0.303559
     8  F   -0.276691
     9  F   -0.294282
    10  Cl  -0.088546
    11  H    0.046164
    12  H   -0.204672
 Sum of Mulliken charges =  -0.00000

 Dipole moment (field-independent basis, Debye):
    X=              0.6990    Y=              2.0025    Z=             -1.1298  Tot=              2.4031

 Test job not archived.
 1\1\GINC-SE198\SP\RHF\Aug-CC-pVDZ\C3H2Cl1F5O1\OHZDE\05-Apr-2025\0\\#t
 hf aug-cc-pvdz iop(5/13=1,5/36=2,99/5=2) pseudo=read geom=check guess=
 (read,tcheck) scf=(maxcycle=1)\\title\\0,1\C,0,-0.218615,0.23172,-0.33
 4249\C,0,2.099372,0.063633,0.050519\C,0,-1.485571,-0.576666,-0.009374\
 O,0,0.817838,-0.322832,0.399628\F,0,2.373326,-0.321108,-1.226533\F,0,2
 .924768,-0.59133,0.873399\F,0,-1.301155,-1.854169,-0.377515\F,0,-2.528
 1,-0.09504,-0.699597\F,0,-1.784593,-0.552251,1.290062\Cl,0,-0.487352,1
 .980503,0.064712\H,0,-0.042858,0.187772,-1.406517\H,0,2.255795,1.13929

 Normal termination of Gaussian 16 at Sat Apr  5 22:59:07 2025.
