 Gaussian 16, Revision C.01,

 ----------------------------------------------------------------------
 #t hf aug-cc-pvdz symm=none int=(grid=ultrafine) guess=(read,tcheck) s
 table=(opt,rrhf)
 ----------------------------------------------------------------------
 -----
 title
 -----
 Symbolic Z-matrix:
 Charge =  0 Multiplicity = 1

 SCF Done:  E(RHF) =  -439.030430145     A.U. after   14 cycles
 Normal termination of Gaussian 16 at Sat Apr  5 23:00:20 2025.
 Gaussian 16:  ES64L-G16RevC.01  3-Jul-2019

 ----------------------------------------------------------------------
 #t hf aug-cc-pvdz iop(5/13=1,5/36=2,99/5=2) pseudo=read geom=check gue
 ss=(read,tcheck) scf=(maxcycle=1)
 ----------------------------------------------------------------------
 -----
 title
 -----
 Structure from the checkpoint file:  "isoleucine.chk"
 Charge =  0 Multiplicity = 1

                         Standard orientation:
 ---------------------------------------------------------------------
 Center     Atomic      Atomic             Coordinates (Angstroms)
 Number     Number       Type             X           Y           Z
 ---------------------------------------------------------------------
      1          7           0       -0.597265    1.880669   -0.121090
      2          6           0       -0.495562    0.459188   -0.493741
      3          6           0       -1.805491   -0.236189   -0.085662
      4          8           0       -2.217442   -1.236297   -0.608791
      5          8           0       -2.449652    0.365789    0.927683
      6          1           0       -1.968150    1.206422    1.080701
      7          6           0        0.740774   -0.181501    0.194975
      8          6           0        2.036361    0.322896   -0.473170
      9          6           0        0.692385   -1.712042    0.209785
     10          6           0        3.305554    0.081041    0.344256
     11          1           0       -0.402470    0.308887   -1.572904
     12          1           0        0.731995    0.170577    1.233213
     13          1           0        2.129419   -0.159520   -1.450886
     14          1           0        1.964888    1.394467   -0.677881
     15          1           0        1.596770   -2.114151    0.664101
     16          1           0       -0.156498   -2.089792    0.775213
     17          1           0        0.613261   -2.111699   -0.802100
     18          1           0        4.176666    0.493046   -0.166281
     19          1           0        3.239861    0.558480    1.324121
     20          1           0        3.494746   -0.979801    0.504685
     21          1           0        0.309205    2.294943    0.044674
     22          1           0       -1.056201    2.427172   -0.838822
 ---------------------------------------------------------------------

 SCF Done:  E(RHF) =  -439.167586183     A.U. after    2 cycles

 The electronic state is 1-A.
 Alpha  occ. eigenvalues --  -20.60732 -20.54924 -15.64448 -11.38522 -11.29749
 Alpha  occ. eigenvalues --  -11.26043 -11.24763 -11.23645 -11.22647  -1.40928
 Alpha  occ. eigenvalues --   -1.31983  -1.19215  -1.08703  -1.00344  -0.94119
 Alpha  occ. eigenvalues --   -0.88624  -0.81888  -0.79801  -0.72700  -0.69695
 Alpha  occ. eigenvalues --   -0.68187  -0.64817  -0.63962  -0.62274  -0.60387
 Alpha  occ. eigenvalues --   -0.59203  -0.56763  -0.54720  -0.53568  -0.52080
 Alpha  occ. eigenvalues --   -0.49795  -0.48745  -0.48336  -0.47251  -0.45400
 Alpha  occ. eigenvalues --   -0.42378
 Alpha virt. eigenvalues --    0.02445   0.03456   0.03808   0.04663   0.05890
 Alpha virt. eigenvalues --    0.06157   0.06226   0.06854   0.07501   0.08731
 Alpha virt. eigenvalues --    0.09068   0.09587   0.10170   0.11151   0.12468

 Mulliken charges:
               1
     1  N   -0.450478
     2  C    0.818709
     3  C    0.673895
     4  O   -0.502099
     5  O   -0.530683
     6  H    0.272486
     7  C   -1.272424
     8  C    0.737783
     9  C    0.784564
    10  C    0.511818
    11  H   -0.090520
    12  H   -0.256745
    13  H   -0.129584
    14  H   -0.233320
    15  H   -0.118682
    16  H   -0.016423
    17  H   -0.030398
    18  H   -0.046508
    19  H   -0.078888
    20  H   -0.123657
    21  H    0.045941
    22  H    0.035213
 Sum of Mulliken charges =  -0.00000

 Dipole moment (field-independent basis, Debye):
    X=              4.4281    Y=              3.8729    Z=             -0.4194  Tot=              5.8977

 Test job not archived.
 1\1\GINC-SE213\SP\RHF\Aug-CC-pVDZ\C6H13N1O2\OHZDE\05-Apr-2025\0\\#t hf
  aug-cc-pvdz iop(5/13=1,5/36=2,99/5=2) pseudo=read geom=check guess=(r
 ead,tcheck) scf=(maxcycle=1)\\title\\0,1\N,0,-0.597265,1.880669,-0.121
 09\C,0,-0.495562,0.459188,-0.493741\C,0,-1.805491,-0.236189,-0.085662\
 O,0,-2.217442,-1.236297,-0.608791\O,0,-2.449652,0.365789,0.927683\H,0,
 -1.96815,1.206422,1.080701\C,0,0.740774,-0.181501,0.194975\C,0,2.03636
 1,0.322896,-0.47317\C,0,0.692385,-1.712042,0.209785\C,0,3.305554,0.081
 041,0.344256\H,0,-0.40247,0.308887,-1.572904\H,0,0.731995,0.170577,1.2

 Normal termination of Gaussian 16 at Sat Apr  5 23:00:32 2025.
