 Gaussian 16, Revision C.01,

 ----------------------------------------------------------------------
 #t hf aug-cc-pvdz symm=none int=(grid=ultrafine) guess=(read,tcheck) s
 table=(opt,rrhf)
 ----------------------------------------------------------------------
 -----
 title
 -----
 Symbolic Z-matrix:
 Charge =  0 Multiplicity = 1

 SCF Done:  E(RHF) =  -321.791211906     A.U. after   15 cycles
 Normal termination of Gaussian 16 at Sat Apr  5 23:00:18 2025.
 Gaussian 16:  ES64L-G16RevC.01  3-Jul-2019

 ----------------------------------------------------------------------
 #t hf aug-cc-pvdz iop(5/13=1,5/36=2,99/5=2) pseudo=read geom=check gue
 ss=(read,tcheck) scf=(maxcycle=1)
 ----------------------------------------------------------------------
 -----
 title
 -----
 Structure from the checkpoint file:  "isopropyl_nitrite.chk"
 Charge =  0 Multiplicity = 1

                         Standard orientation:
 ---------------------------------------------------------------------
 Center     Atomic      Atomic             Coordinates (Angstroms)
 Number     Number       Type             X           Y           Z
 ---------------------------------------------------------------------
      1          1           0        1.230807   -0.798909   -0.000000
      2          6           0        0.140652   -0.856817   -0.000000
      3          1           0        0.007049   -2.562492    1.308766
      4          1           0       -1.436380   -1.541527    1.309424
      5          1           0        0.023820   -1.009617    2.153756
      6          6           0       -0.346546   -1.531370    1.272020
      7          1           0        0.007049   -2.562492   -1.308766
      8          1           0        0.023820   -1.009617   -2.153756
      9          1           0       -1.436380   -1.541527   -1.309424
     10          6           0       -0.346546   -1.531370   -1.272020
     11          8           0       -0.346546    0.512894    0.000000
     12          8           0        0.328520    2.544021    0.000000
     13          7           0        0.719868    1.441172    0.000000
 ---------------------------------------------------------------------

 SCF Done:  E(RHF) =  -321.893036808     A.U. after    2 cycles

 The electronic state is 1-A'.
 Alpha  occ. eigenvalues --  -20.66290 -20.63246 -15.84790 -11.31198 -11.23881
 Alpha  occ. eigenvalues --  -11.23874  -1.54284  -1.35703  -1.06911  -0.95195
 Alpha  occ. eigenvalues --   -0.92085  -0.83047  -0.76012  -0.71387  -0.69310
 Alpha  occ. eigenvalues --   -0.62791  -0.61355  -0.60226  -0.55903  -0.54683
 Alpha  occ. eigenvalues --   -0.52942  -0.50394  -0.47344  -0.45303
 Alpha virt. eigenvalues --    0.03326   0.04442   0.04637   0.05653   0.07076
 Alpha virt. eigenvalues --    0.07213   0.07612   0.09239   0.10863   0.11871
 Alpha virt. eigenvalues --    0.13381   0.14543   0.15502   0.16079   0.16615

 Mulliken charges:
               1
     1  H   -0.097772
     2  C   -0.009047
     3  H   -0.005898
     4  H    0.001863
     5  H   -0.071385
     6  C    0.460048
     7  H   -0.005898
     8  H   -0.071385
     9  H    0.001863
    10  C    0.460048
    11  O   -0.698091
    12  O   -0.352641
    13  N    0.388295
 Sum of Mulliken charges =  -0.00000

 Dipole moment (field-independent basis, Debye):
    X=              0.7310    Y=             -3.1156    Z=             -0.0000  Tot=              3.2002

 Test job not archived.
 1\1\GINC-SE085\SP\RHF\Aug-CC-pVDZ\C3H7N1O2\OHZDE\05-Apr-2025\0\\#t hf
 aug-cc-pvdz iop(5/13=1,5/36=2,99/5=2) pseudo=read geom=check guess=(re
 ad,tcheck) scf=(maxcycle=1)\\title\\0,1\H,0,1.230807,-0.798909,0.\C,0,
 0.140652,-0.856817,0.\H,0,0.007049,-2.562492,1.308766\H,0,-1.43638,-1.
 541527,1.309424\H,0,0.02382,-1.009617,2.153756\C,0,-0.346546,-1.53137,
 1.27202\H,0,0.007049,-2.562492,-1.308766\H,0,0.02382,-1.009617,-2.1537
 56\H,0,-1.43638,-1.541527,-1.309424\C,0,-0.346546,-1.53137,-1.27202\O,
 0,-0.346546,0.512894,0.\O,0,0.32852,2.544021,0.\N,0,0.719868,1.441172,

 Normal termination of Gaussian 16 at Sat Apr  5 23:00:21 2025.
