 Gaussian 16, Revision C.01,

 ----------------------------------------------------------------------
 #t hf aug-cc-pvdz symm=none int=(grid=ultrafine) guess=(read,tcheck) s
 table=(opt,rrhf)
 ----------------------------------------------------------------------
 -----
 title
 -----
 Symbolic Z-matrix:
 Charge =  0 Multiplicity = 1

 SCF Done:  E(RHF) =  -344.959103048     A.U. after   13 cycles

 1\1\GINC-SE055\Stability\RHF\Aug-CC-pVDZ\C5H10O2\OHZDE\05-Apr-2025\0\\
 #t hf aug-cc-pvdz symm=none int=(grid=ultrafine) guess=(read,tcheck) s
 table=(opt,rrhf)\\title\\0,1\C,0,1.268727,0.080167,-0.135548\C,0,2.457
 391,-0.631709,0.455479\C,0,-2.121048,-1.091773,-0.335245\C,0,-1.578136
 ,1.16503,0.695009\C,0,-1.134427,0.057348,-0.246875\O,0,1.327987,1.0537
 24,-0.845937\O,0,0.117817,-0.516965,0.234551\H,0,2.448277,-1.682083,0.
 165657\H,0,2.406702,-0.594627,1.543829\H,0,3.371738,-0.157764,0.112852
 \H,0,-3.078523,-0.731193,-0.712382\H,0,-1.756978,-1.866034,-1.009806\H

 Normal termination of Gaussian 16 at Sat Apr  5 23:01:07 2025.
 Gaussian 16:  ES64L-G16RevC.01  3-Jul-2019

 ----------------------------------------------------------------------
 #t hf aug-cc-pvdz iop(5/13=1,5/36=2,99/5=2) pseudo=read geom=check gue
 ss=(read,tcheck) scf=(maxcycle=1)
 ----------------------------------------------------------------------
 -----
 title
 -----
 Structure from the checkpoint file:  "isopropyl_acetate.chk"
 Charge =  0 Multiplicity = 1

                         Standard orientation:
 ---------------------------------------------------------------------
 Center     Atomic      Atomic             Coordinates (Angstroms)
 Number     Number       Type             X           Y           Z
 ---------------------------------------------------------------------
      1          6           0        1.268727    0.080167   -0.135548
      2          6           0        2.457391   -0.631709    0.455479
      3          6           0       -2.121048   -1.091773   -0.335245
      4          6           0       -1.578136    1.165030    0.695009
      5          6           0       -1.134427    0.057348   -0.246875
      6          8           0        1.327987    1.053724   -0.845937
      7          8           0        0.117817   -0.516965    0.234551
      8          1           0        2.448277   -1.682083    0.165657
      9          1           0        2.406702   -0.594627    1.543829
     10          1           0        3.371738   -0.157764    0.112852
     11          1           0       -3.078523   -0.731193   -0.712382
     12          1           0       -1.756978   -1.866034   -1.009806
     13          1           0       -2.285710   -1.538625    0.646050
     14          1           0       -2.518095    1.595146    0.346575
     15          1           0       -0.836390    1.960880    0.734621
     16          1           0       -1.733027    0.773621    1.701565
     17          1           0       -0.939471    0.472232   -1.234796
 ---------------------------------------------------------------------

 SCF Done:  E(RHF) =  -345.071456840     A.U. after    2 cycles

 The electronic state is 1-A.
 Alpha  occ. eigenvalues --  -20.60781 -20.55512 -11.39125 -11.30161 -11.24804
 Alpha  occ. eigenvalues --  -11.23227 -11.22874  -1.41173  -1.31912  -1.07148
 Alpha  occ. eigenvalues --   -1.00116  -0.94414  -0.84709  -0.77172  -0.70380
 Alpha  occ. eigenvalues --   -0.67688  -0.66674  -0.61713  -0.59174  -0.58170
 Alpha  occ. eigenvalues --   -0.57097  -0.55271  -0.54099  -0.52825  -0.51121
 Alpha  occ. eigenvalues --   -0.48826  -0.46670  -0.45762
 Alpha virt. eigenvalues --    0.03371   0.04269   0.04699   0.05145   0.06239
 Alpha virt. eigenvalues --    0.06392   0.06868   0.07602   0.07759   0.08852
 Alpha virt. eigenvalues --    0.10724   0.13254   0.13314   0.14274   0.14952

 Mulliken charges:
               1
     1  C    0.202235
     2  C    0.320707
     3  C    0.559723
     4  C    0.446537
     5  C   -0.196226
     6  O   -0.465077
     7  O   -0.561914
     8  H    0.016158
     9  H    0.018740
    10  H   -0.020349
    11  H   -0.005743
    12  H   -0.069902
    13  H   -0.006032
    14  H   -0.030247
    15  H   -0.098688
    16  H   -0.002697
    17  H   -0.107225
 Sum of Mulliken charges =  -0.00000

 Dipole moment (field-independent basis, Debye):
    X=             -0.8900    Y=             -1.6376    Z=              1.2027  Tot=              2.2182

 Test job not archived.
 1\1\GINC-SE055\SP\RHF\Aug-CC-pVDZ\C5H10O2\OHZDE\05-Apr-2025\0\\#t hf a
 ug-cc-pvdz iop(5/13=1,5/36=2,99/5=2) pseudo=read geom=check guess=(rea
 d,tcheck) scf=(maxcycle=1)\\title\\0,1\C,0,1.268727,0.080167,-0.135548
 \C,0,2.457391,-0.631709,0.455479\C,0,-2.121048,-1.091773,-0.335245\C,0
 ,-1.578136,1.16503,0.695009\C,0,-1.134427,0.057348,-0.246875\O,0,1.327
 987,1.053724,-0.845937\O,0,0.117817,-0.516965,0.234551\H,0,2.448277,-1
 .682083,0.165657\H,0,2.406702,-0.594627,1.543829\H,0,3.371738,-0.15776
 4,0.112852\H,0,-3.078523,-0.731193,-0.712382\H,0,-1.756978,-1.866034,-

 Normal termination of Gaussian 16 at Sat Apr  5 23:02:18 2025.
