 Gaussian 16, Revision C.01,

 ----------------------------------------------------------------------
 #t hf aug-cc-pvdz symm=none int=(grid=ultrafine) guess=(read,tcheck) s
 table=(opt,rrhf)
 ----------------------------------------------------------------------
 -----
 title
 -----
 Symbolic Z-matrix:
 Charge =  0 Multiplicity = 1

 SCF Done:  E(RHF) =  -305.908222856     A.U. after   14 cycles
 Normal termination of Gaussian 16 at Sat Apr  5 23:00:23 2025.
 Gaussian 16:  ES64L-G16RevC.01  3-Jul-2019

 ----------------------------------------------------------------------
 #t hf aug-cc-pvdz iop(5/13=1,5/36=2,99/5=2) pseudo=read geom=check gue
 ss=(read,tcheck) scf=(maxcycle=1)
 ----------------------------------------------------------------------
 -----
 title
 -----
 Structure from the checkpoint file:  "isopropyl_formate.chk"
 Charge =  0 Multiplicity = 1

                         Standard orientation:
 ---------------------------------------------------------------------
 Center     Atomic      Atomic             Coordinates (Angstroms)
 Number     Number       Type             X           Y           Z
 ---------------------------------------------------------------------
      1          6           0        1.617743   -0.394675    0.283252
      2          6           0       -1.893251   -0.863530   -0.252957
      3          6           0       -0.944016    1.436162    0.264110
      4          6           0       -0.675794    0.040279   -0.273129
      5          8           0        2.051181    0.295615   -0.599753
      6          8           0        0.330551   -0.615131    0.565758
      7          1           0        2.240430   -0.955104    0.992486
      8          1           0       -2.678480   -0.440562   -0.880088
      9          1           0       -1.648581   -1.854994   -0.632319
     10          1           0       -2.282128   -0.967445    0.760564
     11          1           0       -1.698111    1.930159   -0.349869
     12          1           0       -0.039874    2.042006    0.242524
     13          1           0       -1.314363    1.388173    1.289063
     14          1           0       -0.260844    0.104471   -1.278058
 ---------------------------------------------------------------------

 SCF Done:  E(RHF) =  -306.008598748     A.U. after    2 cycles

 The electronic state is 1-A.
 Alpha  occ. eigenvalues --  -20.61902 -20.56756 -11.39617 -11.30877 -11.23674
 Alpha  occ. eigenvalues --  -11.23374  -1.42020  -1.33091  -1.07179  -0.94924
 Alpha  occ. eigenvalues --   -0.88912  -0.78410  -0.74393  -0.69324  -0.66602
 Alpha  occ. eigenvalues --   -0.62114  -0.59268  -0.56628  -0.55502  -0.54190
 Alpha  occ. eigenvalues --   -0.52034  -0.49537  -0.47713  -0.46829
 Alpha virt. eigenvalues --    0.03424   0.04387   0.04713   0.05146   0.06460
 Alpha virt. eigenvalues --    0.07311   0.07541   0.07708   0.10314   0.11162
 Alpha virt. eigenvalues --    0.12870   0.14640   0.14897   0.15560   0.15690

 Mulliken charges:
               1
     1  C    0.622644
     2  C    0.560702
     3  C    0.363247
     4  C   -0.108877
     5  O   -0.397922
     6  O   -0.530172
     7  H   -0.237432
     8  H    0.008422
     9  H   -0.061163
    10  H    0.002180
    11  H   -0.013034
    12  H   -0.093248
    13  H    0.011035
    14  H   -0.126384
 Sum of Mulliken charges =  -0.00000

 Dipole moment (field-independent basis, Debye):
    X=             -2.0427    Y=             -0.6840    Z=              0.9472  Tot=              2.3532

 Test job not archived.
 1\1\GINC-SE104\SP\RHF\Aug-CC-pVDZ\C4H8O2\OHZDE\05-Apr-2025\0\\#t hf au
 g-cc-pvdz iop(5/13=1,5/36=2,99/5=2) pseudo=read geom=check guess=(read
 ,tcheck) scf=(maxcycle=1)\\title\\0,1\C,0,1.617743,-0.394675,0.283252\
 C,0,-1.893251,-0.86353,-0.252957\C,0,-0.944016,1.436162,0.26411\C,0,-0
 .675794,0.040279,-0.273129\O,0,2.051181,0.295615,-0.599753\O,0,0.33055
 1,-0.615131,0.565758\H,0,2.24043,-0.955104,0.992486\H,0,-2.67848,-0.44
 0562,-0.880088\H,0,-1.648581,-1.854994,-0.632319\H,0,-2.282128,-0.9674
 45,0.760564\H,0,-1.698111,1.930159,-0.349869\H,0,-0.039874,2.042006,0.

 Normal termination of Gaussian 16 at Sat Apr  5 23:00:27 2025.
