 Gaussian 16, Revision C.01,

 ----------------------------------------------------------------------
 #t hf aug-cc-pvdz symm=none int=(grid=ultrafine) guess=(read,tcheck) s
 table=(opt,rrhf)
 ----------------------------------------------------------------------
 -----
 title
 -----
 Symbolic Z-matrix:
 Charge =  0 Multiplicity = 1

 SCF Done:  E(RHF) =  -383.979249779     A.U. after   14 cycles

 1\1\GINC-SE013\Stability\RHF\Aug-CC-pVDZ\C6H12O2\OHZDE\05-Apr-2025\0\\
 #t hf aug-cc-pvdz symm=none int=(grid=ultrafine) guess=(read,tcheck) s
 table=(opt,rrhf)\\title\\0,1\C,0,-0.22106,2.864428,0.\C,0,-0.22106,-2.
 371524,1.265102\C,0,-0.22106,-2.371524,-1.265102\C,0,1.048508,-0.54443
 3,0.\C,0,-0.053651,0.49844,0.\C,0,0.564195,-2.007414,0.\O,0,-1.421923,
 2.840809,0.\O,0,0.588857,1.801614,0.\H,0,0.384539,3.779558,0.\H,0,-0.4
 28507,-3.44222,1.29436\H,0,-1.18181,-1.8552,1.308497\H,0,0.337007,-2.1
 16386,2.167817\H,0,-1.18181,-1.8552,-1.308497\H,0,-0.428507,-3.44222,-

 Normal termination of Gaussian 16 at Sat Apr  5 23:00:10 2025.
 Gaussian 16:  ES64L-G16RevC.01  3-Jul-2019

 ----------------------------------------------------------------------
 #t hf aug-cc-pvdz iop(5/13=1,5/36=2,99/5=2) pseudo=read geom=check gue
 ss=(read,tcheck) scf=(maxcycle=1)
 ----------------------------------------------------------------------
 -----
 title
 -----
 Structure from the checkpoint file:  "isopentyl_formate.chk"
 Charge =  0 Multiplicity = 1

                         Standard orientation:
 ---------------------------------------------------------------------
 Center     Atomic      Atomic             Coordinates (Angstroms)
 Number     Number       Type             X           Y           Z
 ---------------------------------------------------------------------
      1          6           0       -0.221060    2.864428    0.000000
      2          6           0       -0.221060   -2.371524    1.265102
      3          6           0       -0.221060   -2.371524   -1.265102
      4          6           0        1.048508   -0.544433   -0.000000
      5          6           0       -0.053651    0.498440    0.000000
      6          6           0        0.564195   -2.007414   -0.000000
      7          8           0       -1.421923    2.840809    0.000000
      8          8           0        0.588857    1.801614    0.000000
      9          1           0        0.384539    3.779558    0.000000
     10          1           0       -0.428507   -3.442220    1.294360
     11          1           0       -1.181810   -1.855200    1.308497
     12          1           0        0.337007   -2.116386    2.167817
     13          1           0       -1.181810   -1.855200   -1.308497
     14          1           0       -0.428507   -3.442220   -1.294360
     15          1           0        0.337007   -2.116386   -2.167817
     16          1           0        1.679808   -0.377477   -0.876121
     17          1           0        1.679808   -0.377477    0.876121
     18          1           0       -0.691293    0.435316   -0.880677
     19          1           0       -0.691293    0.435316    0.880677
     20          1           0        1.474353   -2.614843   -0.000000
 ---------------------------------------------------------------------

 SCF Done:  E(RHF) =  -384.103605018     A.U. after    2 cycles

 The electronic state is 1-A'.
 Alpha  occ. eigenvalues --  -20.62180 -20.56867 -11.39579 -11.30018 -11.24562
 Alpha  occ. eigenvalues --  -11.23804 -11.22798 -11.22791  -1.42256  -1.33162
 Alpha  occ. eigenvalues --   -1.09586  -1.01332  -0.93438  -0.90265  -0.81768
 Alpha  occ. eigenvalues --   -0.77579  -0.72951  -0.69548  -0.69437  -0.63530
 Alpha  occ. eigenvalues --   -0.61361  -0.60216  -0.57464  -0.56523  -0.53915
 Alpha  occ. eigenvalues --   -0.53385  -0.51443  -0.48767  -0.48194  -0.46914
 Alpha  occ. eigenvalues --   -0.46914  -0.46394
 Alpha virt. eigenvalues --    0.03175   0.04044   0.04444   0.04524   0.05702
 Alpha virt. eigenvalues --    0.06562   0.06912   0.07063   0.07204   0.08904
 Alpha virt. eigenvalues --    0.09013   0.09805   0.11093   0.12343   0.12648

 Mulliken charges:
               1
     1  C    0.717885
     2  C    0.760126
     3  C    0.760126
     4  C    0.302506
     5  C    0.882870
     6  C   -1.050309
     7  O   -0.393569
     8  O   -0.483784
     9  H   -0.254758
    10  H   -0.088547
    11  H   -0.078783
    12  H   -0.072854
    13  H   -0.078783
    14  H   -0.088547
    15  H   -0.072854
    16  H   -0.118026
    17  H   -0.118026
    18  H   -0.226082
    19  H   -0.226082
    20  H   -0.072510
 Sum of Mulliken charges =  -0.00000

 Dipole moment (field-independent basis, Debye):
    X=              2.0372    Y=             -1.6291    Z=              0.0000  Tot=              2.6085

 Test job not archived.
 1\1\GINC-SE013\SP\RHF\Aug-CC-pVDZ\C6H12O2\OHZDE\05-Apr-2025\0\\#t hf a
 ug-cc-pvdz iop(5/13=1,5/36=2,99/5=2) pseudo=read geom=check guess=(rea
 d,tcheck) scf=(maxcycle=1)\\title\\0,1\C,0,-0.22106,2.864428,0.\C,0,-0
 .22106,-2.371524,1.265102\C,0,-0.22106,-2.371524,-1.265102\C,0,1.04850
 8,-0.544433,0.\C,0,-0.053651,0.49844,0.\C,0,0.564195,-2.007414,0.\O,0,
 -1.421923,2.840809,0.\O,0,0.588857,1.801614,0.\H,0,0.384539,3.779558,0
 .\H,0,-0.428507,-3.44222,1.29436\H,0,-1.18181,-1.8552,1.308497\H,0,0.3
 37007,-2.116386,2.167817\H,0,-1.18181,-1.8552,-1.308497\H,0,-0.428507,

 Normal termination of Gaussian 16 at Sat Apr  5 23:00:16 2025.
