 Gaussian 16, Revision C.01,

 ----------------------------------------------------------------------
 #t hf aug-cc-pvdz symm=none int=(grid=ultrafine) guess=(read,tcheck) s
 table=(opt,rrhf)
 ----------------------------------------------------------------------
 -----
 title
 -----
 Symbolic Z-matrix:
 Charge =  0 Multiplicity = 1

 SCF Done:  E(RHF) =  -423.030205227     A.U. after   13 cycles

 1\1\GINC-SE223\Stability\RHF\Aug-CC-pVDZ\C7H14O2\OHZDE\05-Apr-2025\0\\
 #t hf aug-cc-pvdz symm=none int=(grid=ultrafine) guess=(read,tcheck) s
 table=(opt,rrhf)\\title\\0,1\C,0,2.403276,0.235094,0.00358\C,0,3.66424
 7,-0.587957,-0.004238\C,0,-2.836541,0.358121,1.268379\C,0,-2.835699,0.
 381755,-1.261372\C,0,-1.045343,-0.950015,-0.008083\C,0,0.028571,0.1228
 51,-0.001652\C,0,-2.494529,-0.425752,-0.00381\O,0,2.357473,1.440315,0.
 011576\O,0,1.309148,-0.552959,-0.002627\H,0,3.70607,-1.193141,-0.90998
 7\H,0,3.671524,-1.271694,0.844196\H,0,4.526585,0.069656,0.039536\H,0,-

 Normal termination of Gaussian 16 at Sat Apr  5 23:00:17 2025.
 Gaussian 16:  ES64L-G16RevC.01  3-Jul-2019

 ----------------------------------------------------------------------
 #t hf aug-cc-pvdz iop(5/13=1,5/36=2,99/5=2) pseudo=read geom=check gue
 ss=(read,tcheck) scf=(maxcycle=1)
 ----------------------------------------------------------------------
 -----
 title
 -----
 Structure from the checkpoint file:  "isopentyl_acetate.chk"
 Charge =  0 Multiplicity = 1

                         Standard orientation:
 ---------------------------------------------------------------------
 Center     Atomic      Atomic             Coordinates (Angstroms)
 Number     Number       Type             X           Y           Z
 ---------------------------------------------------------------------
      1          6           0        2.403276    0.235094    0.003580
      2          6           0        3.664247   -0.587957   -0.004238
      3          6           0       -2.836541    0.358121    1.268379
      4          6           0       -2.835699    0.381755   -1.261372
      5          6           0       -1.045343   -0.950015   -0.008083
      6          6           0        0.028571    0.122851   -0.001652
      7          6           0       -2.494529   -0.425752   -0.003810
      8          8           0        2.357473    1.440315    0.011576
      9          8           0        1.309148   -0.552959   -0.002627
     10          1           0        3.706070   -1.193141   -0.909987
     11          1           0        3.671524   -1.271694    0.844196
     12          1           0        4.526585    0.069656    0.039536
     13          1           0       -3.900505    0.597961    1.298851
     14          1           0       -2.290462    1.301687    1.321379
     15          1           0       -2.599340   -0.216217    2.165809
     16          1           0       -2.290329    1.326588   -1.295750
     17          1           0       -3.899825    0.621256   -1.288528
     18          1           0       -2.596999   -0.175253   -2.169285
     19          1           0       -0.897174   -1.580633   -0.888276
     20          1           0       -0.896159   -1.591756    0.863846
     21          1           0       -0.019806    0.767018   -0.878748
     22          1           0       -0.022517    0.759280    0.880916
     23          1           0       -3.127922   -1.318173   -0.012356
 ---------------------------------------------------------------------

 SCF Done:  E(RHF) =  -423.166564788     A.U. after    2 cycles

 The electronic state is 1-A.
 Alpha  occ. eigenvalues --  -20.61039 -20.55580 -11.39058 -11.29307 -11.24851
 Alpha  occ. eigenvalues --  -11.24246 -11.23375 -11.22524 -11.22516  -1.41378
 Alpha  occ. eigenvalues --   -1.31941  -1.09265  -1.03147  -0.97977  -0.93157
 Alpha  occ. eigenvalues --   -0.87970  -0.78712  -0.76591  -0.69872  -0.69342
 Alpha  occ. eigenvalues --   -0.67609  -0.62810  -0.62181  -0.60071  -0.58079
 Alpha  occ. eigenvalues --   -0.58030  -0.55389  -0.54749  -0.53081  -0.52762
 Alpha  occ. eigenvalues --   -0.50662  -0.47788  -0.47661  -0.46411  -0.46356
 Alpha  occ. eigenvalues --   -0.45587
 Alpha virt. eigenvalues --    0.03205   0.03798   0.04425   0.04616   0.05644
 Alpha virt. eigenvalues --    0.05935   0.06254   0.07036   0.07117   0.07817
 Alpha virt. eigenvalues --    0.08036   0.08634   0.09668   0.10872   0.11886

 Mulliken charges:
               1
     1  C    0.212189
     2  C    0.343824
     3  C    0.771409
     4  C    0.774297
     5  C    0.309173
     6  C    0.885146
     7  C   -1.006248
     8  O   -0.456211
     9  O   -0.547061
    10  H    0.030292
    11  H    0.021132
    12  H   -0.024648
    13  H   -0.089276
    14  H   -0.077600
    15  H   -0.068963
    16  H   -0.077339
    17  H   -0.089979
    18  H   -0.068595
    19  H   -0.157463
    20  H   -0.155517
    21  H   -0.228134
    22  H   -0.229245
    23  H   -0.071183
 Sum of Mulliken charges =  -0.00000

 Dipole moment (field-independent basis, Debye):
    X=             -0.8706    Y=             -2.2865    Z=             -0.0251  Tot=              2.4468

 Test job not archived.
 1\1\GINC-SE223\SP\RHF\Aug-CC-pVDZ\C7H14O2\OHZDE\05-Apr-2025\0\\#t hf a
 ug-cc-pvdz iop(5/13=1,5/36=2,99/5=2) pseudo=read geom=check guess=(rea
 d,tcheck) scf=(maxcycle=1)\\title\\0,1\C,0,2.403276,0.235094,0.00358\C
 ,0,3.664247,-0.587957,-0.004238\C,0,-2.836541,0.358121,1.268379\C,0,-2
 .835699,0.381755,-1.261372\C,0,-1.045343,-0.950015,-0.008083\C,0,0.028
 571,0.122851,-0.001652\C,0,-2.494529,-0.425752,-0.00381\O,0,2.357473,1
 .440315,0.011576\O,0,1.309148,-0.552959,-0.002627\H,0,3.70607,-1.19314
 1,-0.909987\H,0,3.671524,-1.271694,0.844196\H,0,4.526585,0.069656,0.03

 Normal termination of Gaussian 16 at Sat Apr  5 23:00:30 2025.
