 Gaussian 16, Revision C.01,

 ----------------------------------------------------------------------
 #t hf aug-cc-pvdz symm=none int=(grid=ultrafine) guess=(read,tcheck) s
 table=(opt,rrhf)
 ----------------------------------------------------------------------
 -----
 title
 -----
 Symbolic Z-matrix:
 Charge =  0 Multiplicity = 1

 SCF Done:  E(RHF) =  -346.658761193     A.U. after   15 cycles
 Normal termination of Gaussian 16 at Sat Apr  5 23:01:22 2025.
 Gaussian 16:  ES64L-G16RevC.01  3-Jul-2019

 ----------------------------------------------------------------------
 #t hf aug-cc-pvdz iop(5/13=1,5/36=2,99/5=2) pseudo=read geom=check gue
 ss=(read,tcheck) scf=(maxcycle=1)
 ----------------------------------------------------------------------
 -----
 title
 -----
 Structure from the checkpoint file:  "isopropenylbenzene.chk"
 Charge =  0 Multiplicity = 1

                         Standard orientation:
 ---------------------------------------------------------------------
 Center     Atomic      Atomic             Coordinates (Angstroms)
 Number     Number       Type             X           Y           Z
 ---------------------------------------------------------------------
      1          6           0       -2.607951   -0.070177   -0.002533
      2          6           0       -1.956385    1.138080    0.223390
      3          6           0       -1.855508   -1.217102   -0.220271
      4          6           0       -0.570564    1.197284    0.222786
      5          6           0       -0.467158   -1.156536   -0.216683
      6          6           0        0.205539    0.053889   -0.010474
      7          6           0        2.337269    1.223085   -0.419484
      8          6           0        1.689055    0.121675   -0.030681
      9          6           0        2.453037   -1.107640    0.391878
     10          1           0       -3.688478   -0.117438    0.001289
     11          1           0       -2.529999    2.035788    0.412585
     12          1           0       -2.348629   -2.164590   -0.392684
     13          1           0       -0.080152    2.138271    0.429309
     14          1           0        0.095144   -2.062538   -0.391815
     15          1           0        3.417985    1.266340   -0.413429
     16          1           0        1.818583    2.103555   -0.771554
     17          1           0        2.308302   -1.930951   -0.311139
     18          1           0        2.122756   -1.463201    1.369923
     19          1           0        3.520478   -0.900594    0.439945
 ---------------------------------------------------------------------

 SCF Done:  E(RHF) =  -346.763001994     A.U. after    2 cycles

 The electronic state is 1-A.
 Alpha  occ. eigenvalues --  -11.25493 -11.25209 -11.24442 -11.24393 -11.24270
 Alpha  occ. eigenvalues --  -11.24236 -11.24156 -11.23335 -11.22810  -1.15158
 Alpha  occ. eigenvalues --   -1.08250  -1.01196  -0.99550  -0.93504  -0.84249
 Alpha  occ. eigenvalues --   -0.82597  -0.74950  -0.70067  -0.64199  -0.64071
 Alpha  occ. eigenvalues --   -0.62190  -0.59362  -0.58744  -0.56862  -0.54080
 Alpha  occ. eigenvalues --   -0.52427  -0.50762  -0.49397  -0.48279  -0.39156
 Alpha  occ. eigenvalues --   -0.34136  -0.31175
 Alpha virt. eigenvalues --    0.03420   0.03896   0.04033   0.05146   0.05429
 Alpha virt. eigenvalues --    0.05650   0.06946   0.07539   0.07696   0.08984
 Alpha virt. eigenvalues --    0.09550   0.10129   0.11081   0.12144   0.12883

 Mulliken charges:
               1
     1  C    0.556003
     2  C    0.369159
     3  C    0.215420
     4  C    0.182644
     5  C    0.339186
     6  C    0.574379
     7  C    1.200783
     8  C   -0.335192
     9  C    0.348530
    10  H   -0.440242
    11  H   -0.445919
    12  H   -0.467795
    13  H   -0.573295
    14  H   -0.622967
    15  H   -0.427013
    16  H   -0.430023
    17  H    0.103672
    18  H    0.075286
    19  H   -0.222616
 Sum of Mulliken charges =  -0.00000

 Dipole moment (field-independent basis, Debye):
    X=              0.0139    Y=             -0.3127    Z=              0.1157  Tot=              0.3337

 Test job not archived.
 1\1\GINC-SE028\SP\RHF\Aug-CC-pVDZ\C9H10\OHZDE\05-Apr-2025\0\\#t hf aug
 -cc-pvdz iop(5/13=1,5/36=2,99/5=2) pseudo=read geom=check guess=(read,
 tcheck) scf=(maxcycle=1)\\title\\0,1\C,0,-2.607951,-0.070177,-0.002533
 \C,0,-1.956385,1.13808,0.22339\C,0,-1.855508,-1.217102,-0.220271\C,0,-
 0.570564,1.197284,0.222786\C,0,-0.467158,-1.156536,-0.216683\C,0,0.205
 539,0.053889,-0.010474\C,0,2.337269,1.223085,-0.419484\C,0,1.689055,0.
 121675,-0.030681\C,0,2.453037,-1.10764,0.391878\H,0,-3.688478,-0.11743
 8,0.001289\H,0,-2.529999,2.035788,0.412585\H,0,-2.348629,-2.16459,-0.3

 Normal termination of Gaussian 16 at Sat Apr  5 23:02:21 2025.
