 Gaussian 16, Revision C.01,

 ----------------------------------------------------------------------
 #t hf aug-cc-pvdz symm=none int=(grid=ultrafine) guess=(read,tcheck) s
 table=(opt,rrhf)
 ----------------------------------------------------------------------
 -----
 title
 -----
 Symbolic Z-matrix:
 Charge =  0 Multiplicity = 1

 SCF Done:  E(RHF) =  -347.844933814     A.U. after   14 cycles
 Normal termination of Gaussian 16 at Sat Apr  5 23:01:30 2025.
 Gaussian 16:  ES64L-G16RevC.01  3-Jul-2019

 ----------------------------------------------------------------------
 #t hf aug-cc-pvdz iop(5/13=1,5/36=2,99/5=2) pseudo=read geom=check gue
 ss=(read,tcheck) scf=(maxcycle=1)
 ----------------------------------------------------------------------
 -----
 title
 -----
 Structure from the checkpoint file:  "isopropylbenzene.chk"
 Charge =  0 Multiplicity = 1

                         Standard orientation:
 ---------------------------------------------------------------------
 Center     Atomic      Atomic             Coordinates (Angstroms)
 Number     Number       Type             X           Y           Z
 ---------------------------------------------------------------------
      1          6           0       -0.601226   -2.584627    0.000000
      2          6           0        0.748982   -2.260917    0.000000
      3          6           0       -1.547135   -1.565096    0.000000
      4          6           0        1.146365   -0.928060    0.000000
      5          6           0       -1.144028   -0.236286    0.000000
      6          6           0        0.210818    0.106161    0.000000
      7          6           0        0.210818    2.299507    1.265971
      8          6           0        0.210818    2.299507   -1.265971
      9          6           0        0.662737    1.556271    0.000000
     10          1           0       -0.915190   -3.619865    0.000000
     11          1           0        1.495397   -3.044499    0.000000
     12          1           0       -2.602280   -1.805893    0.000000
     13          1           0        2.202394   -0.686488    0.000000
     14          1           0       -1.896202    0.542418    0.000000
     15          1           0       -0.877383    2.362280    1.320609
     16          1           0        0.602440    3.318326    1.273546
     17          1           0        0.560437    1.794019    2.166585
     18          1           0        0.560437    1.794019   -2.166585
     19          1           0        0.602440    3.318326   -1.273546
     20          1           0       -0.877383    2.362280   -1.320609
     21          1           0        1.755995    1.546317    0.000000
 ---------------------------------------------------------------------

 SCF Done:  E(RHF) =  -347.950471384     A.U. after    2 cycles

 The electronic state is 1-A'.
 Alpha  occ. eigenvalues --  -11.24394 -11.24232 -11.24095 -11.24052 -11.23699
 Alpha  occ. eigenvalues --  -11.23611 -11.23603 -11.22373 -11.22367  -1.14600
 Alpha  occ. eigenvalues --   -1.07274  -1.00653  -0.98810  -0.92789  -0.84693
 Alpha  occ. eigenvalues --   -0.82515  -0.77292  -0.69782  -0.64946  -0.63125
 Alpha  occ. eigenvalues --   -0.60408  -0.59524  -0.58382  -0.57078  -0.54101
 Alpha  occ. eigenvalues --   -0.53436  -0.50243  -0.49984  -0.47751  -0.46919
 Alpha  occ. eigenvalues --   -0.46543  -0.33734  -0.32740
 Alpha virt. eigenvalues --    0.03358   0.03917   0.04134   0.05057   0.05434
 Alpha virt. eigenvalues --    0.05694   0.06679   0.07364   0.07530   0.07907
 Alpha virt. eigenvalues --    0.08119   0.10252   0.11118   0.11421   0.12121

 Mulliken charges:
               1
     1  C    0.643640
     2  C    0.368983
     3  C    0.208366
     4  C    0.575300
     5  C    0.627551
     6  C    0.570528
     7  C    0.705698
     8  C    0.705698
     9  C   -1.065031
    10  H   -0.456935
    11  H   -0.446055
    12  H   -0.458385
    13  H   -0.601890
    14  H   -0.653484
    15  H   -0.069770
    16  H   -0.095579
    17  H   -0.094822
    18  H   -0.094822
    19  H   -0.095579
    20  H   -0.069770
    21  H   -0.203644
 Sum of Mulliken charges =   0.00000

 Dipole moment (field-independent basis, Debye):
    X=              0.1455    Y=              0.3919    Z=              0.0000  Tot=              0.4181

 Test job not archived.
 1\1\GINC-SE185\SP\RHF\Aug-CC-pVDZ\C9H12\OHZDE\05-Apr-2025\0\\#t hf aug
 -cc-pvdz iop(5/13=1,5/36=2,99/5=2) pseudo=read geom=check guess=(read,
 tcheck) scf=(maxcycle=1)\\title\\0,1\C,0,-0.601226,-2.584627,0.\C,0,0.
 748982,-2.260917,0.\C,0,-1.547135,-1.565096,0.\C,0,1.146365,-0.92806,0
 .\C,0,-1.144028,-0.236286,0.\C,0,0.210818,0.106161,0.\C,0,0.210818,2.2
 99507,1.265971\C,0,0.210818,2.299507,-1.265971\C,0,0.662737,1.556271,0
 .\H,0,-0.91519,-3.619865,0.\H,0,1.495397,-3.044499,0.\H,0,-2.60228,-1.
 805893,0.\H,0,2.202394,-0.686488,0.\H,0,-1.896202,0.542418,0.\H,0,-0.8

 Normal termination of Gaussian 16 at Sat Apr  5 23:02:20 2025.
