 Gaussian 16, Revision C.01,

 ----------------------------------------------------------------------
 #t hf aug-cc-pvdz symm=none int=(grid=ultrafine) guess=(read,tcheck) s
 table=(opt,rrhf)
 ----------------------------------------------------------------------
 -----
 title
 -----
 Symbolic Z-matrix:
 Charge =  0 Multiplicity = 1

 SCF Done:  E(RHF) =  -234.190708457     A.U. after   12 cycles
 Normal termination of Gaussian 16 at Sat Apr  5 23:00:34 2025.
 Gaussian 16:  ES64L-G16RevC.01  3-Jul-2019

 ----------------------------------------------------------------------
 #t hf aug-cc-pvdz iop(5/13=1,5/36=2,99/5=2) pseudo=read geom=check gue
 ss=(read,tcheck) scf=(maxcycle=1)
 ----------------------------------------------------------------------
 -----
 title
 -----
 Structure from the checkpoint file:  "isopropylcyclopropane.chk"
 Charge =  0 Multiplicity = 1

                         Standard orientation:
 ---------------------------------------------------------------------
 Center     Atomic      Atomic             Coordinates (Angstroms)
 Number     Number       Type             X           Y           Z
 ---------------------------------------------------------------------
      1          6           0        0.467629    0.583634   -0.000000
      2          6           0       -0.031191    1.784928    0.753865
      3          6           0       -0.031191    1.784928   -0.753865
      4          6           0       -0.315789   -0.714728    0.000000
      5          6           0       -0.031191   -1.532744    1.263884
      6          6           0       -0.031191   -1.532744   -1.263884
      7          1           0        1.544280    0.445861    0.000000
      8          1           0       -0.986654    1.703209   -1.255077
      9          1           0        0.685059    2.411395    1.266643
     10          1           0        0.685059    2.411395   -1.266643
     11          1           0       -0.986654    1.703209    1.255077
     12          1           0       -0.623644   -2.449214    1.283788
     13          1           0       -0.623644   -2.449214   -1.283788
     14          1           0       -0.260425   -0.962286   -2.164879
     15          1           0       -0.260425   -0.962286    2.164879
     16          1           0        1.022414   -1.819061   -1.310538
     17          1           0        1.022414   -1.819061    1.310538
     18          1           0       -1.380233   -0.453598   -0.000000
 ---------------------------------------------------------------------

 SCF Done:  E(RHF) =  -234.266150383     A.U. after    2 cycles

 The electronic state is 1-A'.
 Alpha  occ. eigenvalues --  -11.23377 -11.23157 -11.22778 -11.22732 -11.21736
 Alpha  occ. eigenvalues --  -11.21728  -1.13581  -1.04200  -0.92291  -0.84208
 Alpha  occ. eigenvalues --   -0.81678  -0.75985  -0.65955  -0.63928  -0.59693
 Alpha  occ. eigenvalues --   -0.56365  -0.55671  -0.53361  -0.51131  -0.48476
 Alpha  occ. eigenvalues --   -0.48332  -0.46141  -0.41148  -0.40270
 Alpha virt. eigenvalues --    0.03691   0.04312   0.04418   0.04656   0.06457
 Alpha virt. eigenvalues --    0.06519   0.06712   0.06943   0.07241   0.08814
 Alpha virt. eigenvalues --    0.09424   0.09459   0.12913   0.13269   0.13862

 Mulliken charges:
               1
     1  C    0.580699
     2  C    0.747346
     3  C    0.747346
     4  C   -1.280789
     5  C    0.769124
     6  C    0.769124
     7  H   -0.485285
     8  H   -0.374259
     9  H   -0.344284
    10  H   -0.344284
    11  H   -0.374259
    12  H   -0.061736
    13  H   -0.061736
    14  H   -0.071432
    15  H   -0.071432
    16  H   -0.012976
    17  H   -0.012976
    18  H   -0.118191
 Sum of Mulliken charges =  -0.00000

 Dipole moment (field-independent basis, Debye):
    X=             -0.0094    Y=             -0.0387    Z=              0.0000  Tot=              0.0398

 Test job not archived.
 1\1\GINC-SE185\SP\RHF\Aug-CC-pVDZ\C6H12\OHZDE\05-Apr-2025\0\\#t hf aug
 -cc-pvdz iop(5/13=1,5/36=2,99/5=2) pseudo=read geom=check guess=(read,
 tcheck) scf=(maxcycle=1)\\title\\0,1\C,0,0.467629,0.583634,0.\C,0,-0.0
 31191,1.784928,0.753865\C,0,-0.031191,1.784928,-0.753865\C,0,-0.315789
 ,-0.714728,0.\C,0,-0.031191,-1.532744,1.263884\C,0,-0.031191,-1.532744
 ,-1.263884\H,0,1.54428,0.445861,0.\H,0,-0.986654,1.703209,-1.255077\H,
 0,0.685059,2.411395,1.266643\H,0,0.685059,2.411395,-1.266643\H,0,-0.98
 6654,1.703209,1.255077\H,0,-0.623644,-2.449214,1.283788\H,0,-0.623644,

 Normal termination of Gaussian 16 at Sat Apr  5 23:00:38 2025.
