 Gaussian 16, Revision C.01,

 ----------------------------------------------------------------------
 #t hf aug-cc-pvdz symm=none int=(grid=ultrafine) guess=(read,tcheck) s
 table=(opt,rrhf)
 ----------------------------------------------------------------------
 -----
 title
 -----
 Symbolic Z-matrix:
 Charge =  0 Multiplicity = 1

 SCF Done:  E(RHF) =  -396.609586974     A.U. after   15 cycles
 Normal termination of Gaussian 16 at Sat Apr  5 23:00:29 2025.
 Gaussian 16:  ES64L-G16RevC.01  3-Jul-2019

 ----------------------------------------------------------------------
 #t hf aug-cc-pvdz iop(5/13=1,5/36=2,99/5=2) pseudo=read geom=check gue
 ss=(read,tcheck) scf=(maxcycle=1)
 ----------------------------------------------------------------------
 -----
 title
 -----
 Structure from the checkpoint file:  "isopropyl_nitrate.chk"
 Charge =  0 Multiplicity = 1

                         Standard orientation:
 ---------------------------------------------------------------------
 Center     Atomic      Atomic             Coordinates (Angstroms)
 Number     Number       Type             X           Y           Z
 ---------------------------------------------------------------------
      1          7           0        1.373307   -0.063009    0.041264
      2          8           0        1.396548    0.879733    0.795043
      3          8           0        2.285464   -0.632107   -0.489189
      4          8           0        0.119309   -0.621395   -0.286499
      5          6           0       -1.052332    0.063916    0.267361
      6          6           0       -1.394970    1.283353   -0.571030
      7          6           0       -2.136583   -0.999878    0.268157
      8          1           0       -0.806612    0.356435    1.286240
      9          1           0       -0.581577    2.006220   -0.570003
     10          1           0       -1.610830    0.992297   -1.599382
     11          1           0       -2.278986    1.772046   -0.159761
     12          1           0       -1.843059   -1.856641    0.872465
     13          1           0       -3.052372   -0.580247    0.684532
     14          1           0       -2.346969   -1.343252   -0.744705
 ---------------------------------------------------------------------

 SCF Done:  E(RHF) =  -396.735160321     A.U. after    2 cycles

 The electronic state is 1-A.
 Alpha  occ. eigenvalues --  -20.67487 -20.64188 -20.64090 -15.98534 -11.32874
 Alpha  occ. eigenvalues --  -11.25162 -11.24688  -1.60827  -1.41259  -1.38329
 Alpha  occ. eigenvalues --   -1.08856  -0.96516  -0.92627  -0.83650  -0.80884
 Alpha  occ. eigenvalues --   -0.78375  -0.76777  -0.66038  -0.65453  -0.61254
 Alpha  occ. eigenvalues --   -0.58131  -0.57190  -0.55073  -0.54290  -0.53385
 Alpha  occ. eigenvalues --   -0.51515  -0.50438  -0.49386
 Alpha virt. eigenvalues --    0.03025   0.04216   0.04533   0.05492   0.06989
 Alpha virt. eigenvalues --    0.07163   0.07341   0.09124   0.10768   0.12073
 Alpha virt. eigenvalues --    0.13186   0.14121   0.14720   0.15814   0.16326

 Mulliken charges:
               1
     1  N    0.813425
     2  O   -0.430717
     3  O   -0.455756
     4  O   -0.572527
     5  C   -0.037580
     6  C    0.339663
     7  C    0.537478
     8  H   -0.102744
     9  H   -0.056858
    10  H    0.023781
    11  H    0.006354
    12  H   -0.063242
    13  H    0.005457
    14  H   -0.006734
 Sum of Mulliken charges =  -0.00000

 Dipole moment (field-independent basis, Debye):
    X=             -4.0904    Y=              0.4542    Z=              0.4573  Tot=              4.1409

 Test job not archived.
 1\1\GINC-SE196\SP\RHF\Aug-CC-pVDZ\C3H7N1O3\OHZDE\05-Apr-2025\0\\#t hf
 aug-cc-pvdz iop(5/13=1,5/36=2,99/5=2) pseudo=read geom=check guess=(re
 ad,tcheck) scf=(maxcycle=1)\\title\\0,1\N,0,1.373307,-0.063009,0.04126
 4\O,0,1.396548,0.879733,0.795043\O,0,2.285464,-0.632107,-0.489189\O,0,
 0.119309,-0.621395,-0.286499\C,0,-1.052332,0.063916,0.267361\C,0,-1.39
 497,1.283353,-0.57103\C,0,-2.136583,-0.999878,0.268157\H,0,-0.806612,0
 .356435,1.28624\H,0,-0.581577,2.00622,-0.570003\H,0,-1.61083,0.992297,
 -1.599382\H,0,-2.278986,1.772046,-0.159761\H,0,-1.843059,-1.856641,0.8

 Normal termination of Gaussian 16 at Sat Apr  5 23:00:34 2025.
