 Gaussian 16, Revision C.01,

 ----------------------------------------------------------------------
 #t hf aug-cc-pvdz symm=none int=(grid=ultrafine) guess=(read,tcheck) s
 table=(opt,rrhf)
 ----------------------------------------------------------------------
 -----
 title
 -----
 Symbolic Z-matrix:
 Charge =  0 Multiplicity = 1

 SCF Done:  E(RHF) =  -399.390820874     A.U. after   16 cycles
 Normal termination of Gaussian 16 at Sat Apr  5 23:01:27 2025.
 Gaussian 16:  ES64L-G16RevC.01  3-Jul-2019

 ----------------------------------------------------------------------
 #t hf aug-cc-pvdz iop(5/13=1,5/36=2,99/5=2) pseudo=read geom=check gue
 ss=(read,tcheck) scf=(maxcycle=1)
 ----------------------------------------------------------------------
 -----
 title
 -----
 Structure from the checkpoint file:  "isoquinoline.chk"
 Charge =  0 Multiplicity = 1

                         Standard orientation:
 ---------------------------------------------------------------------
 Center     Atomic      Atomic             Coordinates (Angstroms)
 Number     Number       Type             X           Y           Z
 ---------------------------------------------------------------------
      1          7           0       -2.411694    0.770500   -0.000000
      2          6           0       -1.247199    1.371403   -0.000000
      3          6           0        0.000000    0.696957    0.000000
      4          6           0       -0.018996   -0.725328   -0.000000
      5          6           0       -1.285073   -1.354625   -0.000000
      6          6           0       -2.419419   -0.587737   -0.000000
      7          6           0        1.211455   -1.424550    0.000000
      8          6           0        2.397856   -0.737303    0.000000
      9          6           0        2.414486    0.675356    0.000000
     10          6           0        1.238322    1.379037    0.000000
     11          1           0       -1.255568    2.457887   -0.000000
     12          1           0       -1.354484   -2.434581   -0.000000
     13          1           0       -3.398779   -1.049785   -0.000000
     14          1           0        1.202991   -2.506847    0.000000
     15          1           0        3.334572   -1.278500    0.000000
     16          1           0        3.361605    1.197408    0.000000
     17          1           0        1.242936    2.461653    0.000000
 ---------------------------------------------------------------------

 SCF Done:  E(RHF) =  -399.505191476     A.U. after    2 cycles

 The electronic state is 1-A'.
 Alpha  occ. eigenvalues --  -15.63009 -11.29199 -11.27965 -11.26993 -11.26197
 Alpha  occ. eigenvalues --  -11.26184 -11.25889 -11.25542 -11.25515 -11.24843
 Alpha  occ. eigenvalues --   -1.23455  -1.15477  -1.06710  -1.04174  -1.00111
 Alpha  occ. eigenvalues --   -0.88330  -0.86328  -0.83323  -0.72765  -0.72325
 Alpha  occ. eigenvalues --   -0.69233  -0.64369  -0.63283  -0.60632  -0.60267
 Alpha  occ. eigenvalues --   -0.56293  -0.56248  -0.53183  -0.49945  -0.48503
 Alpha  occ. eigenvalues --   -0.41361  -0.40498  -0.34994  -0.30771
 Alpha virt. eigenvalues --    0.02985   0.03503   0.04132   0.05109   0.05519
 Alpha virt. eigenvalues --    0.06531   0.07436   0.07797   0.08203   0.09159
 Alpha virt. eigenvalues --    0.10066   0.10967   0.12332   0.12743   0.12889

 Mulliken charges:
               1
     1  N   -0.517007
     2  C    0.556973
     3  C    0.742795
     4  C   -0.631426
     5  C    1.098661
     6  C    0.397930
     7  C    0.768802
     8  C    0.240140
     9  C    0.226474
    10  C    0.472201
    11  H   -0.446160
    12  H   -0.504119
    13  H   -0.354159
    14  H   -0.568688
    15  H   -0.461782
    16  H   -0.469204
    17  H   -0.551430
 Sum of Mulliken charges =  -0.00000

 Dipole moment (field-independent basis, Debye):
    X=              2.3748    Y=             -0.8519    Z=             -0.0000  Tot=              2.5230

 Test job not archived.
 1\1\GINC-SE194\SP\RHF\Aug-CC-pVDZ\C9H7N1\OHZDE\05-Apr-2025\0\\#t hf au
 g-cc-pvdz iop(5/13=1,5/36=2,99/5=2) pseudo=read geom=check guess=(read
 ,tcheck) scf=(maxcycle=1)\\title\\0,1\N,0,-2.411694,0.7705,0.\C,0,-1.2
 47199,1.371403,0.\C,0,0.,0.696957,0.\C,0,-0.018996,-0.725328,0.\C,0,-1
 .285073,-1.354625,0.\C,0,-2.419419,-0.587737,0.\C,0,1.211455,-1.42455,
 0.\C,0,2.397856,-0.737303,0.\C,0,2.414486,0.675356,0.\C,0,1.238322,1.3
 79037,0.\H,0,-1.255568,2.457887,0.\H,0,-1.354484,-2.434581,0.\H,0,-3.3
 98779,-1.049786,0.\H,0,1.202991,-2.506847,0.\H,0,3.334572,-1.2785,0.\H

 Normal termination of Gaussian 16 at Sat Apr  5 23:02:21 2025.
