 Gaussian 16, Revision C.01,

 ----------------------------------------------------------------------
 #t hf aug-cc-pvdz symm=none int=(grid=ultrafine) guess=(read,tcheck) s
 table=(opt,rrhf)
 ----------------------------------------------------------------------
 -----
 title
 -----
 Symbolic Z-matrix:
 Charge =  0 Multiplicity = 1

 SCF Done:  E(RHF) =  -567.322866073     A.U. after   15 cycles
 Normal termination of Gaussian 16 at Sat Apr  5 23:00:04 2025.
 Gaussian 16:  ES64L-G16RevC.01  3-Jul-2019

 ----------------------------------------------------------------------
 #t hf aug-cc-pvdz iop(5/13=1,5/36=2,99/5=2) pseudo=read geom=check gue
 ss=(read,tcheck) scf=(maxcycle=1)
 ----------------------------------------------------------------------
 -----
 title
 -----
 Structure from the checkpoint file:  "isothiazole.chk"
 Charge =  0 Multiplicity = 1

                         Standard orientation:
 ---------------------------------------------------------------------
 Center     Atomic      Atomic             Coordinates (Angstroms)
 Number     Number       Type             X           Y           Z
 ---------------------------------------------------------------------
      1          6           0        0.654473   -1.275757    0.000000
      2          6           0       -0.759568   -1.159013    0.000000
      3          6           0        1.232534   -0.038075    0.000000
      4          7           0       -1.256067    0.058336    0.000000
      5         16           0        0.000000    1.151175    0.000000
      6          1           0        1.194557   -2.209548    0.000000
      7          1           0       -1.446653   -1.995169    0.000000
      8          1           0        2.279932    0.214642    0.000000
 ---------------------------------------------------------------------

 SCF Done:  E(RHF) =  -567.398351720     A.U. after    2 cycles

 The electronic state is 1-A'.
 Alpha  occ. eigenvalues --  -93.59342 -15.65767 -11.29679 -11.29656 -11.25942
 Alpha  occ. eigenvalues --   -8.88897  -6.23028  -6.22848  -6.22475  -1.25153
 Alpha  occ. eigenvalues --   -1.05592  -0.99901  -0.79817  -0.77372  -0.71047
 Alpha  occ. eigenvalues --   -0.59269  -0.58228  -0.56394  -0.49062  -0.44906
 Alpha  occ. eigenvalues --   -0.37868  -0.35809
 Alpha virt. eigenvalues --    0.03093   0.03980   0.05381   0.07633   0.08270
 Alpha virt. eigenvalues --    0.09765   0.10953   0.12716   0.12771   0.13311
 Alpha virt. eigenvalues --    0.14029   0.14429   0.14921   0.15518   0.15932

 Mulliken charges:
               1
     1  C    0.666791
     2  C    0.393665
     3  C   -0.242046
     4  N   -0.831542
     5  S    0.879611
     6  H   -0.302538
     7  H   -0.249404
     8  H   -0.314537
 Sum of Mulliken charges =  -0.00000

 Dipole moment (field-independent basis, Debye):
    X=              2.2915    Y=             -1.4579    Z=              0.0000  Tot=              2.7159

 Test job not archived.
 1\1\GINC-SE175\SP\RHF\Aug-CC-pVDZ\C3H3N1S1\OHZDE\05-Apr-2025\0\\#t hf
 aug-cc-pvdz iop(5/13=1,5/36=2,99/5=2) pseudo=read geom=check guess=(re
 ad,tcheck) scf=(maxcycle=1)\\title\\0,1\C,0,0.654473,-1.275757,0.\C,0,
 -0.759568,-1.159013,0.\C,0,1.232534,-0.038075,0.\N,0,-1.256067,0.05833
 6,0.\S,0,0.,1.151175,0.\H,0,1.194557,-2.209548,0.\H,0,-1.446653,-1.995
 169,0.\H,0,2.279932,0.214642,0.\\Version=ES64L-G16RevC.01\State=1-A'\H
 F=-567.3983517\RMSD=9.499e-03\Dipole=0.9015291,-0.573578,0.\Quadrupole
 =0.2274955,2.4289788,-2.6564743,1.3375048,0.,0.\PG=CS [SG(C3H3N1S1)]\\

 Normal termination of Gaussian 16 at Sat Apr  5 23:00:08 2025.
