 Gaussian 16, Revision C.01,

 ----------------------------------------------------------------------
 #t hf aug-cc-pvdz symm=none int=(grid=ultrafine) guess=(read,tcheck) s
 table=(opt,rrhf)
 ----------------------------------------------------------------------
 -----
 title
 -----
 Symbolic Z-matrix:
 Charge =  0 Multiplicity = 1

 SCF Done:  E(RHF) =  -604.335378104     A.U. after   15 cycles
 Normal termination of Gaussian 16 at Sat Apr  5 23:00:05 2025.
 Gaussian 16:  ES64L-G16RevC.01  3-Jul-2019

 ----------------------------------------------------------------------
 #t hf aug-cc-pvdz iop(5/13=1,5/36=2,99/5=2) pseudo=read geom=check gue
 ss=(read,tcheck) scf=(maxcycle=1)
 ----------------------------------------------------------------------
 -----
 title
 -----
 Structure from the checkpoint file:  "isothiocyanatomethanol.chk"
 Charge =  0 Multiplicity = 1

                         Standard orientation:
 ---------------------------------------------------------------------
 Center     Atomic      Atomic             Coordinates (Angstroms)
 Number     Number       Type             X           Y           Z
 ---------------------------------------------------------------------
      1         16           0        2.147620    0.209811    0.031553
      2          8           0       -2.177251    0.884502    0.079532
      3          7           0       -0.449502   -0.736185   -0.147699
      4          6           0        0.650412   -0.289749   -0.045393
      5          6           0       -1.845506   -0.478904    0.091503
      6          1           0       -2.115777    1.223264   -0.819967
      7          1           0       -2.414295   -1.043253   -0.649351
      8          1           0       -2.096761   -0.847779    1.085447
 ---------------------------------------------------------------------

 SCF Done:  E(RHF) =  -604.420373762     A.U. after    2 cycles

 The electronic state is 1-A.
 Alpha  occ. eigenvalues --  -93.53529 -20.61105 -15.67526 -11.39438 -11.37664
 Alpha  occ. eigenvalues --   -8.83461  -6.17769  -6.17094  -6.17046  -1.37288
 Alpha  occ. eigenvalues --   -1.25700  -1.04554  -0.97772  -0.79073  -0.72457
 Alpha  occ. eigenvalues --   -0.68152  -0.61147  -0.59188  -0.55603  -0.53921
 Alpha  occ. eigenvalues --   -0.51758  -0.37058  -0.35833
 Alpha virt. eigenvalues --    0.02737   0.04404   0.05209   0.06969   0.08641
 Alpha virt. eigenvalues --    0.10008   0.10892   0.11945   0.12364   0.12733
 Alpha virt. eigenvalues --    0.14128   0.14833   0.16120   0.17461   0.18098

 Mulliken charges:
               1
     1  S    0.207640
     2  O   -0.493978
     3  N   -0.233339
     4  C   -0.481722
     5  C    1.183884
     6  H    0.142123
     7  H   -0.158663
     8  H   -0.165945
 Sum of Mulliken charges =  -0.00000

 Dipole moment (field-independent basis, Debye):
    X=             -2.7565    Y=             -0.8357    Z=             -1.1610  Tot=              3.1056

 Test job not archived.
 1\1\GINC-SE180\SP\RHF\Aug-CC-pVDZ\C2H3N1O1S1\OHZDE\05-Apr-2025\0\\#t h
 f aug-cc-pvdz iop(5/13=1,5/36=2,99/5=2) pseudo=read geom=check guess=(
 read,tcheck) scf=(maxcycle=1)\\title\\0,1\S,0,2.14762,0.209811,0.03155
 3\O,0,-2.177251,0.884502,0.079532\N,0,-0.449502,-0.736185,-0.147699\C,
 0,0.650412,-0.289749,-0.045393\C,0,-1.845506,-0.478904,0.091503\H,0,-2
 .115777,1.223264,-0.819967\H,0,-2.414295,-1.043253,-0.649351\H,0,-2.09
 6761,-0.847779,1.085447\\Version=ES64L-G16RevC.01\State=1-A\HF=-604.42
 03738\RMSD=4.975e-03\Dipole=-1.0844922,-0.3287915,-0.4567837\Quadrupol

 Normal termination of Gaussian 16 at Sat Apr  5 23:00:09 2025.
