 Gaussian 16, Revision C.01,

 ----------------------------------------------------------------------
 #t hf aug-cc-pvdz symm=none int=(grid=ultrafine) guess=(read,tcheck) s
 table=(opt,rrhf)
 ----------------------------------------------------------------------
 -----
 title
 -----
 Symbolic Z-matrix:
 Charge =  0 Multiplicity = 1

 SCF Done:  E(RHF) =  -621.194693441     A.U. after   15 cycles
 Normal termination of Gaussian 16 at Sat Apr  5 23:00:05 2025.
 Gaussian 16:  ES64L-G16RevC.01  3-Jul-2019

 ----------------------------------------------------------------------
 #t hf aug-cc-pvdz iop(5/13=1,5/36=2,99/5=2) pseudo=read geom=check gue
 ss=(read,tcheck) scf=(maxcycle=1)
 ----------------------------------------------------------------------
 -----
 title
 -----
 Structure from the checkpoint file:  "isothiocyanatoacetonitrile.chk"
 Charge =  0 Multiplicity = 1

                         Standard orientation:
 ---------------------------------------------------------------------
 Center     Atomic      Atomic             Coordinates (Angstroms)
 Number     Number       Type             X           Y           Z
 ---------------------------------------------------------------------
      1         16           0        2.278497   -0.427178   -0.000076
      2          7           0       -0.046708    1.072004   -0.000069
      3          7           0       -2.433025   -1.423286   -0.000046
      4          6           0       -1.477822    1.012116    0.000203
      5          6           0       -2.013110   -0.354003    0.000063
      6          6           0        0.927544    0.377873   -0.000052
      7          1           0       -1.858915    1.539109   -0.876755
      8          1           0       -1.858578    1.538797    0.877498
 ---------------------------------------------------------------------

 SCF Done:  E(RHF) =  -621.281081283     A.U. after    2 cycles

 The electronic state is 1-A.
 Alpha  occ. eigenvalues --  -93.55319 -15.69628 -15.66776 -11.41227 -11.38020
 Alpha  occ. eigenvalues --  -11.31292  -8.85246  -6.19547  -6.18885  -6.18819
 Alpha  occ. eigenvalues --   -1.29271  -1.21937  -1.09446  -1.02282  -0.81319
 Alpha  occ. eigenvalues --   -0.72690  -0.70363  -0.61270  -0.58517  -0.56189
 Alpha  occ. eigenvalues --   -0.55902  -0.49658  -0.48800  -0.38876  -0.37400
 Alpha virt. eigenvalues --    0.02279   0.04214   0.06199   0.06800   0.07489
 Alpha virt. eigenvalues --    0.08778   0.10888   0.10931   0.11726   0.11930
 Alpha virt. eigenvalues --    0.12439   0.12650   0.13802   0.15332   0.16198

 Mulliken charges:
               1
     1  S    0.254582
     2  N   -0.283663
     3  N   -0.195606
     4  C    0.939930
     5  C   -0.186756
     6  C   -0.471671
     7  H   -0.028434
     8  H   -0.028382
 Sum of Mulliken charges =  -0.00000

 Dipole moment (field-independent basis, Debye):
    X=             -1.0627    Y=              3.5609    Z=              0.0007  Tot=              3.7161

 Test job not archived.
 1\1\GINC-SE177\SP\RHF\Aug-CC-pVDZ\C3H2N2S1\OHZDE\05-Apr-2025\0\\#t hf
 aug-cc-pvdz iop(5/13=1,5/36=2,99/5=2) pseudo=read geom=check guess=(re
 ad,tcheck) scf=(maxcycle=1)\\title\\0,1\S,0,2.278497,-0.427178,-0.0000
 76\N,0,-0.046708,1.072004,-0.000069\N,0,-2.433025,-1.423286,-0.000046\
 C,0,-1.477822,1.012116,0.000203\C,0,-2.01311,-0.354003,0.000063\C,0,0.
 927544,0.377873,-0.000052\H,0,-1.858915,1.539109,-0.876755\H,0,-1.8585
 78,1.538797,0.877498\\Version=ES64L-G16RevC.01\State=1-A\HF=-621.28108
 13\RMSD=5.416e-03\Dipole=-0.4181131,1.4009735,0.0002865\Quadrupole=-1.

 Normal termination of Gaussian 16 at Sat Apr  5 23:00:08 2025.
