 Gaussian 16, Revision C.01,

 ----------------------------------------------------------------------
 #t hf aug-cc-pvdz symm=none int=(grid=ultrafine) guess=(read,tcheck) s
 table=(opt,rrhf)
 ----------------------------------------------------------------------
 -----
 title
 -----
 Symbolic Z-matrix:
 Charge =  0 Multiplicity = 1

 SCF Done:  E(RHF) =  -244.620940629     A.U. after   15 cycles
 Normal termination of Gaussian 16 at Sat Apr  5 23:00:05 2025.
 Gaussian 16:  ES64L-G16RevC.01  3-Jul-2019

 ----------------------------------------------------------------------
 #t hf aug-cc-pvdz iop(5/13=1,5/36=2,99/5=2) pseudo=read geom=check gue
 ss=(read,tcheck) scf=(maxcycle=1)
 ----------------------------------------------------------------------
 -----
 title
 -----
 Structure from the checkpoint file:  "isoxazole.chk"
 Charge =  0 Multiplicity = 1

                         Standard orientation:
 ---------------------------------------------------------------------
 Center     Atomic      Atomic             Coordinates (Angstroms)
 Number     Number       Type             X           Y           Z
 ---------------------------------------------------------------------
      1          6           0        1.121838    0.366816    0.000000
      2          6           0        0.615592   -0.959856    0.000000
      3          6           0       -0.000000    1.124633    0.000000
      4          7           0       -0.689000   -0.992693    0.000000
      5          8           0       -1.091411    0.346235    0.000000
      6          1           0        2.145312    0.693430    0.000000
      7          1           0        1.160098   -1.890521    0.000000
      8          1           0       -0.175703    2.186501    0.000000
 ---------------------------------------------------------------------

 SCF Done:  E(RHF) =  -244.695093911     A.U. after    2 cycles

 The electronic state is 1-A'.
 Alpha  occ. eigenvalues --  -20.66492 -15.69418 -11.33269 -11.29683 -11.25553
 Alpha  occ. eigenvalues --   -1.45505  -1.15309  -1.06987  -0.84393  -0.82177
 Alpha  occ. eigenvalues --   -0.75380  -0.67190  -0.63100  -0.59760  -0.58303
 Alpha  occ. eigenvalues --   -0.48220  -0.43958  -0.37354
 Alpha virt. eigenvalues --    0.02935   0.03797   0.05165   0.08954   0.10114
 Alpha virt. eigenvalues --    0.10134   0.10386   0.12560   0.13058   0.13607
 Alpha virt. eigenvalues --    0.14711   0.15767   0.15960   0.16894   0.19775

 Mulliken charges:
               1
     1  C    0.500028
     2  C    0.467862
     3  C    0.531842
     4  N   -0.185210
     5  O   -0.586210
     6  H   -0.284288
     7  H   -0.186784
     8  H   -0.257240
 Sum of Mulliken charges =   0.00000

 Dipole moment (field-independent basis, Debye):
    X=              3.0718    Y=              1.4605    Z=              0.0000  Tot=              3.4013

 Test job not archived.
 1\1\GINC-SE199\SP\RHF\Aug-CC-pVDZ\C3H3N1O1\OHZDE\05-Apr-2025\0\\#t hf
 aug-cc-pvdz iop(5/13=1,5/36=2,99/5=2) pseudo=read geom=check guess=(re
 ad,tcheck) scf=(maxcycle=1)\\title\\0,1\C,0,1.121838,0.366816,0.\C,0,0
 .615592,-0.959856,0.\C,0,0.,1.124633,0.\N,0,-0.689,-0.992693,0.\O,0,-1
 .091411,0.346235,0.\H,0,2.145312,0.69343,0.\H,0,1.160098,-1.890521,0.\
 H,0,-0.175703,2.186501,0.\\Version=ES64L-G16RevC.01\State=1-A'\HF=-244
 .6950939\RMSD=6.695e-03\Dipole=1.2085425,0.5745884,0.\Quadrupole=-0.67
 36209,2.5804698,-1.9068489,-2.1658707,0.,0.\PG=CS [SG(C3H3N1O1)]\\@

 Normal termination of Gaussian 16 at Sat Apr  5 23:00:08 2025.
