 Gaussian 16, Revision C.01,

 ----------------------------------------------------------------------
 #t hf aug-cc-pvdz symm=none int=(grid=ultrafine) guess=(read,tcheck) s
 table=(opt,rrhf)
 ----------------------------------------------------------------------
 -----
 title
 -----
 Symbolic Z-matrix:
 Charge =  0 Multiplicity = 1

 SCF Done:  E(RHF) =  -151.748452924     A.U. after   12 cycles
 Normal termination of Gaussian 16 at Sat Apr  5 22:59:03 2025.
 Gaussian 16:  ES64L-G16RevC.01  3-Jul-2019

 ----------------------------------------------------------------------
 #t hf aug-cc-pvdz iop(5/13=1,5/36=2,99/5=2) pseudo=read geom=check gue
 ss=(read,tcheck) scf=(maxcycle=1)
 ----------------------------------------------------------------------
 -----
 title
 -----
 Structure from the checkpoint file:  "ketene.chk"
 Charge =  0 Multiplicity = 1

                         Standard orientation:
 ---------------------------------------------------------------------
 Center     Atomic      Atomic             Coordinates (Angstroms)
 Number     Number       Type             X           Y           Z
 ---------------------------------------------------------------------
      1          6           0        0.000000   -0.000000   -1.205838
      2          6           0        0.000000    0.000000    0.102176
      3          8           0        0.000000    0.000000    1.262386
      4          1           0        0.000000    0.937241   -1.738559
      5          1           0       -0.000000   -0.937241   -1.738559
 ---------------------------------------------------------------------

 SCF Done:  E(RHF) =  -151.799291660     A.U. after    2 cycles

 The electronic state is 1-A1.
 Alpha  occ. eigenvalues --  -20.64626 -11.39949 -11.25193  -1.44293  -1.05264
 Alpha  occ. eigenvalues --   -0.77191  -0.68953  -0.66780  -0.66179  -0.57409
 Alpha  occ. eigenvalues --   -0.37412
 Alpha virt. eigenvalues --    0.03400   0.04863   0.07059   0.10281   0.10809
 Alpha virt. eigenvalues --    0.12378   0.12442   0.13941   0.15517   0.17509
 Alpha virt. eigenvalues --    0.21502   0.21934   0.24771   0.28091   0.28831

 Mulliken charges:
               1
     1  C    0.702025
     2  C   -0.108875
     3  O   -0.237635
     4  H   -0.177758
     5  H   -0.177758
 Sum of Mulliken charges =  -0.00000

 Dipole moment (field-independent basis, Debye):
    X=              0.0000    Y=              0.0000    Z=             -2.0397  Tot=              2.0397

 Test job not archived.
 1\1\GINC-SE213\SP\RHF\Aug-CC-pVDZ\C2H2O1\OHZDE\05-Apr-2025\0\\#t hf au
 g-cc-pvdz iop(5/13=1,5/36=2,99/5=2) pseudo=read geom=check guess=(read
 ,tcheck) scf=(maxcycle=1)\\title\\0,1\C,0,0.,0.,-1.205838\C,0,0.,0.,0.
 102176\O,0,0.,0.,1.262386\H,0,0.,0.937241,-1.738559\H,0,0.,-0.937241,-
 1.738559\\Version=ES64L-G16RevC.01\State=1-A1\HF=-151.7992917\RMSD=5.1
 26e-03\Dipole=0.,0.,-0.8024915\Quadrupole=-1.0740807,1.7779873,-0.7039
 066,0.,0.,0.\PG=C02V [C2(C1C1O1),SGV(H2)]\\@

 Normal termination of Gaussian 16 at Sat Apr  5 22:59:58 2025.
