 Gaussian 16, Revision C.01,

 ----------------------------------------------------------------------
 #t hf aug-cc-pvdz symm=none int=(grid=ultrafine) guess=(read,tcheck) s
 table=(opt,rrhf)
 ----------------------------------------------------------------------
 -----
 title
 -----
 Symbolic Z-matrix:
 Charge =  0 Multiplicity = 1

 SCF Done:  E(RHF) =  -439.035099220     A.U. after   14 cycles
 Normal termination of Gaussian 16 at Sat Apr  5 23:01:10 2025.
 Gaussian 16:  ES64L-G16RevC.01  3-Jul-2019

 ----------------------------------------------------------------------
 #t hf aug-cc-pvdz iop(5/13=1,5/36=2,99/5=2) pseudo=read geom=check gue
 ss=(read,tcheck) scf=(maxcycle=1)
 ----------------------------------------------------------------------
 -----
 title
 -----
 Structure from the checkpoint file:  "leucine.chk"
 Charge =  0 Multiplicity = 1

                         Standard orientation:
 ---------------------------------------------------------------------
 Center     Atomic      Atomic             Coordinates (Angstroms)
 Number     Number       Type             X           Y           Z
 ---------------------------------------------------------------------
      1          7           0        0.889792    1.733167   -0.084168
      2          6           0        0.653062    0.324866    0.279326
      3          6           0        1.942908   -0.495104    0.057054
      4          8           0        1.987940   -1.690661    0.174653
      5          8           0        3.015494    0.245946   -0.248211
      6          1           0        2.687089    1.172239   -0.274368
      7          6           0       -0.530559   -0.332551   -0.440004
      8          6           0       -1.916908    0.221973   -0.078321
      9          6           0       -2.973038   -0.350115   -1.029174
     10          6           0       -2.296085   -0.059131    1.378824
     11          1           0        0.489109    0.281675    1.357974
     12          1           0       -0.369734   -0.225663   -1.518607
     13          1           0       -0.496406   -1.403150   -0.233024
     14          1           0       -1.902453    1.308771   -0.219438
     15          1           0       -3.962107    0.053227   -0.807413
     16          1           0       -2.741372   -0.116292   -2.069654
     17          1           0       -3.029551   -1.437289   -0.938398
     18          1           0       -3.288045    0.335699    1.602720
     19          1           0       -2.313437   -1.133743    1.574081
     20          1           0       -1.600962    0.393952    2.087128
     21          1           0        0.485395    1.959508   -0.984328
     22          1           0        0.510182    2.376995    0.594739
 ---------------------------------------------------------------------

 SCF Done:  E(RHF) =  -439.172717044     A.U. after    2 cycles

 The electronic state is 1-A.
 Alpha  occ. eigenvalues --  -20.60616 -20.54761 -15.64753 -11.38516 -11.30034
 Alpha  occ. eigenvalues --  -11.25131 -11.24559 -11.23424 -11.23249  -1.40895
 Alpha  occ. eigenvalues --   -1.31907  -1.19255  -1.09116  -0.99890  -0.93996
 Alpha  occ. eigenvalues --   -0.89959  -0.81635  -0.78398  -0.74118  -0.70108
 Alpha  occ. eigenvalues --   -0.67601  -0.64347  -0.63104  -0.63006  -0.61315
 Alpha  occ. eigenvalues --   -0.58502  -0.55794  -0.55352  -0.54889  -0.52432
 Alpha  occ. eigenvalues --   -0.49258  -0.48532  -0.47870  -0.47287  -0.46792
 Alpha  occ. eigenvalues --   -0.41840
 Alpha virt. eigenvalues --    0.02237   0.03447   0.03742   0.04615   0.05858
 Alpha virt. eigenvalues --    0.05874   0.06372   0.06838   0.07451   0.08538
 Alpha virt. eigenvalues --    0.08821   0.09427   0.09834   0.11307   0.12911

 Mulliken charges:
               1
     1  N   -0.594227
     2  C    0.067392
     3  C    0.687345
     4  O   -0.486472
     5  O   -0.480781
     6  H    0.268794
     7  C    0.712489
     8  C   -1.260978
     9  C    0.938253
    10  C    0.816317
    11  H    0.006103
    12  H   -0.125471
    13  H   -0.153624
    14  H   -0.220507
    15  H   -0.038253
    16  H   -0.083196
    17  H   -0.009151
    18  H   -0.081785
    19  H   -0.004075
    20  H   -0.121662
    21  H    0.090541
    22  H    0.072947
 Sum of Mulliken charges =   0.00000

 Dipole moment (field-independent basis, Debye):
    X=             -4.1711    Y=              4.6122    Z=              0.0256  Tot=              6.2186

 Test job not archived.
 1\1\GINC-SE231\SP\RHF\Aug-CC-pVDZ\C6H13N1O2\OHZDE\05-Apr-2025\0\\#t hf
  aug-cc-pvdz iop(5/13=1,5/36=2,99/5=2) pseudo=read geom=check guess=(r
 ead,tcheck) scf=(maxcycle=1)\\title\\0,1\N,0,0.889792,1.733167,-0.0841
 68\C,0,0.653062,0.324866,0.279326\C,0,1.942908,-0.495104,0.057054\O,0,
 1.98794,-1.690661,0.174653\O,0,3.015494,0.245946,-0.248211\H,0,2.68708
 9,1.172239,-0.274368\C,0,-0.530559,-0.332551,-0.440004\C,0,-1.916908,0
 .221973,-0.078321\C,0,-2.973038,-0.350115,-1.029174\C,0,-2.296085,-0.0
 59131,1.378824\H,0,0.489109,0.281675,1.357974\H,0,-0.369734,-0.225663,

 Normal termination of Gaussian 16 at Sat Apr  5 23:02:24 2025.
