 Gaussian 16, Revision C.01,

 ----------------------------------------------------------------------
 #t hf aug-cc-pvdz symm=none int=(grid=ultrafine) guess=(read,tcheck) s
 table=(opt,rrhf)
 ----------------------------------------------------------------------
 -----
 title
 -----
 Symbolic Z-matrix:
 Charge =  0 Multiplicity = 1

 SCF Done:  E(RHF) =  -494.071349021     A.U. after   14 cycles
 Normal termination of Gaussian 16 at Sat Apr  5 23:03:19 2025.
 Gaussian 16:  ES64L-G16RevC.01  3-Jul-2019

 ----------------------------------------------------------------------
 #t hf aug-cc-pvdz iop(5/13=1,5/36=2,99/5=2) pseudo=read geom=check gue
 ss=(read,tcheck) scf=(maxcycle=1)
 ----------------------------------------------------------------------
 -----
 title
 -----
 Structure from the checkpoint file:  "lysine.chk"
 Charge =  0 Multiplicity = 1

                         Standard orientation:
 ---------------------------------------------------------------------
 Center     Atomic      Atomic             Coordinates (Angstroms)
 Number     Number       Type             X           Y           Z
 ---------------------------------------------------------------------
      1          7           0        1.748606    1.711717   -0.110623
      2          6           0        1.505536    0.334496    0.352601
      3          6           0        2.743343   -0.539294    0.053037
      4          8           0        2.755177   -1.732408    0.197432
      5          8           0        3.816383    0.153863   -0.349539
      6          1           0        3.520520    1.090385   -0.381692
      7          6           0        0.229447   -0.318859   -0.188199
      8          6           0       -1.059289    0.316065    0.333331
      9          6           0       -2.318639   -0.348453   -0.223242
     10          6           0       -3.608418    0.279792    0.294578
     11          7           0       -4.779870   -0.416009   -0.243436
     12          1           0        1.447816    0.361100    1.444428
     13          1           0        0.251892   -0.273372   -1.283075
     14          1           0        0.258775   -1.376399    0.073343
     15          1           0       -1.070260    0.251414    1.426664
     16          1           0       -1.077545    1.383378    0.090243
     17          1           0       -2.306561   -0.289099   -1.317231
     18          1           0       -2.322972   -1.411934    0.025905
     19          1           0       -3.642216    0.188063    1.382961
     20          1           0       -3.599403    1.356577    0.069884
     21          1           0       -5.636961   -0.050753    0.151625
     22          1           0       -4.841888   -0.299571   -1.247876
     23          1           0        1.314168    1.882851   -1.009374
     24          1           0        1.399106    2.403285    0.536824
 ---------------------------------------------------------------------

 SCF Done:  E(RHF) =  -494.224274363     A.U. after    2 cycles

 The electronic state is 1-A.
 Alpha  occ. eigenvalues --  -20.60689 -20.54857 -15.64815 -15.60996 -11.38605
 Alpha  occ. eigenvalues --  -11.30167 -11.26511 -11.24725 -11.24462 -11.23544
 Alpha  occ. eigenvalues --   -1.40970  -1.31995  -1.19308  -1.15453  -1.07325
 Alpha  occ. eigenvalues --   -1.00271  -0.92904  -0.84800  -0.81420  -0.80756
 Alpha  occ. eigenvalues --   -0.74191  -0.69896  -0.67644  -0.67112  -0.65181
 Alpha  occ. eigenvalues --   -0.63311  -0.62875  -0.61165  -0.59410  -0.57687
 Alpha  occ. eigenvalues --   -0.55063  -0.53712  -0.51134  -0.49561  -0.48917
 Alpha  occ. eigenvalues --   -0.48270  -0.47769  -0.46945  -0.41967  -0.38970
 Alpha virt. eigenvalues --    0.02163   0.03136   0.03415   0.04481   0.05071
 Alpha virt. eigenvalues --    0.05157   0.06250   0.07002   0.07482   0.07635
 Alpha virt. eigenvalues --    0.08963   0.09501   0.10060   0.10427   0.11745

 Mulliken charges:
               1
     1  N   -0.614366
     2  C    0.228483
     3  C    0.721952
     4  O   -0.481283
     5  O   -0.489527
     6  H    0.265268
     7  C    0.216693
     8  C    0.279278
     9  C    0.312378
    10  C    1.173962
    11  N   -0.354290
    12  H   -0.013893
    13  H   -0.155687
    14  H   -0.183440
    15  H   -0.161731
    16  H   -0.216225
    17  H   -0.157430
    18  H   -0.118182
    19  H   -0.225396
    20  H   -0.163606
    21  H   -0.026749
    22  H   -0.002585
    23  H    0.085608
    24  H    0.080769
 Sum of Mulliken charges =  -0.00000

 Dipole moment (field-independent basis, Debye):
    X=             -4.1267    Y=              5.8712    Z=             -0.1310  Tot=              7.1776

 Test job not archived.
 1\1\GINC-SE232\SP\RHF\Aug-CC-pVDZ\C6H14N2O2\OHZDE\05-Apr-2025\0\\#t hf
  aug-cc-pvdz iop(5/13=1,5/36=2,99/5=2) pseudo=read geom=check guess=(r
 ead,tcheck) scf=(maxcycle=1)\\title\\0,1\N,0,1.748606,1.711717,-0.1106
 23\C,0,1.505536,0.334496,0.352601\C,0,2.743343,-0.539294,0.053037\O,0,
 2.755177,-1.732408,0.197432\O,0,3.816383,0.153863,-0.349539\H,0,3.5205
 2,1.090385,-0.381692\C,0,0.229447,-0.318859,-0.188199\C,0,-1.059289,0.
 316065,0.333331\C,0,-2.318639,-0.348453,-0.223242\C,0,-3.608418,0.2797
 92,0.294578\N,0,-4.77987,-0.416009,-0.243436\H,0,1.447816,0.3611,1.444

 Normal termination of Gaussian 16 at Sat Apr  5 23:03:51 2025.
