 Gaussian 16, Revision C.01,

 ----------------------------------------------------------------------
 #t hf aug-cc-pvdz symm=none int=(grid=ultrafine) guess=(read,tcheck) s
 table=(opt,rrhf)
 ----------------------------------------------------------------------
 -----
 title
 -----
 Symbolic Z-matrix:
 Charge =  0 Multiplicity = 1

 SCF Done:  E(RHF) =  -344.642938276     A.U. after   15 cycles
 Normal termination of Gaussian 16 at Sat Apr  5 23:01:11 2025.
 Gaussian 16:  ES64L-G16RevC.01  3-Jul-2019

 ----------------------------------------------------------------------
 #t hf aug-cc-pvdz iop(5/13=1,5/36=2,99/5=2) pseudo=read geom=check gue
 ss=(read,tcheck) scf=(maxcycle=1)
 ----------------------------------------------------------------------
 -----
 title
 -----
 Structure from the checkpoint file:  "m-cresol.chk"
 Charge =  0 Multiplicity = 1

                         Standard orientation:
 ---------------------------------------------------------------------
 Center     Atomic      Atomic             Coordinates (Angstroms)
 Number     Number       Type             X           Y           Z
 ---------------------------------------------------------------------
      1          6           0        0.151273    1.784647    0.002216
      2          6           0       -1.096568    1.176867   -0.008450
      3          6           0        1.312680    1.021029    0.007796
      4          6           0       -0.038671   -0.979205   -0.009708
      5          6           0       -1.203017   -0.216446   -0.011775
      6          6           0        1.211066   -0.366488    0.000942
      7          6           0       -2.552960   -0.884863    0.009391
      8          8           0        2.309364   -1.184166    0.000798
      9          1           0        0.225667    2.863983    0.002825
     10          1           0       -1.992065    1.784194   -0.016938
     11          1           0        2.285648    1.497705    0.012651
     12          1           0       -0.084931   -2.060188   -0.018605
     13          1           0       -2.509721   -1.885386   -0.419767
     14          1           0       -2.922457   -0.982907    1.033294
     15          1           0       -3.290088   -0.306426   -0.547493
     16          1           0        3.110211   -0.650896    0.005175
 ---------------------------------------------------------------------

 SCF Done:  E(RHF) =  -344.748248955     A.U. after    2 cycles

 The electronic state is 1-A.
 Alpha  occ. eigenvalues --  -20.60352 -11.31211 -11.25511 -11.24949 -11.23765
 Alpha  occ. eigenvalues --  -11.23426 -11.23085 -11.22982  -1.36531  -1.14312
 Alpha  occ. eigenvalues --   -1.04035  -1.00411  -0.93638  -0.83117  -0.82901
 Alpha  occ. eigenvalues --   -0.72278  -0.68958  -0.66390  -0.61637  -0.60578
 Alpha  occ. eigenvalues --   -0.58297  -0.57796  -0.57559  -0.53985  -0.51287
 Alpha  occ. eigenvalues --   -0.49203  -0.47826  -0.33718  -0.31789
 Alpha virt. eigenvalues --    0.03212   0.03895   0.04276   0.05652   0.05832
 Alpha virt. eigenvalues --    0.05924   0.07747   0.08699   0.10456   0.10853
 Alpha virt. eigenvalues --    0.11661   0.12822   0.13352   0.13807   0.14148

 Mulliken charges:
               1
     1  C    0.034425
     2  C    0.741505
     3  C    0.628245
     4  C    0.767119
     5  C   -0.071796
     6  C    0.176738
     7  C    0.353793
     8  O   -0.592627
     9  H   -0.446370
    10  H   -0.568255
    11  H   -0.558236
    12  H   -0.533729
    13  H   -0.098141
    14  H    0.091931
    15  H   -0.055207
    16  H    0.130604
 Sum of Mulliken charges =  -0.00000

 Dipole moment (field-independent basis, Debye):
    X=              0.1253    Y=              1.1643    Z=              0.0384  Tot=              1.1717

 Test job not archived.
 1\1\GINC-SE187\SP\RHF\Aug-CC-pVDZ\C7H8O1\OHZDE\05-Apr-2025\0\\#t hf au
 g-cc-pvdz iop(5/13=1,5/36=2,99/5=2) pseudo=read geom=check guess=(read
 ,tcheck) scf=(maxcycle=1)\\title\\0,1\C,0,0.151273,1.784647,0.002216\C
 ,0,-1.096568,1.176867,-0.00845\C,0,1.31268,1.021029,0.007796\C,0,-0.03
 8671,-0.979205,-0.009708\C,0,-1.203017,-0.216446,-0.011775\C,0,1.21106
 6,-0.366488,0.000942\C,0,-2.55296,-0.884863,0.009391\O,0,2.309364,-1.1
 84166,0.000798\H,0,0.225667,2.863983,0.002825\H,0,-1.992065,1.784194,-
 0.016938\H,0,2.285648,1.497705,0.012651\H,0,-0.084931,-2.060188,-0.018

 Normal termination of Gaussian 16 at Sat Apr  5 23:02:18 2025.
