 Gaussian 16, Revision C.01,

 ----------------------------------------------------------------------
 #t hf aug-cc-pvdz symm=none int=(grid=ultrafine) guess=(read,tcheck) s
 table=(opt,rrhf)
 ----------------------------------------------------------------------
 -----
 title
 -----
 Symbolic Z-matrix:
 Charge =  0 Multiplicity = 1

 SCF Done:  E(RHF) =  -1148.57143410     A.U. after   14 cycles

 1\1\GINC-SE188\Stability\RHF\Aug-CC-pVDZ\C6H4Cl2\OHZDE\05-Apr-2025\0\\
 #t hf aug-cc-pvdz symm=none int=(grid=ultrafine) guess=(read,tcheck) s
 table=(opt,rrhf)\\title\\0,1\C,0,0.,0.,2.071388\C,0,0.,1.208808,1.3869
 57\C,0,0.,-1.208808,1.386957\C,0,0.,0.,-0.713068\C,0,0.,1.19142,-0.000
 84\C,0,0.,-1.19142,-0.00084\Cl,0,0.,2.703797,-0.881717\Cl,0,0.,-2.7037
 97,-0.881717\H,0,0.,0.,3.152761\H,0,0.,2.149253,1.916981\H,0,0.,-2.149
 253,1.916981\H,0,0.,0.,-1.791679\\Version=ES64L-G16RevC.01\HF=-1148.57
 14341\RMSD=9.786e-09\Dipole=0.,0.,0.7559127\Quadrupole=-2.667563,-2.32

 Normal termination of Gaussian 16 at Sat Apr  5 23:00:22 2025.
 Gaussian 16:  ES64L-G16RevC.01  3-Jul-2019

 ----------------------------------------------------------------------
 #t hf aug-cc-pvdz iop(5/13=1,5/36=2,99/5=2) pseudo=read geom=check gue
 ss=(read,tcheck) scf=(maxcycle=1)
 ----------------------------------------------------------------------
 -----
 title
 -----
 Structure from the checkpoint file:  "m-dichlorobenzene.chk"
 Charge =  0 Multiplicity = 1

                         Standard orientation:
 ---------------------------------------------------------------------
 Center     Atomic      Atomic             Coordinates (Angstroms)
 Number     Number       Type             X           Y           Z
 ---------------------------------------------------------------------
      1          6           0        0.000000   -0.000000    2.071388
      2          6           0        0.000000    1.208808    1.386957
      3          6           0       -0.000000   -1.208808    1.386957
      4          6           0       -0.000000    0.000000   -0.713068
      5          6           0        0.000000    1.191420   -0.000840
      6          6           0       -0.000000   -1.191420   -0.000840
      7         17           0        0.000000    2.703797   -0.881717
      8         17           0       -0.000000   -2.703797   -0.881717
      9          1           0        0.000000   -0.000000    3.152761
     10          1           0        0.000000    2.149253    1.916981
     11          1           0       -0.000000   -2.149253    1.916981
     12          1           0       -0.000000    0.000000   -1.791679
 ---------------------------------------------------------------------

 SCF Done:  E(RHF) =  -1148.67631597     A.U. after    2 cycles

 The electronic state is 1-A1.
 Alpha  occ. eigenvalues -- -103.67676-103.67675 -11.32947 -11.32947 -11.27615
 Alpha  occ. eigenvalues --  -11.27538 -11.27147 -11.27130 -10.70956 -10.70954
 Alpha  occ. eigenvalues --   -8.36693  -8.36692  -8.36383  -8.36381  -8.36365
 Alpha  occ. eigenvalues --   -8.36365  -1.22365  -1.19368  -1.13313  -1.03509
 Alpha  occ. eigenvalues --   -1.01393  -0.86183  -0.83490  -0.72837  -0.68510
 Alpha  occ. eigenvalues --   -0.65711  -0.61927  -0.61155  -0.57782  -0.54381
 Alpha  occ. eigenvalues --   -0.53793  -0.52325  -0.48243  -0.47501  -0.47317
 Alpha  occ. eigenvalues --   -0.36576  -0.35396
 Alpha virt. eigenvalues --    0.03167   0.04477   0.04665   0.06005   0.08046
 Alpha virt. eigenvalues --    0.08219   0.08401   0.09444   0.10704   0.11003
 Alpha virt. eigenvalues --    0.12957   0.13225   0.13503   0.13544   0.14997

 Mulliken charges:
               1
     1  C    0.849921
     2  C    0.401460
     3  C    0.401460
     4  C    0.929287
     5  C   -0.103156
     6  C   -0.103156
     7  Cl  -0.375328
     8  Cl  -0.375328
     9  H   -0.411963
    10  H   -0.424754
    11  H   -0.424754
    12  H   -0.363690
 Sum of Mulliken charges =  -0.00000

 Dipole moment (field-independent basis, Debye):
    X=              0.0000    Y=             -0.0000    Z=              2.0014  Tot=              2.0014

 Test job not archived.
 1\1\GINC-SE188\SP\RHF\Aug-CC-pVDZ\C6H4Cl2\OHZDE\05-Apr-2025\0\\#t hf a
 ug-cc-pvdz iop(5/13=1,5/36=2,99/5=2) pseudo=read geom=check guess=(rea
 d,tcheck) scf=(maxcycle=1)\\title\\0,1\C,0,0.,0.,2.071388\C,0,0.,1.208
 808,1.386957\C,0,0.,-1.208808,1.386957\C,0,0.,0.,-0.713068\C,0,0.,1.19
 142,-0.00084\C,0,0.,-1.19142,-0.00084\Cl,0,0.,2.703797,-0.881717\Cl,0,
 0.,-2.703797,-0.881717\H,0,0.,0.,3.152761\H,0,0.,2.149253,1.916981\H,0
 ,0.,-2.149253,1.916981\H,0,0.,0.,-1.791679\\Version=ES64L-G16RevC.01\S
 tate=1-A1\HF=-1148.676316\RMSD=1.399e-02\Dipole=0.,0.,0.7874236\Quadru

 Normal termination of Gaussian 16 at Sat Apr  5 23:00:27 2025.
