 Gaussian 16, Revision C.01,

 ----------------------------------------------------------------------
 #t hf aug-cc-pvdz symm=none int=(grid=ultrafine) guess=(read,tcheck) s
 table=(opt,rrhf)
 ----------------------------------------------------------------------
 -----
 title
 -----
 Symbolic Z-matrix:
 Charge =  0 Multiplicity = 1

 SCF Done:  E(RHF) =  -428.456162971     A.U. after   14 cycles
 Normal termination of Gaussian 16 at Sat Apr  5 23:00:15 2025.
 Gaussian 16:  ES64L-G16RevC.01  3-Jul-2019

 ----------------------------------------------------------------------
 #t hf aug-cc-pvdz iop(5/13=1,5/36=2,99/5=2) pseudo=read geom=check gue
 ss=(read,tcheck) scf=(maxcycle=1)
 ----------------------------------------------------------------------
 -----
 title
 -----
 Structure from the checkpoint file:  "m-difluorobenzene.chk"
 Charge =  0 Multiplicity = 1

                         Standard orientation:
 ---------------------------------------------------------------------
 Center     Atomic      Atomic             Coordinates (Angstroms)
 Number     Number       Type             X           Y           Z
 ---------------------------------------------------------------------
      1          6           0        0.000000   -0.000000    1.764506
      2          6           0        0.000000    1.210426    1.080320
      3          6           0       -0.000000   -1.210426    1.080320
      4          6           0       -0.000000    0.000000   -1.026563
      5          6           0        0.000000    1.180185   -0.303243
      6          6           0       -0.000000   -1.180185   -0.303243
      7          9           0        0.000000    2.345713   -0.982604
      8          9           0       -0.000000   -2.345713   -0.982604
      9          1           0        0.000000   -0.000000    2.845406
     10          1           0        0.000000    2.158300    1.597384
     11          1           0       -0.000000   -2.158300    1.597384
     12          1           0       -0.000000    0.000000   -2.105879
 ---------------------------------------------------------------------

 SCF Done:  E(RHF) =  -428.596702443     A.U. after    2 cycles

 The electronic state is 1-A1.
 Alpha  occ. eigenvalues --  -26.14642 -26.14640 -11.35860 -11.35859 -11.27690
 Alpha  occ. eigenvalues --  -11.26601 -11.26151 -11.26147  -1.68555  -1.68531
 Alpha  occ. eigenvalues --   -1.17892  -1.04829  -1.04540  -0.89514  -0.89344
 Alpha  occ. eigenvalues --   -0.81862  -0.78689  -0.76316  -0.75855  -0.72950
 Alpha  occ. eigenvalues --   -0.71454  -0.70815  -0.63238  -0.62043  -0.56664
 Alpha  occ. eigenvalues --   -0.54517  -0.52951  -0.36883  -0.36053
 Alpha virt. eigenvalues --    0.03224   0.04309   0.04336   0.05835   0.08959
 Alpha virt. eigenvalues --    0.08981   0.10368   0.10528   0.11358   0.13451
 Alpha virt. eigenvalues --    0.13879   0.13946   0.14239   0.14340   0.14693

 Mulliken charges:
               1
     1  C    0.571408
     2  C    0.367612
     3  C    0.367612
     4  C    0.306824
     5  C    0.318560
     6  C    0.318560
     7  F   -0.338779
     8  F   -0.338779
     9  H   -0.418663
    10  H   -0.403846
    11  H   -0.403846
    12  H   -0.346664
 Sum of Mulliken charges =  -0.00000

 Dipole moment (field-independent basis, Debye):
    X=              0.0000    Y=             -0.0000    Z=              2.0835  Tot=              2.0835

 Test job not archived.
 1\1\GINC-SE106\SP\RHF\Aug-CC-pVDZ\C6H4F2\OHZDE\05-Apr-2025\0\\#t hf au
 g-cc-pvdz iop(5/13=1,5/36=2,99/5=2) pseudo=read geom=check guess=(read
 ,tcheck) scf=(maxcycle=1)\\title\\0,1\C,0,0.,0.,1.764506\C,0,0.,1.2104
 26,1.08032\C,0,0.,-1.210426,1.08032\C,0,0.,0.,-1.026563\C,0,0.,1.18018
 5,-0.303243\C,0,0.,-1.180185,-0.303243\F,0,0.,2.345713,-0.982604\F,0,0
 .,-2.345713,-0.982604\H,0,0.,0.,2.845406\H,0,0.,2.1583,1.597384\H,0,0.
 ,-2.1583,1.597384\H,0,0.,0.,-2.105879\\Version=ES64L-G16RevC.01\State=
 1-A1\HF=-428.5967024\RMSD=1.917e-02\Dipole=0.,0.,0.8197069\Quadrupole=

 Normal termination of Gaussian 16 at Sat Apr  5 23:00:20 2025.
