 Gaussian 16, Revision C.01,

 ----------------------------------------------------------------------
 #t hf aug-cc-pvdz symm=none int=(grid=ultrafine) guess=(read,tcheck) s
 table=(opt,rrhf)
 ----------------------------------------------------------------------
 -----
 title
 -----
 Symbolic Z-matrix:
 Charge =  0 Multiplicity = 1

 SCF Done:  E(RHF) =  -509.104880007     A.U. after   16 cycles
 Normal termination of Gaussian 16 at Sat Apr  5 23:01:07 2025.
 Gaussian 16:  ES64L-G16RevC.01  3-Jul-2019

 ----------------------------------------------------------------------
 #t hf aug-cc-pvdz iop(5/13=1,5/36=2,99/5=2) pseudo=read geom=check gue
 ss=(read,tcheck) scf=(maxcycle=1)
 ----------------------------------------------------------------------
 -----
 title
 -----
 Structure from the checkpoint file:  "m-nitrophenol.chk"
 Charge =  0 Multiplicity = 1

                         Standard orientation:
 ---------------------------------------------------------------------
 Center     Atomic      Atomic             Coordinates (Angstroms)
 Number     Number       Type             X           Y           Z
 ---------------------------------------------------------------------
      1          6           0        2.017694   -0.664820   -0.000000
      2          6           0        1.387653    0.571113   -0.000000
      3          6           0        1.276765   -1.840590   -0.000000
      4          6           0       -0.768595   -0.561020    0.000000
      5          6           0       -0.000000    0.590564    0.000000
      6          6           0       -0.116518   -1.789441   -0.000000
      7          7           0       -0.695089    1.896684    0.000000
      8          8           0       -0.004531    2.904797    0.000000
      9          8           0       -1.916677    1.890567    0.000000
     10          8           0       -0.896580   -2.906357   -0.000000
     11          1           0        3.097332   -0.716013   -0.000000
     12          1           0        1.940706    1.495858   -0.000000
     13          1           0        1.780941   -2.799344   -0.000000
     14          1           0       -1.845347   -0.507183    0.000000
     15          1           0       -0.347695   -3.696993   -0.000000
 ---------------------------------------------------------------------

 SCF Done:  E(RHF) =  -509.258134738     A.U. after    2 cycles

 The electronic state is 1-A'.
 Alpha  occ. eigenvalues --  -20.62980 -20.61985 -20.61964 -15.92222 -11.34572
 Alpha  occ. eigenvalues --  -11.32720 -11.28233 -11.28065 -11.27829 -11.27649
 Alpha  occ. eigenvalues --   -1.55389  -1.39475  -1.36875  -1.19089  -1.08662
 Alpha  occ. eigenvalues --   -1.04553  -0.96234  -0.87017  -0.85681  -0.80341
 Alpha  occ. eigenvalues --   -0.74444  -0.72986  -0.72857  -0.71680  -0.69023
 Alpha  occ. eigenvalues --   -0.64331  -0.63364  -0.61415  -0.57400  -0.54978
 Alpha  occ. eigenvalues --   -0.52662  -0.51671  -0.51331  -0.47638  -0.38714
 Alpha  occ. eigenvalues --   -0.35387
 Alpha virt. eigenvalues --    0.02054   0.02922   0.03410   0.04723   0.05719
 Alpha virt. eigenvalues --    0.06532   0.09238   0.10461   0.10699   0.11443
 Alpha virt. eigenvalues --    0.12479   0.12644   0.13193   0.13377   0.13406

 Mulliken charges:
               1
     1  C    0.402130
     2  C    0.193025
     3  C    0.643425
     4  C    0.245199
     5  C    1.294133
     6  C    0.557915
     7  N    0.112637
     8  O   -0.570991
     9  O   -0.563608
    10  O   -0.593780
    11  H   -0.424084
    12  H   -0.445561
    13  H   -0.576310
    14  H   -0.423666
    15  H    0.149535
 Sum of Mulliken charges =  -0.00000

 Dipole moment (field-independent basis, Debye):
    X=              3.7865    Y=             -5.2581    Z=             -0.0000  Tot=              6.4796

 Test job not archived.
 1\1\GINC-SE107\SP\RHF\Aug-CC-pVDZ\C6H5N1O3\OHZDE\05-Apr-2025\0\\#t hf
 aug-cc-pvdz iop(5/13=1,5/36=2,99/5=2) pseudo=read geom=check guess=(re
 ad,tcheck) scf=(maxcycle=1)\\title\\0,1\C,0,2.017694,-0.66482,0.\C,0,1
 .387653,0.571113,0.\C,0,1.276764,-1.84059,0.\C,0,-0.768595,-0.56102,0.
 \C,0,0.,0.590564,0.\C,0,-0.116519,-1.789441,0.\N,0,-0.695089,1.896684,
 0.\O,0,-0.00453,2.904797,0.\O,0,-1.916677,1.890568,0.\O,0,-0.896581,-2
 .906357,0.\H,0,3.097332,-0.716014,0.\H,0,1.940706,1.495858,0.\H,0,1.78
 094,-2.799344,0.\H,0,-1.845347,-0.507182,0.\H,0,-0.347696,-3.696993,0.

 Normal termination of Gaussian 16 at Sat Apr  5 23:02:19 2025.
