 Gaussian 16, Revision C.01,

 ----------------------------------------------------------------------
 #t hf aug-cc-pvdz symm=none int=(grid=ultrafine) guess=(read,tcheck) s
 table=(opt,rrhf)
 ----------------------------------------------------------------------
 -----
 title
 -----
 Symbolic Z-matrix:
 Charge =  0 Multiplicity = 1

 SCF Done:  E(RHF) =  -308.809451072     A.U. after   15 cycles
 Normal termination of Gaussian 16 at Sat Apr  5 23:01:11 2025.
 Gaussian 16:  ES64L-G16RevC.01  3-Jul-2019

 ----------------------------------------------------------------------
 #t hf aug-cc-pvdz iop(5/13=1,5/36=2,99/5=2) pseudo=read geom=check gue
 ss=(read,tcheck) scf=(maxcycle=1)
 ----------------------------------------------------------------------
 -----
 title
 -----
 Structure from the checkpoint file:  "m-xylene.chk"
 Charge =  0 Multiplicity = 1

                         Standard orientation:
 ---------------------------------------------------------------------
 Center     Atomic      Atomic             Coordinates (Angstroms)
 Number     Number       Type             X           Y           Z
 ---------------------------------------------------------------------
      1          6           0       -0.006539    1.816315    0.000770
      2          6           0       -1.206885    1.122732    0.003227
      3          6           0        1.203615    1.128282   -0.003363
      4          6           0        0.003201   -0.944349   -0.003037
      5          6           0       -1.217101   -0.275020    0.000767
      6          6           0        1.224038   -0.263414   -0.004087
      7          6           0       -2.520205   -1.031510   -0.000034
      8          6           0        2.523101   -1.026861    0.003313
      9          1           0       -0.009355    2.898503    0.000809
     10          1           0       -2.143779    1.666030    0.005352
     11          1           0        2.135935    1.678679   -0.006919
     12          1           0        0.006865   -2.028704   -0.006327
     13          1           0       -2.355320   -2.108183    0.003671
     14          1           0       -3.122522   -0.782103    0.875925
     15          1           0       -3.118135   -0.787666   -0.880617
     16          1           0        2.555129   -1.763345   -0.801592
     17          1           0        3.375896   -0.360048   -0.117283
     18          1           0        2.655935   -1.570209    0.941651
 ---------------------------------------------------------------------

 SCF Done:  E(RHF) =  -308.903300940     A.U. after    2 cycles

 The electronic state is 1-A.
 Alpha  occ. eigenvalues --  -11.24691 -11.24649 -11.23919 -11.23173 -11.23161
 Alpha  occ. eigenvalues --  -11.23075 -11.23063 -11.23001  -1.14455  -1.04829
 Alpha  occ. eigenvalues --   -1.02114  -0.93635  -0.92329  -0.81531  -0.78259
 Alpha  occ. eigenvalues --   -0.68611  -0.64857  -0.61947  -0.58238  -0.57287
 Alpha  occ. eigenvalues --   -0.56981  -0.56451  -0.55324  -0.52877  -0.48374
 Alpha  occ. eigenvalues --   -0.48246  -0.47880  -0.33024  -0.32066
 Alpha virt. eigenvalues --    0.03497   0.03959   0.04097   0.05515   0.05667
 Alpha virt. eigenvalues --    0.05686   0.06571   0.07491   0.07883   0.10026
 Alpha virt. eigenvalues --    0.10433   0.10971   0.11715   0.12766   0.13561

 Mulliken charges:
               1
     1  C   -0.046237
     2  C    0.662343
     3  C    0.721718
     4  C    0.393869
     5  C   -0.251552
     6  C   -0.134840
     7  C    0.514861
     8  C    0.382298
     9  H   -0.450921
    10  H   -0.586508
    11  H   -0.561205
    12  H   -0.602028
    13  H   -0.200821
    14  H    0.095749
    15  H    0.098825
    16  H    0.051440
    17  H   -0.186262
    18  H    0.099271
 Sum of Mulliken charges =  -0.00000

 Dipole moment (field-independent basis, Debye):
    X=             -0.0350    Y=             -0.3860    Z=              0.0101  Tot=              0.3877

 Test job not archived.
 1\1\GINC-SE221\SP\RHF\Aug-CC-pVDZ\C8H10\OHZDE\05-Apr-2025\0\\#t hf aug
 -cc-pvdz iop(5/13=1,5/36=2,99/5=2) pseudo=read geom=check guess=(read,
 tcheck) scf=(maxcycle=1)\\title\\0,1\C,0,-0.006539,1.816315,0.00077\C,
 0,-1.206885,1.122732,0.003227\C,0,1.203615,1.128282,-0.003363\C,0,0.00
 3201,-0.944349,-0.003037\C,0,-1.217101,-0.27502,0.000767\C,0,1.224038,
 -0.263414,-0.004087\C,0,-2.520205,-1.03151,-0.000034\C,0,2.523101,-1.0
 26861,0.003313\H,0,-0.009355,2.898503,0.000809\H,0,-2.143779,1.66603,0
 .005352\H,0,2.135935,1.678679,-0.006919\H,0,0.006865,-2.028704,-0.0063

 Normal termination of Gaussian 16 at Sat Apr  5 23:02:19 2025.
