 Gaussian 16, Revision C.01,

 ----------------------------------------------------------------------
 #t hf aug-cc-pvdz symm=none int=(grid=ultrafine) guess=(read,tcheck) s
 table=(opt,rrhf)
 ----------------------------------------------------------------------
 -----
 title
 -----
 Symbolic Z-matrix:
 Charge =  0 Multiplicity = 1

 SCF Done:  E(RHF) =  -377.281578226     A.U. after   13 cycles
 Normal termination of Gaussian 16 at Sat Apr  5 23:00:08 2025.
 Gaussian 16:  ES64L-G16RevC.01  3-Jul-2019

 ----------------------------------------------------------------------
 #t hf aug-cc-pvdz iop(5/13=1,5/36=2,99/5=2) pseudo=read geom=check gue
 ss=(read,tcheck) scf=(maxcycle=1)
 ----------------------------------------------------------------------
 -----
 title
 -----
 Structure from the checkpoint file:  "maleic_anydride.chk"
 Charge =  0 Multiplicity = 1

                         Standard orientation:
 ---------------------------------------------------------------------
 Center     Atomic      Atomic             Coordinates (Angstroms)
 Number     Number       Type             X           Y           Z
 ---------------------------------------------------------------------
      1          8           0        0.000000    2.236047    0.597444
      2          6           0        0.000000    1.129930    0.158173
      3          8           0        0.000000   -0.000000    0.969792
      4          6           0       -0.000000   -1.129930    0.158173
      5          8           0       -0.000000   -2.236047    0.597444
      6          6           0        0.000000   -0.664242   -1.254113
      7          6           0        0.000000    0.664242   -1.254113
      8          1           0        0.000000   -1.352815   -2.083086
      9          1           0        0.000000    1.352815   -2.083086
 ---------------------------------------------------------------------

 SCF Done:  E(RHF) =  -377.399575669     A.U. after    2 cycles

 The electronic state is 1-A1.
 Alpha  occ. eigenvalues --  -20.66366 -20.60882 -20.60882 -11.43913 -11.43891
 Alpha  occ. eigenvalues --  -11.32404 -11.32235  -1.48070  -1.41521  -1.36869
 Alpha  occ. eigenvalues --   -1.15147  -0.96165  -0.87588  -0.83921  -0.74869
 Alpha  occ. eigenvalues --   -0.71580  -0.70931  -0.68500  -0.65285  -0.63769
 Alpha  occ. eigenvalues --   -0.59839  -0.52816  -0.52739  -0.49728  -0.45716
 Alpha virt. eigenvalues --    0.01261   0.02194   0.03936   0.07309   0.08792
 Alpha virt. eigenvalues --    0.09574   0.10788   0.11120   0.11144   0.12314
 Alpha virt. eigenvalues --    0.13311   0.13764   0.14515   0.14587   0.15387

 Mulliken charges:
               1
     1  O   -0.358838
     2  C    0.449465
     3  O   -0.569753
     4  C    0.449465
     5  O   -0.358838
     6  C    0.442656
     7  C    0.442656
     8  H   -0.248407
     9  H   -0.248407
 Sum of Mulliken charges =  -0.00000

 Dipole moment (field-independent basis, Debye):
    X=              0.0000    Y=              0.0000    Z=             -5.0774  Tot=              5.0774

 Test job not archived.
 1\1\GINC-SE220\SP\RHF\Aug-CC-pVDZ\C4H2O3\OHZDE\05-Apr-2025\0\\#t hf au
 g-cc-pvdz iop(5/13=1,5/36=2,99/5=2) pseudo=read geom=check guess=(read
 ,tcheck) scf=(maxcycle=1)\\title\\0,1\O,0,0.,2.236047,0.597444\C,0,0.,
 1.12993,0.158173\O,0,0.,0.,0.969792\C,0,0.,-1.12993,0.158173\O,0,0.,-2
 .236047,0.597444\C,0,0.,-0.664242,-1.254113\C,0,0.,0.664242,-1.254113\
 H,0,0.,-1.352815,-2.083086\H,0,0.,1.352815,-2.083086\\Version=ES64L-G1
 6RevC.01\State=1-A1\HF=-377.3995757\RMSD=8.296e-03\Dipole=0.,0.,-1.997
 5834\Quadrupole=2.8610729,-6.9435355,4.0824626,0.,0.,0.\PG=C02V [C2(O1

 Normal termination of Gaussian 16 at Sat Apr  5 23:00:12 2025.
