 Gaussian 16, Revision C.01,

 ----------------------------------------------------------------------
 #t hf aug-cc-pvdz symm=none int=(grid=ultrafine) guess=(read,tcheck) s
 table=(opt,rrhf)
 ----------------------------------------------------------------------
 -----
 title
 -----
 Symbolic Z-matrix:
 Charge =  0 Multiplicity = 1

 SCF Done:  E(RHF) =  -1060.71520124     A.U. after   15 cycles
 Normal termination of Gaussian 16 at Sat Apr  5 23:00:14 2025.
 Gaussian 16:  ES64L-G16RevC.01  3-Jul-2019

 ----------------------------------------------------------------------
 #t hf aug-cc-pvdz iop(5/13=1,5/36=2,99/5=2) pseudo=read geom=check gue
 ss=(read,tcheck) scf=(maxcycle=1)
 ----------------------------------------------------------------------
 -----
 title
 -----
 Structure from the checkpoint file:  "mercapto_Z-3-mercaptoacrylate.chk"
 Charge =  0 Multiplicity = 1

                         Standard orientation:
 ---------------------------------------------------------------------
 Center     Atomic      Atomic             Coordinates (Angstroms)
 Number     Number       Type             X           Y           Z
 ---------------------------------------------------------------------
      1         16           0       -2.265968   -0.918361   -0.000001
      2         16           0        2.145504   -0.995460    0.000002
      3          8           0       -0.634755   -0.362504    0.000000
      4          8           0       -1.517867    1.704175   -0.000002
      5          6           0       -0.541512    0.991131   -0.000001
      6          6           0        0.843271    1.467699    0.000000
      7          6           0        1.974268    0.747540    0.000000
      8          1           0       -1.833773   -2.193713    0.000000
      9          1           0        3.490805   -0.983923    0.000003
     10          1           0        0.921463    2.545287   -0.000001
     11          1           0        2.913753    1.281908    0.000000
 ---------------------------------------------------------------------

 SCF Done:  E(RHF) =  -1060.84240293     A.U. after    2 cycles

 The electronic state is 1-A.
 Alpha  occ. eigenvalues --  -93.60856 -93.57440 -20.64565 -20.57040 -11.40982
 Alpha  occ. eigenvalues --  -11.32312 -11.26867  -8.89890  -8.87182  -6.24100
 Alpha  occ. eigenvalues --   -6.23782  -6.23302  -6.21342  -6.21159  -6.20756
 Alpha  occ. eigenvalues --   -1.43099  -1.33172  -1.11635  -1.01177  -0.96803
 Alpha  occ. eigenvalues --   -0.85394  -0.77400  -0.71245  -0.69002  -0.67301
 Alpha  occ. eigenvalues --   -0.66248  -0.60726  -0.56965  -0.52871  -0.51193
 Alpha  occ. eigenvalues --   -0.49334  -0.47737  -0.47565  -0.38051  -0.35290
 Alpha virt. eigenvalues --    0.02683   0.04204   0.04587   0.06120   0.06610
 Alpha virt. eigenvalues --    0.07307   0.09240   0.10504   0.11097   0.12642
 Alpha virt. eigenvalues --    0.13190   0.13302   0.13449   0.13824   0.15371

 Mulliken charges:
               1
     1  S    0.505277
     2  S    0.392652
     3  O   -0.626504
     4  O   -0.408915
     5  C    0.062811
     6  C    1.018594
     7  C    0.004021
     8  H    0.025690
     9  H    0.025294
    10  H   -0.445844
    11  H   -0.553076
 Sum of Mulliken charges =  -0.00000

 Dipole moment (field-independent basis, Debye):
    X=              3.7866    Y=             -1.6938    Z=              0.0000  Tot=              4.1482

 Test job not archived.
 1\1\GINC-SE209\SP\RHF\Aug-CC-pVDZ\C3H4O2S2\OHZDE\05-Apr-2025\0\\#t hf
 aug-cc-pvdz iop(5/13=1,5/36=2,99/5=2) pseudo=read geom=check guess=(re
 ad,tcheck) scf=(maxcycle=1)\\title\\0,1\S,0,-2.265968,-0.918361,-0.000
 001\S,0,2.145504,-0.99546,0.000002\O,0,-0.634755,-0.362504,0.\O,0,-1.5
 17867,1.704175,-0.000002\C,0,-0.541512,0.991131,-0.000001\C,0,0.843271
 ,1.467699,0.\C,0,1.974268,0.74754,0.\H,0,-1.833773,-2.193713,0.\H,0,3.
 490805,-0.983923,0.000003\H,0,0.921463,2.545287,-0.000001\H,0,2.913753
 ,1.281908,0.\\Version=ES64L-G16RevC.01\State=1-A\HF=-1060.8424029\RMSD

 Normal termination of Gaussian 16 at Sat Apr  5 23:00:18 2025.
