 Gaussian 16, Revision C.01,

 ----------------------------------------------------------------------
 #t hf aug-cc-pvdz symm=none int=(grid=ultrafine) guess=(read,tcheck) s
 table=(opt,rrhf)
 ----------------------------------------------------------------------
 -----
 title
 -----
 Symbolic Z-matrix:
 Charge =  0 Multiplicity = 1

 SCF Done:  E(RHF) =  -347.850125408     A.U. after   14 cycles
 Normal termination of Gaussian 16 at Sat Apr  5 23:02:36 2025.
 Gaussian 16:  ES64L-G16RevC.01  3-Jul-2019

 ----------------------------------------------------------------------
 #t hf aug-cc-pvdz iop(5/13=1,5/36=2,99/5=2) pseudo=read geom=check gue
 ss=(read,tcheck) scf=(maxcycle=1)
 ----------------------------------------------------------------------
 -----
 title
 -----
 Structure from the checkpoint file:  "mesitylene.chk"
 Charge =  0 Multiplicity = 1

                         Standard orientation:
 ---------------------------------------------------------------------
 Center     Atomic      Atomic             Coordinates (Angstroms)
 Number     Number       Type             X           Y           Z
 ---------------------------------------------------------------------
      1          6           0       -0.816117    1.116614   -0.000003
      2          6           0       -0.558958   -1.265085   -0.000003
      3          6           0        1.375075    0.148470   -0.000003
      4          6           0       -1.396484   -0.145289   -0.000002
      5          6           0        0.572419    1.282036   -0.000002
      6          6           0        0.824066   -1.136747   -0.000002
      7          6           0       -2.894085   -0.315438    0.000003
      8          6           0        1.173865    2.664070    0.000003
      9          6           0        1.720220   -2.348632    0.000003
     10          1           0       -1.453667    1.993557   -0.000006
     11          1           0       -0.999638   -2.255692   -0.000006
     12          1           0        2.453305    0.262133   -0.000006
     13          1           0       -3.229193   -0.871675   -0.878113
     14          1           0       -3.229201   -0.871541    0.878201
     15          1           0       -3.403651    0.647324   -0.000072
     16          1           0        2.262425    2.623985   -0.000072
     17          1           0        0.859703    3.232400   -0.878113
     18          1           0        0.859824    3.232340    0.878201
     19          1           0        2.369376   -2.360799    0.878201
     20          1           0        1.141226   -3.271311   -0.000072
     21          1           0        2.369488   -2.360725   -0.878113
 ---------------------------------------------------------------------

 SCF Done:  E(RHF) =  -347.956079587     A.U. after    2 cycles

 The electronic state is 1-A.
 Alpha  occ. eigenvalues --  -11.24456 -11.24456 -11.24455 -11.22996 -11.22996
 Alpha  occ. eigenvalues --  -11.22996 -11.22416 -11.22416 -11.22405  -1.14495
 Alpha  occ. eigenvalues --   -1.04547  -1.04547  -0.94602  -0.92113  -0.92113
 Alpha  occ. eigenvalues --   -0.78319  -0.78319  -0.67672  -0.65673  -0.59714
 Alpha  occ. eigenvalues --   -0.58514  -0.56781  -0.56781  -0.56142  -0.56142
 Alpha  occ. eigenvalues --   -0.55073  -0.55073  -0.51590  -0.47710  -0.47710
 Alpha  occ. eigenvalues --   -0.46608  -0.31880  -0.31880
 Alpha virt. eigenvalues --    0.03458   0.03934   0.03934   0.05457   0.05525
 Alpha virt. eigenvalues --    0.05525   0.06623   0.06623   0.07259   0.07529
 Alpha virt. eigenvalues --    0.09987   0.10110   0.10110   0.11663   0.11663

 Mulliken charges:
               1
     1  C    0.546616
     2  C    0.546611
     3  C    0.546610
     4  C   -0.439345
     5  C   -0.439345
     6  C   -0.439345
     7  C    0.501718
     8  C    0.501718
     9  C    0.501716
    10  H   -0.638742
    11  H   -0.638741
    12  H   -0.638744
    13  H    0.115279
    14  H    0.115310
    15  H   -0.200833
    16  H   -0.200832
    17  H    0.115279
    18  H    0.115310
    19  H    0.115310
    20  H   -0.200830
    21  H    0.115279
 Sum of Mulliken charges =  -0.00000

 Dipole moment (field-independent basis, Debye):
    X=              0.0000    Y=              0.0000    Z=              0.0000  Tot=              0.0000

 Test job not archived.
 1\1\GINC-SE210\SP\RHF\Aug-CC-pVDZ\C9H12\OHZDE\05-Apr-2025\0\\#t hf aug
 -cc-pvdz iop(5/13=1,5/36=2,99/5=2) pseudo=read geom=check guess=(read,
 tcheck) scf=(maxcycle=1)\\title\\0,1\C,0,1.195072,0.696188,-0.000003\C
 ,0,-1.200452,0.686869,-0.000003\C,0,0.00538,-1.383057,-0.000003\C,0,0.
 ,1.404022,-0.000002\C,0,1.215919,-0.702011,-0.000002\C,0,-1.215919,-0.
 702011,-0.000002\C,0,-0.014264,2.91119,0.000003\C,0,2.528296,-1.443242
 ,0.000003\C,0,-2.514032,-1.467948,0.000003\H,0,2.133281,1.239569,-0.00
 0006\H,0,-2.140139,1.227691,-0.000006\H,0,0.006857,-2.46726,-0.000006\

 Normal termination of Gaussian 16 at Sat Apr  5 23:03:13 2025.
