 Gaussian 16, Revision C.01,

 ----------------------------------------------------------------------
 #t hf aug-cc-pvdz symm=none int=(grid=ultrafine) guess=(read,tcheck) s
 table=(opt,rrhf)
 ----------------------------------------------------------------------
 -----
 title
 -----
 Symbolic Z-matrix:
 Charge =  0 Multiplicity = 1

 SCF Done:  E(RHF) =  -263.057642681     A.U. after   13 cycles
 Normal termination of Gaussian 16 at Sat Apr  5 23:03:11 2025.
 Gaussian 16:  ES64L-G16RevC.01  3-Jul-2019

 ----------------------------------------------------------------------
 #t hf aug-cc-pvdz iop(5/13=1,5/36=2,99/5=2) pseudo=read geom=check gue
 ss=(read,tcheck) scf=(maxcycle=1)
 ----------------------------------------------------------------------
 -----
 title
 -----
 Structure from the checkpoint file:  "methylurea.chk"
 Charge =  0 Multiplicity = 1

                         Standard orientation:
 ---------------------------------------------------------------------
 Center     Atomic      Atomic             Coordinates (Angstroms)
 Number     Number       Type             X           Y           Z
 ---------------------------------------------------------------------
      1          6           0       -1.883880    0.052683    0.051156
      2          1           0       -2.056506    0.749901   -0.773592
      3          1           0       -2.696495   -0.669693    0.034127
      4          1           0       -1.939587    0.605039    0.992852
      5          1           0       -0.628998   -1.659843   -0.030177
      6          7           0       -0.629825   -0.657566   -0.098325
      7          6           0        0.625516   -0.112385   -0.011604
      8          1           0       -0.085368    1.818229   -0.316218
      9          1           0        1.594033    1.648111   -0.085107
     10          7           0        0.672759    1.267776    0.047964
     11          8           0        1.632821   -0.800625    0.036666
 ---------------------------------------------------------------------

 SCF Done:  E(RHF) =  -263.142484676     A.U. after    2 cycles

 The electronic state is 1-A.
 Alpha  occ. eigenvalues --  -20.51849 -15.64536 -15.64503 -11.38813 -11.28945
 Alpha  occ. eigenvalues --   -1.34929  -1.20814  -1.15516  -0.95750  -0.81597
 Alpha  occ. eigenvalues --   -0.74093  -0.68503  -0.64627  -0.64146  -0.60195
 Alpha  occ. eigenvalues --   -0.57188  -0.56653  -0.45076  -0.42330  -0.39532
 Alpha virt. eigenvalues --    0.02566   0.03551   0.05127   0.05244   0.06799
 Alpha virt. eigenvalues --    0.08052   0.10993   0.11563   0.13314   0.13890
 Alpha virt. eigenvalues --    0.14621   0.15538   0.16548   0.18052   0.18665

 Mulliken charges:
               1
     1  C    0.828074
     2  H   -0.130263
     3  H   -0.238848
     4  H   -0.082116
     5  H   -0.089810
     6  N   -0.325594
     7  C    0.718327
     8  H   -0.010276
     9  H    0.005260
    10  N   -0.175489
    11  O   -0.499265
 Sum of Mulliken charges =  -0.00000

 Dipole moment (field-independent basis, Debye):
    X=             -4.2018    Y=              2.4195    Z=             -0.6031  Tot=              4.8859

 Test job not archived.
 1\1\GINC-SE171\SP\RHF\Aug-CC-pVDZ\C2H6N2O1\OHZDE\05-Apr-2025\0\\#t hf
 aug-cc-pvdz iop(5/13=1,5/36=2,99/5=2) pseudo=read geom=check guess=(re
 ad,tcheck) scf=(maxcycle=1)\\title\\0,1\C,0,-1.88388,0.052683,0.051156
 \H,0,-2.056506,0.749901,-0.773592\H,0,-2.696495,-0.669693,0.034127\H,0
 ,-1.939587,0.605039,0.992852\H,0,-0.628998,-1.659843,-0.030177\N,0,-0.
 629825,-0.657566,-0.098325\C,0,0.625516,-0.112385,-0.011604\H,0,-0.085
 368,1.818229,-0.316218\H,0,1.594033,1.648111,-0.085107\N,0,0.672759,1.
 267776,0.047964\O,0,1.632821,-0.800625,0.036666\\Version=ES64L-G16RevC

 Normal termination of Gaussian 16 at Sat Apr  5 23:03:18 2025.
