 Gaussian 16, Revision C.01,

 ----------------------------------------------------------------------
 #t hf aug-cc-pvdz symm=none int=(grid=ultrafine) guess=(read,tcheck) s
 table=(opt,rrhf)
 ----------------------------------------------------------------------
 -----
 title
 -----
 Symbolic Z-matrix:
 Charge =  0 Multiplicity = 1

 SCF Done:  E(RHF) =  -193.964343221     A.U. after   12 cycles
 Normal termination of Gaussian 16 at Sat Apr  5 23:03:18 2025.
 Gaussian 16:  ES64L-G16RevC.01  3-Jul-2019

 ----------------------------------------------------------------------
 #t hf aug-cc-pvdz iop(5/13=1,5/36=2,99/5=2) pseudo=read geom=check gue
 ss=(read,tcheck) scf=(maxcycle=1)
 ----------------------------------------------------------------------
 -----
 title
 -----
 Structure from the checkpoint file:  "methylenecyclobutane.chk"
 Charge =  0 Multiplicity = 1

                         Standard orientation:
 ---------------------------------------------------------------------
 Center     Atomic      Atomic             Coordinates (Angstroms)
 Number     Number       Type             X           Y           Z
 ---------------------------------------------------------------------
      1          6           0        0.233750   -0.388334    1.091648
      2          6           0        0.233750   -0.388334   -1.091648
      3          6           0       -0.103047    0.613325   -0.000000
      4          6           0        0.233750   -1.499323    0.000000
      5          6           0       -0.627950    1.827559   -0.000000
      6          1           0       -0.477778   -0.485850    1.911239
      7          1           0       -0.477778   -0.485850   -1.911239
      8          1           0        1.227026   -0.224070    1.515020
      9          1           0        1.227026   -0.224070   -1.515020
     10          1           0       -0.853925    2.345913    0.923515
     11          1           0       -0.853925    2.345913   -0.923515
     12          1           0        1.077726   -2.185964    0.000000
     13          1           0       -0.689886   -2.075382    0.000000
 ---------------------------------------------------------------------

 SCF Done:  E(RHF) =  -194.024805365     A.U. after    2 cycles

 The electronic state is 1-A'.
 Alpha  occ. eigenvalues --  -11.24357 -11.23334 -11.23320 -11.23267 -11.21908
 Alpha  occ. eigenvalues --   -1.12742  -0.98281  -0.90517  -0.82739  -0.70936
 Alpha  occ. eigenvalues --   -0.64805  -0.63853  -0.60263  -0.54564  -0.50140
 Alpha  occ. eigenvalues --   -0.47675  -0.47222  -0.44582  -0.35057
 Alpha virt. eigenvalues --    0.03712   0.04477   0.04861   0.04870   0.06605
 Alpha virt. eigenvalues --    0.06742   0.07185   0.07421   0.10621   0.12311
 Alpha virt. eigenvalues --    0.12911   0.13345   0.14093   0.14921   0.15336

 Mulliken charges:
               1
     1  C    0.054616
     2  C    0.054616
     3  C   -0.320585
     4  C    0.646561
     5  C    1.009046
     6  H   -0.166808
     7  H   -0.166808
     8  H   -0.038130
     9  H   -0.038130
    10  H   -0.333515
    11  H   -0.333515
    12  H   -0.215905
    13  H   -0.151444
 Sum of Mulliken charges =   0.00000

 Dipole moment (field-independent basis, Debye):
    X=              0.2069    Y=             -0.6088    Z=             -0.0000  Tot=              0.6430

 Test job not archived.
 1\1\GINC-SE012\SP\RHF\Aug-CC-pVDZ\C5H8\OHZDE\05-Apr-2025\0\\#t hf aug-
 cc-pvdz iop(5/13=1,5/36=2,99/5=2) pseudo=read geom=check guess=(read,t
 check) scf=(maxcycle=1)\\title\\0,1\C,0,0.23375,-0.388334,1.091648\C,0
 ,0.23375,-0.388334,-1.091648\C,0,-0.103047,0.613325,0.\C,0,0.23375,-1.
 499323,0.\C,0,-0.62795,1.827559,0.\H,0,-0.477778,-0.48585,1.911239\H,0
 ,-0.477778,-0.48585,-1.911239\H,0,1.227026,-0.22407,1.51502\H,0,1.2270
 26,-0.22407,-1.51502\H,0,-0.853925,2.345913,0.923515\H,0,-0.853925,2.3
 45913,-0.923515\H,0,1.077726,-2.185964,0.\H,0,-0.689886,-2.075382,0.\\

 Normal termination of Gaussian 16 at Sat Apr  5 23:03:40 2025.
