 Gaussian 16, Revision C.01,

 ----------------------------------------------------------------------
 #t hf aug-cc-pvdz symm=none int=(grid=ultrafine) guess=(read,tcheck) s
 table=(opt,rrhf)
 ----------------------------------------------------------------------
 -----
 title
 -----
 Symbolic Z-matrix:
 Charge =  0 Multiplicity = 1

 SCF Done:  E(RHF) =  -193.130938623     A.U. after   11 cycles
 Normal termination of Gaussian 16 at Sat Apr  5 23:00:28 2025.
 Gaussian 16:  ES64L-G16RevC.01  3-Jul-2019

 ----------------------------------------------------------------------
 #t hf aug-cc-pvdz iop(5/13=1,5/36=2,99/5=2) pseudo=read geom=check gue
 ss=(read,tcheck) scf=(maxcycle=1)
 ----------------------------------------------------------------------
 -----
 title
 -----
 Structure from the checkpoint file:  "methoxyethane.chk"
 Charge =  0 Multiplicity = 1

                         Standard orientation:
 ---------------------------------------------------------------------
 Center     Atomic      Atomic             Coordinates (Angstroms)
 Number     Number       Type             X           Y           Z
 ---------------------------------------------------------------------
      1          6           0        1.436557    1.185794    0.000000
      2          6           0       -1.314175   -1.253686    0.000000
      3          6           0        0.000000    0.706828    0.000000
      4          8           0       -0.011621   -0.711204    0.000000
      5          1           0        1.471309    2.276007    0.000000
      6          1           0        1.962303    0.823929    0.883530
      7          1           0        1.962303    0.823929   -0.883530
      8          1           0       -1.877412   -0.946607    0.889974
      9          1           0       -1.215654   -2.337382    0.000000
     10          1           0       -1.877412   -0.946607   -0.889974
     11          1           0       -0.533380    1.081375   -0.884588
     12          1           0       -0.533380    1.081375    0.884588
 ---------------------------------------------------------------------

 SCF Done:  E(RHF) =  -193.196897864     A.U. after    2 cycles

 The electronic state is 1-A'.
 Alpha  occ. eigenvalues --  -20.56607 -11.28323 -11.27933 -11.22278  -1.32956
 Alpha  occ. eigenvalues --   -1.02107  -0.91309  -0.83134  -0.67586  -0.66240
 Alpha  occ. eigenvalues --   -0.63274  -0.58535  -0.53906  -0.51274  -0.50553
 Alpha  occ. eigenvalues --   -0.48421  -0.43270
 Alpha virt. eigenvalues --    0.03616   0.04678   0.05243   0.05252   0.06737
 Alpha virt. eigenvalues --    0.07220   0.07462   0.08619   0.12193   0.13360
 Alpha virt. eigenvalues --    0.14451   0.15616   0.16217   0.16796   0.17119

 Mulliken charges:
               1
     1  C    0.204705
     2  C    0.706942
     3  C    0.583002
     4  O   -0.668232
     5  H   -0.034376
     6  H   -0.047436
     7  H   -0.047436
     8  H   -0.073758
     9  H   -0.259628
    10  H   -0.073758
    11  H   -0.145013
    12  H   -0.145013
 Sum of Mulliken charges =  -0.00000

 Dipole moment (field-independent basis, Debye):
    X=             -1.1656    Y=              0.8836    Z=             -0.0000  Tot=              1.4626

 Test job not archived.
 1\1\GINC-SE209\SP\RHF\Aug-CC-pVDZ\C3H8O1\OHZDE\05-Apr-2025\0\\#t hf au
 g-cc-pvdz iop(5/13=1,5/36=2,99/5=2) pseudo=read geom=check guess=(read
 ,tcheck) scf=(maxcycle=1)\\title\\0,1\C,0,1.436557,1.185794,0.\C,0,-1.
 314175,-1.253686,0.\C,0,0.,0.706828,0.\O,0,-0.011621,-0.711204,0.\H,0,
 1.471309,2.276007,0.\H,0,1.962303,0.823929,0.88353\H,0,1.962303,0.8239
 29,-0.88353\H,0,-1.877412,-0.946607,0.889974\H,0,-1.215654,-2.337382,0
 .\H,0,-1.877412,-0.946607,-0.889974\H,0,-0.53338,1.081375,-0.884588\H,
 0,-0.53338,1.081375,0.884588\\Version=ES64L-G16RevC.01\State=1-A'\HF=-

 Normal termination of Gaussian 16 at Sat Apr  5 23:00:31 2025.
