 Gaussian 16, Revision C.01,

 ----------------------------------------------------------------------
 #t hf aug-cc-pvdz symm=none int=(grid=ultrafine) guess=(read,tcheck) s
 table=(opt,rrhf)
 ----------------------------------------------------------------------
 -----
 title
 -----
 Symbolic Z-matrix:
 Charge =  0 Multiplicity = 1

 SCF Done:  E(RHF) =  -667.292411693     A.U. after   15 cycles
 Normal termination of Gaussian 16 at Sat Apr  5 23:03:55 2025.
 Gaussian 16:  ES64L-G16RevC.01  3-Jul-2019

 ----------------------------------------------------------------------
 #t hf aug-cc-pvdz iop(5/13=1,5/36=2,99/5=2) pseudo=read geom=check gue
 ss=(read,tcheck) scf=(maxcycle=1)
 ----------------------------------------------------------------------
 -----
 title
 -----
 Structure from the checkpoint file:  "methylsulfanylbenzene.chk"
 Charge =  0 Multiplicity = 1

                         Standard orientation:
 ---------------------------------------------------------------------
 Center     Atomic      Atomic             Coordinates (Angstroms)
 Number     Number       Type             X           Y           Z
 ---------------------------------------------------------------------
      1          6           0        2.631509    0.344451    0.000050
      2          6           0        1.698472    1.371404   -0.000121
      3          6           0        2.188597   -0.975522    0.000179
      4          6           0        0.334547    1.093914   -0.000188
      5          6           0        0.832934   -1.262341    0.000136
      6          6           0       -0.109855   -0.227934   -0.000068
      7          6           0       -2.721440    0.856894    0.000405
      8         16           0       -1.818130   -0.717138   -0.000261
      9          1           0        3.689808    0.566132    0.000100
     10          1           0        2.026789    2.402640   -0.000214
     11          1           0        2.903178   -1.788083    0.000345
     12          1           0       -0.367984    1.913568   -0.000322
     13          1           0        0.498331   -2.291718    0.000281
     14          1           0       -2.506706    1.440121    0.893802
     15          1           0       -3.774965    0.585558    0.000442
     16          1           0       -2.506952    1.440801   -0.892611
 ---------------------------------------------------------------------

 SCF Done:  E(RHF) =  -667.394987072     A.U. after    2 cycles

 The electronic state is 1-A.
 Alpha  occ. eigenvalues --  -93.53904 -11.28130 -11.27150 -11.24997 -11.24931
 Alpha  occ. eigenvalues --  -11.24740 -11.24603 -11.24233  -8.83677  -6.17875
 Alpha  occ. eigenvalues --   -6.17639  -6.17268  -1.15453  -1.06065  -1.01712
 Alpha  occ. eigenvalues --   -0.99437  -0.88126  -0.83434  -0.79290  -0.70536
 Alpha  occ. eigenvalues --   -0.64177  -0.63561  -0.61181  -0.60115  -0.59362
 Alpha  occ. eigenvalues --   -0.55299  -0.51992  -0.50987  -0.49380  -0.44446
 Alpha  occ. eigenvalues --   -0.40160  -0.34702  -0.30032
 Alpha virt. eigenvalues --    0.03357   0.03786   0.04273   0.05409   0.05893
 Alpha virt. eigenvalues --    0.06011   0.07261   0.09123   0.10073   0.10297
 Alpha virt. eigenvalues --    0.10735   0.11617   0.12596   0.13814   0.14027

 Mulliken charges:
               1
     1  C    0.393388
     2  C    0.750179
     3  C    0.725363
     4  C    0.269033
     5  C   -0.212452
     6  C    0.447322
     7  C    0.153586
     8  S    0.271935
     9  H   -0.446144
    10  H   -0.454906
    11  H   -0.440788
    12  H   -0.702321
    13  H   -0.521837
    14  H   -0.009344
    15  H   -0.213778
    16  H   -0.009236
 Sum of Mulliken charges =  -0.00000

 Dipole moment (field-independent basis, Debye):
    X=              0.0072    Y=              1.4855    Z=              0.0007  Tot=              1.4856

 Test job not archived.
 1\1\GINC-SE203\SP\RHF\Aug-CC-pVDZ\C7H8S1\OHZDE\05-Apr-2025\0\\#t hf au
 g-cc-pvdz iop(5/13=1,5/36=2,99/5=2) pseudo=read geom=check guess=(read
 ,tcheck) scf=(maxcycle=1)\\title\\0,1\C,0,2.631509,0.344451,0.00005\C,
 0,1.698472,1.371404,-0.000121\C,0,2.188597,-0.975522,0.000179\C,0,0.33
 4547,1.093914,-0.000188\C,0,0.832934,-1.262341,0.000136\C,0,-0.109855,
 -0.227934,-0.000068\C,0,-2.72144,0.856894,0.000405\S,0,-1.81813,-0.717
 138,-0.000261\H,0,3.689808,0.566132,0.0001\H,0,2.026789,2.40264,-0.000
 214\H,0,2.903178,-1.788083,0.000345\H,0,-0.367984,1.913568,-0.000322\H

 Normal termination of Gaussian 16 at Sat Apr  5 23:04:16 2025.
