 Gaussian 16, Revision C.01,

 ----------------------------------------------------------------------
 #t hf aug-cc-pvdz symm=none int=(grid=ultrafine) guess=(read,tcheck) s
 table=(opt,rrhf)
 ----------------------------------------------------------------------
 -----
 title
 -----
 Symbolic Z-matrix:
 Charge =  0 Multiplicity = 1

 SCF Done:  E(RHF) =  -266.872970421     A.U. after   13 cycles
 Normal termination of Gaussian 16 at Sat Apr  5 23:01:09 2025.
 Gaussian 16:  ES64L-G16RevC.01  3-Jul-2019

 ----------------------------------------------------------------------
 #t hf aug-cc-pvdz iop(5/13=1,5/36=2,99/5=2) pseudo=read geom=check gue
 ss=(read,tcheck) scf=(maxcycle=1)
 ----------------------------------------------------------------------
 -----
 title
 -----
 Structure from the checkpoint file:  "methyl_acetate.chk"
 Charge =  0 Multiplicity = 1

                         Standard orientation:
 ---------------------------------------------------------------------
 Center     Atomic      Atomic             Coordinates (Angstroms)
 Number     Number       Type             X           Y           Z
 ---------------------------------------------------------------------
      1          6           0        0.000000    0.495796    0.000000
      2          6           0       -1.126166    1.493825    0.000000
      3          6           0        0.518397   -1.810474    0.000000
      4          8           0        1.175144    0.763556    0.000000
      5          8           0       -0.472599   -0.769316    0.000000
      6          1           0       -1.754646    1.346302    0.878098
      7          1           0       -1.754646    1.346302   -0.878098
      8          1           0       -0.719073    2.499833    0.000000
      9          1           0        1.146150   -1.739249   -0.886325
     10          1           0       -0.037679   -2.742743    0.000000
     11          1           0        1.146150   -1.739249    0.886325
 ---------------------------------------------------------------------

 SCF Done:  E(RHF) =  -266.961779948     A.U. after    2 cycles

 The electronic state is 1-A'.
 Alpha  occ. eigenvalues --  -20.61630 -20.56005 -11.39432 -11.29703 -11.25149
 Alpha  occ. eigenvalues --   -1.41912  -1.32389  -1.03306  -0.94923  -0.78655
 Alpha  occ. eigenvalues --   -0.70544  -0.68950  -0.68799  -0.60036  -0.59801
 Alpha  occ. eigenvalues --   -0.56551  -0.53930  -0.53251  -0.47998  -0.46738
 Alpha virt. eigenvalues --    0.03369   0.04469   0.05505   0.05708   0.06653
 Alpha virt. eigenvalues --    0.06979   0.08937   0.12847   0.13563   0.13800
 Alpha virt. eigenvalues --    0.14507   0.15470   0.16110   0.16195   0.16751

 Mulliken charges:
               1
     1  C    0.314756
     2  C    0.297620
     3  C    0.779484
     4  O   -0.452859
     5  O   -0.577171
     6  H    0.026663
     7  H    0.026663
     8  H   -0.022258
     9  H   -0.072707
    10  H   -0.247485
    11  H   -0.072707
 Sum of Mulliken charges =  -0.00000

 Dipole moment (field-independent basis, Debye):
    X=             -1.9230    Y=             -0.9506    Z=              0.0000  Tot=              2.1451

 Test job not archived.
 1\1\GINC-SE188\SP\RHF\Aug-CC-pVDZ\C3H6O2\OHZDE\05-Apr-2025\0\\#t hf au
 g-cc-pvdz iop(5/13=1,5/36=2,99/5=2) pseudo=read geom=check guess=(read
 ,tcheck) scf=(maxcycle=1)\\title\\0,1\C,0,0.,0.495796,0.\C,0,-1.126166
 ,1.493825,0.\C,0,0.518397,-1.810474,0.\O,0,1.175144,0.763556,0.\O,0,-0
 .472599,-0.769316,0.\H,0,-1.754646,1.346302,0.878098\H,0,-1.754646,1.3
 46302,-0.878098\H,0,-0.719073,2.499833,0.\H,0,1.14615,-1.739249,-0.886
 325\H,0,-0.037679,-2.742743,0.\H,0,1.14615,-1.739249,0.886325\\Version
 =ES64L-G16RevC.01\State=1-A'\HF=-266.9617799\RMSD=3.147e-03\Dipole=-0.

 Normal termination of Gaussian 16 at Sat Apr  5 23:02:15 2025.
