 Gaussian 16, Revision C.01,

 ----------------------------------------------------------------------
 #t hf aug-cc-pvdz symm=none int=(grid=ultrafine) guess=(read,tcheck) s
 table=(opt,rrhf)
 ----------------------------------------------------------------------
 -----
 title
 -----
 Symbolic Z-matrix:
 Charge =  0 Multiplicity = 1

 SCF Done:  E(RHF) =  -1046.31253232     A.U. after   13 cycles
 Normal termination of Gaussian 16 at Sat Apr  5 23:00:10 2025.
 Gaussian 16:  ES64L-G16RevC.01  3-Jul-2019

 ----------------------------------------------------------------------
 #t hf aug-cc-pvdz iop(5/13=1,5/36=2,99/5=2) pseudo=read geom=check gue
 ss=(read,tcheck) scf=(maxcycle=1)
 ----------------------------------------------------------------------
 -----
 title
 -----
 Structure from the checkpoint file:  "methanesulfonyl_chloride.chk"
 Charge =  0 Multiplicity = 1

                         Standard orientation:
 ---------------------------------------------------------------------
 Center     Atomic      Atomic             Coordinates (Angstroms)
 Number     Number       Type             X           Y           Z
 ---------------------------------------------------------------------
      1          6           0        0.838039    1.595359    0.000000
      2          8           0        0.838039   -0.743500    1.259473
      3          8           0        0.838039   -0.743500   -1.259473
      4         16           0        0.445322   -0.156189    0.000000
      5         17           0       -1.666500   -0.052456    0.000000
      6          1           0        0.421587    2.033909    0.900953
      7          1           0        1.925327    1.646800    0.000000
      8          1           0        0.421587    2.033909   -0.900953
 ---------------------------------------------------------------------

 SCF Done:  E(RHF) =  -1046.46565533     A.U. after    2 cycles

 The electronic state is 1-A'.
 Alpha  occ. eigenvalues -- -103.69523 -93.84485 -20.60404 -20.60403 -11.32353
 Alpha  occ. eigenvalues --  -10.72835  -9.10852  -8.38539  -8.38211  -8.38196
 Alpha  occ. eigenvalues --   -6.45411  -6.45268  -6.45082  -1.46186  -1.34829
 Alpha  occ. eigenvalues --   -1.17754  -1.06575  -0.85626  -0.72911  -0.71551
 Alpha  occ. eigenvalues --   -0.70461  -0.64359  -0.63891  -0.56770  -0.55337
 Alpha  occ. eigenvalues --   -0.53868  -0.50475  -0.49583  -0.49228
 Alpha virt. eigenvalues --    0.02440   0.04646   0.05206   0.05347   0.08184
 Alpha virt. eigenvalues --    0.10363   0.11662   0.12166   0.13593   0.13821
 Alpha virt. eigenvalues --    0.15420   0.16699   0.16967   0.17306   0.19095

 Mulliken charges:
               1
     1  C   -0.041695
     2  O   -0.970632
     3  O   -0.970632
     4  S    2.122855
     5  Cl  -0.245042
     6  H    0.024762
     7  H    0.055622
     8  H    0.024762
 Sum of Mulliken charges =  -0.00000

 Dipole moment (field-independent basis, Debye):
    X=              0.1171    Y=              4.5868    Z=              0.0000  Tot=              4.5883

 Test job not archived.
 1\1\GINC-SE223\SP\RHF\Aug-CC-pVDZ\C1H3Cl1O2S1\OHZDE\05-Apr-2025\0\\#t
 hf aug-cc-pvdz iop(5/13=1,5/36=2,99/5=2) pseudo=read geom=check guess=
 (read,tcheck) scf=(maxcycle=1)\\title\\0,1\C,0,0.838039,1.595359,0.\O,
 0,0.838039,-0.7435,1.259473\O,0,0.838039,-0.7435,-1.259473\S,0,0.44532
 2,-0.156189,0.\Cl,0,-1.6665,-0.052456,0.\H,0,0.421587,2.033909,0.90095
 3\H,0,1.925327,1.6468,0.\H,0,0.421587,2.033909,-0.900953\\Version=ES64
 L-G16RevC.01\State=1-A'\HF=-1046.4656553\RMSD=4.924e-03\Dipole=0.04605
 98,1.8045891,0.\Quadrupole=1.1133899,2.7598104,-3.8732002,3.4311129,0.

 Normal termination of Gaussian 16 at Sat Apr  5 23:00:14 2025.
