 Gaussian 16, Revision C.01,

 ----------------------------------------------------------------------
 #t hf aug-cc-pvdz symm=none int=(grid=ultrafine) guess=(read,tcheck) s
 table=(opt,rrhf)
 ----------------------------------------------------------------------
 -----
 title
 -----
 Symbolic Z-matrix:
 Charge =  0 Multiplicity = 1

 SCF Done:  E(RHF) =  -40.1996298034     A.U. after    8 cycles
 Normal termination of Gaussian 16 at Sat Apr  5 22:59:59 2025.
 Gaussian 16:  ES64L-G16RevC.01  3-Jul-2019

 ----------------------------------------------------------------------
 #t hf aug-cc-pvdz iop(5/13=1,5/36=2,99/5=2) pseudo=read geom=check gue
 ss=(read,tcheck) scf=(maxcycle=1)
 ----------------------------------------------------------------------
 -----
 title
 -----
 Structure from the checkpoint file:  "methane.chk"
 Charge =  0 Multiplicity = 1

                         Standard orientation:
 ---------------------------------------------------------------------
 Center     Atomic      Atomic             Coordinates (Angstroms)
 Number     Number       Type             X           Y           Z
 ---------------------------------------------------------------------
      1          6           0        0.000000    0.000000    0.000000
      2          1           0        0.628317    0.628317    0.628317
      3          1           0       -0.628317   -0.628317    0.628317
      4          1           0       -0.628317    0.628317   -0.628317
      5          1           0        0.628317   -0.628317   -0.628317
 ---------------------------------------------------------------------

 SCF Done:  E(RHF) =  -40.2168378991     A.U. after    2 cycles

 The electronic state is 1-A1.
 Alpha  occ. eigenvalues --  -11.21847  -0.93979  -0.54734  -0.54734  -0.54734
 Alpha virt. eigenvalues --    0.03626   0.06388   0.06388   0.06388   0.14628
 Alpha virt. eigenvalues --    0.14628   0.14628   0.17415   0.29963   0.29963
 Alpha virt. eigenvalues --    0.29963   0.30607   0.30607   0.41750   0.43915

 Mulliken charges:
               1
     1  C    0.609299
     2  H   -0.152325
     3  H   -0.152325
     4  H   -0.152325
     5  H   -0.152325
 Sum of Mulliken charges =  -0.00000

 Dipole moment (field-independent basis, Debye):
    X=             -0.0000    Y=              0.0000    Z=              0.0000  Tot=              0.0000

 Test job not archived.
 1\1\GINC-SE145\SP\RHF\Aug-CC-pVDZ\C1H4\OHZDE\05-Apr-2025\0\\#t hf aug-
 cc-pvdz iop(5/13=1,5/36=2,99/5=2) pseudo=read geom=check guess=(read,t
 check) scf=(maxcycle=1)\\title\\0,1\C,0,0.,0.,0.\H,0,0.628317,0.628317
 ,0.628317\H,0,-0.628317,-0.628317,0.628317\H,0,-0.628317,0.628317,-0.6
 28317\H,0,0.628317,-0.628317,-0.628317\\Version=ES64L-G16RevC.01\State
 =1-A1\HF=-40.2168379\RMSD=2.040e-03\Dipole=0.,0.,0.\Quadrupole=0.,0.,0
 .,0.,0.,0.\PG=TD [O(C1),4C3(H1)]\\@

 Normal termination of Gaussian 16 at Sat Apr  5 23:00:01 2025.
