 Gaussian 16, Revision C.01,

 ----------------------------------------------------------------------
 #t hf aug-cc-pvdz symm=none int=(grid=ultrafine) guess=(read,tcheck) s
 table=(opt,rrhf)
 ----------------------------------------------------------------------
 -----
 title
 -----
 Symbolic Z-matrix:
 Charge =  0 Multiplicity = 1

 SCF Done:  E(RHF) =  -281.535784730     A.U. after   15 cycles
 Normal termination of Gaussian 16 at Sat Apr  5 23:01:06 2025.
 Gaussian 16:  ES64L-G16RevC.01  3-Jul-2019

 ----------------------------------------------------------------------
 #t hf aug-cc-pvdz iop(5/13=1,5/36=2,99/5=2) pseudo=read geom=check gue
 ss=(read,tcheck) scf=(maxcycle=1)
 ----------------------------------------------------------------------
 -----
 title
 -----
 Structure from the checkpoint file:  "methyl_peroxycyanate.chk"
 Charge =  0 Multiplicity = 1

                         Standard orientation:
 ---------------------------------------------------------------------
 Center     Atomic      Atomic             Coordinates (Angstroms)
 Number     Number       Type             X           Y           Z
 ---------------------------------------------------------------------
      1          8           0        0.168175    0.731979   -0.169936
      2          8           0       -0.875385    0.011600    0.633516
      3          7           0        2.292619   -0.465281   -0.025231
      4          6           0        1.271007    0.074684   -0.071494
      5          6           0       -1.910219   -0.317169   -0.281016
      6          1           0       -2.328484    0.577593   -0.741855
      7          1           0       -1.568489   -1.027299   -1.034576
      8          1           0       -2.658412   -0.787050    0.359468
 ---------------------------------------------------------------------

 SCF Done:  E(RHF) =  -281.627019507     A.U. after    2 cycles

 The electronic state is 1-A.
 Alpha  occ. eigenvalues --  -20.72691 -20.71530 -15.64876 -11.35734 -11.33441
 Alpha  occ. eigenvalues --   -1.50517  -1.32223  -1.19301  -0.97215  -0.84001
 Alpha  occ. eigenvalues --   -0.75067  -0.73804  -0.67233  -0.63407  -0.59534
 Alpha  occ. eigenvalues --   -0.56128  -0.53897  -0.46905  -0.45461
 Alpha virt. eigenvalues --    0.02585   0.04758   0.05212   0.07172   0.07586
 Alpha virt. eigenvalues --    0.10256   0.10782   0.10950   0.13303   0.14462
 Alpha virt. eigenvalues --    0.14808   0.17008   0.19421   0.19948   0.21032

 Mulliken charges:
               1
     1  O   -0.193017
     2  O   -0.372324
     3  N   -0.090581
     4  C    0.127202
     5  C    0.810120
     6  H   -0.064122
     7  H   -0.071703
     8  H   -0.145575
 Sum of Mulliken charges =  -0.00000

 Dipole moment (field-independent basis, Debye):
    X=             -4.8316    Y=              0.0701    Z=             -0.9992  Tot=              4.9343

 Test job not archived.
 1\1\GINC-SE011\SP\RHF\Aug-CC-pVDZ\C2H3N1O2\OHZDE\05-Apr-2025\0\\#t hf
 aug-cc-pvdz iop(5/13=1,5/36=2,99/5=2) pseudo=read geom=check guess=(re
 ad,tcheck) scf=(maxcycle=1)\\title\\0,1\O,0,0.168175,0.731979,-0.16993
 6\O,0,-0.875385,0.0116,0.633516\N,0,2.292619,-0.465281,-0.025231\C,0,1
 .271007,0.074684,-0.071494\C,0,-1.910219,-0.317169,-0.281016\H,0,-2.32
 8484,0.577593,-0.741855\H,0,-1.568489,-1.027299,-1.034576\H,0,-2.65841
 2,-0.78705,0.359468\\Version=ES64L-G16RevC.01\State=1-A\HF=-281.627019
 5\RMSD=2.213e-03\Dipole=-1.9008961,0.0275956,-0.3930973\Quadrupole=-0.

 Normal termination of Gaussian 16 at Sat Apr  5 23:02:14 2025.
