 Gaussian 16, Revision C.01,

 ----------------------------------------------------------------------
 #t hf aug-cc-pvdz symm=none int=(grid=ultrafine) guess=(read,tcheck) s
 table=(opt,rrhf)
 ----------------------------------------------------------------------
 -----
 title
 -----
 Symbolic Z-matrix:
 Charge =  0 Multiplicity = 1

 SCF Done:  E(RHF) =  -305.912325021     A.U. after   13 cycles
 Normal termination of Gaussian 16 at Sat Apr  5 23:03:26 2025.
 Gaussian 16:  ES64L-G16RevC.01  3-Jul-2019

 ----------------------------------------------------------------------
 #t hf aug-cc-pvdz iop(5/13=1,5/36=2,99/5=2) pseudo=read geom=check gue
 ss=(read,tcheck) scf=(maxcycle=1)
 ----------------------------------------------------------------------
 -----
 title
 -----
 Structure from the checkpoint file:  "methyl_propanoate.chk"
 Charge =  0 Multiplicity = 1

                         Standard orientation:
 ---------------------------------------------------------------------
 Center     Atomic      Atomic             Coordinates (Angstroms)
 Number     Number       Type             X           Y           Z
 ---------------------------------------------------------------------
      1          6           0        0.000000    0.105348    0.000000
      2          6           0        2.229810   -1.101248    0.000000
      3          6           0       -2.125328    1.140307    0.000000
      4          6           0        0.712415   -1.227832    0.000000
      5          8           0        0.529639    1.188224    0.000000
      6          8           0       -1.340167   -0.063276    0.000000
      7          1           0        2.578825   -0.559466    0.877868
      8          1           0        2.691306   -2.088610    0.000000
      9          1           0        2.578825   -0.559466   -0.877868
     10          1           0       -3.160662    0.813935    0.000000
     11          1           0       -1.911948    1.735162   -0.886287
     12          1           0       -1.911948    1.735162    0.886287
     13          1           0        0.359222   -1.787875    0.869073
     14          1           0        0.359222   -1.787875   -0.869073
 ---------------------------------------------------------------------

 SCF Done:  E(RHF) =  -306.013042746     A.U. after    2 cycles

 The electronic state is 1-A'.
 Alpha  occ. eigenvalues --  -20.61442 -20.55894 -11.38990 -11.29601 -11.25359
 Alpha  occ. eigenvalues --  -11.23023  -1.41747  -1.32255  -1.05932  -0.97589
 Alpha  occ. eigenvalues --   -0.87758  -0.77672  -0.70991  -0.68906  -0.68326
 Alpha  occ. eigenvalues --   -0.62365  -0.60977  -0.54982  -0.54460  -0.53007
 Alpha  occ. eigenvalues --   -0.52632  -0.50041  -0.47839  -0.46232
 Alpha virt. eigenvalues --    0.03353   0.04163   0.05110   0.05209   0.06252
 Alpha virt. eigenvalues --    0.06728   0.06912   0.08007   0.10707   0.12514
 Alpha virt. eigenvalues --    0.13234   0.14074   0.14936   0.15044   0.15468

 Mulliken charges:
               1
     1  C    0.264677
     2  C    0.463294
     3  C    0.790741
     4  C    0.083990
     5  O   -0.445025
     6  O   -0.555800
     7  H   -0.058936
     8  H   -0.046493
     9  H   -0.058936
    10  H   -0.257875
    11  H   -0.072461
    12  H   -0.072461
    13  H   -0.017357
    14  H   -0.017357
 Sum of Mulliken charges =   0.00000

 Dipole moment (field-independent basis, Debye):
    X=             -1.2120    Y=             -1.5756    Z=             -0.0000  Tot=              1.9878

 Test job not archived.
 1\1\GINC-SE040\SP\RHF\Aug-CC-pVDZ\C4H8O2\OHZDE\05-Apr-2025\0\\#t hf au
 g-cc-pvdz iop(5/13=1,5/36=2,99/5=2) pseudo=read geom=check guess=(read
 ,tcheck) scf=(maxcycle=1)\\title\\0,1\C,0,0.,0.105348,0.\C,0,2.22981,-
 1.101248,0.\C,0,-2.125328,1.140307,0.\C,0,0.712415,-1.227832,0.\O,0,0.
 529639,1.188224,0.\O,0,-1.340167,-0.063276,0.\H,0,2.578825,-0.559466,0
 .877868\H,0,2.691306,-2.08861,0.\H,0,2.578825,-0.559466,-0.877868\H,0,
 -3.160662,0.813935,0.\H,0,-1.911948,1.735162,-0.886287\H,0,-1.911948,1
 .735162,0.886287\H,0,0.359222,-1.787875,0.869073\H,0,0.359222,-1.78787

 Normal termination of Gaussian 16 at Sat Apr  5 23:03:40 2025.
