 Gaussian 16, Revision C.01,

 ----------------------------------------------------------------------
 #t hf aug-cc-pvdz symm=none int=(grid=ultrafine) guess=(read,tcheck) s
 table=(opt,rrhf)
 ----------------------------------------------------------------------
 -----
 title
 -----
 Symbolic Z-matrix:
 Charge =  0 Multiplicity = 1

 SCF Done:  E(RHF) =  -563.473214843     A.U. after   13 cycles
 Normal termination of Gaussian 16 at Sat Apr  5 23:02:35 2025.
 Gaussian 16:  ES64L-G16RevC.01  3-Jul-2019

 ----------------------------------------------------------------------
 #t hf aug-cc-pvdz iop(5/13=1,5/36=2,99/5=2) pseudo=read geom=check gue
 ss=(read,tcheck) scf=(maxcycle=1)
 ----------------------------------------------------------------------
 -----
 title
 -----
 Structure from the checkpoint file:  "methyltrifluoroacetate.chk"
 Charge =  0 Multiplicity = 1

                         Standard orientation:
 ---------------------------------------------------------------------
 Center     Atomic      Atomic             Coordinates (Angstroms)
 Number     Number       Type             X           Y           Z
 ---------------------------------------------------------------------
      1          6           0        0.050669    0.624607    0.000000
      2          6           0       -1.855094    2.001586    0.000000
      3          6           0        0.511832   -0.857791    0.000000
      4          8           0        0.811982    1.547940    0.000000
      5          8           0       -1.275222    0.677957    0.000000
      6          9           0        0.050669   -1.497770    1.087625
      7          9           0        0.050669   -1.497770   -1.087625
      8          9           0        1.840087   -0.932253    0.000000
      9          1           0       -1.541783    2.544186    0.888968
     10          1           0       -2.927775    1.844167    0.000000
     11          1           0       -1.541783    2.544186   -0.888968
 ---------------------------------------------------------------------

 SCF Done:  E(RHF) =  -563.670027681     A.U. after    2 cycles

 The electronic state is 1-A'.
 Alpha  occ. eigenvalues --  -26.18349 -26.18339 -26.18107 -20.65666 -20.60808
 Alpha  occ. eigenvalues --  -11.55192 -11.44257 -11.32542  -1.78054  -1.70902
 Alpha  occ. eigenvalues --   -1.70835  -1.46538  -1.37330  -1.08261  -1.00737
 Alpha  occ. eigenvalues --   -0.91659  -0.89846  -0.89616  -0.81775  -0.78956
 Alpha  occ. eigenvalues --   -0.78706  -0.74622  -0.74604  -0.73274  -0.73236
 Alpha  occ. eigenvalues --   -0.72205  -0.71346  -0.62732  -0.59414  -0.57369
 Alpha  occ. eigenvalues --   -0.51790  -0.51470
 Alpha virt. eigenvalues --    0.02999   0.05261   0.05424   0.07133   0.08583
 Alpha virt. eigenvalues --    0.09595   0.10461   0.12336   0.12924   0.13109
 Alpha virt. eigenvalues --    0.14772   0.14884   0.15009   0.17003   0.18523

 Mulliken charges:
               1
     1  C    0.178736
     2  C    0.769216
     3  C    1.149027
     4  O   -0.370016
     5  O   -0.510388
     6  F   -0.306837
     7  F   -0.306837
     8  F   -0.263259
     9  H   -0.054382
    10  H   -0.230876
    11  H   -0.054382
 Sum of Mulliken charges =  -0.00000

 Dipole moment (field-independent basis, Debye):
    X=             -2.8557    Y=              1.7684    Z=             -0.0000  Tot=              3.3589

 Test job not archived.
 1\1\GINC-SE169\SP\RHF\Aug-CC-pVDZ\C3H3F3O2\OHZDE\05-Apr-2025\0\\#t hf
 aug-cc-pvdz iop(5/13=1,5/36=2,99/5=2) pseudo=read geom=check guess=(re
 ad,tcheck) scf=(maxcycle=1)\\title\\0,1\C,0,0.050669,0.624607,0.\C,0,-
 1.855094,2.001586,0.\C,0,0.511832,-0.857791,0.\O,0,0.811982,1.54794,0.
 \O,0,-1.275222,0.677957,0.\F,0,0.050669,-1.49777,1.087625\F,0,0.050669
 ,-1.49777,-1.087625\F,0,1.840087,-0.932253,0.\H,0,-1.541783,2.544186,0
 .888968\H,0,-2.927775,1.844167,0.\H,0,-1.541783,2.544186,-0.888968\\Ve
 rsion=ES64L-G16RevC.01\State=1-A'\HF=-563.6700277\RMSD=5.709e-03\Dipol

 Normal termination of Gaussian 16 at Sat Apr  5 23:03:07 2025.
