 Gaussian 16, Revision C.01,

 ----------------------------------------------------------------------
 #t hf aug-cc-pvdz symm=none int=(grid=ultrafine) guess=(read,tcheck) s
 table=(opt,rrhf)
 ----------------------------------------------------------------------
 -----
 title
 -----
 Symbolic Z-matrix:
 Charge =  0 Multiplicity = 1

 SCF Done:  E(RHF) =  -573.913701744     A.U. after   14 cycles
 Normal termination of Gaussian 16 at Sat Apr  5 23:01:07 2025.
 Gaussian 16:  ES64L-G16RevC.01  3-Jul-2019

 ----------------------------------------------------------------------
 #t hf aug-cc-pvdz iop(5/13=1,5/36=2,99/5=2) pseudo=read geom=check gue
 ss=(read,tcheck) scf=(maxcycle=1)
 ----------------------------------------------------------------------
 -----
 title
 -----
 Structure from the checkpoint file:  "methyl_hypochlorite.chk"
 Charge =  0 Multiplicity = 1

                         Standard orientation:
 ---------------------------------------------------------------------
 Center     Atomic      Atomic             Coordinates (Angstroms)
 Number     Number       Type             X           Y           Z
 ---------------------------------------------------------------------
      1          8           0        0.000000    0.802908    0.000000
      2         17           0       -0.811552   -0.704077    0.000000
      3          6           0        1.415082    0.620626    0.000000
      4          1           0        1.809715    1.636753    0.000000
      5          1           0        1.748086    0.092767    0.894890
      6          1           0        1.748086    0.092767   -0.894890
 ---------------------------------------------------------------------

 SCF Done:  E(RHF) =  -573.972108814     A.U. after    2 cycles

 The electronic state is 1-A'.
 Alpha  occ. eigenvalues -- -103.70955 -20.65096 -11.30839 -10.73708  -8.39472
 Alpha  occ. eigenvalues --   -8.39058  -8.39034  -1.37716  -1.11246  -0.92908
 Alpha  occ. eigenvalues --   -0.68244  -0.67290  -0.66224  -0.54074  -0.53370
 Alpha  occ. eigenvalues --   -0.47461  -0.44881
 Alpha virt. eigenvalues --    0.03502   0.05618   0.05883   0.06329   0.08325
 Alpha virt. eigenvalues --    0.14267   0.14428   0.14898   0.15842   0.16663
 Alpha virt. eigenvalues --    0.17881   0.22221   0.25803   0.26635   0.27276

 Mulliken charges:
               1
     1  O   -0.698130
     2  Cl   0.262996
     3  C    0.751916
     4  H   -0.160670
     5  H   -0.078056
     6  H   -0.078056
 Sum of Mulliken charges =  -0.00000

 Dipole moment (field-independent basis, Debye):
    X=              2.0230    Y=             -0.2150    Z=              0.0000  Tot=              2.0344

 Test job not archived.
 1\1\GINC-SE175\SP\RHF\Aug-CC-pVDZ\C1H3Cl1O1\OHZDE\05-Apr-2025\0\\#t hf
  aug-cc-pvdz iop(5/13=1,5/36=2,99/5=2) pseudo=read geom=check guess=(r
 ead,tcheck) scf=(maxcycle=1)\\title\\0,1\O,0,0.,0.802908,0.\Cl,0,-0.81
 1552,-0.704077,0.\C,0,1.415082,0.620626,0.\H,0,1.809715,1.636753,0.\H,
 0,1.748086,0.092767,0.89489\H,0,1.748086,0.092767,-0.89489\\Version=ES
 64L-G16RevC.01\State=1-A'\HF=-573.9721088\RMSD=2.458e-03\Dipole=0.7959
 066,-0.0845962,0.\Quadrupole=1.3873077,-0.4109017,-0.976406,1.6572032,
 0.,0.\PG=CS [SG(C1H1Cl1O1),X(H2)]\\@

 Normal termination of Gaussian 16 at Sat Apr  5 23:02:13 2025.
