 Gaussian 16, Revision C.01,

 ----------------------------------------------------------------------
 #t hf aug-cc-pvdz symm=none int=(grid=ultrafine) guess=(read,tcheck) s
 table=(opt,rrhf)
 ----------------------------------------------------------------------
 -----
 title
 -----
 Symbolic Z-matrix:
 Charge =  0 Multiplicity = 1

 SCF Done:  E(RHF) =  -227.821752327     A.U. after   13 cycles
 Normal termination of Gaussian 16 at Sat Apr  5 23:01:05 2025.
 Gaussian 16:  ES64L-G16RevC.01  3-Jul-2019

 ----------------------------------------------------------------------
 #t hf aug-cc-pvdz iop(5/13=1,5/36=2,99/5=2) pseudo=read geom=check gue
 ss=(read,tcheck) scf=(maxcycle=1)
 ----------------------------------------------------------------------
 -----
 title
 -----
 Structure from the checkpoint file:  "methyl_formate.chk"
 Charge =  0 Multiplicity = 1

                         Standard orientation:
 ---------------------------------------------------------------------
 Center     Atomic      Atomic             Coordinates (Angstroms)
 Number     Number       Type             X           Y           Z
 ---------------------------------------------------------------------
      1          6           0        0.932507   -0.092918    0.000000
      2          6           0       -1.369372    0.416095    0.000000
      3          8           0        0.725872   -1.275132    0.000000
      4          8           0        0.000000    0.866990    0.000000
      5          1           0        1.926421    0.370591    0.000000
      6          1           0       -1.972732    1.317760    0.000000
      7          1           0       -1.569738   -0.181136    0.887236
      8          1           0       -1.569738   -0.181136   -0.887236
 ---------------------------------------------------------------------

 SCF Done:  E(RHF) =  -227.898526879     A.U. after    2 cycles

 The electronic state is 1-A'.
 Alpha  occ. eigenvalues --  -20.62863 -20.57380 -11.40046 -11.30506  -1.42894
 Alpha  occ. eigenvalues --   -1.33711  -0.99539  -0.82483  -0.75240  -0.69736
 Alpha  occ. eigenvalues --   -0.68908  -0.60853  -0.56652  -0.54925  -0.48806
 Alpha  occ. eigenvalues --   -0.48398
 Alpha virt. eigenvalues --    0.03421   0.04603   0.05773   0.06057   0.09815
 Alpha virt. eigenvalues --    0.09817   0.10615   0.14205   0.15631   0.15765
 Alpha virt. eigenvalues --    0.17179   0.17182   0.18677   0.21122   0.25143

 Mulliken charges:
               1
     1  C    0.664588
     2  C    0.771406
     3  O   -0.381411
     4  O   -0.513668
     5  H   -0.168215
     6  H   -0.216091
     7  H   -0.078305
     8  H   -0.078305
 Sum of Mulliken charges =   0.00000

 Dipole moment (field-independent basis, Debye):
    X=             -0.8405    Y=              1.9510    Z=             -0.0000  Tot=              2.1243

 Test job not archived.
 1\1\GINC-SE225\SP\RHF\Aug-CC-pVDZ\C2H4O2\OHZDE\05-Apr-2025\0\\#t hf au
 g-cc-pvdz iop(5/13=1,5/36=2,99/5=2) pseudo=read geom=check guess=(read
 ,tcheck) scf=(maxcycle=1)\\title\\0,1\C,0,0.932507,-0.092918,0.\C,0,-1
 .369372,0.416095,0.\O,0,0.725872,-1.275132,0.\O,0,0.,0.86699,0.\H,0,1.
 926421,0.370591,0.\H,0,-1.972732,1.31776,0.\H,0,-1.569738,-0.181136,0.
 887236\H,0,-1.569738,-0.181136,-0.887236\\Version=ES64L-G16RevC.01\Sta
 te=1-A'\HF=-227.8985269\RMSD=2.409e-03\Dipole=-0.3306756,0.7675781,0.\
 Quadrupole=3.7651914,-4.237281,0.4720896,1.202018,0.,0.\PG=CS [SG(C2H2

 Normal termination of Gaussian 16 at Sat Apr  5 23:02:14 2025.
