 Gaussian 16, Revision C.01,

 ----------------------------------------------------------------------
 #t hf aug-cc-pvdz symm=none int=(grid=ultrafine) guess=(read,tcheck) s
 table=(opt,rrhf)
 ----------------------------------------------------------------------
 -----
 title
 -----
 Symbolic Z-matrix:
 Charge =  0 Multiplicity = 1

 SCF Done:  E(RHF) =  -154.904962504     A.U. after   12 cycles
 Normal termination of Gaussian 16 at Sat Apr  5 23:03:09 2025.
 Gaussian 16:  ES64L-G16RevC.01  3-Jul-2019

 ----------------------------------------------------------------------
 #t hf aug-cc-pvdz iop(5/13=1,5/36=2,99/5=2) pseudo=read geom=check gue
 ss=(read,tcheck) scf=(maxcycle=1)
 ----------------------------------------------------------------------
 -----
 title
 -----
 Structure from the checkpoint file:  "methylenecyclopropane.chk"
 Charge =  0 Multiplicity = 1

                         Standard orientation:
 ---------------------------------------------------------------------
 Center     Atomic      Atomic             Coordinates (Angstroms)
 Number     Number       Type             X           Y           Z
 ---------------------------------------------------------------------
      1          6           0        0.000000    0.000000    1.631581
      2          6           0        0.000000    0.000000    0.315547
      3          1           0        0.000000    0.924656    2.195166
      4          1           0       -0.000000   -0.924656    2.195166
      5          6           0        0.000000    0.769087   -0.928764
      6          6           0       -0.000000   -0.769087   -0.928764
      7          1           0        0.910119    1.272300   -1.231981
      8          1           0       -0.910119    1.272300   -1.231981
      9          1           0       -0.910119   -1.272300   -1.231981
     10          1           0        0.910119   -1.272300   -1.231981
 ---------------------------------------------------------------------

 SCF Done:  E(RHF) =  -154.955502941     A.U. after    2 cycles

 The electronic state is 1-A1.
 Alpha  occ. eigenvalues --  -11.25397 -11.24399 -11.24369 -11.23311  -1.14336
 Alpha  occ. eigenvalues --   -0.97340  -0.83482  -0.73167  -0.65082  -0.64408
 Alpha  occ. eigenvalues --   -0.60048  -0.52544  -0.44063  -0.42708  -0.36572
 Alpha virt. eigenvalues --    0.03737   0.04625   0.04810   0.04971   0.06740
 Alpha virt. eigenvalues --    0.07409   0.09685   0.11493   0.12017   0.13648
 Alpha virt. eigenvalues --    0.14485   0.15349   0.15786   0.16180   0.17540

 Mulliken charges:
               1
     1  C    0.692787
     2  C   -0.663238
     3  H   -0.268464
     4  H   -0.268464
     5  C    0.551314
     6  C    0.551314
     7  H   -0.148812
     8  H   -0.148812
     9  H   -0.148812
    10  H   -0.148812
 Sum of Mulliken charges =  -0.00000

 Dipole moment (field-independent basis, Debye):
    X=             -0.0000    Y=             -0.0000    Z=             -0.4845  Tot=              0.4845

 Test job not archived.
 1\1\GINC-SE225\SP\RHF\Aug-CC-pVDZ\C4H6\OHZDE\05-Apr-2025\0\\#t hf aug-
 cc-pvdz iop(5/13=1,5/36=2,99/5=2) pseudo=read geom=check guess=(read,t
 check) scf=(maxcycle=1)\\title\\0,1\C,0,0.,0.,1.631581\C,0,0.,0.,0.315
 547\H,0,0.,0.924656,2.195166\H,0,0.,-0.924656,2.195166\C,0,0.,0.769087
 ,-0.928764\C,0,0.,-0.769087,-0.928764\H,0,0.910119,1.2723,-1.231981\H,
 0,-0.910119,1.2723,-1.231981\H,0,-0.910119,-1.2723,-1.231981\H,0,0.910
 119,-1.2723,-1.231981\\Version=ES64L-G16RevC.01\State=1-A1\HF=-154.955
 5029\RMSD=8.422e-03\Dipole=0.,0.,-0.1906321\Quadrupole=-0.6500041,0.40

 Normal termination of Gaussian 16 at Sat Apr  5 23:03:17 2025.
