 Gaussian 16, Revision C.01,

 ----------------------------------------------------------------------
 #t hf aug-cc-pvdz symm=none int=(grid=ultrafine) guess=(read,tcheck) s
 table=(opt,rrhf)
 ----------------------------------------------------------------------
 -----
 title
 -----
 Symbolic Z-matrix:
 Charge =  0 Multiplicity = 1

 SCF Done:  E(RHF) =  -418.329754194     A.U. after   15 cycles
 Normal termination of Gaussian 16 at Sat Apr  5 23:03:07 2025.
 Gaussian 16:  ES64L-G16RevC.01  3-Jul-2019

 ----------------------------------------------------------------------
 #t hf aug-cc-pvdz iop(5/13=1,5/36=2,99/5=2) pseudo=read geom=check gue
 ss=(read,tcheck) scf=(maxcycle=1)
 ----------------------------------------------------------------------
 -----
 title
 -----
 Structure from the checkpoint file:  "methylbenzoquinone.chk"
 Charge =  0 Multiplicity = 1

                         Standard orientation:
 ---------------------------------------------------------------------
 Center     Atomic      Atomic             Coordinates (Angstroms)
 Number     Number       Type             X           Y           Z
 ---------------------------------------------------------------------
      1          6           0        0.157346    2.550685    0.000000
      2          6           0        0.000000    1.065125    0.000000
      3          6           0        1.254968    0.250008    0.000000
      4          6           0       -1.184685    0.435491    0.000000
      5          8           0        2.350763    0.783788    0.000000
      6          6           0        1.133424   -1.225777    0.000000
      7          6           0       -1.308516   -1.034538    0.000000
      8          6           0       -0.057139   -1.827836    0.000000
      9          8           0       -2.399405   -1.581506    0.000000
     10          1           0       -0.810637    3.047202    0.000000
     11          1           0        0.726761    2.875723    0.872072
     12          1           0        0.726761    2.875723   -0.872072
     13          1           0       -2.120792    0.980088    0.000000
     14          1           0        2.067297   -1.772322    0.000000
     15          1           0       -0.172634   -2.903622    0.000000
 ---------------------------------------------------------------------

 SCF Done:  E(RHF) =  -418.455242216     A.U. after    2 cycles

 The electronic state is 1-A'.
 Alpha  occ. eigenvalues --  -20.59426 -20.58805 -11.37124 -11.36707 -11.29634
 Alpha  occ. eigenvalues --  -11.28936 -11.28771 -11.27814 -11.25402  -1.38047
 Alpha  occ. eigenvalues --   -1.37242  -1.15418  -1.08693  -0.98844  -0.94164
 Alpha  occ. eigenvalues --   -0.85902  -0.81803  -0.73214  -0.71541  -0.68969
 Alpha  occ. eigenvalues --   -0.63823  -0.62647  -0.62087  -0.60839  -0.58626
 Alpha  occ. eigenvalues --   -0.57863  -0.56263  -0.56187  -0.47753  -0.44913
 Alpha  occ. eigenvalues --   -0.42216  -0.39931
 Alpha virt. eigenvalues --   -0.00125   0.03133   0.03566   0.04644   0.05695
 Alpha virt. eigenvalues --    0.05734   0.06579   0.09950   0.10402   0.10561
 Alpha virt. eigenvalues --    0.11087   0.11250   0.12659   0.12894   0.13726

 Mulliken charges:
               1
     1  C    0.359855
     2  C    0.187559
     3  C   -0.459531
     4  C    0.957926
     5  O   -0.551182
     6  C    0.867016
     7  C   -0.219675
     8  C    0.721451
     9  O   -0.514727
    10  H   -0.134232
    11  H    0.084367
    12  H    0.084367
    13  H   -0.495195
    14  H   -0.469068
    15  H   -0.418931
 Sum of Mulliken charges =  -0.00000

 Dipole moment (field-independent basis, Debye):
    X=              0.4165    Y=              0.7110    Z=              0.0000  Tot=              0.8240

 Test job not archived.
 1\1\GINC-SE104\SP\RHF\Aug-CC-pVDZ\C7H6O2\OHZDE\05-Apr-2025\0\\#t hf au
 g-cc-pvdz iop(5/13=1,5/36=2,99/5=2) pseudo=read geom=check guess=(read
 ,tcheck) scf=(maxcycle=1)\\title\\0,1\C,0,0.157346,2.550685,0.\C,0,0.,
 1.065125,0.\C,0,1.254968,0.250008,0.\C,0,-1.184685,0.435491,0.\O,0,2.3
 50763,0.783788,0.\C,0,1.133424,-1.225777,0.\C,0,-1.308516,-1.034538,0.
 \C,0,-0.057139,-1.827836,0.\O,0,-2.399405,-1.581506,0.\H,0,-0.810637,3
 .047202,0.\H,0,0.726761,2.875723,0.872072\H,0,0.726761,2.875723,-0.872
 072\H,0,-2.120792,0.980088,0.\H,0,2.067297,-1.772322,0.\H,0,-0.172634,

 Normal termination of Gaussian 16 at Sat Apr  5 23:03:21 2025.
