 Gaussian 16, Revision C.01,

 ----------------------------------------------------------------------
 #t hf aug-cc-pvdz symm=none int=(grid=ultrafine) guess=(read,tcheck) s
 table=(opt,rrhf)
 ----------------------------------------------------------------------
 -----
 title
 -----
 Symbolic Z-matrix:
 Charge =  0 Multiplicity = 1

 SCF Done:  E(RHF) =  -115.061543901     A.U. after   11 cycles
 Normal termination of Gaussian 16 at Sat Apr  5 23:00:24 2025.
 Gaussian 16:  ES64L-G16RevC.01  3-Jul-2019

 ----------------------------------------------------------------------
 #t hf aug-cc-pvdz iop(5/13=1,5/36=2,99/5=2) pseudo=read geom=check gue
 ss=(read,tcheck) scf=(maxcycle=1)
 ----------------------------------------------------------------------
 -----
 title
 -----
 Structure from the checkpoint file:  "methanol.chk"
 Charge =  0 Multiplicity = 1

                         Standard orientation:
 ---------------------------------------------------------------------
 Center     Atomic      Atomic             Coordinates (Angstroms)
 Number     Number       Type             X           Y           Z
 ---------------------------------------------------------------------
      1          6           0        0.046493    0.666056    0.000000
      2          8           0        0.046493   -0.757300    0.000000
      3          1           0       -0.438632    1.076138    0.890767
      4          1           0       -0.438632    1.076138   -0.890767
      5          1           0        1.088355    0.979641    0.000000
      6          1           0       -0.861989   -1.069858    0.000000
 ---------------------------------------------------------------------

 SCF Done:  E(RHF) =  -115.101582529     A.U. after    2 cycles

 The electronic state is 1-A'.
 Alpha  occ. eigenvalues --  -20.57239 -11.28416  -1.31747  -0.92697  -0.70316
 Alpha  occ. eigenvalues --   -0.62841  -0.60484  -0.51294  -0.46553
 Alpha virt. eigenvalues --    0.03399   0.05228   0.05824   0.06545   0.11431
 Alpha virt. eigenvalues --    0.13981   0.15293   0.17139   0.20618   0.22100
 Alpha virt. eigenvalues --    0.24140   0.28039   0.28109   0.32399   0.33640

 Mulliken charges:
               1
     1  C    0.804642
     2  O   -0.497462
     3  H   -0.122306
     4  H   -0.122306
     5  H   -0.185120
     6  H    0.122552
 Sum of Mulliken charges =  -0.00000

 Dipole moment (field-independent basis, Debye):
    X=             -1.5011    Y=              1.1423    Z=             -0.0000  Tot=              1.8863

 Test job not archived.
 1\1\GINC-SE036\SP\RHF\Aug-CC-pVDZ\C1H4O1\OHZDE\05-Apr-2025\0\\#t hf au
 g-cc-pvdz iop(5/13=1,5/36=2,99/5=2) pseudo=read geom=check guess=(read
 ,tcheck) scf=(maxcycle=1)\\title\\0,1\C,0,0.046493,0.666056,0.\O,0,0.0
 46493,-0.7573,0.\H,0,-0.438632,1.076138,0.890767\H,0,-0.438632,1.07613
 8,-0.890767\H,0,1.088355,0.979641,0.\H,0,-0.861989,-1.069858,0.\\Versi
 on=ES64L-G16RevC.01\State=1-A'\HF=-115.1015825\RMSD=2.313e-03\Dipole=-
 0.5905899,0.4493992,0.\Quadrupole=0.9322827,-0.327501,-0.6047817,1.657
 3738,0.,0.\PG=CS [SG(C1H2O1),X(H2)]\\@

 Normal termination of Gaussian 16 at Sat Apr  5 23:00:26 2025.
