 Gaussian 16, Revision C.01,

 ----------------------------------------------------------------------
 #t hf aug-cc-pvdz symm=none int=(grid=ultrafine) guess=(read,tcheck) s
 table=(opt,rrhf)
 ----------------------------------------------------------------------
 -----
 title
 -----
 Symbolic Z-matrix:
 Charge =  0 Multiplicity = 1

 SCF Done:  E(RHF) =  -94.0473977591     A.U. after   11 cycles
 Normal termination of Gaussian 16 at Sat Apr  5 23:00:06 2025.
 Gaussian 16:  ES64L-G16RevC.01  3-Jul-2019

 ----------------------------------------------------------------------
 #t hf aug-cc-pvdz iop(5/13=1,5/36=2,99/5=2) pseudo=read geom=check gue
 ss=(read,tcheck) scf=(maxcycle=1)
 ----------------------------------------------------------------------
 -----
 title
 -----
 Structure from the checkpoint file:  "methanimine.chk"
 Charge =  0 Multiplicity = 1

                         Standard orientation:
 ---------------------------------------------------------------------
 Center     Atomic      Atomic             Coordinates (Angstroms)
 Number     Number       Type             X           Y           Z
 ---------------------------------------------------------------------
      1          6           0        0.056004    0.583317    0.000000
      2          7           0        0.056004   -0.680483    0.000000
      3          1           0       -0.843040    1.205928    0.000000
      4          1           0        1.009028    1.110493    0.000000
      5          1           0       -0.894042   -1.052940    0.000000
 ---------------------------------------------------------------------

 SCF Done:  E(RHF) =  -94.0771756912     A.U. after    2 cycles

 The electronic state is 1-A'.
 Alpha  occ. eigenvalues --  -15.63143 -11.29746  -1.18266  -0.84000  -0.68763
 Alpha  occ. eigenvalues --   -0.60605  -0.45127  -0.42454
 Alpha virt. eigenvalues --    0.03416   0.04654   0.05843   0.08657   0.11483
 Alpha virt. eigenvalues --    0.14648   0.15524   0.16775   0.19805   0.21164
 Alpha virt. eigenvalues --    0.23127   0.25677   0.30896   0.32419   0.33241

 Mulliken charges:
               1
     1  C    0.616956
     2  N   -0.289864
     3  H   -0.156936
     4  H   -0.206672
     5  H    0.036515
 Sum of Mulliken charges =   0.00000

 Dipole moment (field-independent basis, Debye):
    X=             -1.4436    Y=              1.6432    Z=              0.0000  Tot=              2.1873

 Test job not archived.
 1\1\GINC-SE155\SP\RHF\Aug-CC-pVDZ\C1H3N1\OHZDE\05-Apr-2025\0\\#t hf au
 g-cc-pvdz iop(5/13=1,5/36=2,99/5=2) pseudo=read geom=check guess=(read
 ,tcheck) scf=(maxcycle=1)\\title\\0,1\C,0,0.056004,0.583317,0.\N,0,0.0
 56004,-0.680483,0.\H,0,-0.84304,1.205928,0.\H,0,1.009028,1.110493,0.\H
 ,0,-0.894042,-1.05294,0.\\Version=ES64L-G16RevC.01\State=1-A'\HF=-94.0
 771757\RMSD=1.787e-03\Dipole=-0.5679747,0.6465037,0.\Quadrupole=0.7849
 026,0.0930229,-0.8779255,1.5787784,0.,0.\PG=CS [SG(C1H3N1)]\\@

 Normal termination of Gaussian 16 at Sat Apr  5 23:00:07 2025.
