 Gaussian 16, Revision C.01,

 ----------------------------------------------------------------------
 #t hf aug-cc-pvdz symm=none int=(grid=ultrafine) guess=(read,tcheck) s
 table=(opt,rrhf)
 ----------------------------------------------------------------------
 -----
 title
 -----
 Symbolic Z-matrix:
 Charge =  0 Multiplicity = 1

 SCF Done:  E(RHF) =  -284.901809934     A.U. after   14 cycles
 Normal termination of Gaussian 16 at Sat Apr  5 23:00:18 2025.
 Gaussian 16:  ES64L-G16RevC.01  3-Jul-2019

 ----------------------------------------------------------------------
 #t hf aug-cc-pvdz iop(5/13=1,5/36=2,99/5=2) pseudo=read geom=check gue
 ss=(read,tcheck) scf=(maxcycle=1)
 ----------------------------------------------------------------------
 -----
 title
 -----
 Structure from the checkpoint file:  "methacrylamide.chk"
 Charge =  0 Multiplicity = 1

                         Standard orientation:
 ---------------------------------------------------------------------
 Center     Atomic      Atomic             Coordinates (Angstroms)
 Number     Number       Type             X           Y           Z
 ---------------------------------------------------------------------
      1          7           0       -1.672206    0.735432    0.281233
      2          1           0       -2.635471    0.448331    0.316740
      3          1           0       -1.408035    1.582616    0.748896
      4          6           0        1.669363   -0.902956    0.274192
      5          1           0        1.491299   -1.339113    1.259311
      6          1           0        1.537891   -1.708491   -0.448267
      7          1           0        2.695543   -0.542835    0.230507
      8          6           0        1.067908    1.453999   -0.283116
      9          1           0        0.354906    2.225169   -0.540582
     10          1           0        2.112388    1.736805   -0.297815
     11          6           0       -0.747453   -0.216273   -0.042278
     12          8           0       -1.070845   -1.348227   -0.361502
     13          6           0        0.697462    0.204449   -0.006366
 ---------------------------------------------------------------------

 SCF Done:  E(RHF) =  -284.991779961     A.U. after    2 cycles

 The electronic state is 1-A.
 Alpha  occ. eigenvalues --  -20.53836 -15.64999 -11.36940 -11.26806 -11.25480
 Alpha  occ. eigenvalues --  -11.23462  -1.34938  -1.18113  -1.08580  -0.94521
 Alpha  occ. eigenvalues --   -0.86398  -0.76321  -0.71801  -0.67723  -0.63491
 Alpha  occ. eigenvalues --   -0.61047  -0.59102  -0.55776  -0.54128  -0.53238
 Alpha  occ. eigenvalues --   -0.44518  -0.41971  -0.38286
 Alpha virt. eigenvalues --    0.02882   0.03876   0.04586   0.05495   0.06228
 Alpha virt. eigenvalues --    0.07015   0.07896   0.09133   0.10570   0.12250
 Alpha virt. eigenvalues --    0.13200   0.14397   0.14674   0.15078   0.16345

 Mulliken charges:
               1
     1  N   -0.126911
     2  H   -0.008592
     3  H   -0.010732
     4  C    0.211976
     5  H    0.078954
     6  H    0.080679
     7  H   -0.117905
     8  C    1.044322
     9  H   -0.409574
    10  H   -0.372028
    11  C    0.298329
    12  O   -0.556168
    13  C   -0.112352
 Sum of Mulliken charges =   0.00000

 Dipole moment (field-independent basis, Debye):
    X=              0.6930    Y=              3.6825    Z=              1.5252  Tot=              4.0457

 Test job not archived.
 1\1\GINC-SE211\SP\RHF\Aug-CC-pVDZ\C4H7N1O1\OHZDE\05-Apr-2025\0\\#t hf
 aug-cc-pvdz iop(5/13=1,5/36=2,99/5=2) pseudo=read geom=check guess=(re
 ad,tcheck) scf=(maxcycle=1)\\title\\0,1\N,0,-1.672206,0.735432,0.28123
 3\H,0,-2.635471,0.448331,0.31674\H,0,-1.408035,1.582616,0.748896\C,0,1
 .669363,-0.902956,0.274192\H,0,1.491299,-1.339113,1.259311\H,0,1.53789
 1,-1.708491,-0.448267\H,0,2.695543,-0.542835,0.230507\C,0,1.067908,1.4
 53999,-0.283116\H,0,0.354906,2.225169,-0.540582\H,0,2.112388,1.736805,
 -0.297815\C,0,-0.747453,-0.216273,-0.042278\O,0,-1.070845,-1.348227,-0

 Normal termination of Gaussian 16 at Sat Apr  5 23:00:22 2025.
