 Gaussian 16, Revision C.01,

 ----------------------------------------------------------------------
 #t hf aug-cc-pvdz symm=none int=(grid=ultrafine) guess=(read,tcheck) s
 table=(opt,rrhf)
 ----------------------------------------------------------------------
 -----
 title
 -----
 Symbolic Z-matrix:
 Charge =  0 Multiplicity = 1

 SCF Done:  E(RHF) =  -383.989856436     A.U. after   13 cycles

 1\1\GINC-SE009\Stability\RHF\Aug-CC-pVDZ\C6H12O2\OHZDE\05-Apr-2025\0\\
 #t hf aug-cc-pvdz symm=none int=(grid=ultrafine) guess=(read,tcheck) s
 table=(opt,rrhf)\\title\\0,1\C,0,-1.162065,-0.3166,0.\C,0,3.891987,0.2
 93233,0.\C,0,-3.521231,-0.471592,0.\C,0,0.,0.649193,0.\C,0,2.521478,0.
 967777,0.\C,0,1.364398,-0.031139,0.\O,0,-1.082593,-1.519471,0.\O,0,-2.
 339681,0.346164,0.\H,0,4.019803,-0.339306,0.880577\H,0,4.019803,-0.339
 306,-0.880577\H,0,4.697325,1.028826,0.\H,0,-3.548612,-1.103036,0.88626
 2\H,0,-3.548612,-1.103036,-0.886262\H,0,-4.356547,0.221758,0.\H,0,-0.1

 Normal termination of Gaussian 16 at Sat Apr  5 23:01:39 2025.
 Gaussian 16:  ES64L-G16RevC.01  3-Jul-2019

 ----------------------------------------------------------------------
 #t hf aug-cc-pvdz iop(5/13=1,5/36=2,99/5=2) pseudo=read geom=check gue
 ss=(read,tcheck) scf=(maxcycle=1)
 ----------------------------------------------------------------------
 -----
 title
 -----
 Structure from the checkpoint file:  "methyl_pentanoate.chk"
 Charge =  0 Multiplicity = 1

                         Standard orientation:
 ---------------------------------------------------------------------
 Center     Atomic      Atomic             Coordinates (Angstroms)
 Number     Number       Type             X           Y           Z
 ---------------------------------------------------------------------
      1          6           0       -1.162065   -0.316600    0.000000
      2          6           0        3.891987    0.293232    0.000000
      3          6           0       -3.521231   -0.471591    0.000000
      4          6           0       -0.000000    0.649193    0.000000
      5          6           0        2.521478    0.967776    0.000000
      6          6           0        1.364398   -0.031139    0.000000
      7          8           0       -1.082593   -1.519471    0.000000
      8          8           0       -2.339681    0.346164    0.000000
      9          1           0        4.019803   -0.339307    0.880577
     10          1           0        4.019803   -0.339307   -0.880577
     11          1           0        4.697325    1.028825    0.000000
     12          1           0       -3.548612   -1.103035    0.886262
     13          1           0       -3.548612   -1.103035   -0.886262
     14          1           0       -4.356547    0.221759    0.000000
     15          1           0       -0.114752    1.302305   -0.869458
     16          1           0       -0.114752    1.302305    0.869458
     17          1           0        2.437814    1.621045    0.874090
     18          1           0        2.437814    1.621045   -0.874090
     19          1           0        1.440757   -0.685686    0.871083
     20          1           0        1.440757   -0.685686   -0.871083
 ---------------------------------------------------------------------

 SCF Done:  E(RHF) =  -384.114494489     A.U. after    2 cycles

 The electronic state is 1-A'.
 Alpha  occ. eigenvalues --  -20.61360 -20.55810 -11.38939 -11.29531 -11.25015
 Alpha  occ. eigenvalues --  -11.23186 -11.23092 -11.22336  -1.41654  -1.32160
 Alpha  occ. eigenvalues --   -1.08153  -1.01986  -0.96460  -0.88436  -0.80450
 Alpha  occ. eigenvalues --   -0.77473  -0.70583  -0.68957  -0.68376  -0.64872
 Alpha  occ. eigenvalues --   -0.60430  -0.59415  -0.58427  -0.54442  -0.54395
 Alpha  occ. eigenvalues --   -0.53474  -0.50397  -0.48622  -0.48024  -0.47968
 Alpha  occ. eigenvalues --   -0.46950  -0.45802
 Alpha virt. eigenvalues --    0.03408   0.03909   0.04795   0.04836   0.05537
 Alpha virt. eigenvalues --    0.06013   0.06271   0.07025   0.07869   0.08446
 Alpha virt. eigenvalues --    0.08639   0.10158   0.11222   0.12000   0.13878

 Mulliken charges:
               1
     1  C    0.258153
     2  C    0.596001
     3  C    0.814255
     4  C    0.209998
     5  C    0.341554
     6  C    0.193927
     7  O   -0.436933
     8  O   -0.542165
     9  H   -0.076403
    10  H   -0.076403
    11  H   -0.063138
    12  H   -0.072245
    13  H   -0.072245
    14  H   -0.277464
    15  H   -0.056123
    16  H   -0.056123
    17  H   -0.158852
    18  H   -0.158852
    19  H   -0.183471
    20  H   -0.183471
 Sum of Mulliken charges =  -0.00000

 Dipole moment (field-independent basis, Debye):
    X=             -0.4129    Y=              1.8926    Z=              0.0000  Tot=              1.9371

 Test job not archived.
 1\1\GINC-SE009\SP\RHF\Aug-CC-pVDZ\C6H12O2\OHZDE\05-Apr-2025\0\\#t hf a
 ug-cc-pvdz iop(5/13=1,5/36=2,99/5=2) pseudo=read geom=check guess=(rea
 d,tcheck) scf=(maxcycle=1)\\title\\0,1\C,0,-1.162065,-0.3166,0.\C,0,3.
 891987,0.293233,0.\C,0,-3.521231,-0.471592,0.\C,0,0.,0.649193,0.\C,0,2
 .521478,0.967777,0.\C,0,1.364398,-0.031139,0.\O,0,-1.082593,-1.519471,
 0.\O,0,-2.339681,0.346164,0.\H,0,4.019803,-0.339306,0.880577\H,0,4.019
 803,-0.339306,-0.880577\H,0,4.697325,1.028826,0.\H,0,-3.548612,-1.1030
 36,0.886262\H,0,-3.548612,-1.103036,-0.886262\H,0,-4.356547,0.221758,0

 Normal termination of Gaussian 16 at Sat Apr  5 23:02:18 2025.
