 Gaussian 16, Revision C.01,

 ----------------------------------------------------------------------
 #t hf aug-cc-pvdz symm=none int=(grid=ultrafine) guess=(read,tcheck) s
 table=(opt,rrhf)
 ----------------------------------------------------------------------
 -----
 title
 -----
 Symbolic Z-matrix:
 Charge =  0 Multiplicity = 1

 SCF Done:  E(RHF) =  -423.028696660     A.U. after   13 cycles

 1\1\GINC-SE041\Stability\RHF\Aug-CC-pVDZ\C7H14O2\OHZDE\05-Apr-2025\0\\
 #t hf aug-cc-pvdz symm=none int=(grid=ultrafine) guess=(read,tcheck) s
 table=(opt,rrhf)\\title\\0,1\C,0,1.488939,1.017839,0.\C,0,-3.766271,-2
 .671937,0.\C,0,3.138511,2.711319,0.\C,0,0.,0.760101,0.\C,0,-2.256886,-
 2.436231,0.\C,0,-0.365395,-0.720041,0.\C,0,-1.876026,-0.955711,0.\O,0,
 2.352499,0.176679,0.\O,0,1.749338,2.343823,0.\H,0,-4.235468,-2.228565,
 0.880789\H,0,-4.235468,-2.228565,-0.880789\H,0,-4.00323,-3.736674,0.\H
 ,0,3.153724,3.796785,0.\H,0,3.636516,2.322018,-0.886207\H,0,3.636516,2

 Normal termination of Gaussian 16 at Sat Apr  5 23:02:35 2025.
 Gaussian 16:  ES64L-G16RevC.01  3-Jul-2019

 ----------------------------------------------------------------------
 #t hf aug-cc-pvdz iop(5/13=1,5/36=2,99/5=2) pseudo=read geom=check gue
 ss=(read,tcheck) scf=(maxcycle=1)
 ----------------------------------------------------------------------
 -----
 title
 -----
 Structure from the checkpoint file:  "methyl_hexanoate.chk"
 Charge =  0 Multiplicity = 1

                         Standard orientation:
 ---------------------------------------------------------------------
 Center     Atomic      Atomic             Coordinates (Angstroms)
 Number     Number       Type             X           Y           Z
 ---------------------------------------------------------------------
      1          6           0        1.488939    1.017839    0.000000
      2          6           0       -3.766272   -2.671936    0.000000
      3          6           0        3.138511    2.711318    0.000000
      4          6           0        0.000000    0.760101    0.000000
      5          6           0       -2.256886   -2.436231    0.000000
      6          6           0       -0.365395   -0.720041    0.000000
      7          6           0       -1.876026   -0.955711    0.000000
      8          8           0        2.352499    0.176679    0.000000
      9          8           0        1.749338    2.343823    0.000000
     10          1           0       -4.235468   -2.228564    0.880789
     11          1           0       -4.235468   -2.228564   -0.880789
     12          1           0       -4.003231   -3.736673    0.000000
     13          1           0        3.153724    3.796784    0.000000
     14          1           0        3.636516    2.322017   -0.886207
     15          1           0        3.636516    2.322017    0.886207
     16          1           0       -0.422849    1.270771   -0.869472
     17          1           0       -0.422849    1.270771    0.869472
     18          1           0       -1.811862   -2.921057   -0.873831
     19          1           0       -1.811862   -2.921057    0.873831
     20          1           0        0.084585   -1.201251    0.871034
     21          1           0        0.084585   -1.201251   -0.871034
     22          1           0       -2.322130   -0.469995   -0.874710
     23          1           0       -2.322130   -0.469995    0.874710
 ---------------------------------------------------------------------

 SCF Done:  E(RHF) =  -423.165312181     A.U. after    2 cycles

 The electronic state is 1-A'.
 Alpha  occ. eigenvalues --  -20.61348 -20.55794 -11.38921 -11.29519 -11.24997
 Alpha  occ. eigenvalues --  -11.23081 -11.22905 -11.22758 -11.22214  -1.41639
 Alpha  occ. eigenvalues --   -1.32143  -1.08539  -1.03816  -0.98246  -0.92886
 Alpha  occ. eigenvalues --   -0.84306  -0.79497  -0.77451  -0.70590  -0.68955
 Alpha  occ. eigenvalues --   -0.68315  -0.65431  -0.61125  -0.60619  -0.57703
 Alpha  occ. eigenvalues --   -0.56415  -0.56054  -0.53752  -0.52613  -0.51171
 Alpha  occ. eigenvalues --   -0.48715  -0.47743  -0.47689  -0.47121  -0.46612
 Alpha  occ. eigenvalues --   -0.45375
 Alpha virt. eigenvalues --    0.03414   0.03840   0.04589   0.04653   0.05337
 Alpha virt. eigenvalues --    0.05906   0.06122   0.06885   0.07102   0.07725
 Alpha virt. eigenvalues --    0.07890   0.09695   0.10043   0.10953   0.11086

 Mulliken charges:
               1
     1  C    0.252947
     2  C    0.598241
     3  C    0.830558
     4  C    0.275267
     5  C    0.501695
     6  C    0.295515
     7  C    0.103442
     8  O   -0.436760
     9  O   -0.538587
    10  H   -0.095625
    11  H   -0.095625
    12  H   -0.069766
    13  H   -0.281266
    14  H   -0.074418
    15  H   -0.074418
    16  H   -0.063291
    17  H   -0.063291
    18  H   -0.149597
    19  H   -0.149597
    20  H   -0.195820
    21  H   -0.195820
    22  H   -0.186892
    23  H   -0.186892
 Sum of Mulliken charges =  -0.00000

 Dipole moment (field-independent basis, Debye):
    X=             -1.1287    Y=              1.4635    Z=              0.0000  Tot=              1.8482

 Test job not archived.
 1\1\GINC-SE041\SP\RHF\Aug-CC-pVDZ\C7H14O2\OHZDE\05-Apr-2025\0\\#t hf a
 ug-cc-pvdz iop(5/13=1,5/36=2,99/5=2) pseudo=read geom=check guess=(rea
 d,tcheck) scf=(maxcycle=1)\\title\\0,1\C,0,1.488939,1.017839,0.\C,0,-3
 .766271,-2.671937,0.\C,0,3.138511,2.711319,0.\C,0,0.,0.760101,0.\C,0,-
 2.256886,-2.436231,0.\C,0,-0.365395,-0.720041,0.\C,0,-1.876026,-0.9557
 11,0.\O,0,2.352499,0.176679,0.\O,0,1.749338,2.343823,0.\H,0,-4.235468,
 -2.228565,0.880789\H,0,-4.235468,-2.228565,-0.880789\H,0,-4.00323,-3.7
 36674,0.\H,0,3.153724,3.796785,0.\H,0,3.636516,2.322018,-0.886207\H,0,

 Normal termination of Gaussian 16 at Sat Apr  5 23:03:11 2025.
