 Gaussian 16, Revision C.01,

 ----------------------------------------------------------------------
 #t hf aug-cc-pvdz symm=none int=(grid=ultrafine) guess=(read,tcheck) s
 table=(opt,rrhf)
 ----------------------------------------------------------------------
 -----
 title
 -----
 Symbolic Z-matrix:
 Charge =  0 Multiplicity = 1

 SCF Done:  E(RHF) =  -797.525575471     A.U. after   14 cycles
 Normal termination of Gaussian 16 at Sat Apr  5 23:02:34 2025.
 Gaussian 16:  ES64L-G16RevC.01  3-Jul-2019

 ----------------------------------------------------------------------
 #t hf aug-cc-pvdz iop(5/13=1,5/36=2,99/5=2) pseudo=read geom=check gue
 ss=(read,tcheck) scf=(maxcycle=1)
 ----------------------------------------------------------------------
 -----
 title
 -----
 Structure from the checkpoint file:  "methionine.chk"
 Charge =  0 Multiplicity = 1

                         Standard orientation:
 ---------------------------------------------------------------------
 Center     Atomic      Atomic             Coordinates (Angstroms)
 Number     Number       Type             X           Y           Z
 ---------------------------------------------------------------------
      1          7           0        1.383360   -1.709403   -0.280672
      2          6           0        0.902676   -0.326707   -0.137165
      3          6           0        2.097848    0.644277   -0.084187
      4          8           0        1.986464    1.809740    0.191438
      5          8           0        3.270321    0.085065   -0.408810
      6          1           0        3.067922   -0.861838   -0.574079
      7          6           0       -0.045437   -0.081707    1.039348
      8          6           0       -1.394296   -0.791390    0.929264
      9         16           0       -2.401897   -0.377571   -0.542342
     10          6           0       -2.782880    1.376943   -0.230855
     11          1           0        0.370857   -0.069835   -1.056761
     12          1           0        0.441708   -0.411029    1.964287
     13          1           0       -0.185549    0.993103    1.140986
     14          1           0       -1.266805   -1.872991    0.865831
     15          1           0       -1.989980   -0.594509    1.821028
     16          1           0       -3.454759    1.689893   -1.027050
     17          1           0       -3.289548    1.495435    0.725679
     18          1           0       -1.889992    1.996927   -0.261114
     19          1           0        1.404146   -2.198452    0.605725
     20          1           0        0.817076   -2.246682   -0.921820
 ---------------------------------------------------------------------

 SCF Done:  E(RHF) =  -797.671148813     A.U. after    2 cycles

 The electronic state is 1-A.
 Alpha  occ. eigenvalues --  -93.53630 -20.60922 -20.55112 -15.64913 -11.38870
 Alpha  occ. eigenvalues --  -11.30100 -11.28267 -11.26998 -11.25810  -8.83345
 Alpha  occ. eigenvalues --   -6.17507  -6.17286  -6.16998  -1.41206  -1.32224
 Alpha  occ. eigenvalues --   -1.19486  -1.08484  -1.01859  -0.96088  -0.88216
 Alpha  occ. eigenvalues --   -0.82061  -0.78976  -0.74750  -0.70220  -0.67765
 Alpha  occ. eigenvalues --   -0.64157  -0.63194  -0.62963  -0.61539  -0.59430
 Alpha  occ. eigenvalues --   -0.58777  -0.55162  -0.54144  -0.53283  -0.48965
 Alpha  occ. eigenvalues --   -0.48372  -0.47487  -0.43434  -0.42318  -0.34908
 Alpha virt. eigenvalues --    0.02499   0.03613   0.03941   0.04845   0.05538
 Alpha virt. eigenvalues --    0.06062   0.06901   0.07301   0.08215   0.08481
 Alpha virt. eigenvalues --    0.09309   0.10763   0.11424   0.12732   0.12762

 Mulliken charges:
               1
     1  N   -0.558893
     2  C   -0.081148
     3  C    0.694687
     4  O   -0.484721
     5  O   -0.483455
     6  H    0.264866
     7  C    0.409825
     8  C    0.342236
     9  S    0.388489
    10  C    0.161237
    11  H    0.060418
    12  H   -0.076851
    13  H   -0.239213
    14  H   -0.170117
    15  H   -0.043279
    16  H   -0.118135
    17  H   -0.104729
    18  H   -0.114957
    19  H    0.077465
    20  H    0.076274
 Sum of Mulliken charges =   0.00000

 Dipole moment (field-independent basis, Debye):
    X=             -2.8450    Y=             -3.9076    Z=              1.0625  Tot=              4.9490

 Test job not archived.
 1\1\GINC-SE084\SP\RHF\Aug-CC-pVDZ\C5H11N1O2S1\OHZDE\05-Apr-2025\0\\#t
 hf aug-cc-pvdz iop(5/13=1,5/36=2,99/5=2) pseudo=read geom=check guess=
 (read,tcheck) scf=(maxcycle=1)\\title\\0,1\N,0,1.38336,-1.709403,-0.28
 0672\C,0,0.902676,-0.326707,-0.137165\C,0,2.097848,0.644277,-0.084187\
 O,0,1.986464,1.80974,0.191438\O,0,3.270321,0.085065,-0.40881\H,0,3.067
 922,-0.861838,-0.574079\C,0,-0.045437,-0.081707,1.039348\C,0,-1.394296
 ,-0.79139,0.929264\S,0,-2.401897,-0.377571,-0.542342\C,0,-2.78288,1.37
 6943,-0.230855\H,0,0.370857,-0.069835,-1.056761\H,0,0.441708,-0.411029

 Normal termination of Gaussian 16 at Sat Apr  5 23:03:13 2025.
