 Gaussian 16, Revision C.01,

 ----------------------------------------------------------------------
 #t hf aug-cc-pvdz symm=none int=(grid=ultrafine) guess=(read,tcheck) s
 table=(opt,rrhf)
 ----------------------------------------------------------------------
 -----
 title
 -----
 Symbolic Z-matrix:
 Charge =  0 Multiplicity = 1

 SCF Done:  E(RHF) =  -1019.88540975     A.U. after   15 cycles
 Normal termination of Gaussian 16 at Sat Apr  5 23:01:06 2025.
 Gaussian 16:  ES64L-G16RevC.01  3-Jul-2019

 ----------------------------------------------------------------------
 #t hf aug-cc-pvdz iop(5/13=1,5/36=2,99/5=2) pseudo=read geom=check gue
 ss=(read,tcheck) scf=(maxcycle=1)
 ----------------------------------------------------------------------
 -----
 title
 -----
 Structure from the checkpoint file:  "methyl-N-cyanocarbamodithioate.chk"
 Charge =  0 Multiplicity = 1

                         Standard orientation:
 ---------------------------------------------------------------------
 Center     Atomic      Atomic             Coordinates (Angstroms)
 Number     Number       Type             X           Y           Z
 ---------------------------------------------------------------------
      1         16           0       -0.076910    1.429668   -0.296124
      2         16           0       -2.320711   -0.430993    0.003087
      3          7           0        0.165443   -1.221447    0.348448
      4          7           0        2.533504   -1.512398   -0.373747
      5          6           0       -0.698146   -0.166641    0.047913
      6          6           0        1.601581    1.576806    0.424261
      7          6           0        1.436784   -1.360874   -0.047466
      8          1           0        2.364170    1.136292   -0.207540
      9          1           0        1.754502    2.651750    0.498792
     10          1           0        1.630210    1.146822    1.421550
     11          1           0       -0.320891   -2.072484    0.604643
 ---------------------------------------------------------------------

 SCF Done:  E(RHF) =  -1019.99265807     A.U. after    2 cycles

 The electronic state is 1-A.
 Alpha  occ. eigenvalues --  -93.58909 -93.52493 -15.74606 -15.66664 -11.42411
 Alpha  occ. eigenvalues --  -11.35452 -11.29770  -8.88666  -8.82434  -6.22828
 Alpha  occ. eigenvalues --   -6.22533  -6.22235  -6.16630  -6.16151  -6.16000
 Alpha  occ. eigenvalues --   -1.31931  -1.21269  -1.10360  -1.03332  -0.91698
 Alpha  occ. eigenvalues --   -0.86440  -0.80924  -0.66234  -0.64312  -0.62753
 Alpha  occ. eigenvalues --   -0.60862  -0.57943  -0.53835  -0.50633  -0.49740
 Alpha  occ. eigenvalues --   -0.47604  -0.41485  -0.36630  -0.35053
 Alpha virt. eigenvalues --    0.02918   0.03298   0.04067   0.05367   0.06379
 Alpha virt. eigenvalues --    0.07260   0.08775   0.09176   0.09956   0.12012
 Alpha virt. eigenvalues --    0.12193   0.12862   0.13746   0.14030   0.14832

 Mulliken charges:
               1
     1  S    0.601756
     2  S    0.039639
     3  N   -0.206886
     4  N   -0.071424
     5  C    0.000410
     6  C    0.165206
     7  C   -0.365328
     8  H   -0.022419
     9  H   -0.119959
    10  H   -0.084450
    11  H    0.063456
 Sum of Mulliken charges =  -0.00000

 Dipole moment (field-independent basis, Debye):
    X=              1.0220    Y=              0.7978    Z=              1.7087  Tot=              2.1449

 Test job not archived.
 1\1\GINC-SE223\SP\RHF\Aug-CC-pVDZ\C3H4N2S2\OHZDE\05-Apr-2025\0\\#t hf
 aug-cc-pvdz iop(5/13=1,5/36=2,99/5=2) pseudo=read geom=check guess=(re
 ad,tcheck) scf=(maxcycle=1)\\title\\0,1\S,0,-0.076909,1.429668,-0.2961
 24\S,0,-2.320711,-0.430992,0.003087\N,0,0.165442,-1.221447,0.348448\N,
 0,2.533503,-1.512399,-0.373747\C,0,-0.698146,-0.16664,0.047913\C,0,1.6
 01582,1.576805,0.424261\C,0,1.436783,-1.360875,-0.047466\H,0,2.364171,
 1.136291,-0.20754\H,0,1.754503,2.651749,0.498792\H,0,1.630211,1.146821
 ,1.42155\H,0,-0.320892,-2.072484,0.604643\\Version=ES64L-G16RevC.01\St

 Normal termination of Gaussian 16 at Sat Apr  5 23:02:17 2025.
