 Gaussian 16, Revision C.01,

 ----------------------------------------------------------------------
 #t hf aug-cc-pvdz symm=none int=(grid=ultrafine) guess=(read,tcheck) s
 table=(opt,rrhf)
 ----------------------------------------------------------------------
 -----
 title
 -----
 Symbolic Z-matrix:
 Charge =  0 Multiplicity = 1

 SCF Done:  E(RHF) =  -913.342221621     A.U. after   14 cycles
 Normal termination of Gaussian 16 at Sat Apr  5 23:02:35 2025.
 Gaussian 16:  ES64L-G16RevC.01  3-Jul-2019

 ----------------------------------------------------------------------
 #t hf aug-cc-pvdz iop(5/13=1,5/36=2,99/5=2) pseudo=read geom=check gue
 ss=(read,tcheck) scf=(maxcycle=1)
 ----------------------------------------------------------------------
 -----
 title
 -----
 Structure from the checkpoint file:  "methyldisulfanylethane.chk"
 Charge =  0 Multiplicity = 1

                         Standard orientation:
 ---------------------------------------------------------------------
 Center     Atomic      Atomic             Coordinates (Angstroms)
 Number     Number       Type             X           Y           Z
 ---------------------------------------------------------------------
      1          6           0       -2.888226    0.352672    0.043352
      2          6           0        2.230326    1.007436    0.361276
      3          6           0       -1.472280    0.450501   -0.510263
      4         16           0        1.475203   -0.449173   -0.449721
      5         16           0       -0.358677   -0.632636    0.485898
      6          1           0       -3.263170   -0.670018   -0.003336
      7          1           0       -2.934951    0.684419    1.080970
      8          1           0       -3.559094    0.983985   -0.541222
      9          1           0        1.664668    1.911244    0.149935
     10          1           0        3.229499    1.100849   -0.064440
     11          1           0        2.305148    0.847335    1.433383
     12          1           0       -1.100520    1.472025   -0.456081
     13          1           0       -1.424923    0.115456   -1.544229
 ---------------------------------------------------------------------

 SCF Done:  E(RHF) =  -913.423935303     A.U. after    2 cycles

 The electronic state is 1-A.
 Alpha  occ. eigenvalues --  -93.55209 -93.54868 -11.27289 -11.26866 -11.24111
 Alpha  occ. eigenvalues --   -8.84781  -8.84465  -6.18916  -6.18645  -6.18578
 Alpha  occ. eigenvalues --   -6.18326  -6.18310  -6.18004  -1.07590  -1.02829
 Alpha  occ. eigenvalues --   -0.94002  -0.85054  -0.77254  -0.63759  -0.61098
 Alpha  occ. eigenvalues --   -0.59813  -0.58369  -0.54598  -0.52411  -0.50714
 Alpha  occ. eigenvalues --   -0.47155  -0.43193  -0.35210  -0.34687
 Alpha virt. eigenvalues --    0.03453   0.04184   0.05110   0.05427   0.06486
 Alpha virt. eigenvalues --    0.06694   0.07371   0.08815   0.09523   0.10501
 Alpha virt. eigenvalues --    0.11944   0.13564   0.14137   0.14644   0.15234

 Mulliken charges:
               1
     1  C    0.346847
     2  C    0.095986
     3  C   -0.103520
     4  S    0.097968
     5  S    0.092914
     6  H   -0.065918
     7  H   -0.065072
     8  H   -0.050943
     9  H   -0.085129
    10  H   -0.078341
    11  H   -0.033360
    12  H   -0.091257
    13  H   -0.060176
 Sum of Mulliken charges =  -0.00000

 Dipole moment (field-independent basis, Debye):
    X=             -0.5687    Y=              2.2970    Z=             -0.1873  Tot=              2.3738

 Test job not archived.
 1\1\GINC-SE177\SP\RHF\Aug-CC-pVDZ\C3H8S2\OHZDE\05-Apr-2025\0\\#t hf au
 g-cc-pvdz iop(5/13=1,5/36=2,99/5=2) pseudo=read geom=check guess=(read
 ,tcheck) scf=(maxcycle=1)\\title\\0,1\C,0,-2.888226,0.352672,0.043352\
 C,0,2.230326,1.007436,0.361276\C,0,-1.47228,0.450501,-0.510263\S,0,1.4
 75203,-0.449173,-0.449721\S,0,-0.358677,-0.632636,0.485898\H,0,-3.2631
 7,-0.670018,-0.003336\H,0,-2.934951,0.684419,1.08097\H,0,-3.559094,0.9
 83985,-0.541222\H,0,1.664668,1.911244,0.149935\H,0,3.229499,1.100849,-
 0.06444\H,0,2.305148,0.847335,1.433383\H,0,-1.10052,1.472025,-0.456081

 Normal termination of Gaussian 16 at Sat Apr  5 23:03:06 2025.
