 Gaussian 16, Revision C.01,

 ----------------------------------------------------------------------
 #t hf aug-cc-pvdz symm=none int=(grid=ultrafine) guess=(read,tcheck) s
 table=(opt,rrhf)
 ----------------------------------------------------------------------
 -----
 title
 -----
 Symbolic Z-matrix:
 Charge =  0 Multiplicity = 1

 SCF Done:  E(RHF) =  -926.991640766     A.U. after   15 cycles
 Normal termination of Gaussian 16 at Sat Apr  5 23:03:21 2025.
 Gaussian 16:  ES64L-G16RevC.01  3-Jul-2019

 ----------------------------------------------------------------------
 #t hf aug-cc-pvdz iop(5/13=1,5/36=2,99/5=2) pseudo=read geom=check gue
 ss=(read,tcheck) scf=(maxcycle=1)
 ----------------------------------------------------------------------
 -----
 title
 -----
 Structure from the checkpoint file:  "methylsulfanyl_thiocyanate.chk"
 Charge =  0 Multiplicity = 1

                         Standard orientation:
 ---------------------------------------------------------------------
 Center     Atomic      Atomic             Coordinates (Angstroms)
 Number     Number       Type             X           Y           Z
 ---------------------------------------------------------------------
      1         16           0       -1.181973   -0.258533   -0.605061
      2         16           0        0.526277   -0.912219    0.396167
      3          7           0        2.499926    1.048130   -0.266984
      4          6           0       -1.850452    1.006228    0.528769
      5          6           0        1.684030    0.266004   -0.023640
      6          1           0       -2.789196    1.324506    0.074977
      7          1           0       -1.175486    1.854944    0.595860
      8          1           0       -2.045134    0.582281    1.509582
 ---------------------------------------------------------------------

 SCF Done:  E(RHF) =  -927.074818061     A.U. after    2 cycles

 The electronic state is 1-A.
 Alpha  occ. eigenvalues --  -93.62507 -93.59506 -15.65831 -11.31620 -11.29656
 Alpha  occ. eigenvalues --   -8.91977  -8.89055  -6.26142  -6.25851  -6.25474
 Alpha  occ. eigenvalues --   -6.23169  -6.22869  -6.22539  -1.20920  -1.09990
 Alpha  occ. eigenvalues --   -1.01204  -0.86755  -0.67698  -0.62732  -0.61797
 Alpha  occ. eigenvalues --   -0.56680  -0.55385  -0.53582  -0.50326  -0.45123
 Alpha  occ. eigenvalues --   -0.40151  -0.38912
 Alpha virt. eigenvalues --    0.02978   0.04537   0.05352   0.06009   0.06637
 Alpha virt. eigenvalues --    0.09400   0.10212   0.11189   0.12070   0.12450
 Alpha virt. eigenvalues --    0.13224   0.14397   0.15092   0.15565   0.15727

 Mulliken charges:
               1
     1  S    0.168037
     2  S    0.322789
     3  N   -0.179663
     4  C    0.110195
     5  C   -0.283525
     6  H   -0.052957
     7  H   -0.045527
     8  H   -0.039348
 Sum of Mulliken charges =   0.00000

 Dipole moment (field-independent basis, Debye):
    X=             -3.8211    Y=             -0.4258    Z=              1.3354  Tot=              4.0701

 Test job not archived.
 1\1\GINC-SE154\SP\RHF\Aug-CC-pVDZ\C2H3N1S2\OHZDE\05-Apr-2025\0\\#t hf
 aug-cc-pvdz iop(5/13=1,5/36=2,99/5=2) pseudo=read geom=check guess=(re
 ad,tcheck) scf=(maxcycle=1)\\title\\0,1\S,0,-1.181973,-0.258533,-0.605
 061\S,0,0.526277,-0.912219,0.396167\N,0,2.499926,1.04813,-0.266984\C,0
 ,-1.850452,1.006228,0.528769\C,0,1.68403,0.266004,-0.02364\H,0,-2.7891
 96,1.324506,0.074977\H,0,-1.175486,1.854944,0.59586\H,0,-2.045134,0.58
 2281,1.509582\\Version=ES64L-G16RevC.01\State=1-A\HF=-927.0748181\RMSD
 =4.789e-03\Dipole=-1.5033348,-0.1675189,0.5253831\Quadrupole=-1.526122

 Normal termination of Gaussian 16 at Sat Apr  5 23:03:39 2025.
