 Gaussian 16, Revision C.01,

 ----------------------------------------------------------------------
 #t hf aug-cc-pvdz symm=none int=(grid=ultrafine) guess=(read,tcheck) s
 table=(opt,rrhf)
 ----------------------------------------------------------------------
 -----
 title
 -----
 Symbolic Z-matrix:
 Charge =  0 Multiplicity = 1

 SCF Done:  E(RHF) =  -95.2307704496     A.U. after   11 cycles
 Normal termination of Gaussian 16 at Sat Apr  5 23:02:36 2025.
 Gaussian 16:  ES64L-G16RevC.01  3-Jul-2019

 ----------------------------------------------------------------------
 #t hf aug-cc-pvdz iop(5/13=1,5/36=2,99/5=2) pseudo=read geom=check gue
 ss=(read,tcheck) scf=(maxcycle=1)
 ----------------------------------------------------------------------
 -----
 title
 -----
 Structure from the checkpoint file:  "methylamine.chk"
 Charge =  0 Multiplicity = 1

                         Standard orientation:
 ---------------------------------------------------------------------
 Center     Atomic      Atomic             Coordinates (Angstroms)
 Number     Number       Type             X           Y           Z
 ---------------------------------------------------------------------
      1          6           0       -0.048962    0.706625   -0.000000
      2          7           0       -0.048962   -0.757428    0.000000
      3          1           0        0.945026    1.171177   -0.000000
      4          1           0       -0.587216    1.065175    0.877567
      5          1           0       -0.587216    1.065175   -0.877567
      6          1           0        0.432957   -1.119643    0.812861
      7          1           0        0.432957   -1.119643   -0.812861
 ---------------------------------------------------------------------

 SCF Done:  E(RHF) =  -95.2632248774     A.U. after    2 cycles

 The electronic state is 1-A'.
 Alpha  occ. eigenvalues --  -15.60434 -11.25309  -1.13713  -0.89070  -0.66165
 Alpha  occ. eigenvalues --   -0.60224  -0.55705  -0.51797  -0.38364
 Alpha virt. eigenvalues --    0.03603   0.04840   0.05011   0.06068   0.08579
 Alpha virt. eigenvalues --    0.11816   0.15193   0.15438   0.17474   0.17710
 Alpha virt. eigenvalues --    0.19373   0.20727   0.27416   0.29718   0.30073

 Mulliken charges:
               1
     1  C    0.781970
     2  N   -0.350227
     3  H   -0.116290
     4  H   -0.152852
     5  H   -0.152852
     6  H   -0.004875
     7  H   -0.004875
 Sum of Mulliken charges =  -0.00000

 Dipole moment (field-independent basis, Debye):
    X=              1.3141    Y=              0.3837    Z=              0.0000  Tot=              1.3690

 Test job not archived.
 1\1\GINC-SE042\SP\RHF\Aug-CC-pVDZ\C1H5N1\OHZDE\05-Apr-2025\0\\#t hf au
 g-cc-pvdz iop(5/13=1,5/36=2,99/5=2) pseudo=read geom=check guess=(read
 ,tcheck) scf=(maxcycle=1)\\title\\0,1\C,0,-0.048962,0.706625,0.\N,0,-0
 .048962,-0.757428,0.\H,0,0.945026,1.171177,0.\H,0,-0.587216,1.065175,0
 .877567\H,0,-0.587216,1.065175,-0.877567\H,0,0.432957,-1.119643,0.8128
 61\H,0,0.432957,-1.119643,-0.812861\\Version=ES64L-G16RevC.01\State=1-
 A'\HF=-95.2632249\RMSD=1.641e-03\Dipole=0.517024,0.1509591,0.\Quadrupo
 le=-0.7998912,-0.2587501,1.0586413,-1.6107723,0.,0.\PG=CS [SG(C1H1N1),

 Normal termination of Gaussian 16 at Sat Apr  5 23:03:04 2025.
