 Gaussian 16, Revision C.01,

 ----------------------------------------------------------------------
 #t hf aug-cc-pvdz symm=none int=(grid=ultrafine) guess=(read,tcheck) s
 table=(opt,rrhf)
 ----------------------------------------------------------------------
 -----
 title
 -----
 Symbolic Z-matrix:
 Charge =  0 Multiplicity = 1

 SCF Done:  E(RHF) =  -590.620380887     A.U. after   14 cycles
 Normal termination of Gaussian 16 at Sat Apr  5 23:03:21 2025.
 Gaussian 16:  ES64L-G16RevC.01  3-Jul-2019

 ----------------------------------------------------------------------
 #t hf aug-cc-pvdz iop(5/13=1,5/36=2,99/5=2) pseudo=read geom=check gue
 ss=(read,tcheck) scf=(maxcycle=1)
 ----------------------------------------------------------------------
 -----
 title
 -----
 Structure from the checkpoint file:  "methylethylsulfoxide.chk"
 Charge =  0 Multiplicity = 1

                         Standard orientation:
 ---------------------------------------------------------------------
 Center     Atomic      Atomic             Coordinates (Angstroms)
 Number     Number       Type             X           Y           Z
 ---------------------------------------------------------------------
      1          6           0       -2.236697    0.080678   -0.129130
      2          1           0       -2.322637   -0.067126   -1.206237
      3          1           0       -3.133658   -0.332835    0.333139
      4          1           0       -2.233285    1.152437    0.067774
      5          6           0       -1.000479   -0.609481    0.429352
      6          1           0       -1.046984   -1.689171    0.288441
      7          1           0       -0.841528   -0.414738    1.490353
      8          6           0        0.730938    1.540292    0.218013
      9          1           0       -0.093205    2.158259   -0.133594
     10         16           0        0.566260   -0.160011   -0.432652
     11          8           0        1.651899   -0.967090    0.229435
     12          1           0        1.671904    1.924647   -0.167830
     13          1           0        0.761474    1.496490    1.305499
 ---------------------------------------------------------------------

 SCF Done:  E(RHF) =  -590.724550337     A.U. after    2 cycles

 The electronic state is 1-A.
 Alpha  occ. eigenvalues --  -93.65203 -20.51227 -11.27769 -11.27286 -11.25546
 Alpha  occ. eigenvalues --   -8.93600  -6.27865  -6.27695  -6.27393  -1.29097
 Alpha  occ. eigenvalues --   -1.07316  -1.00471  -0.90091  -0.80016  -0.65958
 Alpha  occ. eigenvalues --   -0.64036  -0.61810  -0.59643  -0.57759  -0.56363
 Alpha  occ. eigenvalues --   -0.53690  -0.52191  -0.51659  -0.42353  -0.37207
 Alpha virt. eigenvalues --    0.02942   0.04087   0.04652   0.05172   0.06535
 Alpha virt. eigenvalues --    0.06781   0.07467   0.08399   0.10213   0.11906
 Alpha virt. eigenvalues --    0.12994   0.13798   0.14639   0.14749   0.15354

 Mulliken charges:
               1
     1  C    0.370747
     2  H   -0.043354
     3  H   -0.044972
     4  H   -0.127892
     5  C   -0.057442
     6  H   -0.049859
     7  H   -0.073551
     8  C    0.130506
     9  H   -0.038334
    10  S    1.086122
    11  O   -1.068681
    12  H   -0.037432
    13  H   -0.045858
 Sum of Mulliken charges =  -0.00000

 Dipole moment (field-independent basis, Debye):
    X=             -4.1114    Y=              2.9838    Z=             -0.1151  Tot=              5.0813

 Test job not archived.
 1\1\GINC-SE047\SP\RHF\Aug-CC-pVDZ\C3H8O1S1\OHZDE\05-Apr-2025\0\\#t hf
 aug-cc-pvdz iop(5/13=1,5/36=2,99/5=2) pseudo=read geom=check guess=(re
 ad,tcheck) scf=(maxcycle=1)\\title\\0,1\C,0,-2.236697,0.080677,-0.1291
 3\H,0,-2.322637,-0.067127,-1.206237\H,0,-3.133658,-0.332836,0.333139\H
 ,0,-2.233285,1.152436,0.067774\C,0,-1.000479,-0.609481,0.429352\H,0,-1
 .046983,-1.689171,0.288441\H,0,-0.841528,-0.414738,1.490353\C,0,0.7309
 37,1.540292,0.218013\H,0,-0.093206,2.158259,-0.133594\S,0,0.56626,-0.1
 60011,-0.432652\O,0,1.651899,-0.967089,0.229435\H,0,1.671903,1.924648,

 Normal termination of Gaussian 16 at Sat Apr  5 23:03:40 2025.
