 Gaussian 16, Revision C.01,

 ----------------------------------------------------------------------
 #t hf aug-cc-pvdz symm=none int=(grid=ultrafine) guess=(read,tcheck) s
 table=(opt,rrhf)
 ----------------------------------------------------------------------
 -----
 title
 -----
 Symbolic Z-matrix:
 Charge =  0 Multiplicity = 1

 SCF Done:  E(RHF) =  -725.789048226     A.U. after   13 cycles
 Normal termination of Gaussian 16 at Sat Apr  5 23:01:08 2025.
 Gaussian 16:  ES64L-G16RevC.01  3-Jul-2019

 ----------------------------------------------------------------------
 #t hf aug-cc-pvdz iop(5/13=1,5/36=2,99/5=2) pseudo=read geom=check gue
 ss=(read,tcheck) scf=(maxcycle=1)
 ----------------------------------------------------------------------
 -----
 title
 -----
 Structure from the checkpoint file:  "methyl-2-chloroacetate.chk"
 Charge =  0 Multiplicity = 1

                         Standard orientation:
 ---------------------------------------------------------------------
 Center     Atomic      Atomic             Coordinates (Angstroms)
 Number     Number       Type             X           Y           Z
 ---------------------------------------------------------------------
      1          6           0        0.000000    0.466246    0.000000
      2          6           0       -0.565796    2.760319    0.000000
      3          6           0       -0.633002   -0.915121    0.000000
      4          8           0        1.170077    0.724321    0.000000
      5          8           0       -0.987371    1.382600    0.000000
      6         17           0        0.569256   -2.233268    0.000000
      7          1           0        0.026697    2.973494    0.887304
      8          1           0       -1.480709    3.343662    0.000000
      9          1           0        0.026697    2.973494   -0.887304
     10          1           0       -1.259449   -1.024561   -0.881342
     11          1           0       -1.259449   -1.024561    0.881342
 ---------------------------------------------------------------------

 SCF Done:  E(RHF) =  -725.894749209     A.U. after    2 cycles

 The electronic state is 1-A'.
 Alpha  occ. eigenvalues -- -103.66153 -20.63374 -20.57834 -11.41396 -11.32895
 Alpha  occ. eigenvalues --  -11.31005 -10.69422  -8.35154  -8.34838  -8.34835
 Alpha  occ. eigenvalues --   -1.43823  -1.34466  -1.17696  -1.02859  -0.94161
 Alpha  occ. eigenvalues --   -0.79946  -0.73418  -0.71028  -0.70340  -0.64450
 Alpha  occ. eigenvalues --   -0.62349  -0.56768  -0.56147  -0.55564  -0.49632
 Alpha  occ. eigenvalues --   -0.49159  -0.45897  -0.45696
 Alpha virt. eigenvalues --    0.03006   0.04457   0.05050   0.05532   0.06593
 Alpha virt. eigenvalues --    0.08411   0.08975   0.12652   0.12910   0.13600
 Alpha virt. eigenvalues --    0.13791   0.14306   0.15293   0.16352   0.16442

 Mulliken charges:
               1
     1  C    0.445473
     2  C    0.774458
     3  C   -0.128860
     4  O   -0.383534
     5  O   -0.542097
     6  Cl  -0.034136
     7  H   -0.065719
     8  H   -0.247756
     9  H   -0.065719
    10  H    0.123945
    11  H    0.123945
 Sum of Mulliken charges =  -0.00000

 Dipole moment (field-independent basis, Debye):
    X=             -3.2136    Y=              1.9846    Z=              0.0000  Tot=              3.7770

 Test job not archived.
 1\1\GINC-SE052\SP\RHF\Aug-CC-pVDZ\C3H5Cl1O2\OHZDE\05-Apr-2025\0\\#t hf
  aug-cc-pvdz iop(5/13=1,5/36=2,99/5=2) pseudo=read geom=check guess=(r
 ead,tcheck) scf=(maxcycle=1)\\title\\0,1\C,0,0.,0.466246,0.\C,0,-0.565
 797,2.760319,0.\C,0,-0.633002,-0.915121,0.\O,0,1.170077,0.724321,0.\O,
 0,-0.987371,1.3826,0.\Cl,0,0.569257,-2.233268,0.\H,0,0.026696,2.973494
 ,0.887304\H,0,-1.48071,3.343662,0.\H,0,0.026696,2.973494,-0.887304\H,0
 ,-1.259449,-1.024561,-0.881342\H,0,-1.259449,-1.024561,0.881342\\Versi
 on=ES64L-G16RevC.01\State=1-A'\HF=-725.8947492\RMSD=3.214e-03\Dipole=-

 Normal termination of Gaussian 16 at Sat Apr  5 23:02:16 2025.
