 Gaussian 16, Revision C.01,

 ----------------------------------------------------------------------
 #t hf aug-cc-pvdz symm=none int=(grid=ultrafine) guess=(read,tcheck) s
 table=(opt,rrhf)
 ----------------------------------------------------------------------
 -----
 title
 -----
 Symbolic Z-matrix:
 Charge =  0 Multiplicity = 1

 SCF Done:  E(RHF) =  -501.106320345     A.U. after   13 cycles

 1\1\GINC-SE047\Stability\RHF\Aug-CC-pVDZ\C9H18O2\OHZDE\05-Apr-2025\0\\
 #t hf aug-cc-pvdz symm=none int=(grid=ultrafine) guess=(read,tcheck) s
 table=(opt,rrhf)\\title\\0,1\C,0,-3.009194,0.13272,0.000067\C,0,5.9492
 2,-0.256907,0.000078\C,0,-5.35896,-0.13098,-0.000089\C,0,-1.695422,-0.
 613559,0.000091\C,0,4.63791,0.526987,-0.000135\C,0,-0.471203,0.2955,-0
 .000112\C,0,3.398027,-0.367925,0.000074\C,0,0.841821,-0.487584,0.00007
 2\C,0,2.080878,0.408235,-0.000139\O,0,-3.143099,1.330753,0.000219\O,0,
 -4.051638,-0.727268,-0.00012\H,0,6.025429,-0.898227,-0.880487\H,0,6.02

 Normal termination of Gaussian 16 at Sat Apr  5 23:05:41 2025.
 Gaussian 16:  ES64L-G16RevC.01  3-Jul-2019

 ----------------------------------------------------------------------
 #t hf aug-cc-pvdz iop(5/13=1,5/36=2,99/5=2) pseudo=read geom=check gue
 ss=(read,tcheck) scf=(maxcycle=1)
 ----------------------------------------------------------------------
 -----
 title
 -----
 Structure from the checkpoint file:  "methyl_octanoate.chk"
 Charge =  0 Multiplicity = 1

                         Standard orientation:
 ---------------------------------------------------------------------
 Center     Atomic      Atomic             Coordinates (Angstroms)
 Number     Number       Type             X           Y           Z
 ---------------------------------------------------------------------
      1          6           0       -3.009194    0.132720    0.000067
      2          6           0        5.949220   -0.256907    0.000078
      3          6           0       -5.358960   -0.130980   -0.000089
      4          6           0       -1.695422   -0.613559    0.000091
      5          6           0        4.637910    0.526987   -0.000135
      6          6           0       -0.471203    0.295500   -0.000112
      7          6           0        3.398027   -0.367925    0.000074
      8          6           0        0.841821   -0.487584    0.000072
      9          6           0        2.080878    0.408235   -0.000139
     10          8           0       -3.143099    1.330753    0.000219
     11          8           0       -4.051638   -0.727268   -0.000120
     12          1           0        6.025429   -0.898227   -0.880487
     13          1           0        6.025395   -0.897805    0.880953
     14          1           0        6.812866    0.409515   -0.000065
     15          1           0       -6.058778   -0.960891   -0.000238
     16          1           0       -5.497418    0.485846   -0.886256
     17          1           0       -5.497491    0.485592    0.886244
     18          1           0       -1.693478   -1.276884   -0.869154
     19          1           0       -1.693380   -1.276583    0.869569
     20          1           0        4.606452    1.184753    0.873644
     21          1           0        4.606474    1.184314   -0.874245
     22          1           0       -0.510948    0.953181    0.870826
     23          1           0       -0.510932    0.952783   -0.871354
     24          1           0        3.430023   -1.026718   -0.874390
     25          1           0        3.430000   -1.026275    0.874873
     26          1           0        0.873319   -1.146380   -0.874384
     27          1           0        0.873315   -1.145960    0.874844
     28          1           0        2.049304    1.066245   -0.874663
     29          1           0        2.049281    1.066686    0.874053
 ---------------------------------------------------------------------

 SCF Done:  E(RHF) =  -501.266915433     A.U. after    2 cycles

 The electronic state is 1-A.
 Alpha  occ. eigenvalues --  -20.61329 -20.55780 -11.38903 -11.29508 -11.24970
 Alpha  occ. eigenvalues --  -11.23057 -11.22873 -11.22527 -11.22490 -11.22374
 Alpha  occ. eigenvalues --  -11.22028  -1.41619  -1.32127  -1.08892  -1.06011
 Alpha  occ. eigenvalues --   -1.01530  -0.97283  -0.92377  -0.85439  -0.80119
 Alpha  occ. eigenvalues --   -0.78942  -0.77363  -0.70558  -0.68944  -0.68308
 Alpha  occ. eigenvalues --   -0.66020  -0.63242  -0.60432  -0.59300  -0.58945
 Alpha  occ. eigenvalues --   -0.57080  -0.55382  -0.53947  -0.52611  -0.52478
 Alpha  occ. eigenvalues --   -0.52235  -0.49159  -0.48432  -0.47857  -0.46856
 Alpha  occ. eigenvalues --   -0.46633  -0.46421  -0.46240  -0.44302
 Alpha virt. eigenvalues --    0.03427   0.03604   0.04351   0.04484   0.04812
 Alpha virt. eigenvalues --    0.05642   0.05735   0.06270   0.06596   0.06959
 Alpha virt. eigenvalues --    0.07047   0.08379   0.08544   0.09353   0.09505

 Mulliken charges:
               1
     1  C    0.295045
     2  C    0.652988
     3  C    0.855082
     4  C    0.405055
     5  C    0.515173
     6  C    0.321064
     7  C    0.206623
     8  C    0.229125
     9  C    0.322004
    10  O   -0.442950
    11  O   -0.546568
    12  H   -0.093289
    13  H   -0.093288
    14  H   -0.070030
    15  H   -0.286174
    16  H   -0.075305
    17  H   -0.075280
    18  H   -0.073398
    19  H   -0.073311
    20  H   -0.170238
    21  H   -0.170242
    22  H   -0.211039
    23  H   -0.211067
    24  H   -0.209154
    25  H   -0.209167
    26  H   -0.200063
    27  H   -0.200017
    28  H   -0.195781
    29  H   -0.195799
 Sum of Mulliken charges =  -0.00000

 Dipole moment (field-independent basis, Debye):
    X=             -0.0322    Y=             -1.8402    Z=             -0.0002  Tot=              1.8405

 Test job not archived.
 1\1\GINC-SE047\SP\RHF\Aug-CC-pVDZ\C9H18O2\OHZDE\05-Apr-2025\0\\#t hf a
 ug-cc-pvdz iop(5/13=1,5/36=2,99/5=2) pseudo=read geom=check guess=(rea
 d,tcheck) scf=(maxcycle=1)\\title\\0,1\C,0,-3.009194,0.13272,0.000067\
 C,0,5.94922,-0.256907,0.000078\C,0,-5.35896,-0.13098,-0.000089\C,0,-1.
 695422,-0.613559,0.000091\C,0,4.63791,0.526987,-0.000135\C,0,-0.471203
 ,0.2955,-0.000112\C,0,3.398027,-0.367925,0.000074\C,0,0.841821,-0.4875
 84,0.000072\C,0,2.080878,0.408235,-0.000139\O,0,-3.143099,1.330753,0.0
 00219\O,0,-4.051638,-0.727268,-0.00012\H,0,6.025429,-0.898227,-0.88048

 Normal termination of Gaussian 16 at Sat Apr  5 23:06:31 2025.
