 Gaussian 16, Revision C.01,

 ----------------------------------------------------------------------
 #t hf aug-cc-pvdz symm=none int=(grid=ultrafine) guess=(read,tcheck) s
 table=(opt,rrhf)
 ----------------------------------------------------------------------
 -----
 title
 -----
 Symbolic Z-matrix:
 Charge =  0 Multiplicity = 1

 SCF Done:  E(RHF) =  -455.332017630     A.U. after   15 cycles
 Normal termination of Gaussian 16 at Sat Apr  5 23:02:36 2025.
 Gaussian 16:  ES64L-G16RevC.01  3-Jul-2019

 ----------------------------------------------------------------------
 #t hf aug-cc-pvdz iop(5/13=1,5/36=2,99/5=2) pseudo=read geom=check gue
 ss=(read,tcheck) scf=(maxcycle=1)
 ----------------------------------------------------------------------
 -----
 title
 -----
 Structure from the checkpoint file:  "methyl-3-furancarboxylate.chk"
 Charge =  0 Multiplicity = 1

                         Standard orientation:
 ---------------------------------------------------------------------
 Center     Atomic      Atomic             Coordinates (Angstroms)
 Number     Number       Type             X           Y           Z
 ---------------------------------------------------------------------
      1          6           0       -1.374452    0.901229    0.000000
      2          6           0       -1.354402    2.251618    0.000000
      3          6           0        0.741286    1.626446    0.000000
      4          6           0        0.000000    0.483904    0.000000
      5          6           0        0.566044   -0.870351    0.000000
      6          6           0        0.057679   -3.174642    0.000000
      7          8           0        1.747782   -1.126769    0.000000
      8          8           0       -0.063377    2.708616    0.000000
      9          8           0       -0.400911   -1.813271    0.000000
     10          1           0       -2.241521    0.265834    0.000000
     11          1           0       -2.117954    3.007351    0.000000
     12          1           0        1.801169    1.802830    0.000000
     13          1           0        0.656818   -3.374632    0.886389
     14          1           0        0.656818   -3.374632   -0.886389
     15          1           0       -0.840215   -3.784584    0.000000
 ---------------------------------------------------------------------

 SCF Done:  E(RHF) =  -455.476501044     A.U. after    2 cycles

 The electronic state is 1-A'.
 Alpha  occ. eigenvalues --  -20.65752 -20.62071 -20.55917 -11.40195 -11.32754
 Alpha  occ. eigenvalues --  -11.31150 -11.29916 -11.25830 -11.25580  -1.44142
 Alpha  occ. eigenvalues --   -1.42168  -1.32533  -1.10819  -1.03158  -0.98698
 Alpha  occ. eigenvalues --   -0.87075  -0.81482  -0.78343  -0.76749  -0.69231
 Alpha  occ. eigenvalues --   -0.68844  -0.67837  -0.66562  -0.63109  -0.60140
 Alpha  occ. eigenvalues --   -0.59437  -0.56584  -0.56419  -0.54281  -0.48322
 Alpha  occ. eigenvalues --   -0.47621  -0.42207  -0.34087
 Alpha virt. eigenvalues --    0.03224   0.03866   0.04703   0.05512   0.06300
 Alpha virt. eigenvalues --    0.06466   0.07948   0.09634   0.10123   0.10844
 Alpha virt. eigenvalues --    0.11578   0.11764   0.13472   0.13673   0.14262

 Mulliken charges:
               1
     1  C    0.472707
     2  C    0.707951
     3  C    0.670057
     4  C    0.456782
     5  C    0.073947
     6  C    0.763474
     7  O   -0.465625
     8  O   -0.537215
     9  O   -0.550158
    10  H   -0.470956
    11  H   -0.326614
    12  H   -0.420552
    13  H   -0.058522
    14  H   -0.058522
    15  H   -0.256756
 Sum of Mulliken charges =  -0.00000

 Dipole moment (field-independent basis, Debye):
    X=             -2.3105    Y=             -0.3592    Z=              0.0000  Tot=              2.3383

 Test job not archived.
 1\1\GINC-SE115\SP\RHF\Aug-CC-pVDZ\C6H6O3\OHZDE\05-Apr-2025\0\\#t hf au
 g-cc-pvdz iop(5/13=1,5/36=2,99/5=2) pseudo=read geom=check guess=(read
 ,tcheck) scf=(maxcycle=1)\\title\\0,1\C,0,-1.374452,0.901229,0.\C,0,-1
 .354402,2.251618,0.\C,0,0.741286,1.626446,0.\C,0,0.,0.483904,0.\C,0,0.
 566044,-0.870351,0.\C,0,0.057679,-3.174642,0.\O,0,1.747782,-1.126769,0
 .\O,0,-0.063377,2.708616,0.\O,0,-0.400911,-1.813271,0.\H,0,-2.241521,0
 .265834,0.\H,0,-2.117954,3.007351,0.\H,0,1.801169,1.80283,0.\H,0,0.656
 818,-3.374632,0.886389\H,0,0.656818,-3.374632,-0.886389\H,0,-0.840215,

 Normal termination of Gaussian 16 at Sat Apr  5 23:03:21 2025.
