 Gaussian 16, Revision C.01,

 ----------------------------------------------------------------------
 #t hf aug-cc-pvdz symm=none int=(grid=ultrafine) guess=(read,tcheck) s
 table=(opt,rrhf)
 ----------------------------------------------------------------------
 -----
 title
 -----
 Symbolic Z-matrix:
 Charge =  0 Multiplicity = 1

 SCF Done:  E(RHF) =  -281.601631074     A.U. after   14 cycles
 Normal termination of Gaussian 16 at Sat Apr  5 23:01:05 2025.
 Gaussian 16:  ES64L-G16RevC.01  3-Jul-2019

 ----------------------------------------------------------------------
 #t hf aug-cc-pvdz iop(5/13=1,5/36=2,99/5=2) pseudo=read geom=check gue
 ss=(read,tcheck) scf=(maxcycle=1)
 ----------------------------------------------------------------------
 -----
 title
 -----
 Structure from the checkpoint file:  "methoxyiminomethanone.chk"
 Charge =  0 Multiplicity = 1

                         Standard orientation:
 ---------------------------------------------------------------------
 Center     Atomic      Atomic             Coordinates (Angstroms)
 Number     Number       Type             X           Y           Z
 ---------------------------------------------------------------------
      1          8           0       -0.918919    0.545512   -0.000017
      2          8           0        2.432931    0.084775    0.000018
      3          7           0        0.106029   -0.423845   -0.000029
      4          6           0       -2.173941   -0.133816    0.000020
      5          6           0        1.278201   -0.072865   -0.000002
      6          1           0       -2.914348    0.662738    0.000020
      7          1           0       -2.282738   -0.749000    0.894011
      8          1           0       -2.282772   -0.749032   -0.893944
 ---------------------------------------------------------------------

 SCF Done:  E(RHF) =  -281.692161291     A.U. after    2 cycles

 The electronic state is 1-A.
 Alpha  occ. eigenvalues --  -20.65370 -20.65290 -15.70370 -11.43378 -11.30692
 Alpha  occ. eigenvalues --   -1.45264  -1.40624  -1.19139  -0.94607  -0.78380
 Alpha  occ. eigenvalues --   -0.74556  -0.70815  -0.69380  -0.66047  -0.62804
 Alpha  occ. eigenvalues --   -0.57109  -0.53865  -0.47806  -0.41423
 Alpha virt. eigenvalues --    0.03325   0.05291   0.05422   0.06582   0.08705
 Alpha virt. eigenvalues --    0.10052   0.10314   0.11717   0.13762   0.14389
 Alpha virt. eigenvalues --    0.15222   0.17156   0.20275   0.20783   0.22274

 Mulliken charges:
               1
     1  O   -0.626194
     2  O   -0.184314
     3  N    0.134218
     4  C    0.778782
     5  C    0.216362
     6  H   -0.195171
     7  H   -0.061842
     8  H   -0.061841
 Sum of Mulliken charges =  -0.00000

 Dipole moment (field-independent basis, Debye):
    X=             -2.7822    Y=             -0.3677    Z=              0.0001  Tot=              2.8064

 Test job not archived.
 1\1\GINC-SE085\SP\RHF\Aug-CC-pVDZ\C2H3N1O2\OHZDE\05-Apr-2025\0\\#t hf
 aug-cc-pvdz iop(5/13=1,5/36=2,99/5=2) pseudo=read geom=check guess=(re
 ad,tcheck) scf=(maxcycle=1)\\title\\0,1\O,0,-0.918919,0.545512,-0.0000
 17\O,0,2.432931,0.084775,0.000018\N,0,0.106029,-0.423845,-0.000029\C,0
 ,-2.173941,-0.133816,0.00002\C,0,1.278201,-0.072865,-0.000002\H,0,-2.9
 14348,0.662738,0.00002\H,0,-2.282738,-0.749,0.894011\H,0,-2.282772,-0.
 749032,-0.893944\\Version=ES64L-G16RevC.01\State=1-A\HF=-281.6921613\R
 MSD=2.677e-03\Dipole=-1.0946126,-0.1446613,0.000022\Quadrupole=0.04736

 Normal termination of Gaussian 16 at Sat Apr  5 23:02:14 2025.
