 Gaussian 16, Revision C.01,

 ----------------------------------------------------------------------
 #t hf aug-cc-pvdz symm=none int=(grid=ultrafine) guess=(read,tcheck) s
 table=(opt,rrhf)
 ----------------------------------------------------------------------
 -----
 title
 -----
 Symbolic Z-matrix:
 Charge =  0 Multiplicity = 1

 SCF Done:  E(RHF) =  -856.005007325     A.U. after   15 cycles
 Normal termination of Gaussian 16 at Sat Apr  5 23:05:37 2025.
 Gaussian 16:  ES64L-G16RevC.01  3-Jul-2019

 ----------------------------------------------------------------------
 #t hf aug-cc-pvdz iop(5/13=1,5/36=2,99/5=2) pseudo=read geom=check gue
 ss=(read,tcheck) scf=(maxcycle=1)
 ----------------------------------------------------------------------
 -----
 title
 -----
 Structure from the checkpoint file:  "methylsulfonylmethylbenzene.chk"
 Charge =  0 Multiplicity = 1

                         Standard orientation:
 ---------------------------------------------------------------------
 Center     Atomic      Atomic             Coordinates (Angstroms)
 Number     Number       Type             X           Y           Z
 ---------------------------------------------------------------------
      1          6           0        1.247559   -0.078864    0.000000
      2         16           0        0.450603   -1.735060    0.000000
      3          6           0        0.228680    1.019883   -0.000000
      4          6           0        1.856507   -2.863468    0.000000
      5          8           0       -0.258876   -1.906083    1.263753
      6          8           0       -0.258876   -1.906083   -1.263753
      7          6           0       -0.258876    1.531692    1.203024
      8          6           0       -0.258876    1.531692   -1.203024
      9          6           0       -1.209742    2.543679    1.202823
     10          6           0       -1.209742    2.543679   -1.202823
     11          6           0       -1.686443    3.052509   -0.000000
     12          1           0        1.873727   -0.060312    0.890609
     13          1           0        1.873727   -0.060312   -0.890609
     14          1           0        1.425456   -3.862087    0.000000
     15          1           0        2.444385   -2.705370   -0.900271
     16          1           0        2.444385   -2.705370    0.900271
     17          1           0        0.101136    1.130017    2.140706
     18          1           0        0.101136    1.130017   -2.140706
     19          1           0       -1.579760    2.932792    2.141610
     20          1           0       -1.579760    2.932792   -2.141610
     21          1           0       -2.426453    3.841310   -0.000000
 ---------------------------------------------------------------------

 SCF Done:  E(RHF) =  -856.214787361     A.U. after    2 cycles

 The electronic state is 1-A'.
 Alpha  occ. eigenvalues --  -93.77529 -20.55192 -20.55190 -11.29659 -11.28944
 Alpha  occ. eigenvalues --  -11.26606 -11.25270 -11.25262 -11.25135 -11.24915
 Alpha  occ. eigenvalues --  -11.24889  -9.04282  -6.38899  -6.38690  -6.38625
 Alpha  occ. eigenvalues --   -1.40629  -1.29280  -1.16044  -1.07804  -1.03535
 Alpha  occ. eigenvalues --   -1.01938  -0.96841  -0.84102  -0.83753  -0.79872
 Alpha  occ. eigenvalues --   -0.71442  -0.69203  -0.67918  -0.67293  -0.65146
 Alpha  occ. eigenvalues --   -0.64402  -0.61204  -0.61038  -0.60173  -0.58694
 Alpha  occ. eigenvalues --   -0.58568  -0.52377  -0.51218  -0.51175  -0.50293
 Alpha  occ. eigenvalues --   -0.49823  -0.48318  -0.44825  -0.34699  -0.34323
 Alpha virt. eigenvalues --    0.02742   0.03617   0.04113   0.04502   0.05089
 Alpha virt. eigenvalues --    0.05537   0.06666   0.07129   0.07529   0.08488
 Alpha virt. eigenvalues --    0.09293   0.10106   0.10628   0.11335   0.12125

 Mulliken charges:
               1
     1  C   -0.305902
     2  S    2.229241
     3  C    1.121592
     4  C    0.094124
     5  O   -1.158832
     6  O   -1.158832
     7  C    0.498975
     8  C    0.498975
     9  C    0.203187
    10  C    0.203187
    11  C    0.668197
    12  H   -0.226895
    13  H   -0.226895
    14  H    0.038593
    15  H   -0.003212
    16  H   -0.003212
    17  H   -0.569191
    18  H   -0.569191
    19  H   -0.447746
    20  H   -0.447746
    21  H   -0.438415
 Sum of Mulliken charges =  -0.00000

 Dipole moment (field-independent basis, Debye):
    X=              4.6781    Y=              1.5447    Z=              0.0000  Tot=              4.9265

 Test job not archived.
 1\1\GINC-SE205\SP\RHF\Aug-CC-pVDZ\C8H10O2S1\OHZDE\05-Apr-2025\0\\#t hf
  aug-cc-pvdz iop(5/13=1,5/36=2,99/5=2) pseudo=read geom=check guess=(r
 ead,tcheck) scf=(maxcycle=1)\\title\\0,1\C,0,1.247559,-0.078864,0.\S,0
 ,0.450603,-1.73506,0.\C,0,0.22868,1.019883,0.\C,0,1.856507,-2.863468,0
 .\O,0,-0.258876,-1.906083,1.263753\O,0,-0.258876,-1.906083,-1.263753\C
 ,0,-0.258876,1.531692,1.203024\C,0,-0.258876,1.531692,-1.203024\C,0,-1
 .209742,2.543679,1.202823\C,0,-1.209742,2.543679,-1.202823\C,0,-1.6864
 43,3.052509,0.\H,0,1.873727,-0.060312,0.890609\H,0,1.873727,-0.060312,

 Normal termination of Gaussian 16 at Sat Apr  5 23:06:20 2025.
