 Gaussian 16, Revision C.01,

 ----------------------------------------------------------------------
 #t hf aug-cc-pvdz symm=none int=(grid=ultrafine) guess=(read,tcheck) s
 table=(opt,rrhf)
 ----------------------------------------------------------------------
 -----
 title
 -----
 Symbolic Z-matrix:
 Charge =  0 Multiplicity = 1

 SCF Done:  E(RHF) =  -304.720867890     A.U. after   14 cycles
 Normal termination of Gaussian 16 at Sat Apr  5 23:02:35 2025.
 Gaussian 16:  ES64L-G16RevC.01  3-Jul-2019

 ----------------------------------------------------------------------
 #t hf aug-cc-pvdz iop(5/13=1,5/36=2,99/5=2) pseudo=read geom=check gue
 ss=(read,tcheck) scf=(maxcycle=1)
 ----------------------------------------------------------------------
 -----
 title
 -----
 Structure from the checkpoint file:  "methylester-2-propenoicacid.chk"
 Charge =  0 Multiplicity = 1

                         Standard orientation:
 ---------------------------------------------------------------------
 Center     Atomic      Atomic             Coordinates (Angstroms)
 Number     Number       Type             X           Y           Z
 ---------------------------------------------------------------------
      1          1           0        2.527151   -1.893202    0.000000
      2          1           0        2.462309   -0.342026    0.886291
      3          1           0        2.462309   -0.342026   -0.886291
      4          6           0        2.133453   -0.881674    0.000000
      5          8           0        0.704180   -1.022573    0.000000
      6          8           0        0.512477    1.224123    0.000000
      7          6           0        0.000000    0.130493    0.000000
      8          1           0       -1.752519   -1.187538    0.000000
      9          6           0       -1.456302   -0.147599    0.000000
     10          1           0       -3.407145    0.640282    0.000000
     11          1           0       -2.020477    1.871182    0.000000
     12          6           0       -2.344631    0.838934    0.000000
 ---------------------------------------------------------------------

 SCF Done:  E(RHF) =  -304.820125113     A.U. after    2 cycles

 The electronic state is 1-A'.
 Alpha  occ. eigenvalues --  -20.61822 -20.55783 -11.39547 -11.29696 -11.26901
 Alpha  occ. eigenvalues --  -11.25971  -1.41923  -1.32336  -1.07574  -0.98274
 Alpha  occ. eigenvalues --   -0.85561  -0.77092  -0.72202  -0.68890  -0.68312
 Alpha  occ. eigenvalues --   -0.64103  -0.59359  -0.56409  -0.55545  -0.53886
 Alpha  occ. eigenvalues --   -0.48052  -0.47028  -0.40112
 Alpha virt. eigenvalues --    0.03334   0.04024   0.05096   0.06295   0.06381
 Alpha virt. eigenvalues --    0.06539   0.07301   0.10515   0.12271   0.12794
 Alpha virt. eigenvalues --    0.13346   0.14092   0.14700   0.15845   0.15970

 Mulliken charges:
               1
     1  H   -0.251916
     2  H   -0.070269
     3  H   -0.070269
     4  C    0.764212
     5  O   -0.522043
     6  O   -0.444387
     7  C    0.037983
     8  H   -0.477595
     9  C    1.019143
    10  H   -0.267839
    11  H   -0.253279
    12  C    0.536259
 Sum of Mulliken charges =  -0.00000

 Dipole moment (field-independent basis, Debye):
    X=             -0.8353    Y=             -1.5964    Z=              0.0000  Tot=              1.8017

 Test job not archived.
 1\1\GINC-SE226\SP\RHF\Aug-CC-pVDZ\C4H6O2\OHZDE\05-Apr-2025\0\\#t hf au
 g-cc-pvdz iop(5/13=1,5/36=2,99/5=2) pseudo=read geom=check guess=(read
 ,tcheck) scf=(maxcycle=1)\\title\\0,1\H,0,2.52715,-1.893203,0.\H,0,2.4
 62309,-0.342027,0.886291\H,0,2.462309,-0.342027,-0.886291\C,0,2.133452
 ,-0.881675,0.\O,0,0.704179,-1.022573,0.\O,0,0.512478,1.224123,0.\C,0,0
 .,0.130493,0.\H,0,-1.75252,-1.187537,0.\C,0,-1.456302,-0.147598,0.\H,0
 ,-3.407145,0.640284,0.\H,0,-2.020476,1.871183,0.\C,0,-2.344631,0.83893
 5,0.\\Version=ES64L-G16RevC.01\State=1-A'\HF=-304.8201251\RMSD=4.759e-

 Normal termination of Gaussian 16 at Sat Apr  5 23:03:07 2025.
