 Gaussian 16, Revision C.01,

 ----------------------------------------------------------------------
 #t hf aug-cc-pvdz symm=none int=(grid=ultrafine) guess=(read,tcheck) s
 table=(opt,rrhf)
 ----------------------------------------------------------------------
 -----
 title
 -----
 Symbolic Z-matrix:
 Charge =  0 Multiplicity = 1

 SCF Done:  E(RHF) =  -660.906473787     A.U. after   17 cycles
 Normal termination of Gaussian 16 at Sat Apr  5 23:03:55 2025.
 Gaussian 16:  ES64L-G16RevC.01  3-Jul-2019

 ----------------------------------------------------------------------
 #t hf aug-cc-pvdz iop(5/13=1,5/36=2,99/5=2) pseudo=read geom=check gue
 ss=(read,tcheck) scf=(maxcycle=1)
 ----------------------------------------------------------------------
 -----
 title
 -----
 Structure from the checkpoint file:  "methyl-4-nitrobenzoate.chk"
 Charge =  0 Multiplicity = 1

                         Standard orientation:
 ---------------------------------------------------------------------
 Center     Atomic      Atomic             Coordinates (Angstroms)
 Number     Number       Type             X           Y           Z
 ---------------------------------------------------------------------
      1          6           0       -1.286273    0.390991    0.000000
      2          6           0        1.112125    0.088865    0.000000
      3          6           0       -1.467836   -0.981974    0.000000
      4          6           0        0.942643   -1.286930    0.000000
      5          6           0        0.000000    0.932795    0.000000
      6          6           0       -0.346334   -1.799458    0.000000
      7          6           0        0.128280    2.421778    0.000000
      8          6           0        1.617644    4.250574    0.000000
      9          7           0       -0.530904   -3.266994    0.000000
     10          8           0       -0.811383    3.179716    0.000000
     11          8           0       -1.675584   -3.692985    0.000000
     12          8           0        0.472906   -3.963304    0.000000
     13          8           0        1.410358    2.826665    0.000000
     14          1           0       -2.134031    1.060043    0.000000
     15          1           0        2.105499    0.509823    0.000000
     16          1           0       -2.451989   -1.422851    0.000000
     17          1           0        1.785123   -1.960132    0.000000
     18          1           0        2.694123    4.387094    0.000000
     19          1           0        1.172868    4.697195    0.886917
     20          1           0        1.172868    4.697195   -0.886917
 ---------------------------------------------------------------------

 SCF Done:  E(RHF) =  -661.107694053     A.U. after    2 cycles

 The electronic state is 1-A'.
 Alpha  occ. eigenvalues --  -20.63770 -20.62702 -20.62677 -20.58074 -15.92927
 Alpha  occ. eigenvalues --  -11.41861 -11.33488 -11.31292 -11.29642 -11.29123
 Alpha  occ. eigenvalues --  -11.29036 -11.28777 -11.28492  -1.56106  -1.44205
 Alpha  occ. eigenvalues --   -1.37614  -1.34572  -1.20439  -1.10739  -1.05944
 Alpha  occ. eigenvalues --   -1.01416  -0.96203  -0.88049  -0.86026  -0.80914
 Alpha  occ. eigenvalues --   -0.79839  -0.76549  -0.74927  -0.73692  -0.71398
 Alpha  occ. eigenvalues --   -0.70355  -0.67103  -0.66878  -0.64394  -0.63762
 Alpha  occ. eigenvalues --   -0.59243  -0.58842  -0.56018  -0.54430  -0.54153
 Alpha  occ. eigenvalues --   -0.52405  -0.52100  -0.49939  -0.49357  -0.48303
 Alpha  occ. eigenvalues --   -0.39413  -0.38099
 Alpha virt. eigenvalues --    0.01032   0.02665   0.03865   0.03912   0.05397
 Alpha virt. eigenvalues --    0.05597   0.05933   0.07334   0.08166   0.09128
 Alpha virt. eigenvalues --    0.09399   0.09992   0.10279   0.11860   0.12248

 Mulliken charges:
               1
     1  C    0.076716
     2  C    0.414143
     3  C    0.678458
     4  C    0.434695
     5  C    1.535528
     6  C    0.904111
     7  C   -0.305552
     8  C    0.780437
     9  N    0.114717
    10  O   -0.412023
    11  O   -0.546804
    12  O   -0.548707
    13  O   -0.553344
    14  H   -0.643786
    15  H   -0.614398
    16  H   -0.457661
    17  H   -0.475808
    18  H   -0.278929
    19  H   -0.050897
    20  H   -0.050897
 Sum of Mulliken charges =  -0.00000

 Dipole moment (field-independent basis, Debye):
    X=              2.5038    Y=              4.2083    Z=              0.0000  Tot=              4.8968

 Test job not archived.
 1\1\GINC-SE190\SP\RHF\Aug-CC-pVDZ\C8H7N1O4\OHZDE\05-Apr-2025\0\\#t hf
 aug-cc-pvdz iop(5/13=1,5/36=2,99/5=2) pseudo=read geom=check guess=(re
 ad,tcheck) scf=(maxcycle=1)\\title\\0,1\C,0,-1.286273,0.390991,0.\C,0,
 1.112125,0.088865,0.\C,0,-1.467836,-0.981974,0.\C,0,0.942643,-1.28693,
 0.\C,0,0.,0.932795,0.\C,0,-0.346334,-1.799458,0.\C,0,0.12828,2.421778,
 0.\C,0,1.617644,4.250574,0.\N,0,-0.530904,-3.266994,0.\O,0,-0.811383,3
 .179716,0.\O,0,-1.675584,-3.692985,0.\O,0,0.472906,-3.963304,0.\O,0,1.
 410358,2.826665,0.\H,0,-2.134031,1.060043,0.\H,0,2.105499,0.509823,0.\

 Normal termination of Gaussian 16 at Sat Apr  5 23:04:22 2025.
