 Gaussian 16, Revision C.01,

 ----------------------------------------------------------------------
 #t hf aug-cc-pvdz symm=none int=(grid=ultrafine) guess=(read,tcheck) s
 table=(opt,rrhf)
 ----------------------------------------------------------------------
 -----
 title
 -----
 Symbolic Z-matrix:
 Charge =  0 Multiplicity = 1

 SCF Done:  E(RHF) =  -149.110392815     A.U. after   13 cycles
 Normal termination of Gaussian 16 at Sat Apr  5 23:00:06 2025.
 Gaussian 16:  ES64L-G16RevC.01  3-Jul-2019

 ----------------------------------------------------------------------
 #t hf aug-cc-pvdz iop(5/13=1,5/36=2,99/5=2) pseudo=read geom=check gue
 ss=(read,tcheck) scf=(maxcycle=1)
 ----------------------------------------------------------------------
 -----
 title
 -----
 Structure from the checkpoint file:  "methanimidamide.chk"
 Charge =  0 Multiplicity = 1

                         Standard orientation:
 ---------------------------------------------------------------------
 Center     Atomic      Atomic             Coordinates (Angstroms)
 Number     Number       Type             X           Y           Z
 ---------------------------------------------------------------------
      1          6           0       -0.122869    0.390343   -0.000727
      2          7           0        1.132778   -0.147911   -0.053004
      3          7           0       -1.171312   -0.329822    0.010738
      4          1           0       -0.118022    1.483848   -0.004688
      5          1           0        1.919698    0.417616    0.206986
      6          1           0        1.214009   -1.140910    0.095135
      7          1           0       -2.008734    0.241521    0.002787
 ---------------------------------------------------------------------

 SCF Done:  E(RHF) =  -149.156999849     A.U. after    2 cycles

 The electronic state is 1-A.
 Alpha  occ. eigenvalues --  -15.64048 -15.59046 -11.32816  -1.22558  -1.11031
 Alpha  occ. eigenvalues --   -0.82188  -0.74217  -0.63234  -0.62170  -0.52510
 Alpha  occ. eigenvalues --   -0.41458  -0.36179
 Alpha virt. eigenvalues --    0.02999   0.03971   0.05334   0.07613   0.09658
 Alpha virt. eigenvalues --    0.12490   0.14383   0.15814   0.16057   0.17486
 Alpha virt. eigenvalues --    0.18395   0.20668   0.21066   0.22846   0.25421

 Mulliken charges:
               1
     1  C    0.878152
     2  N   -0.225962
     3  N   -0.412174
     4  H   -0.228894
     5  H   -0.002731
     6  H   -0.026050
     7  H    0.017659
 Sum of Mulliken charges =  -0.00000

 Dipole moment (field-independent basis, Debye):
    X=              2.0085    Y=              2.0556    Z=              0.6241  Tot=              2.9410

 Test job not archived.
 1\1\GINC-SE152\SP\RHF\Aug-CC-pVDZ\C1H4N2\OHZDE\05-Apr-2025\0\\#t hf au
 g-cc-pvdz iop(5/13=1,5/36=2,99/5=2) pseudo=read geom=check guess=(read
 ,tcheck) scf=(maxcycle=1)\\title\\0,1\C,0,-0.122869,0.390343,-0.000727
 \N,0,1.132778,-0.147911,-0.053004\N,0,-1.171312,-0.329822,0.010738\H,0
 ,-0.118022,1.483848,-0.004688\H,0,1.919698,0.417616,0.206986\H,0,1.214
 009,-1.14091,0.095135\H,0,-2.008734,0.241521,0.002787\\Version=ES64L-G
 16RevC.01\State=1-A\HF=-149.1569998\RMSD=1.652e-03\Dipole=0.7902003,0.
 8087461,0.2455574\Quadrupole=1.7784037,0.5112974,-2.2897011,-2.097058,

 Normal termination of Gaussian 16 at Sat Apr  5 23:00:08 2025.
