 Gaussian 16, Revision C.01,

 ----------------------------------------------------------------------
 #t hf aug-cc-pvdz symm=none int=(grid=ultrafine) guess=(read,tcheck) s
 table=(opt,rrhf)
 ----------------------------------------------------------------------
 -----
 title
 -----
 Symbolic Z-matrix:
 Charge =  0 Multiplicity = 1

 SCF Done:  E(RHF) =  -834.077082249     A.U. after   14 cycles
 Normal termination of Gaussian 16 at Sat Apr  5 23:00:05 2025.
 Gaussian 16:  ES64L-G16RevC.01  3-Jul-2019

 ----------------------------------------------------------------------
 #t hf aug-cc-pvdz iop(5/13=1,5/36=2,99/5=2) pseudo=read geom=check gue
 ss=(read,tcheck) scf=(maxcycle=1)
 ----------------------------------------------------------------------
 -----
 title
 -----
 Structure from the checkpoint file:  "methanedithioicacid.chk"
 Charge =  0 Multiplicity = 1

                         Standard orientation:
 ---------------------------------------------------------------------
 Center     Atomic      Atomic             Coordinates (Angstroms)
 Number     Number       Type             X           Y           Z
 ---------------------------------------------------------------------
      1         16           0       -1.379699   -0.462768   -0.000000
      2         16           0        1.542184    0.101951    0.000000
      3          6           0        0.000000    0.604111    0.000000
      4          1           0       -0.264368    1.658591   -0.000000
      5          1           0       -2.335387    0.489817   -0.000000
 ---------------------------------------------------------------------

 SCF Done:  E(RHF) =  -834.128744945     A.U. after    2 cycles

 The electronic state is 1-A'.
 Alpha  occ. eigenvalues --  -93.58652 -93.52950 -11.36740  -8.88468  -8.82857
 Alpha  occ. eigenvalues --   -6.22582  -6.22375  -6.22041  -6.16997  -6.16623
 Alpha  occ. eigenvalues --   -6.16365  -1.10726  -0.97085  -0.78170  -0.65870
 Alpha  occ. eigenvalues --   -0.53982  -0.50939  -0.48535  -0.36127  -0.35049
 Alpha virt. eigenvalues --    0.02938   0.03511   0.05175   0.07718   0.09418
 Alpha virt. eigenvalues --    0.11405   0.11705   0.14254   0.14453   0.15443
 Alpha virt. eigenvalues --    0.15728   0.16012   0.16712   0.18912   0.22705

 Mulliken charges:
               1
     1  S    0.375081
     2  S    0.150466
     3  C   -0.308383
     4  H   -0.301650
     5  H    0.084486
 Sum of Mulliken charges =   0.00000

 Dipole moment (field-independent basis, Debye):
    X=             -2.7128    Y=              1.4546    Z=             -0.0000  Tot=              3.0782

 Test job not archived.
 1\1\GINC-SE176\SP\RHF\Aug-CC-pVDZ\C1H2S2\OHZDE\05-Apr-2025\0\\#t hf au
 g-cc-pvdz iop(5/13=1,5/36=2,99/5=2) pseudo=read geom=check guess=(read
 ,tcheck) scf=(maxcycle=1)\\title\\0,1\S,0,-1.379699,-0.462768,0.\S,0,1
 .542184,0.101951,0.\C,0,0.,0.604111,0.\H,0,-0.264368,1.658591,0.\H,0,-
 2.335387,0.489817,0.\\Version=ES64L-G16RevC.01\State=1-A'\HF=-834.1287
 449\RMSD=7.774e-03\Dipole=-1.0673149,0.5722987,0.\Quadrupole=1.0971484
 ,0.3739576,-1.471106,-1.9106873,0.,0.\PG=CS [SG(C1H2S2)]\\@

 Normal termination of Gaussian 16 at Sat Apr  5 23:00:07 2025.
