 Gaussian 16, Revision C.01,

 ----------------------------------------------------------------------
 #t hf aug-cc-pvdz symm=none int=(grid=ultrafine) guess=(read,tcheck) s
 table=(opt,rrhf)
 ----------------------------------------------------------------------
 -----
 title
 -----
 Symbolic Z-matrix:
 Charge =  0 Multiplicity = 1

 SCF Done:  E(RHF) =  -816.962883021     A.U. after   15 cycles
 Normal termination of Gaussian 16 at Sat Apr  5 23:04:47 2025.
 Gaussian 16:  ES64L-G16RevC.01  3-Jul-2019

 ----------------------------------------------------------------------
 #t hf aug-cc-pvdz iop(5/13=1,5/36=2,99/5=2) pseudo=read geom=check gue
 ss=(read,tcheck) scf=(maxcycle=1)
 ----------------------------------------------------------------------
 -----
 title
 -----
 Structure from the checkpoint file:  "methylphenylsulfone.chk"
 Charge =  0 Multiplicity = 1

                         Standard orientation:
 ---------------------------------------------------------------------
 Center     Atomic      Atomic             Coordinates (Angstroms)
 Number     Number       Type             X           Y           Z
 ---------------------------------------------------------------------
      1          6           0        0.091342    3.082579   -0.000000
      2          6           0        0.094844    2.390597    1.206836
      3          6           0        0.094844    2.390597   -1.206836
      4          6           0        0.094844    1.001048    1.213029
      5          6           0        0.094844    1.001048   -1.213029
      6          6           0        0.088331    0.322160   -0.000000
      7          6           0       -1.655962   -1.917459    0.000000
      8          8           0        0.656057   -1.929130   -1.266976
      9          8           0        0.656057   -1.929130    1.266976
     10         16           0        0.091079   -1.476746    0.000000
     11          1           0        0.094921    4.164148   -0.000000
     12          1           0        0.106394    2.931653    2.142942
     13          1           0        0.106394    2.931653   -2.142942
     14          1           0        0.122551    0.445707    2.139560
     15          1           0        0.122551    0.445707   -2.139560
     16          1           0       -2.120878   -1.521537   -0.898564
     17          1           0       -1.683749   -3.005188    0.000000
     18          1           0       -2.120878   -1.521537    0.898564
 ---------------------------------------------------------------------

 SCF Done:  E(RHF) =  -817.161624659     A.U. after    2 cycles

 The electronic state is 1-A'.
 Alpha  occ. eigenvalues --  -93.78164 -20.55421 -20.55419 -11.28977 -11.28649
 Alpha  occ. eigenvalues --  -11.27725 -11.27716 -11.27442 -11.26874 -11.26863
 Alpha  occ. eigenvalues --   -9.04840  -6.39476  -6.39269  -6.39195  -1.41003
 Alpha  occ. eigenvalues --   -1.29678  -1.17712  -1.06244  -1.04121  -1.02394
 Alpha  occ. eigenvalues --   -0.89245  -0.86031  -0.80834  -0.74287  -0.68923
 Alpha  occ. eigenvalues --   -0.67485  -0.67217  -0.64845  -0.64839  -0.62252
 Alpha  occ. eigenvalues --   -0.60787  -0.60707  -0.55428  -0.53625  -0.52832
 Alpha  occ. eigenvalues --   -0.51507  -0.50623  -0.48783  -0.45090  -0.37622
 Alpha  occ. eigenvalues --   -0.36715
 Alpha virt. eigenvalues --    0.02659   0.03642   0.03684   0.05056   0.05723
 Alpha virt. eigenvalues --    0.06055   0.06969   0.07314   0.07461   0.08771
 Alpha virt. eigenvalues --    0.10196   0.10958   0.12008   0.12375   0.13610

 Mulliken charges:
               1
     1  C    0.480833
     2  C    0.644557
     3  C    0.644557
     4  C   -0.005855
     5  C   -0.005855
     6  C    0.402554
     7  C   -0.043885
     8  O   -1.146649
     9  O   -1.146649
    10  S    2.560018
    11  H   -0.439323
    12  H   -0.433550
    13  H   -0.433550
    14  H   -0.522430
    15  H   -0.522430
    16  H   -0.015135
    17  H   -0.002072
    18  H   -0.015135
 Sum of Mulliken charges =  -0.00000

 Dipole moment (field-independent basis, Debye):
    X=             -4.1145    Y=              4.2554    Z=             -0.0000  Tot=              5.9193

 Test job not archived.
 1\1\GINC-SE151\SP\RHF\Aug-CC-pVDZ\C7H8O2S1\OHZDE\05-Apr-2025\0\\#t hf
 aug-cc-pvdz iop(5/13=1,5/36=2,99/5=2) pseudo=read geom=check guess=(re
 ad,tcheck) scf=(maxcycle=1)\\title\\0,1\C,0,0.091342,3.082579,0.\C,0,0
 .094844,2.390597,1.206836\C,0,0.094844,2.390597,-1.206836\C,0,0.094844
 ,1.001048,1.213029\C,0,0.094844,1.001048,-1.213029\C,0,0.088331,0.3221
 6,0.\C,0,-1.655962,-1.917459,0.\O,0,0.656057,-1.92913,-1.266976\O,0,0.
 656057,-1.92913,1.266976\S,0,0.091079,-1.476746,0.\H,0,0.094921,4.1641
 48,0.\H,0,0.106394,2.931653,2.142942\H,0,0.106394,2.931653,-2.142942\H

 Normal termination of Gaussian 16 at Sat Apr  5 23:05:09 2025.
