 Gaussian 16, Revision C.01,

 ----------------------------------------------------------------------
 #t hf aug-cc-pvdz symm=none int=(grid=ultrafine) guess=(read,tcheck) s
 table=(opt,rrhf)
 ----------------------------------------------------------------------
 -----
 title
 -----
 Symbolic Z-matrix:
 Charge =  0 Multiplicity = 1

 SCF Done:  E(RHF) =  -926.977276512     A.U. after   15 cycles
 Normal termination of Gaussian 16 at Sat Apr  5 23:03:09 2025.
 Gaussian 16:  ES64L-G16RevC.01  3-Jul-2019

 ----------------------------------------------------------------------
 #t hf aug-cc-pvdz iop(5/13=1,5/36=2,99/5=2) pseudo=read geom=check gue
 ss=(read,tcheck) scf=(maxcycle=1)
 ----------------------------------------------------------------------
 -----
 title
 -----
 Structure from the checkpoint file:  "methylsulfanyliminomethanethione.chk"
 Charge =  0 Multiplicity = 1

                         Standard orientation:
 ---------------------------------------------------------------------
 Center     Atomic      Atomic             Coordinates (Angstroms)
 Number     Number       Type             X           Y           Z
 ---------------------------------------------------------------------
      1         16           0        1.487854   -0.652185    0.000095
      2         16           0       -2.683866    0.052343   -0.000262
      3          7           0        0.082020    0.281815    0.000072
      4          6           0        2.714170    0.680388    0.000283
      5          6           0       -1.107551    0.131432   -0.000082
      6          1           0        3.680142    0.176343    0.000324
      7          1           0        2.621166    1.288815   -0.895396
      8          1           0        2.621025    1.288688    0.896033
 ---------------------------------------------------------------------

 SCF Done:  E(RHF) =  -927.063504742     A.U. after    2 cycles

 The electronic state is 1-A.
 Alpha  occ. eigenvalues --  -93.60831 -93.53988 -15.68900 -11.39365 -11.29073
 Alpha  occ. eigenvalues --   -8.90074  -8.83901  -6.24315  -6.23918  -6.23530
 Alpha  occ. eigenvalues --   -6.18207  -6.17545  -6.17472  -1.26641  -1.07714
 Alpha  occ. eigenvalues --   -1.01715  -0.91006  -0.69517  -0.62794  -0.61079
 Alpha  occ. eigenvalues --   -0.60276  -0.58027  -0.57924  -0.48922  -0.41608
 Alpha  occ. eigenvalues --   -0.37156  -0.33065
 Alpha virt. eigenvalues --    0.02901   0.05083   0.05358   0.06184   0.06854
 Alpha virt. eigenvalues --    0.08511   0.10820   0.11046   0.11138   0.12248
 Alpha virt. eigenvalues --    0.12715   0.14713   0.14959   0.15412   0.15735

 Mulliken charges:
               1
     1  S    0.775690
     2  S    0.238205
     3  N   -0.386338
     4  C    0.063418
     5  C   -0.547231
     6  H   -0.050665
     7  H   -0.046537
     8  H   -0.046542
 Sum of Mulliken charges =  -0.00000

 Dipole moment (field-independent basis, Debye):
    X=              3.4731    Y=              0.6261    Z=              0.0003  Tot=              3.5291

 Test job not archived.
 1\1\GINC-SE204\SP\RHF\Aug-CC-pVDZ\C2H3N1S2\OHZDE\05-Apr-2025\0\\#t hf
 aug-cc-pvdz iop(5/13=1,5/36=2,99/5=2) pseudo=read geom=check guess=(re
 ad,tcheck) scf=(maxcycle=1)\\title\\0,1\S,0,1.487854,-0.652185,0.00009
 5\S,0,-2.683866,0.052343,-0.000262\N,0,0.08202,0.281815,0.000072\C,0,2
 .71417,0.680388,0.000283\C,0,-1.107551,0.131432,-0.000082\H,0,3.680142
 ,0.176343,0.000324\H,0,2.621166,1.288815,-0.895396\H,0,2.621025,1.2886
 88,0.896033\\Version=ES64L-G16RevC.01\State=1-A\HF=-927.0635047\RMSD=6
 .154e-03\Dipole=1.3664219,0.2463283,0.0001296\Quadrupole=2.8269139,-0.

 Normal termination of Gaussian 16 at Sat Apr  5 23:03:18 2025.
