 Gaussian 16, Revision C.01,

 ----------------------------------------------------------------------
 #t hf aug-cc-pvdz symm=none int=(grid=ultrafine) guess=(read,tcheck) s
 table=(opt,rrhf)
 ----------------------------------------------------------------------
 -----
 title
 -----
 Symbolic Z-matrix:
 Charge =  0 Multiplicity = 1

 SCF Done:  E(RHF) =  -514.620383084     A.U. after   13 cycles
 Normal termination of Gaussian 16 at Sat Apr  5 23:02:36 2025.
 Gaussian 16:  ES64L-G16RevC.01  3-Jul-2019

 ----------------------------------------------------------------------
 #t hf aug-cc-pvdz iop(5/13=1,5/36=2,99/5=2) pseudo=read geom=check gue
 ss=(read,tcheck) scf=(maxcycle=1)
 ----------------------------------------------------------------------
 -----
 title
 -----
 Structure from the checkpoint file:  "methylthiirane.chk"
 Charge =  0 Multiplicity = 1

                         Standard orientation:
 ---------------------------------------------------------------------
 Center     Atomic      Atomic             Coordinates (Angstroms)
 Number     Number       Type             X           Y           Z
 ---------------------------------------------------------------------
      1          6           0       -1.779558   -0.307747   -0.176939
      2          6           0       -0.520387    0.167305    0.499192
      3          6           0        0.364858    1.153255   -0.152316
      4         16           0        1.096395   -0.525749   -0.053924
      5          1           0       -1.640106   -0.377917   -1.255255
      6          1           0       -2.077985   -1.288840    0.191938
      7          1           0       -2.597663    0.389956    0.023094
      8          1           0       -0.579906    0.234408    1.579077
      9          1           0        0.109461    1.476866   -1.153106
     10          1           0        0.854404    1.900623    0.457404
 ---------------------------------------------------------------------

 SCF Done:  E(RHF) =  -514.677761583     A.U. after    2 cycles

 The electronic state is 1-A.
 Alpha  occ. eigenvalues --  -93.51913 -11.29123 -11.28219 -11.24223  -8.81659
 Alpha  occ. eigenvalues --   -6.15799  -6.15525  -6.15182  -1.13800  -0.97542
 Alpha  occ. eigenvalues --   -0.83029  -0.79223  -0.66822  -0.61002  -0.58193
 Alpha  occ. eigenvalues --   -0.55011  -0.52502  -0.43066  -0.40819  -0.34041
 Alpha virt. eigenvalues --    0.03402   0.04551   0.04761   0.05758   0.06809
 Alpha virt. eigenvalues --    0.07664   0.08458   0.10887   0.12798   0.13043
 Alpha virt. eigenvalues --    0.14434   0.14946   0.15498   0.16327   0.16530

 Mulliken charges:
               1
     1  C    0.268793
     2  C   -0.082216
     3  C    0.592795
     4  S    0.130897
     5  H   -0.060104
     6  H   -0.017757
     7  H    0.010393
     8  H   -0.312273
     9  H   -0.275071
    10  H   -0.255458
 Sum of Mulliken charges =  -0.00000

 Dipole moment (field-independent basis, Debye):
    X=             -1.8669    Y=              1.5077    Z=              0.3011  Tot=              2.4185

 Test job not archived.
 1\1\GINC-SE206\SP\RHF\Aug-CC-pVDZ\C3H6S1\OHZDE\05-Apr-2025\0\\#t hf au
 g-cc-pvdz iop(5/13=1,5/36=2,99/5=2) pseudo=read geom=check guess=(read
 ,tcheck) scf=(maxcycle=1)\\title\\0,1\C,0,-1.779558,-0.307747,-0.17693
 9\C,0,-0.520387,0.167305,0.499192\C,0,0.364858,1.153255,-0.152316\S,0,
 1.096395,-0.525749,-0.053924\H,0,-1.640106,-0.377917,-1.255255\H,0,-2.
 077985,-1.28884,0.191938\H,0,-2.597663,0.389956,0.023094\H,0,-0.579906
 ,0.234408,1.579077\H,0,0.109461,1.476866,-1.153106\H,0,0.854404,1.9006
 23,0.457404\\Version=ES64L-G16RevC.01\State=1-A\HF=-514.6777616\RMSD=1

 Normal termination of Gaussian 16 at Sat Apr  5 23:03:05 2025.
