 Gaussian 16, Revision C.01,

 ----------------------------------------------------------------------
 #t hf aug-cc-pvdz symm=none int=(grid=ultrafine) guess=(read,tcheck) s
 table=(opt,rrhf)
 ----------------------------------------------------------------------
 -----
 title
 -----
 Symbolic Z-matrix:
 Charge =  0 Multiplicity = 1

 SCF Done:  E(RHF) =  -665.476514252     A.U. after   13 cycles
 Normal termination of Gaussian 16 at Sat Apr  5 23:03:46 2025.
 Gaussian 16:  ES64L-G16RevC.01  3-Jul-2019

 ----------------------------------------------------------------------
 #t hf aug-cc-pvdz iop(5/13=1,5/36=2,99/5=2) pseudo=read geom=check gue
 ss=(read,tcheck) scf=(maxcycle=1)
 ----------------------------------------------------------------------
 -----
 title
 -----
 Structure from the checkpoint file:  "methylethylsulfone.chk"
 Charge =  0 Multiplicity = 1

                         Standard orientation:
 ---------------------------------------------------------------------
 Center     Atomic      Atomic             Coordinates (Angstroms)
 Number     Number       Type             X           Y           Z
 ---------------------------------------------------------------------
      1          6           0        2.288662    0.176351    0.057230
      2          6           0        1.130294   -0.527360   -0.632556
      3          6           0       -0.786688    1.583975   -0.306161
      4         16           0       -0.501180   -0.154526    0.071483
      5          8           0       -0.417269   -0.287283    1.523670
      6          8           0       -1.483277   -0.935076   -0.675425
      7          1           0        2.280785   -0.024085    1.126808
      8          1           0        3.231448   -0.185743   -0.353456
      9          1           0        2.258771    1.255472   -0.093143
     10          1           0        1.185809   -1.610963   -0.523095
     11          1           0        1.058079   -0.300708   -1.695857
     12          1           0       -0.772893    1.722266   -1.384003
     13          1           0       -1.774988    1.803771    0.091152
     14          1           0       -0.037380    2.193478    0.190821
 ---------------------------------------------------------------------

 SCF Done:  E(RHF) =  -665.634279421     A.U. after    2 cycles

 The electronic state is 1-A.
 Alpha  occ. eigenvalues --  -93.77484 -20.55187 -20.55130 -11.29267 -11.28835
 Alpha  occ. eigenvalues --  -11.25967  -9.04259  -6.38878  -6.38661  -6.38595
 Alpha  occ. eigenvalues --   -1.40647  -1.29260  -1.08413  -1.02684  -0.91764
 Alpha  occ. eigenvalues --   -0.80267  -0.69438  -0.68628  -0.66342  -0.64486
 Alpha  occ. eigenvalues --   -0.61171  -0.60038  -0.58970  -0.55732  -0.53650
 Alpha  occ. eigenvalues --   -0.50952  -0.50254  -0.48368  -0.44251
 Alpha virt. eigenvalues --    0.02593   0.03924   0.04507   0.05089   0.06376
 Alpha virt. eigenvalues --    0.06680   0.07281   0.08361   0.11332   0.11577
 Alpha virt. eigenvalues --    0.13219   0.13918   0.14446   0.14669   0.15590

 Mulliken charges:
               1
     1  C    0.387139
     2  C   -0.226955
     3  C    0.008756
     4  S    2.257350
     5  O   -1.144366
     6  O   -1.109894
     7  H   -0.016455
     8  H   -0.042587
     9  H   -0.109247
    10  H    0.019427
    11  H   -0.061986
    12  H   -0.003781
    13  H    0.035509
    14  H    0.007091
 Sum of Mulliken charges =   0.00000

 Dipole moment (field-independent basis, Debye):
    X=              3.7243    Y=              3.4269    Z=             -2.5075  Tot=              5.6482

 Test job not archived.
 1\1\GINC-SE045\SP\RHF\Aug-CC-pVDZ\C3H8O2S1\OHZDE\05-Apr-2025\0\\#t hf
 aug-cc-pvdz iop(5/13=1,5/36=2,99/5=2) pseudo=read geom=check guess=(re
 ad,tcheck) scf=(maxcycle=1)\\title\\0,1\C,0,2.288662,0.176351,0.05723\
 C,0,1.130294,-0.52736,-0.632556\C,0,-0.786688,1.583975,-0.306161\S,0,-
 0.50118,-0.154526,0.071483\O,0,-0.417269,-0.287283,1.52367\O,0,-1.4832
 77,-0.935076,-0.675425\H,0,2.280785,-0.024085,1.126808\H,0,3.231448,-0
 .185743,-0.353456\H,0,2.258771,1.255472,-0.093143\H,0,1.185809,-1.6109
 63,-0.523095\H,0,1.058079,-0.300708,-1.695857\H,0,-0.772893,1.722266,-

 Normal termination of Gaussian 16 at Sat Apr  5 23:04:14 2025.
