 Gaussian 16, Revision C.01,

 ----------------------------------------------------------------------
 #t hf aug-cc-pvdz symm=none int=(grid=ultrafine) guess=(read,tcheck) s
 table=(opt,rrhf)
 ----------------------------------------------------------------------
 -----
 title
 -----
 Symbolic Z-matrix:
 Charge =  0 Multiplicity = 1

 SCF Done:  E(RHF) =  -515.804320056     A.U. after   12 cycles
 Normal termination of Gaussian 16 at Sat Apr  5 23:02:35 2025.
 Gaussian 16:  ES64L-G16RevC.01  3-Jul-2019

 ----------------------------------------------------------------------
 #t hf aug-cc-pvdz iop(5/13=1,5/36=2,99/5=2) pseudo=read geom=check gue
 ss=(read,tcheck) scf=(maxcycle=1)
 ----------------------------------------------------------------------
 -----
 title
 -----
 Structure from the checkpoint file:  "methylthioethane.chk"
 Charge =  0 Multiplicity = 1

                         Standard orientation:
 ---------------------------------------------------------------------
 Center     Atomic      Atomic             Coordinates (Angstroms)
 Number     Number       Type             X           Y           Z
 ---------------------------------------------------------------------
      1          6           0       -1.716415   -1.342580    0.000000
      2          6           0        1.817500    0.896420    0.000000
      3          6           0       -0.231871   -1.002452    0.000000
      4         16           0        0.000000    0.813744    0.000000
      5          1           0       -2.213283   -0.938659    0.882278
      6          1           0       -2.213283   -0.938659   -0.882278
      7          1           0       -1.855592   -2.424603    0.000000
      8          1           0        2.231538    0.426391    0.891139
      9          1           0        2.087879    1.950284    0.000000
     10          1           0        2.231538    0.426391   -0.891139
     11          1           0        0.257960   -1.414687   -0.883038
     12          1           0        0.257960   -1.414687    0.883038
 ---------------------------------------------------------------------

 SCF Done:  E(RHF) =  -515.865620649     A.U. after    2 cycles

 The electronic state is 1-A'.
 Alpha  occ. eigenvalues --  -93.51987 -11.26497 -11.26023 -11.23339  -8.81733
 Alpha  occ. eigenvalues --   -6.15877  -6.15658  -6.15321  -1.06456  -0.99174
 Alpha  occ. eigenvalues --   -0.87482  -0.78653  -0.63195  -0.59866  -0.58750
 Alpha  occ. eigenvalues --   -0.58329  -0.53116  -0.50926  -0.47407  -0.42400
 Alpha  occ. eigenvalues --   -0.33210
 Alpha virt. eigenvalues --    0.03573   0.04323   0.05246   0.05307   0.06645
 Alpha virt. eigenvalues --    0.07056   0.07643   0.08873   0.10703   0.12289
 Alpha virt. eigenvalues --    0.13874   0.14149   0.15829   0.16365   0.16399

 Mulliken charges:
               1
     1  C    0.382902
     2  C    0.137273
     3  C   -0.145867
     4  S    0.331701
     5  H   -0.064783
     6  H   -0.064783
     7  H   -0.039199
     8  H   -0.090494
     9  H   -0.107953
    10  H   -0.090494
    11  H   -0.124151
    12  H   -0.124151
 Sum of Mulliken charges =  -0.00000

 Dipole moment (field-independent basis, Debye):
    X=              1.0843    Y=             -1.4310    Z=             -0.0000  Tot=              1.7955

 Test job not archived.
 1\1\GINC-SE169\SP\RHF\Aug-CC-pVDZ\C3H8S1\OHZDE\05-Apr-2025\0\\#t hf au
 g-cc-pvdz iop(5/13=1,5/36=2,99/5=2) pseudo=read geom=check guess=(read
 ,tcheck) scf=(maxcycle=1)\\title\\0,1\C,0,-1.716415,-1.34258,0.\C,0,1.
 8175,0.89642,0.\C,0,-0.231871,-1.002452,0.\S,0,0.,0.813744,0.\H,0,-2.2
 13283,-0.938659,0.882278\H,0,-2.213283,-0.938659,-0.882278\H,0,-1.8555
 92,-2.424603,0.\H,0,2.231538,0.426391,0.891139\H,0,2.087879,1.950284,0
 .\H,0,2.231538,0.426391,-0.891139\H,0,0.25796,-1.414687,-0.883038\H,0,
 0.25796,-1.414687,0.883038\\Version=ES64L-G16RevC.01\State=1-A'\HF=-51

 Normal termination of Gaussian 16 at Sat Apr  5 23:03:06 2025.
