 Gaussian 16, Revision C.01,

 ----------------------------------------------------------------------
 #t hf aug-cc-pvdz symm=none int=(grid=ultrafine) guess=(read,tcheck) s
 table=(opt,rrhf)
 ----------------------------------------------------------------------
 -----
 title
 -----
 Symbolic Z-matrix:
 Charge =  0 Multiplicity = 1

 SCF Done:  E(RHF) =  -383.987638593     A.U. after   14 cycles

 1\1\GINC-SE106\Stability\RHF\Aug-CC-pVDZ\C6H12O2\OHZDE\05-Apr-2025\0\\
 #t hf aug-cc-pvdz symm=none int=(grid=ultrafine) guess=(read,tcheck) s
 table=(opt,rrhf)\\title\\0,1\C,0,-0.018703,0.623324,0.\C,0,-0.018703,-
 1.537398,1.260653\C,0,-2.067621,-0.796408,0.\C,0,-0.018703,-1.537398,-
 1.260653\C,0,1.913511,1.98573,0.\C,0,-0.535531,-0.817672,0.\O,0,-0.704
 653,1.61536,0.\O,0,1.331529,0.672656,0.\H,0,-0.353319,-1.032473,2.1681
 79\H,0,-0.406978,-2.556799,1.283172\H,0,1.068644,-1.583922,1.275217\H,
 0,-2.456671,-0.283818,0.878679\H,0,-2.447056,-1.819081,0.\H,0,-2.45667

 Normal termination of Gaussian 16 at Sat Apr  5 23:02:33 2025.
 Gaussian 16:  ES64L-G16RevC.01  3-Jul-2019

 ----------------------------------------------------------------------
 #t hf aug-cc-pvdz iop(5/13=1,5/36=2,99/5=2) pseudo=read geom=check gue
 ss=(read,tcheck) scf=(maxcycle=1)
 ----------------------------------------------------------------------
 -----
 title
 -----
 Structure from the checkpoint file:  "methyl-2-2-dimethylpropanoate.chk"
 Charge =  0 Multiplicity = 1

                         Standard orientation:
 ---------------------------------------------------------------------
 Center     Atomic      Atomic             Coordinates (Angstroms)
 Number     Number       Type             X           Y           Z
 ---------------------------------------------------------------------
      1          6           0       -0.018703    0.623324    0.000000
      2          6           0       -0.018703   -1.537398    1.260653
      3          6           0       -2.067621   -0.796408    0.000000
      4          6           0       -0.018703   -1.537398   -1.260653
      5          6           0        1.913511    1.985730    0.000000
      6          6           0       -0.535531   -0.817672    0.000000
      7          8           0       -0.704653    1.615360    0.000000
      8          8           0        1.331529    0.672656    0.000000
      9          1           0       -0.353319   -1.032473    2.168179
     10          1           0       -0.406978   -2.556799    1.283172
     11          1           0        1.068644   -1.583922    1.275217
     12          1           0       -2.456671   -0.283818    0.878679
     13          1           0       -2.447056   -1.819081    0.000000
     14          1           0       -2.456671   -0.283818   -0.878679
     15          1           0        1.068644   -1.583922   -1.275217
     16          1           0       -0.406978   -2.556799   -1.283172
     17          1           0       -0.353319   -1.032473   -2.168179
     18          1           0        1.607640    2.539254    0.885978
     19          1           0        1.607640    2.539254   -0.885978
     20          1           0        2.987917    1.829400    0.000000
 ---------------------------------------------------------------------

 SCF Done:  E(RHF) =  -384.111686469     A.U. after    2 cycles

 The electronic state is 1-A'.
 Alpha  occ. eigenvalues --  -20.61276 -20.55671 -11.38462 -11.29528 -11.26257
 Alpha  occ. eigenvalues --  -11.23209 -11.23202 -11.22230  -1.41625  -1.32007
 Alpha  occ. eigenvalues --   -1.10270  -0.97746  -0.93946  -0.93196  -0.83889
 Alpha  occ. eigenvalues --   -0.76317  -0.68883  -0.68571  -0.68183  -0.61845
 Alpha  occ. eigenvalues --   -0.60979  -0.59755  -0.56204  -0.55803  -0.54013
 Alpha  occ. eigenvalues --   -0.53624  -0.52181  -0.52138  -0.47735  -0.47616
 Alpha  occ. eigenvalues --   -0.47595  -0.44653
 Alpha virt. eigenvalues --    0.03365   0.04100   0.04701   0.04894   0.06060
 Alpha virt. eigenvalues --    0.06342   0.06491   0.07096   0.07416   0.08565
 Alpha virt. eigenvalues --    0.08711   0.09589   0.10571   0.13283   0.13663

 Mulliken charges:
               1
     1  C    0.334905
     2  C    1.194531
     3  C    1.219735
     4  C    1.194531
     5  C    0.833669
     6  C   -3.164948
     7  O   -0.424556
     8  O   -0.558088
     9  H   -0.024071
    10  H   -0.022691
    11  H   -0.016685
    12  H   -0.021064
    13  H   -0.001846
    14  H   -0.021064
    15  H   -0.016685
    16  H   -0.022691
    17  H   -0.024071
    18  H   -0.090493
    19  H   -0.090493
    20  H   -0.277924
 Sum of Mulliken charges =  -0.00000

 Dipole moment (field-independent basis, Debye):
    X=              1.5723    Y=             -1.4040    Z=             -0.0000  Tot=              2.1079

 Test job not archived.
 1\1\GINC-SE106\SP\RHF\Aug-CC-pVDZ\C6H12O2\OHZDE\05-Apr-2025\0\\#t hf a
 ug-cc-pvdz iop(5/13=1,5/36=2,99/5=2) pseudo=read geom=check guess=(rea
 d,tcheck) scf=(maxcycle=1)\\title\\0,1\C,0,-0.018703,0.623324,0.\C,0,-
 0.018703,-1.537398,1.260653\C,0,-2.067621,-0.796408,0.\C,0,-0.018703,-
 1.537398,-1.260653\C,0,1.913511,1.98573,0.\C,0,-0.535531,-0.817672,0.\
 O,0,-0.704653,1.61536,0.\O,0,1.331529,0.672656,0.\H,0,-0.353319,-1.032
 473,2.168179\H,0,-0.406978,-2.556799,1.283172\H,0,1.068644,-1.583922,1
 .275217\H,0,-2.456671,-0.283818,0.878679\H,0,-2.447056,-1.819081,0.\H,

 Normal termination of Gaussian 16 at Sat Apr  5 23:03:09 2025.
