 Gaussian 16, Revision C.01,

 ----------------------------------------------------------------------
 #t hf aug-cc-pvdz symm=none int=(grid=ultrafine) guess=(read,tcheck) s
 table=(opt,rrhf)
 ----------------------------------------------------------------------
 -----
 title
 -----
 Symbolic Z-matrix:
 Charge =  0 Multiplicity = 1

 SCF Done:  E(RHF) =  -273.272199886     A.U. after   11 cycles
 Normal termination of Gaussian 16 at Sat Apr  5 23:04:09 2025.
 Gaussian 16:  ES64L-G16RevC.01  3-Jul-2019

 ----------------------------------------------------------------------
 #t hf aug-cc-pvdz iop(5/13=1,5/36=2,99/5=2) pseudo=read geom=check gue
 ss=(read,tcheck) scf=(maxcycle=1)
 ----------------------------------------------------------------------
 -----
 title
 -----
 Structure from the checkpoint file:  "methylcyclohexane.chk"
 Charge =  0 Multiplicity = 1

                         Standard orientation:
 ---------------------------------------------------------------------
 Center     Atomic      Atomic             Coordinates (Angstroms)
 Number     Number       Type             X           Y           Z
 ---------------------------------------------------------------------
      1          6           0       -0.739782   -1.773761   -0.000000
      2          6           0       -0.089048   -1.206811    1.264899
      3          6           0       -0.089048   -1.206811   -1.264899
      4          6           0       -0.089048    0.324852    1.260545
      5          6           0       -0.089048    0.324852   -1.260545
      6          6           0        0.566508    0.906527    0.000000
      7          6           0        0.533702    2.434333    0.000000
      8          1           0       -0.680166   -2.864513   -0.000000
      9          1           0       -1.805477   -1.520961   -0.000000
     10          1           0       -0.602476   -1.579676    2.154131
     11          1           0        0.943314   -1.566555    1.330389
     12          1           0        0.943314   -1.566555   -1.330389
     13          1           0       -0.602476   -1.579676   -2.154131
     14          1           0       -1.122408    0.686328    1.318579
     15          1           0        0.419978    0.704095    2.150588
     16          1           0        0.419978    0.704095   -2.150588
     17          1           0       -1.122408    0.686328   -1.318579
     18          1           0        1.617471    0.591208    0.000000
     19          1           0        1.030791    2.842574    0.882126
     20          1           0        1.030791    2.842574   -0.882126
     21          1           0       -0.495635    2.801645    0.000000
 ---------------------------------------------------------------------

 SCF Done:  E(RHF) =  -273.356637814     A.U. after    2 cycles

 The electronic state is 1-A'.
 Alpha  occ. eigenvalues --  -11.22614 -11.22085 -11.22064 -11.22008 -11.21902
 Alpha  occ. eigenvalues --  -11.21890 -11.21654  -1.10685  -1.02125  -0.99237
 Alpha  occ. eigenvalues --   -0.91199  -0.82854  -0.79787  -0.74862  -0.64208
 Alpha  occ. eigenvalues --   -0.61032  -0.60091  -0.60055  -0.56692  -0.53358
 Alpha  occ. eigenvalues --   -0.52377  -0.51107  -0.48989  -0.47978  -0.46839
 Alpha  occ. eigenvalues --   -0.44761  -0.42643  -0.42262
 Alpha virt. eigenvalues --    0.03648   0.04224   0.04381   0.04519   0.06118
 Alpha virt. eigenvalues --    0.06305   0.06626   0.06696   0.06919   0.08916
 Alpha virt. eigenvalues --    0.08979   0.09114   0.09239   0.09583   0.13067

 Mulliken charges:
               1
     1  C    0.228147
     2  C    0.315811
     3  C    0.315811
     4  C    0.515934
     5  C    0.515934
     6  C   -1.267692
     7  C    0.860406
     8  H   -0.121262
     9  H   -0.100729
    10  H   -0.108124
    11  H   -0.092870
    12  H   -0.092870
    13  H   -0.108124
    14  H   -0.085321
    15  H   -0.157934
    16  H   -0.157934
    17  H   -0.085321
    18  H   -0.218756
    19  H   -0.057429
    20  H   -0.057429
    21  H   -0.040248
 Sum of Mulliken charges =  -0.00000

 Dipole moment (field-independent basis, Debye):
    X=              0.0567    Y=             -0.0989    Z=              0.0000  Tot=              0.1140

 Test job not archived.
 1\1\GINC-SE183\SP\RHF\Aug-CC-pVDZ\C7H14\OHZDE\05-Apr-2025\0\\#t hf aug
 -cc-pvdz iop(5/13=1,5/36=2,99/5=2) pseudo=read geom=check guess=(read,
 tcheck) scf=(maxcycle=1)\\title\\0,1\C,0,-0.739782,-1.773761,0.\C,0,-0
 .089048,-1.206811,1.264899\C,0,-0.089048,-1.206811,-1.264899\C,0,-0.08
 9048,0.324852,1.260545\C,0,-0.089048,0.324852,-1.260545\C,0,0.566508,0
 .906527,0.\C,0,0.533702,2.434333,0.\H,0,-0.680166,-2.864513,0.\H,0,-1.
 805477,-1.520961,0.\H,0,-0.602476,-1.579676,2.154131\H,0,0.943314,-1.5
 66555,1.330389\H,0,0.943314,-1.566555,-1.330389\H,0,-0.602476,-1.57967

 Normal termination of Gaussian 16 at Sat Apr  5 23:04:52 2025.
