 Gaussian 16, Revision C.01,

 ----------------------------------------------------------------------
 #t hf aug-cc-pvdz symm=none int=(grid=ultrafine) guess=(read,tcheck) s
 table=(opt,rrhf)
 ----------------------------------------------------------------------
 -----
 title
 -----
 Symbolic Z-matrix:
 Charge =  0 Multiplicity = 1

 SCF Done:  E(RHF) =  -542.303983610     A.U. after   16 cycles
 Normal termination of Gaussian 16 at Sat Apr  5 23:01:38 2025.
 Gaussian 16:  ES64L-G16RevC.01  3-Jul-2019

 ----------------------------------------------------------------------
 #t hf aug-cc-pvdz iop(5/13=1,5/36=2,99/5=2) pseudo=read geom=check gue
 ss=(read,tcheck) scf=(maxcycle=1)
 ----------------------------------------------------------------------
 -----
 title
 -----
 Structure from the checkpoint file:  "methyl_4-amino-1-2-5-oxadiazole-3-carboxylate.chk"
 Charge =  0 Multiplicity = 1

                         Standard orientation:
 ---------------------------------------------------------------------
 Center     Atomic      Atomic             Coordinates (Angstroms)
 Number     Number       Type             X           Y           Z
 ---------------------------------------------------------------------
      1          8           0        2.016475   -1.532303    0.023208
      2          8           0       -1.977891   -0.721593   -0.043326
      3          8           0       -1.306736    1.428753    0.077244
      4          7           0        0.673411   -1.516062    0.017123
      5          7           0        2.549934   -0.243148    0.003763
      6          7           0        1.568662    1.902573   -0.089651
      7          6           0        0.322741   -0.259915   -0.006268
      8          6           0        1.509470    0.550011   -0.017954
      9          6           0       -1.061961    0.241317    0.012304
     10          6           0       -3.352842   -0.290458   -0.016320
     11          1           0        0.715764    2.400412    0.105126
     12          1           0        2.442779    2.350901    0.120191
     13          1           0       -3.562178    0.355303   -0.866446
     14          1           0       -3.561230    0.246902    0.906438
     15          1           0       -3.938417   -1.201652   -0.071525
 ---------------------------------------------------------------------

 SCF Done:  E(RHF) =  -542.467772302     A.U. after    2 cycles

 The electronic state is 1-A.
 Alpha  occ. eigenvalues --  -20.70114 -20.64578 -20.59560 -15.75321 -15.69618
 Alpha  occ. eigenvalues --  -15.66073 -11.43669 -11.35715 -11.32132 -11.31743
 Alpha  occ. eigenvalues --   -1.50357  -1.45394  -1.35831  -1.24876  -1.19105
 Alpha  occ. eigenvalues --   -1.12407  -1.01626  -0.91957  -0.85900  -0.82151
 Alpha  occ. eigenvalues --   -0.77330  -0.73457  -0.72002  -0.71547  -0.69941
 Alpha  occ. eigenvalues --   -0.69567  -0.64644  -0.61464  -0.59309  -0.56443
 Alpha  occ. eigenvalues --   -0.54268  -0.52889  -0.51071  -0.50666  -0.48881
 Alpha  occ. eigenvalues --   -0.44162  -0.37471
 Alpha virt. eigenvalues --    0.02879   0.03508   0.05408   0.05447   0.05822
 Alpha virt. eigenvalues --    0.06661   0.07697   0.09567   0.10335   0.11917
 Alpha virt. eigenvalues --    0.12056   0.12595   0.14062   0.14678   0.14730

 Mulliken charges:
               1
     1  O   -0.602259
     2  O   -0.564083
     3  O   -0.441920
     4  N   -0.405217
     5  N   -0.283868
     6  N   -0.182825
     7  C    1.109929
     8  C    0.616453
     9  C    0.336301
    10  C    0.768168
    11  H    0.055720
    12  H   -0.048303
    13  H   -0.054643
    14  H   -0.054818
    15  H   -0.248635
 Sum of Mulliken charges =   0.00000

 Dipole moment (field-independent basis, Debye):
    X=             -3.0593    Y=              2.3608    Z=              0.4606  Tot=              3.8917

 Test job not archived.
 1\1\GINC-SE187\SP\RHF\Aug-CC-pVDZ\C4H5N3O3\OHZDE\05-Apr-2025\0\\#t hf
 aug-cc-pvdz iop(5/13=1,5/36=2,99/5=2) pseudo=read geom=check guess=(re
 ad,tcheck) scf=(maxcycle=1)\\title\\0,1\O,0,2.016475,-1.532303,0.02320
 8\O,0,-1.977891,-0.721593,-0.043326\O,0,-1.306736,1.428753,0.077244\N,
 0,0.673411,-1.516062,0.017123\N,0,2.549934,-0.243148,0.003763\N,0,1.56
 8662,1.902573,-0.089651\C,0,0.322741,-0.259915,-0.006268\C,0,1.50947,0
 .550011,-0.017954\C,0,-1.061961,0.241317,0.012304\C,0,-3.352842,-0.290
 458,-0.01632\H,0,0.715764,2.400412,0.105126\H,0,2.442779,2.350901,0.12

 Normal termination of Gaussian 16 at Sat Apr  5 23:02:18 2025.
