 Gaussian 16, Revision C.01,

 ----------------------------------------------------------------------
 #t hf aug-cc-pvdz symm=none int=(grid=ultrafine) guess=(read,tcheck) s
 table=(opt,rrhf)
 ----------------------------------------------------------------------
 -----
 title
 -----
 Symbolic Z-matrix:
 Charge =  0 Multiplicity = 1

 SCF Done:  E(RHF) =  -243.704573039     A.U. after   14 cycles
 Normal termination of Gaussian 16 at Sat Apr  5 23:02:36 2025.
 Gaussian 16:  ES64L-G16RevC.01  3-Jul-2019

 ----------------------------------------------------------------------
 #t hf aug-cc-pvdz iop(5/13=1,5/36=2,99/5=2) pseudo=read geom=check gue
 ss=(read,tcheck) scf=(maxcycle=1)
 ----------------------------------------------------------------------
 -----
 title
 -----
 Structure from the checkpoint file:  "methylnitrite.chk"
 Charge =  0 Multiplicity = 1

                         Standard orientation:
 ---------------------------------------------------------------------
 Center     Atomic      Atomic             Coordinates (Angstroms)
 Number     Number       Type             X           Y           Z
 ---------------------------------------------------------------------
      1          6           0        1.328264    0.334723    0.000000
      2          8           0        0.000000    0.884876    0.000000
      3          1           0        1.983497    1.199685    0.000000
      4          1           0        1.493655   -0.273528    0.888518
      5          1           0        1.493655   -0.273528   -0.888518
      6          7           0       -1.045924   -0.048758    0.000000
      7          8           0       -0.702365   -1.174834    0.000000
 ---------------------------------------------------------------------

 SCF Done:  E(RHF) =  -243.782292983     A.U. after    2 cycles

 The electronic state is 1-A'.
 Alpha  occ. eigenvalues --  -20.66940 -20.64804 -15.85419 -11.30792  -1.55034
 Alpha  occ. eigenvalues --   -1.36331  -1.01600  -0.87442  -0.77583  -0.73480
 Alpha  occ. eigenvalues --   -0.71459  -0.61355  -0.61036  -0.55928  -0.50204
 Alpha  occ. eigenvalues --   -0.46917
 Alpha virt. eigenvalues --    0.03396   0.05476   0.05636   0.08723   0.08871
 Alpha virt. eigenvalues --    0.12973   0.14149   0.14942   0.16114   0.17379
 Alpha virt. eigenvalues --    0.17759   0.20844   0.24015   0.25364   0.26543

 Mulliken charges:
               1
     1  C    0.824428
     2  O   -0.567261
     3  H   -0.219861
     4  H   -0.065113
     5  H   -0.065113
     6  N    0.413464
     7  O   -0.320544
 Sum of Mulliken charges =  -0.00000

 Dipole moment (field-independent basis, Debye):
    X=              2.0089    Y=              0.1632    Z=              0.0000  Tot=              2.0155

 Test job not archived.
 1\1\GINC-SE213\SP\RHF\Aug-CC-pVDZ\C1H3N1O2\OHZDE\05-Apr-2025\0\\#t hf
 aug-cc-pvdz iop(5/13=1,5/36=2,99/5=2) pseudo=read geom=check guess=(re
 ad,tcheck) scf=(maxcycle=1)\\title\\0,1\C,0,1.328264,0.334723,0.\O,0,0
 .,0.884876,0.\H,0,1.983497,1.199685,0.\H,0,1.493655,-0.273528,0.888518
 \H,0,1.493655,-0.273528,-0.888518\N,0,-1.045924,-0.048758,0.\O,0,-0.70
 2365,-1.174834,0.\\Version=ES64L-G16RevC.01\State=1-A'\HF=-243.782293\
 RMSD=2.764e-03\Dipole=0.7903654,0.0641985,0.\Quadrupole=1.4232174,-2.2
 195495,0.7963321,0.2345479,0.,0.\PG=CS [SG(C1H1N1O2),X(H2)]\\@

 Normal termination of Gaussian 16 at Sat Apr  5 23:03:04 2025.
