 Gaussian 16, Revision C.01,

 ----------------------------------------------------------------------
 #t hf aug-cc-pvdz symm=none int=(grid=ultrafine) guess=(read,tcheck) s
 table=(opt,rrhf)
 ----------------------------------------------------------------------
 -----
 title
 -----
 Symbolic Z-matrix:
 Charge =  0 Multiplicity = 1

 SCF Done:  E(RHF) =  -202.897736579     A.U. after   14 cycles
 Normal termination of Gaussian 16 at Sat Apr  5 23:01:06 2025.
 Gaussian 16:  ES64L-G16RevC.01  3-Jul-2019

 ----------------------------------------------------------------------
 #t hf aug-cc-pvdz iop(5/13=1,5/36=2,99/5=2) pseudo=read geom=check gue
 ss=(read,tcheck) scf=(maxcycle=1)
 ----------------------------------------------------------------------
 -----
 title
 -----
 Structure from the checkpoint file:  "methyl_azide.chk"
 Charge =  0 Multiplicity = 1

                         Standard orientation:
 ---------------------------------------------------------------------
 Center     Atomic      Atomic             Coordinates (Angstroms)
 Number     Number       Type             X           Y           Z
 ---------------------------------------------------------------------
      1          7           0        0.000000    0.723823    0.000000
      2          7           0       -0.513023    1.731413    0.000000
      3          7           0        0.675733   -0.298488    0.000000
      4          6           0       -0.069885   -1.567760    0.000000
      5          1           0        0.668896   -2.362474    0.000000
      6          1           0       -0.694278   -1.664099    0.890793
      7          1           0       -0.694278   -1.664099   -0.890793
 ---------------------------------------------------------------------

 SCF Done:  E(RHF) =  -202.960374600     A.U. after    2 cycles

 The electronic state is 1-A'.
 Alpha  occ. eigenvalues --  -15.85104 -15.73255 -15.67336 -11.29101  -1.45382
 Alpha  occ. eigenvalues --   -1.26395  -0.99259  -0.72628  -0.70506  -0.70107
 Alpha  occ. eigenvalues --   -0.65404  -0.59461  -0.57608  -0.43393  -0.37146
 Alpha virt. eigenvalues --    0.03197   0.05162   0.05332   0.08010   0.10423
 Alpha virt. eigenvalues --    0.11758   0.13101   0.14524   0.15320   0.16330
 Alpha virt. eigenvalues --    0.16891   0.18408   0.19581   0.22591   0.23431

 Mulliken charges:
               1
     1  N    0.511991
     2  N   -0.310093
     3  N   -0.700999
     4  C    0.788600
     5  H   -0.181280
     6  H   -0.054110
     7  H   -0.054110
 Sum of Mulliken charges =  -0.00000

 Dipole moment (field-independent basis, Debye):
    X=             -0.9429    Y=             -1.8828    Z=              0.0000  Tot=              2.1057

 Test job not archived.
 1\1\GINC-SE199\SP\RHF\Aug-CC-pVDZ\C1H3N3\OHZDE\05-Apr-2025\0\\#t hf au
 g-cc-pvdz iop(5/13=1,5/36=2,99/5=2) pseudo=read geom=check guess=(read
 ,tcheck) scf=(maxcycle=1)\\title\\0,1\N,0,0.,0.723823,0.\N,0,-0.513023
 ,1.731413,0.\N,0,0.675733,-0.298488,0.\C,0,-0.069885,-1.56776,0.\H,0,0
 .668896,-2.362474,0.\H,0,-0.694278,-1.664099,0.890793\H,0,-0.694278,-1
 .664099,-0.890793\\Version=ES64L-G16RevC.01\State=1-A'\HF=-202.9603746
 \RMSD=4.586e-03\Dipole=-0.3709777,-0.740731,0.\Quadrupole=-0.9210763,0
 .4383096,0.4827667,1.2527969,0.,0.\PG=CS [SG(C1H1N3),X(H2)]\\@

 Normal termination of Gaussian 16 at Sat Apr  5 23:02:14 2025.
