 Gaussian 16, Revision C.01,

 ----------------------------------------------------------------------
 #t hf aug-cc-pvdz symm=none int=(grid=ultrafine) guess=(read,tcheck) s
 table=(opt,rrhf)
 ----------------------------------------------------------------------
 -----
 title
 -----
 Symbolic Z-matrix:
 Charge =  0 Multiplicity = 1

 SCF Done:  E(RHF) =  -190.785570768     A.U. after   14 cycles
 Normal termination of Gaussian 16 at Sat Apr  5 23:03:07 2025.
 Gaussian 16:  ES64L-G16RevC.01  3-Jul-2019

 ----------------------------------------------------------------------
 #t hf aug-cc-pvdz iop(5/13=1,5/36=2,99/5=2) pseudo=read geom=check gue
 ss=(read,tcheck) scf=(maxcycle=1)
 ----------------------------------------------------------------------
 -----
 title
 -----
 Structure from the checkpoint file:  "methylketene.chk"
 Charge =  0 Multiplicity = 1

                         Standard orientation:
 ---------------------------------------------------------------------
 Center     Atomic      Atomic             Coordinates (Angstroms)
 Number     Number       Type             X           Y           Z
 ---------------------------------------------------------------------
      1          6           0       -0.671285   -0.386770    0.000000
      2          6           0       -0.000000    0.736156    0.000000
      3          6           0        1.508464    0.811358    0.000000
      4          8           0       -1.266323   -1.387836    0.000000
      5          1           0       -0.595082    1.639797    0.000000
      6          1           0        1.954606   -0.181706    0.000000
      7          1           0        1.873994    1.340067    0.882008
      8          1           0        1.873994    1.340067   -0.882008
 ---------------------------------------------------------------------

 SCF Done:  E(RHF) =  -190.848655036     A.U. after    2 cycles

 The electronic state is 1-A'.
 Alpha  occ. eigenvalues --  -20.63466 -11.38471 -11.25583 -11.25127  -1.42894
 Alpha  occ. eigenvalues --   -1.07811  -0.93361  -0.75506  -0.68989  -0.65460
 Alpha  occ. eigenvalues --   -0.63029  -0.58241  -0.56353  -0.53818  -0.35323
 Alpha virt. eigenvalues --    0.03156   0.04644   0.05558   0.05723   0.08689
 Alpha virt. eigenvalues --    0.10632   0.11796   0.12004   0.13198   0.13532
 Alpha virt. eigenvalues --    0.15546   0.15679   0.17093   0.17563   0.17787

 Mulliken charges:
               1
     1  C   -0.442407
     2  C    0.875610
     3  C    0.218220
     4  O   -0.248124
     5  H   -0.283105
     6  H   -0.126374
     7  H    0.003090
     8  H    0.003090
 Sum of Mulliken charges =   0.00000

 Dipole moment (field-independent basis, Debye):
    X=              1.4873    Y=              2.0180    Z=              0.0000  Tot=              2.5068

 Test job not archived.
 1\1\GINC-SE213\SP\RHF\Aug-CC-pVDZ\C3H4O1\OHZDE\05-Apr-2025\0\\#t hf au
 g-cc-pvdz iop(5/13=1,5/36=2,99/5=2) pseudo=read geom=check guess=(read
 ,tcheck) scf=(maxcycle=1)\\title\\0,1\C,0,-0.671285,-0.38677,0.\C,0,0.
 ,0.736156,0.\C,0,1.508464,0.811358,0.\O,0,-1.266323,-1.387836,0.\H,0,-
 0.595082,1.639797,0.\H,0,1.954606,-0.181706,0.\H,0,1.873994,1.340067,0
 .882008\H,0,1.873994,1.340067,-0.882008\\Version=ES64L-G16RevC.01\Stat
 e=1-A'\HF=-190.848655\RMSD=4.496e-03\Dipole=0.58513,0.7939398,0.\Quadr
 upole=0.5440077,-0.3584775,-0.1855302,-2.1199135,0.,0.\PG=CS [SG(C3H2O

 Normal termination of Gaussian 16 at Sat Apr  5 23:03:17 2025.
