 Gaussian 16, Revision C.01,

 ----------------------------------------------------------------------
 #t hf aug-cc-pvdz symm=none int=(grid=ultrafine) guess=(read,tcheck) s
 table=(opt,rrhf)
 ----------------------------------------------------------------------
 -----
 title
 -----
 Symbolic Z-matrix:
 Charge =  0 Multiplicity = 1

 SCF Done:  E(RHF) =  -343.750816589     A.U. after   14 cycles
 Normal termination of Gaussian 16 at Sat Apr  5 23:01:07 2025.
 Gaussian 16:  ES64L-G16RevC.01  3-Jul-2019

 ----------------------------------------------------------------------
 #t hf aug-cc-pvdz iop(5/13=1,5/36=2,99/5=2) pseudo=read geom=check gue
 ss=(read,tcheck) scf=(maxcycle=1)
 ----------------------------------------------------------------------
 -----
 title
 -----
 Structure from the checkpoint file:  "methyl_cyclopropanecarboxylate.chk"
 Charge =  0 Multiplicity = 1

                         Standard orientation:
 ---------------------------------------------------------------------
 Center     Atomic      Atomic             Coordinates (Angstroms)
 Number     Number       Type             X           Y           Z
 ---------------------------------------------------------------------
      1          6           0        0.042677    0.344157    0.000000
      2          6           0       -0.973754   -1.889957    0.743851
      3          6           0       -0.973754   -1.889957   -0.743851
      4          6           0        0.111176   -1.135227    0.000000
      5          6           0        1.324994    2.327509    0.000000
      6          8           0       -0.973754    0.998522    0.000000
      7          8           0        1.277432    0.891383    0.000000
      8          1           0       -1.716618   -1.286124    1.243595
      9          1           0       -0.669468   -2.784850    1.266689
     10          1           0       -0.669468   -2.784850   -1.266689
     11          1           0       -1.716618   -1.286124   -1.243595
     12          1           0        1.106406   -1.551725    0.000000
     13          1           0        2.379774    2.584262    0.000000
     14          1           0        0.834268    2.725508    0.886305
     15          1           0        0.834268    2.725508   -0.886305
 ---------------------------------------------------------------------

 SCF Done:  E(RHF) =  -343.861771862     A.U. after    2 cycles

 The electronic state is 1-A'.
 Alpha  occ. eigenvalues --  -20.61494 -20.55305 -11.39058 -11.29473 -11.25649
 Alpha  occ. eigenvalues --  -11.25103 -11.25044  -1.41568  -1.31964  -1.15073
 Alpha  occ. eigenvalues --   -0.99208  -0.87735  -0.83472  -0.77152  -0.72930
 Alpha  occ. eigenvalues --   -0.68856  -0.67965  -0.65849  -0.61469  -0.56742
 Alpha  occ. eigenvalues --   -0.56444  -0.53706  -0.52813  -0.47738  -0.46909
 Alpha  occ. eigenvalues --   -0.44552  -0.43129
 Alpha virt. eigenvalues --    0.03382   0.04104   0.04895   0.05048   0.06431
 Alpha virt. eigenvalues --    0.06539   0.06553   0.08020   0.10014   0.11819
 Alpha virt. eigenvalues --    0.11873   0.12779   0.14130   0.14607   0.14975

 Mulliken charges:
               1
     1  C   -0.061708
     2  C    0.703395
     3  C    0.703395
     4  C    1.071934
     5  C    0.769189
     6  O   -0.464645
     7  O   -0.537719
     8  H   -0.322813
     9  H   -0.328396
    10  H   -0.328396
    11  H   -0.322813
    12  H   -0.482830
    13  H   -0.249313
    14  H   -0.074640
    15  H   -0.074640
 Sum of Mulliken charges =  -0.00000

 Dipole moment (field-independent basis, Debye):
    X=              1.5940    Y=             -1.0426    Z=             -0.0000  Tot=              1.9047

 Test job not archived.
 1\1\GINC-SE220\SP\RHF\Aug-CC-pVDZ\C5H8O2\OHZDE\05-Apr-2025\0\\#t hf au
 g-cc-pvdz iop(5/13=1,5/36=2,99/5=2) pseudo=read geom=check guess=(read
 ,tcheck) scf=(maxcycle=1)\\title\\0,1\C,0,0.042677,0.344157,0.\C,0,-0.
 973754,-1.889957,0.743851\C,0,-0.973754,-1.889957,-0.743851\C,0,0.1111
 76,-1.135227,0.\C,0,1.324994,2.327509,0.\O,0,-0.973754,0.998522,0.\O,0
 ,1.277432,0.891383,0.\H,0,-1.716618,-1.286124,1.243595\H,0,-0.669468,-
 2.78485,1.266689\H,0,-0.669468,-2.78485,-1.266689\H,0,-1.716618,-1.286
 124,-1.243595\H,0,1.106406,-1.551725,0.\H,0,2.379774,2.584262,0.\H,0,0

 Normal termination of Gaussian 16 at Sat Apr  5 23:02:16 2025.
