 Gaussian 16, Revision C.01,

 ----------------------------------------------------------------------
 #t hf aug-cc-pvdz symm=none int=(grid=ultrafine) guess=(read,tcheck) s
 table=(opt,rrhf)
 ----------------------------------------------------------------------
 -----
 title
 -----
 Symbolic Z-matrix:
 Charge =  0 Multiplicity = 1

 SCF Done:  E(RHF) =  -189.944957295     A.U. after   11 cycles
 Normal termination of Gaussian 16 at Sat Apr  5 23:00:05 2025.
 Gaussian 16:  ES64L-G16RevC.01  3-Jul-2019

 ----------------------------------------------------------------------
 #t hf aug-cc-pvdz iop(5/13=1,5/36=2,99/5=2) pseudo=read geom=check gue
 ss=(read,tcheck) scf=(maxcycle=1)
 ----------------------------------------------------------------------
 -----
 title
 -----
 Structure from the checkpoint file:  "methanediol.chk"
 Charge =  0 Multiplicity = 1

                         Standard orientation:
 ---------------------------------------------------------------------
 Center     Atomic      Atomic             Coordinates (Angstroms)
 Number     Number       Type             X           Y           Z
 ---------------------------------------------------------------------
      1          6           0        0.000000   -0.000000    0.529544
      2          8           0       -0.000000    1.174198   -0.247524
      3          8           0       -0.000000   -1.174198   -0.247524
      4          1           0       -0.891011   -0.071326    1.155757
      5          1           0        0.891011    0.071326    1.155757
      6          1           0       -0.812903    1.199741   -0.764202
      7          1           0        0.812903   -1.199741   -0.764202
 ---------------------------------------------------------------------

 SCF Done:  E(RHF) =  -190.008341926     A.U. after    2 cycles

 The electronic state is 1-A.
 Alpha  occ. eigenvalues --  -20.58487 -20.58485 -11.34789  -1.37156  -1.30074
 Alpha  occ. eigenvalues --   -0.92182  -0.76648  -0.67267  -0.65796  -0.63295
 Alpha  occ. eigenvalues --   -0.51902  -0.51645  -0.48482
 Alpha virt. eigenvalues --    0.03525   0.04903   0.05260   0.06681   0.10981
 Alpha virt. eigenvalues --    0.12290   0.15009   0.16910   0.20119   0.21200
 Alpha virt. eigenvalues --    0.21418   0.22191   0.23936   0.28099   0.31636

 Mulliken charges:
               1
     1  C    1.101650
     2  O   -0.496900
     3  O   -0.496900
     4  H   -0.184288
     5  H   -0.184288
     6  H    0.130363
     7  H    0.130363
 Sum of Mulliken charges =  -0.00000

 Dipole moment (field-independent basis, Debye):
    X=              0.0000    Y=              0.0000    Z=              0.0131  Tot=              0.0131

 Test job not archived.
 1\1\GINC-SE050\SP\RHF\Aug-CC-pVDZ\C1H4O2\OHZDE\05-Apr-2025\0\\#t hf au
 g-cc-pvdz iop(5/13=1,5/36=2,99/5=2) pseudo=read geom=check guess=(read
 ,tcheck) scf=(maxcycle=1)\\title\\0,1\C,0,0.,0.,0.529544\O,0,0.,1.1741
 98,-0.247524\O,0,0.,-1.174198,-0.247524\H,0,-0.891011,-0.071326,1.1557
 57\H,0,0.891011,0.071326,1.155757\H,0,-0.812903,1.199741,-0.764202\H,0
 ,0.812903,-1.199741,-0.764202\\Version=ES64L-G16RevC.01\State=1-A\HF=-
 190.0083419\RMSD=2.381e-03\Dipole=0.,0.,0.0051355\Quadrupole=2.0620553
 ,-3.4358088,1.3737534,-2.8038242,0.,0.\PG=C02 [C2(C1),X(H4O2)]\\@

 Normal termination of Gaussian 16 at Sat Apr  5 23:00:08 2025.
