 Gaussian 16, Revision C.01,

 ----------------------------------------------------------------------
 #t hf aug-cc-pvdz symm=none int=(grid=ultrafine) guess=(read,tcheck) s
 table=(opt,rrhf)
 ----------------------------------------------------------------------
 -----
 title
 -----
 Symbolic Z-matrix:
 Charge =  0 Multiplicity = 1

 SCF Done:  E(RHF) =  -457.404667689     A.U. after   16 cycles
 Normal termination of Gaussian 16 at Sat Apr  5 23:02:34 2025.
 Gaussian 16:  ES64L-G16RevC.01  3-Jul-2019

 ----------------------------------------------------------------------
 #t hf aug-cc-pvdz iop(5/13=1,5/36=2,99/5=2) pseudo=read geom=check gue
 ss=(read,tcheck) scf=(maxcycle=1)
 ----------------------------------------------------------------------
 -----
 title
 -----
 Structure from the checkpoint file:  "methyl_benzoate.chk"
 Charge =  0 Multiplicity = 1

                         Standard orientation:
 ---------------------------------------------------------------------
 Center     Atomic      Atomic             Coordinates (Angstroms)
 Number     Number       Type             X           Y           Z
 ---------------------------------------------------------------------
      1          6           0       -1.629703    2.519691    0.000000
      2          6           0       -0.245437    2.661629    0.000000
      3          6           0       -2.199329    1.250750    0.000000
      4          6           0        0.567055    1.537570    0.000000
      5          6           0       -1.389364    0.123082    0.000000
      6          6           0        0.000000    0.261893    0.000000
      7          6           0        0.918942   -0.909822    0.000000
      8          6           0        1.082579   -3.263273    0.000000
      9          8           0        2.125324   -0.833326    0.000000
     10          8           0        0.258943   -2.087035    0.000000
     11          1           0       -2.263404    3.396510    0.000000
     12          1           0        0.198432    3.647794    0.000000
     13          1           0       -3.275165    1.139998    0.000000
     14          1           0        1.643793    1.627324    0.000000
     15          1           0       -1.827393   -0.863439    0.000000
     16          1           0        1.713986   -3.286294    0.886283
     17          1           0        1.713986   -3.286294   -0.886283
     18          1           0        0.393171   -4.101840    0.000000
 ---------------------------------------------------------------------

 SCF Done:  E(RHF) =  -457.545877035     A.U. after    2 cycles

 The electronic state is 1-A'.
 Alpha  occ. eigenvalues --  -20.61763 -20.55819 -11.39625 -11.29758 -11.26143
 Alpha  occ. eigenvalues --  -11.26114 -11.26012 -11.25747 -11.25296 -11.25214
 Alpha  occ. eigenvalues --   -1.42051  -1.32357  -1.16021  -1.04750  -1.02411
 Alpha  occ. eigenvalues --   -0.97496  -0.86713  -0.84078  -0.78673  -0.74872
 Alpha  occ. eigenvalues --   -0.69628  -0.68458  -0.68206  -0.63972  -0.63688
 Alpha  occ. eigenvalues --   -0.60679  -0.59299  -0.56826  -0.54214  -0.53029
 Alpha  occ. eigenvalues --   -0.51266  -0.50775  -0.48079  -0.46997  -0.35596
 Alpha  occ. eigenvalues --   -0.35117
 Alpha virt. eigenvalues --    0.03138   0.03737   0.04231   0.05303   0.05819
 Alpha virt. eigenvalues --    0.06398   0.06986   0.07069   0.07512   0.10179
 Alpha virt. eigenvalues --    0.10539   0.10987   0.11389   0.13205   0.13649

 Mulliken charges:
               1
     1  C    0.528510
     2  C    0.599128
     3  C    0.378147
     4  C   -0.000775
     5  C    0.446631
     6  C    1.423201
     7  C   -0.217137
     8  C    0.756451
     9  O   -0.439750
    10  O   -0.560542
    11  H   -0.437200
    12  H   -0.427602
    13  H   -0.450496
    14  H   -0.604879
    15  H   -0.605988
    16  H   -0.053103
    17  H   -0.053103
    18  H   -0.281493
 Sum of Mulliken charges =  -0.00000

 Dipole moment (field-independent basis, Debye):
    X=             -2.2665    Y=             -0.1231    Z=              0.0000  Tot=              2.2699

 Test job not archived.
 1\1\GINC-SE221\SP\RHF\Aug-CC-pVDZ\C8H8O2\OHZDE\05-Apr-2025\0\\#t hf au
 g-cc-pvdz iop(5/13=1,5/36=2,99/5=2) pseudo=read geom=check guess=(read
 ,tcheck) scf=(maxcycle=1)\\title\\0,1\C,0,-1.629703,2.519691,0.\C,0,-0
 .245437,2.661629,0.\C,0,-2.199329,1.25075,0.\C,0,0.567055,1.53757,0.\C
 ,0,-1.389364,0.123082,0.\C,0,0.,0.261893,0.\C,0,0.918942,-0.909822,0.\
 C,0,1.082579,-3.263273,0.\O,0,2.125324,-0.833326,0.\O,0,0.258943,-2.08
 7035,0.\H,0,-2.263404,3.39651,0.\H,0,0.198432,3.647794,0.\H,0,-3.27516
 5,1.139998,0.\H,0,1.643793,1.627324,0.\H,0,-1.827393,-0.863439,0.\H,0,

 Normal termination of Gaussian 16 at Sat Apr  5 23:03:11 2025.
