 Gaussian 16, Revision C.01,

 ----------------------------------------------------------------------
 #t hf aug-cc-pvdz symm=none int=(grid=ultrafine) guess=(read,tcheck) s
 table=(opt,rrhf)
 ----------------------------------------------------------------------
 -----
 title
 -----
 Symbolic Z-matrix:
 Charge =  0 Multiplicity = 1

 SCF Done:  E(RHF) =  -189.830832630     A.U. after   13 cycles
 Normal termination of Gaussian 16 at Sat Apr  5 23:01:09 2025.
 Gaussian 16:  ES64L-G16RevC.01  3-Jul-2019

 ----------------------------------------------------------------------
 #t hf aug-cc-pvdz iop(5/13=1,5/36=2,99/5=2) pseudo=read geom=check gue
 ss=(read,tcheck) scf=(maxcycle=1)
 ----------------------------------------------------------------------
 -----
 title
 -----
 Structure from the checkpoint file:  "methyl_hydroperoxide.chk"
 Charge =  0 Multiplicity = 1

                         Standard orientation:
 ---------------------------------------------------------------------
 Center     Atomic      Atomic             Coordinates (Angstroms)
 Number     Number       Type             X           Y           Z
 ---------------------------------------------------------------------
      1          6           0        1.130346   -0.225128    0.025065
      2          8           0       -0.015267    0.606026   -0.027255
      3          8           0       -1.167167   -0.278825   -0.095051
      4          1           0        1.971335    0.468788    0.022108
      5          1           0        1.147766   -0.826787    0.937012
      6          1           0        1.184789   -0.873635   -0.851239
      7          1           0       -1.626495   -0.035207    0.720173
 ---------------------------------------------------------------------

 SCF Done:  E(RHF) =  -189.894555422     A.U. after    2 cycles

 The electronic state is 1-A.
 Alpha  occ. eigenvalues --  -20.64018 -20.63758 -11.29269  -1.42407  -1.20670
 Alpha  occ. eigenvalues --   -0.91979  -0.73931  -0.67647  -0.66408  -0.60373
 Alpha  occ. eigenvalues --   -0.54061  -0.51622  -0.46989
 Alpha virt. eigenvalues --    0.03482   0.05008   0.06072   0.06166   0.10384
 Alpha virt. eigenvalues --    0.14631   0.15066   0.16494   0.17349   0.18914
 Alpha virt. eigenvalues --    0.21530   0.23524   0.25554   0.26162   0.28614

 Mulliken charges:
               1
     1  C    0.825891
     2  O   -0.437081
     3  O   -0.258507
     4  H   -0.154013
     5  H   -0.091608
     6  H   -0.088054
     7  H    0.203372
 Sum of Mulliken charges =  -0.00000

 Dipole moment (field-independent basis, Debye):
    X=              0.8452    Y=             -0.6300    Z=              1.5353  Tot=              1.8623

 Test job not archived.
 1\1\GINC-SE040\SP\RHF\Aug-CC-pVDZ\C1H4O2\OHZDE\05-Apr-2025\0\\#t hf au
 g-cc-pvdz iop(5/13=1,5/36=2,99/5=2) pseudo=read geom=check guess=(read
 ,tcheck) scf=(maxcycle=1)\\title\\0,1\C,0,1.130346,-0.225128,0.025065\
 O,0,-0.015267,0.606026,-0.027255\O,0,-1.167167,-0.278825,-0.095051\H,0
 ,1.971335,0.468788,0.022108\H,0,1.147766,-0.826787,0.937012\H,0,1.1847
 89,-0.873635,-0.851239\H,0,-1.626495,-0.035207,0.720173\\Version=ES64L
 -G16RevC.01\State=1-A\HF=-189.8945554\RMSD=2.398e-03\Dipole=0.3325459,
 -0.2478549,0.6040173\Quadrupole=1.9577812,-1.8069763,-0.1508049,-0.419

 Normal termination of Gaussian 16 at Sat Apr  5 23:02:13 2025.
