 Gaussian 16, Revision C.01,

 ----------------------------------------------------------------------
 #t hf aug-cc-pvdz symm=none int=(grid=ultrafine) guess=(read,tcheck) s
 table=(opt,rrhf)
 ----------------------------------------------------------------------
 -----
 title
 -----
 Symbolic Z-matrix:
 Charge =  0 Multiplicity = 1

 SCF Done:  E(RHF) =  -245.825974138     A.U. after   13 cycles
 Normal termination of Gaussian 16 at Sat Apr  5 23:00:29 2025.
 Gaussian 16:  ES64L-G16RevC.01  3-Jul-2019

 ----------------------------------------------------------------------
 #t hf aug-cc-pvdz iop(5/13=1,5/36=2,99/5=2) pseudo=read geom=check gue
 ss=(read,tcheck) scf=(maxcycle=1)
 ----------------------------------------------------------------------
 -----
 title
 -----
 Structure from the checkpoint file:  "methoxyacetonitrile.chk"
 Charge =  0 Multiplicity = 1

                         Standard orientation:
 ---------------------------------------------------------------------
 Center     Atomic      Atomic             Coordinates (Angstroms)
 Number     Number       Type             X           Y           Z
 ---------------------------------------------------------------------
      1          1           0        2.599638   -1.376903    0.000000
      2          1           0        2.446132    0.154879    0.891870
      3          1           0        2.446132    0.154879   -0.891870
      4          6           0        2.130026   -0.397041    0.000000
      5          8           0        0.728282   -0.616731    0.000000
      6          1           0        0.230030    1.194926   -0.885833
      7          1           0        0.230030    1.194926    0.885833
      8          6           0        0.000000    0.588434    0.000000
      9          7           0       -2.565567    0.100470    0.000000
     10          6           0       -1.433235    0.293249    0.000000
 ---------------------------------------------------------------------

 SCF Done:  E(RHF) =  -245.904534031     A.U. after    2 cycles

 The electronic state is 1-A'.
 Alpha  occ. eigenvalues --  -20.60911 -15.64638 -11.35463 -11.30938 -11.29192
 Alpha  occ. eigenvalues --   -1.37450  -1.19998  -1.03645  -0.92626  -0.74561
 Alpha  occ. eigenvalues --   -0.71714  -0.70027  -0.61095  -0.60689  -0.55009
 Alpha  occ. eigenvalues --   -0.53435  -0.48953  -0.47628  -0.45841
 Alpha virt. eigenvalues --    0.02549   0.04353   0.04460   0.05707   0.07172
 Alpha virt. eigenvalues --    0.08934   0.09344   0.12053   0.12153   0.13493
 Alpha virt. eigenvalues --    0.14285   0.15257   0.15804   0.16293   0.17917

 Mulliken charges:
               1
     1  H   -0.242244
     2  H   -0.048109
     3  H   -0.048109
     4  C    0.687386
     5  O   -0.645632
     6  H   -0.022768
     7  H   -0.022768
     8  C    0.878918
     9  N   -0.148705
    10  C   -0.387968
 Sum of Mulliken charges =  -0.00000

 Dipole moment (field-independent basis, Debye):
    X=              4.8035    Y=              1.9504    Z=              0.0000  Tot=              5.1844

 Test job not archived.
 1\1\GINC-SE146\SP\RHF\Aug-CC-pVDZ\C3H5N1O1\OHZDE\05-Apr-2025\0\\#t hf
 aug-cc-pvdz iop(5/13=1,5/36=2,99/5=2) pseudo=read geom=check guess=(re
 ad,tcheck) scf=(maxcycle=1)\\title\\0,1\H,0,2.599637,-1.376904,0.\H,0,
 2.446132,0.154878,0.89187\H,0,2.446132,0.154878,-0.89187\C,0,2.130026,
 -0.397042,0.\O,0,0.728282,-0.616731,0.\H,0,0.23003,1.194926,-0.885833\
 H,0,0.23003,1.194926,0.885833\C,0,0.,0.588434,0.\N,0,-2.565567,0.10047
 1,0.\C,0,-1.433235,0.293249,0.\\Version=ES64L-G16RevC.01\State=1-A'\HF
 =-245.904534\RMSD=3.138e-03\Dipole=1.8898408,0.7673467,0.\Quadrupole=-

 Normal termination of Gaussian 16 at Sat Apr  5 23:00:33 2025.
