 Gaussian 16, Revision C.01,

 ----------------------------------------------------------------------
 #t hf aug-cc-pvdz symm=none int=(grid=ultrafine) guess=(read,tcheck) s
 table=(opt,rrhf)
 ----------------------------------------------------------------------
 -----
 title
 -----
 Symbolic Z-matrix:
 Charge =  0 Multiplicity = 1

 SCF Done:  E(RHF) =  -437.730316646     A.U. after   11 cycles
 Normal termination of Gaussian 16 at Sat Apr  5 23:00:04 2025.
 Gaussian 16:  ES64L-G16RevC.01  3-Jul-2019

 ----------------------------------------------------------------------
 #t hf aug-cc-pvdz iop(5/13=1,5/36=2,99/5=2) pseudo=read geom=check gue
 ss=(read,tcheck) scf=(maxcycle=1)
 ----------------------------------------------------------------------
 -----
 title
 -----
 Structure from the checkpoint file:  "methanethiol.chk"
 Charge =  0 Multiplicity = 1

                         Standard orientation:
 ---------------------------------------------------------------------
 Center     Atomic      Atomic             Coordinates (Angstroms)
 Number     Number       Type             X           Y           Z
 ---------------------------------------------------------------------
      1          6           0        0.048051    1.161675    0.000000
      2         16           0        0.048051   -0.668872    0.000000
      3          1           0       -0.431921    1.553804    0.892468
      4          1           0       -0.431921    1.553804   -0.892468
      5          1           0        1.092879    1.462961    0.000000
      6          1           0       -1.286160   -0.838674    0.000000
 ---------------------------------------------------------------------

 SCF Done:  E(RHF) =  -437.765882022     A.U. after    2 cycles

 The electronic state is 1-A'.
 Alpha  occ. eigenvalues --  -93.53487 -11.27037  -8.83222  -6.17372  -6.17149
 Alpha  occ. eigenvalues --   -6.16804  -1.02562  -0.86180  -0.60951  -0.59568
 Alpha  occ. eigenvalues --   -0.52911  -0.45640  -0.35581
 Alpha virt. eigenvalues --    0.03464   0.05054   0.05905   0.06347   0.10324
 Alpha virt. eigenvalues --    0.11891   0.13839   0.14400   0.16128   0.16195
 Alpha virt. eigenvalues --    0.17055   0.21423   0.24611   0.26156   0.26419

 Mulliken charges:
               1
     1  C    0.046524
     2  S    0.152394
     3  H   -0.084992
     4  H   -0.084992
     5  H   -0.089411
     6  H    0.060477
 Sum of Mulliken charges =  -0.00000

 Dipole moment (field-independent basis, Debye):
    X=             -0.7511    Y=              1.5147    Z=              0.0000  Tot=              1.6908

 Test job not archived.
 1\1\GINC-SE213\SP\RHF\Aug-CC-pVDZ\C1H4S1\OHZDE\05-Apr-2025\0\\#t hf au
 g-cc-pvdz iop(5/13=1,5/36=2,99/5=2) pseudo=read geom=check guess=(read
 ,tcheck) scf=(maxcycle=1)\\title\\0,1\C,0,0.048051,1.161675,0.\S,0,0.0
 48051,-0.668872,0.\H,0,-0.431921,1.553804,0.892468\H,0,-0.431921,1.553
 804,-0.892468\H,0,1.092879,1.462961,0.\H,0,-1.28616,-0.838674,0.\\Vers
 ion=ES64L-G16RevC.01\State=1-A'\HF=-437.765882\RMSD=5.631e-03\Dipole=-
 0.2955235,0.5959465,0.\Quadrupole=1.1708012,0.3242803,-1.4950815,0.979
 777,0.,0.\PG=CS [SG(C1H2S1),X(H2)]\\@

 Normal termination of Gaussian 16 at Sat Apr  5 23:00:06 2025.
