 Gaussian 16, Revision C.01,

 ----------------------------------------------------------------------
 #t hf aug-cc-pvdz symm=none int=(grid=ultrafine) guess=(read,tcheck) s
 table=(opt,rrhf)
 ----------------------------------------------------------------------
 -----
 title
 -----
 Symbolic Z-matrix:
 Charge =  0 Multiplicity = 1

 SCF Done:  E(RHF) =  -571.302481085     A.U. after   16 cycles

 1\1\GINC-SE164\Stability\RHF\Aug-CC-pVDZ\C9H10O3\OHZDE\05-Apr-2025\0\\
 #t hf aug-cc-pvdz symm=none int=(grid=ultrafine) guess=(read,tcheck) s
 table=(opt,rrhf)\\title\\0,1\C,0,1.21275,-0.008767,0.\C,0,-1.191217,-0
 .059999,0.\C,0,1.253899,-1.395528,0.\C,0,-1.163891,-1.439772,0.\C,0,0.
 ,0.676566,0.\C,0,0.05938,-2.119086,0.\C,0,0.029615,2.157734,0.\C,0,1.1
 87057,-4.229322,0.\C,0,-1.258011,4.136065,0.\O,0,1.03763,2.827599,0.\O
 ,0,-0.016913,-3.47356,0.\O,0,-1.208484,2.702078,0.\H,0,2.13057,0.56174
 1,0.\H,0,-2.138564,0.457542,0.\H,0,2.208636,-1.897967,0.\H,0,-2.077198

 Normal termination of Gaussian 16 at Sat Apr  5 23:03:47 2025.
 Gaussian 16:  ES64L-G16RevC.01  3-Jul-2019

 ----------------------------------------------------------------------
 #t hf aug-cc-pvdz iop(5/13=1,5/36=2,99/5=2) pseudo=read geom=check gue
 ss=(read,tcheck) scf=(maxcycle=1)
 ----------------------------------------------------------------------
 -----
 title
 -----
 Structure from the checkpoint file:  "methyl-4-methoxybenzoate.chk"
 Charge =  0 Multiplicity = 1

                         Standard orientation:
 ---------------------------------------------------------------------
 Center     Atomic      Atomic             Coordinates (Angstroms)
 Number     Number       Type             X           Y           Z
 ---------------------------------------------------------------------
      1          6           0        1.212750   -0.008767    0.000000
      2          6           0       -1.191217   -0.059999    0.000000
      3          6           0        1.253899   -1.395528    0.000000
      4          6           0       -1.163891   -1.439772    0.000000
      5          6           0        0.000000    0.676566    0.000000
      6          6           0        0.059380   -2.119086    0.000000
      7          6           0        0.029615    2.157734    0.000000
      8          6           0        1.187056   -4.229322    0.000000
      9          6           0       -1.258011    4.136065    0.000000
     10          8           0        1.037630    2.827599    0.000000
     11          8           0       -0.016913   -3.473560    0.000000
     12          8           0       -1.208484    2.702078    0.000000
     13          1           0        2.130570    0.561741    0.000000
     14          1           0       -2.138564    0.457542    0.000000
     15          1           0        2.208636   -1.897967    0.000000
     16          1           0       -2.077198   -2.017737    0.000000
     17          1           0        1.783546   -4.025408    0.892035
     18          1           0        1.783546   -4.025408   -0.892035
     19          1           0        0.883034   -5.272089    0.000000
     20          1           0       -2.313254    4.391701    0.000000
     21          1           0       -0.767834    4.535668   -0.886018
     22          1           0       -0.767834    4.535668    0.886018
 ---------------------------------------------------------------------

 SCF Done:  E(RHF) =  -571.481221611     A.U. after    2 cycles

 The electronic state is 1-A'.
 Alpha  occ. eigenvalues --  -20.61256 -20.61215 -20.55150 -11.39092 -11.32892
 Alpha  occ. eigenvalues --  -11.30535 -11.29375 -11.26235 -11.26222 -11.24967
 Alpha  occ. eigenvalues --  -11.24790 -11.24375  -1.41439  -1.38360  -1.31722
 Alpha  occ. eigenvalues --   -1.15658  -1.04741  -1.02906  -0.98110  -0.95113
 Alpha  occ. eigenvalues --   -0.85255  -0.84484  -0.78333  -0.75005  -0.72346
 Alpha  occ. eigenvalues --   -0.69794  -0.68008  -0.67686  -0.67040  -0.64159
 Alpha  occ. eigenvalues --   -0.61585  -0.60652  -0.59311  -0.56492  -0.56323
 Alpha  occ. eigenvalues --   -0.54128  -0.53983  -0.53405  -0.49733  -0.48538
 Alpha  occ. eigenvalues --   -0.47536  -0.46602  -0.35594  -0.33187
 Alpha virt. eigenvalues --    0.03066   0.03766   0.04274   0.04943   0.05547
 Alpha virt. eigenvalues --    0.05855   0.06590   0.06871   0.07164   0.08286
 Alpha virt. eigenvalues --    0.08857   0.09534   0.10329   0.11332   0.11697

 Mulliken charges:
               1
     1  C   -0.336842
     2  C    0.623749
     3  C    0.830261
     4  C    0.907585
     5  C    1.422794
     6  C    0.245840
     7  C   -0.214268
     8  C    0.874629
     9  C    0.779744
    10  O   -0.449419
    11  O   -0.665576
    12  O   -0.551452
    13  H   -0.649793
    14  H   -0.623068
    15  H   -0.689332
    16  H   -0.604582
    17  H   -0.088393
    18  H   -0.088393
    19  H   -0.315145
    20  H   -0.289023
    21  H   -0.059658
    22  H   -0.059658
 Sum of Mulliken charges =  -0.00000

 Dipole moment (field-independent basis, Debye):
    X=             -0.4030    Y=             -2.0093    Z=              0.0000  Tot=              2.0494

 Test job not archived.
 1\1\GINC-SE164\SP\RHF\Aug-CC-pVDZ\C9H10O3\OHZDE\05-Apr-2025\0\\#t hf a
 ug-cc-pvdz iop(5/13=1,5/36=2,99/5=2) pseudo=read geom=check guess=(rea
 d,tcheck) scf=(maxcycle=1)\\title\\0,1\C,0,1.21275,-0.008767,0.\C,0,-1
 .191217,-0.059999,0.\C,0,1.253899,-1.395528,0.\C,0,-1.163891,-1.439772
 ,0.\C,0,0.,0.676566,0.\C,0,0.05938,-2.119086,0.\C,0,0.029615,2.157734,
 0.\C,0,1.187057,-4.229322,0.\C,0,-1.258011,4.136065,0.\O,0,1.03763,2.8
 27599,0.\O,0,-0.016913,-3.47356,0.\O,0,-1.208484,2.702078,0.\H,0,2.130
 57,0.561741,0.\H,0,-2.138564,0.457542,0.\H,0,2.208636,-1.897967,0.\H,0

 Normal termination of Gaussian 16 at Sat Apr  5 23:04:23 2025.
