 Gaussian 16, Revision C.01,

 ----------------------------------------------------------------------
 #t hf aug-cc-pvdz symm=none int=(grid=ultrafine) guess=(read,tcheck) s
 table=(opt,rrhf)
 ----------------------------------------------------------------------
 -----
 title
 -----
 Symbolic Z-matrix:
 Charge =  0 Multiplicity = 1

 SCF Done:  E(RHF) =  -343.765923563     A.U. after   14 cycles
 Normal termination of Gaussian 16 at Sat Apr  5 23:03:47 2025.
 Gaussian 16:  ES64L-G16RevC.01  3-Jul-2019

 ----------------------------------------------------------------------
 #t hf aug-cc-pvdz iop(5/13=1,5/36=2,99/5=2) pseudo=read geom=check gue
 ss=(read,tcheck) scf=(maxcycle=1)
 ----------------------------------------------------------------------
 -----
 title
 -----
 Structure from the checkpoint file:  "methylcrotonate.chk"
 Charge =  0 Multiplicity = 1

                         Standard orientation:
 ---------------------------------------------------------------------
 Center     Atomic      Atomic             Coordinates (Angstroms)
 Number     Number       Type             X           Y           Z
 ---------------------------------------------------------------------
      1          8           0       -0.793144    1.368201   -0.000236
      2          6           0       -0.564751    0.180694   -0.000163
      3          6           0        0.769320   -0.452538   -0.000259
      4          6           0        1.881122    0.280508    0.000126
      5          6           0        3.269891   -0.259619    0.000137
      6          8           0       -1.538842   -0.759642    0.000060
      7          6           0       -2.885236   -0.262814    0.000226
      8          1           0        0.797736   -1.534345   -0.001112
      9          1           0        1.768232    1.360075    0.000946
     10          1           0        3.819852    0.096612    0.875095
     11          1           0        3.287143   -1.348669   -0.000445
     12          1           0        3.820235    0.097410   -0.874284
     13          1           0       -3.068501    0.342864    0.886099
     14          1           0       -3.068919    0.342320   -0.885935
     15          1           0       -3.521975   -1.142120    0.000642
 ---------------------------------------------------------------------

 SCF Done:  E(RHF) =  -343.877481232     A.U. after    2 cycles

 The electronic state is 1-A.
 Alpha  occ. eigenvalues --  -20.61208 -20.55052 -11.38914 -11.29249 -11.27228
 Alpha  occ. eigenvalues --  -11.24874 -11.24583  -1.41231  -1.31615  -1.09155
 Alpha  occ. eigenvalues --   -1.00039  -0.94581  -0.82057  -0.75888  -0.72188
 Alpha  occ. eigenvalues --   -0.68445  -0.67758  -0.61599  -0.60358  -0.58745
 Alpha  occ. eigenvalues --   -0.55730  -0.55691  -0.53500  -0.52414  -0.47518
 Alpha  occ. eigenvalues --   -0.46370  -0.38229
 Alpha virt. eigenvalues --    0.03290   0.04011   0.04808   0.05562   0.06149
 Alpha virt. eigenvalues --    0.06356   0.06703   0.08192   0.08897   0.10615
 Alpha virt. eigenvalues --    0.11774   0.13023   0.14037   0.14287   0.14497

 Mulliken charges:
               1
     1  O   -0.461591
     2  C   -0.194430
     3  C    1.404924
     4  C   -0.153177
     5  C    0.447107
     6  O   -0.527716
     7  C    0.772322
     8  H   -0.520718
     9  H   -0.407648
    10  H    0.085966
    11  H   -0.118091
    12  H    0.085912
    13  H   -0.072163
    14  H   -0.072130
    15  H   -0.268567
 Sum of Mulliken charges =  -0.00000

 Dipole moment (field-independent basis, Debye):
    X=              1.1941    Y=             -1.6978    Z=              0.0004  Tot=              2.0757

 Test job not archived.
 1\1\GINC-SE165\SP\RHF\Aug-CC-pVDZ\C5H8O2\OHZDE\05-Apr-2025\0\\#t hf au
 g-cc-pvdz iop(5/13=1,5/36=2,99/5=2) pseudo=read geom=check guess=(read
 ,tcheck) scf=(maxcycle=1)\\title\\0,1\O,0,-0.793144,1.368201,-0.000236
 \C,0,-0.564751,0.180694,-0.000163\C,0,0.76932,-0.452538,-0.000259\C,0,
 1.881122,0.280508,0.000126\C,0,3.269891,-0.259619,0.000137\O,0,-1.5388
 42,-0.759642,0.00006\C,0,-2.885236,-0.262814,0.000226\H,0,0.797736,-1.
 534345,-0.001112\H,0,1.768232,1.360075,0.000946\H,0,3.819852,0.096612,
 0.875095\H,0,3.287143,-1.348669,-0.000445\H,0,3.820235,0.09741,-0.8742

 Normal termination of Gaussian 16 at Sat Apr  5 23:04:14 2025.
