 Gaussian 16, Revision C.01,

 ----------------------------------------------------------------------
 #t hf aug-cc-pvdz symm=none int=(grid=ultrafine) guess=(read,tcheck) s
 table=(opt,rrhf)
 ----------------------------------------------------------------------
 -----
 title
 -----
 Symbolic Z-matrix:
 Charge =  0 Multiplicity = 1

 SCF Done:  E(RHF) =  -234.224115536     A.U. after   12 cycles
 Normal termination of Gaussian 16 at Sat Apr  5 23:03:53 2025.
 Gaussian 16:  ES64L-G16RevC.01  3-Jul-2019

 ----------------------------------------------------------------------
 #t hf aug-cc-pvdz iop(5/13=1,5/36=2,99/5=2) pseudo=read geom=check gue
 ss=(read,tcheck) scf=(maxcycle=1)
 ----------------------------------------------------------------------
 -----
 title
 -----
 Structure from the checkpoint file:  "methylcyclopentane.chk"
 Charge =  0 Multiplicity = 1

                         Standard orientation:
 ---------------------------------------------------------------------
 Center     Atomic      Atomic             Coordinates (Angstroms)
 Number     Number       Type             X           Y           Z
 ---------------------------------------------------------------------
      1          6           0       -1.527992   -0.778219   -0.025802
      2          6           0       -1.527998    0.778215   -0.025762
      3          6           0       -0.054746   -1.195602    0.153522
      4          6           0       -0.054742    1.195610    0.153491
      5          6           0        0.759977   -0.000005   -0.361654
      6          6           0        2.225909   -0.000001    0.053568
      7          1           0       -2.163452   -1.189245    0.758393
      8          1           0       -1.917173   -1.155891   -0.972214
      9          1           0       -1.917255    1.155933   -0.972124
     10          1           0       -2.163406    1.189187    0.758504
     11          1           0        0.170715   -1.346139    1.213831
     12          1           0        0.187199   -2.127106   -0.360157
     13          1           0        0.187182    2.127090   -0.360241
     14          1           0        0.170755    1.346201    1.213784
     15          1           0        0.706863   -0.000021   -1.457058
     16          1           0        2.748064    0.880936   -0.324665
     17          1           0        2.320004    0.000014    1.142416
     18          1           0        2.748063   -0.880949   -0.324642
 ---------------------------------------------------------------------

 SCF Done:  E(RHF) =  -234.296988319     A.U. after    2 cycles

 The electronic state is 1-A.
 Alpha  occ. eigenvalues --  -11.22555 -11.22028 -11.21986 -11.21819 -11.21809
 Alpha  occ. eigenvalues --  -11.21772  -1.11011  -0.99551  -0.95179  -0.88538
 Alpha  occ. eigenvalues --   -0.77142  -0.75930  -0.65423  -0.62498  -0.58978
 Alpha  occ. eigenvalues --   -0.57693  -0.55419  -0.52119  -0.47605  -0.46913
 Alpha  occ. eigenvalues --   -0.46417  -0.45141  -0.45022  -0.44257
 Alpha virt. eigenvalues --    0.03674   0.04459   0.04668   0.04723   0.06447
 Alpha virt. eigenvalues --    0.06642   0.06809   0.06977   0.07023   0.08955
 Alpha virt. eigenvalues --    0.09318   0.09582   0.12282   0.14364   0.14554

 Mulliken charges:
               1
     1  C    0.304382
     2  C    0.304375
     3  C    0.549859
     4  C    0.549847
     5  C   -1.128627
     6  C    0.774069
     7  H   -0.106809
     8  H   -0.132018
     9  H   -0.131993
    10  H   -0.106793
    11  H   -0.134256
    12  H   -0.144855
    13  H   -0.144859
    14  H   -0.134261
    15  H   -0.197135
    16  H   -0.042148
    17  H   -0.036630
    18  H   -0.042146
 Sum of Mulliken charges =   0.00000

 Dipole moment (field-independent basis, Debye):
    X=             -0.0185    Y=             -0.0000    Z=             -0.0882  Tot=              0.0901

 Test job not archived.
 1\1\GINC-SE220\SP\RHF\Aug-CC-pVDZ\C6H12\OHZDE\05-Apr-2025\0\\#t hf aug
 -cc-pvdz iop(5/13=1,5/36=2,99/5=2) pseudo=read geom=check guess=(read,
 tcheck) scf=(maxcycle=1)\\title\\0,1\C,0,-1.527992,-0.778219,-0.025802
 \C,0,-1.527998,0.778215,-0.025762\C,0,-0.054746,-1.195602,0.153522\C,0
 ,-0.054742,1.19561,0.153491\C,0,0.759977,-0.000005,-0.361654\C,0,2.225
 909,-0.000001,0.053568\H,0,-2.163452,-1.189245,0.758393\H,0,-1.917173,
 -1.155891,-0.972214\H,0,-1.917255,1.155933,-0.972124\H,0,-2.163406,1.1
 89187,0.758504\H,0,0.170715,-1.346139,1.213831\H,0,0.1872,-2.127106,-0

 Normal termination of Gaussian 16 at Sat Apr  5 23:04:16 2025.
