 Gaussian 16, Revision C.01,

 ----------------------------------------------------------------------
 #t hf aug-cc-pvdz symm=none int=(grid=ultrafine) guess=(read,tcheck) s
 table=(opt,rrhf)
 ----------------------------------------------------------------------
 -----
 title
 -----
 Symbolic Z-matrix:
 Charge =  0 Multiplicity = 1

 SCF Done:  E(RHF) =  -358.607910763     A.U. after   14 cycles
 Normal termination of Gaussian 16 at Sat Apr  5 23:01:07 2025.
 Gaussian 16:  ES64L-G16RevC.01  3-Jul-2019

 ----------------------------------------------------------------------
 #t hf aug-cc-pvdz iop(5/13=1,5/36=2,99/5=2) pseudo=read geom=check gue
 ss=(read,tcheck) scf=(maxcycle=1)
 ----------------------------------------------------------------------
 -----
 title
 -----
 Structure from the checkpoint file:  "methyl-2-cyanoacetate.chk"
 Charge =  0 Multiplicity = 1

                         Standard orientation:
 ---------------------------------------------------------------------
 Center     Atomic      Atomic             Coordinates (Angstroms)
 Number     Number       Type             X           Y           Z
 ---------------------------------------------------------------------
      1          6           0       -0.309417   -2.118342    0.000000
      2          6           0        0.000000    0.358652    0.000000
      3          6           0        0.510900    2.662545    0.000000
      4          6           0        0.648260   -1.022919    0.000000
      5          7           0       -1.032586   -3.010338    0.000000
      6          8           0       -1.177335    0.583268    0.000000
      7          8           0        0.963845    1.293027    0.000000
      8          1           0        1.413065    3.264947    0.000000
      9          1           0       -0.085784    2.861008    0.887616
     10          1           0       -0.085784    2.861008   -0.887616
     11          1           0        1.298036   -1.102285    0.873564
     12          1           0        1.298036   -1.102285   -0.873564
 ---------------------------------------------------------------------

 SCF Done:  E(RHF) =  -358.721242590     A.U. after    2 cycles

 The electronic state is 1-A'.
 Alpha  occ. eigenvalues --  -20.64421 -20.58990 -15.64687 -11.42813 -11.32167
 Alpha  occ. eigenvalues --  -11.31763 -11.29649  -1.44995  -1.35640  -1.20416
 Alpha  occ. eigenvalues --   -1.08800  -0.99005  -0.82351  -0.75441  -0.73513
 Alpha  occ. eigenvalues --   -0.72020  -0.68366  -0.65272  -0.62583  -0.57156
 Alpha  occ. eigenvalues --   -0.56531  -0.55244  -0.50592  -0.50440  -0.46908
 Alpha  occ. eigenvalues --   -0.46888
 Alpha virt. eigenvalues --    0.02453   0.03905   0.04475   0.05185   0.06223
 Alpha virt. eigenvalues --    0.08226   0.08797   0.11244   0.11778   0.12195
 Alpha virt. eigenvalues --    0.12879   0.13226   0.14112   0.15026   0.15226

 Mulliken charges:
               1
     1  C   -0.061636
     2  C    0.379313
     3  C    0.782772
     4  C    0.155024
     5  N   -0.194613
     6  O   -0.405749
     7  O   -0.536228
     8  H   -0.250753
     9  H   -0.058754
    10  H   -0.058754
    11  H    0.124689
    12  H    0.124689
 Sum of Mulliken charges =  -0.00000

 Dipole moment (field-independent basis, Debye):
    X=              4.4088    Y=              3.7103    Z=              0.0000  Tot=              5.7622

 Test job not archived.
 1\1\GINC-SE108\SP\RHF\Aug-CC-pVDZ\C4H5N1O2\OHZDE\05-Apr-2025\0\\#t hf
 aug-cc-pvdz iop(5/13=1,5/36=2,99/5=2) pseudo=read geom=check guess=(re
 ad,tcheck) scf=(maxcycle=1)\\title\\0,1\C,0,-0.309415,-2.118342,0.\C,0
 ,0.,0.358652,0.\C,0,0.510898,2.662545,0.\C,0,0.648261,-1.022919,0.\N,0
 ,-1.032584,-3.010339,0.\O,0,-1.177335,0.583267,0.\O,0,0.963844,1.29302
 7,0.\H,0,1.413063,3.264948,0.\H,0,-0.085786,2.861008,0.887616\H,0,-0.0
 85786,2.861008,-0.887616\H,0,1.298037,-1.102284,0.873564\H,0,1.298037,
 -1.102284,-0.873564\\Version=ES64L-G16RevC.01\State=1-A'\HF=-358.72124

 Normal termination of Gaussian 16 at Sat Apr  5 23:02:16 2025.
