 Gaussian 16, Revision C.01,

 ----------------------------------------------------------------------
 #t hf aug-cc-pvdz symm=none int=(grid=ultrafine) guess=(read,tcheck) s
 table=(opt,rrhf)
 ----------------------------------------------------------------------
 -----
 title
 -----
 Symbolic Z-matrix:
 Charge =  0 Multiplicity = 1

 SCF Done:  E(RHF) =  -150.233251968     A.U. after   12 cycles
 Normal termination of Gaussian 16 at Sat Apr  5 23:03:18 2025.
 Gaussian 16:  ES64L-G16RevC.01  3-Jul-2019

 ----------------------------------------------------------------------
 #t hf aug-cc-pvdz iop(5/13=1,5/36=2,99/5=2) pseudo=read geom=check gue
 ss=(read,tcheck) scf=(maxcycle=1)
 ----------------------------------------------------------------------
 -----
 title
 -----
 Structure from the checkpoint file:  "methylhydrazine.chk"
 Charge =  0 Multiplicity = 1

                         Standard orientation:
 ---------------------------------------------------------------------
 Center     Atomic      Atomic             Coordinates (Angstroms)
 Number     Number       Type             X           Y           Z
 ---------------------------------------------------------------------
      1          6           0       -1.176124   -0.240930   -0.001430
      2          7           0        0.026647    0.569467   -0.122671
      3          7           0        1.244597   -0.148622    0.053689
      4          1           0        1.130779   -0.914669    0.717137
      5          1           0        1.508519   -0.549814   -0.837623
      6          1           0       -1.242751   -0.927801   -0.846695
      7          1           0       -1.212149   -0.834846    0.925321
      8          1           0       -2.049950    0.411665   -0.026287
      9          1           0        0.023585    1.315124    0.559605
 ---------------------------------------------------------------------

 SCF Done:  E(RHF) =  -150.280981631     A.U. after    2 cycles

 The electronic state is 1-A.
 Alpha  occ. eigenvalues --  -15.63558 -15.63322 -11.25860  -1.22998  -1.02677
 Alpha  occ. eigenvalues --   -0.88141  -0.67962  -0.64376  -0.62024  -0.56779
 Alpha  occ. eigenvalues --   -0.53025  -0.40252  -0.37857
 Alpha virt. eigenvalues --    0.03456   0.04276   0.04936   0.05603   0.07955
 Alpha virt. eigenvalues --    0.08304   0.11763   0.14659   0.15174   0.17193
 Alpha virt. eigenvalues --    0.17880   0.18942   0.20141   0.20925   0.21898

 Mulliken charges:
               1
     1  C    0.827369
     2  N   -0.354277
     3  N   -0.126813
     4  H    0.012993
     5  H    0.062360
     6  H   -0.149129
     7  H   -0.111208
     8  H   -0.200773
     9  H    0.039477
 Sum of Mulliken charges =  -0.00000

 Dipole moment (field-independent basis, Debye):
    X=             -1.1047    Y=             -1.2797    Z=              0.6613  Tot=              1.8153

 Test job not archived.
 1\1\GINC-SE046\SP\RHF\Aug-CC-pVDZ\C1H6N2\OHZDE\05-Apr-2025\0\\#t hf au
 g-cc-pvdz iop(5/13=1,5/36=2,99/5=2) pseudo=read geom=check guess=(read
 ,tcheck) scf=(maxcycle=1)\\title\\0,1\C,0,-1.176124,-0.24093,-0.00143\
 N,0,0.026647,0.569467,-0.122671\N,0,1.244597,-0.148622,0.053689\H,0,1.
 130779,-0.914669,0.717137\H,0,1.508519,-0.549814,-0.837623\H,0,-1.2427
 51,-0.927801,-0.846695\H,0,-1.212149,-0.834846,0.925321\H,0,-2.04995,0
 .411665,-0.026287\H,0,0.023585,1.315124,0.559605\\Version=ES64L-G16Rev
 C.01\State=1-A\HF=-150.2809816\RMSD=1.648e-03\Dipole=-0.4346094,-0.503

 Normal termination of Gaussian 16 at Sat Apr  5 23:03:38 2025.
