 Gaussian 16, Revision C.01,

 ----------------------------------------------------------------------
 #t hf aug-cc-pvdz symm=none int=(grid=ultrafine) guess=(read,tcheck) s
 table=(opt,rrhf)
 ----------------------------------------------------------------------
 -----
 title
 -----
 Symbolic Z-matrix:
 Charge =  0 Multiplicity = 1

 SCF Done:  E(RHF) =  -268.867257504     A.U. after   13 cycles
 Normal termination of Gaussian 16 at Sat Apr  5 23:03:48 2025.
 Gaussian 16:  ES64L-G16RevC.01  3-Jul-2019

 ----------------------------------------------------------------------
 #t hf aug-cc-pvdz iop(5/13=1,5/36=2,99/5=2) pseudo=read geom=check gue
 ss=(read,tcheck) scf=(maxcycle=1)
 ----------------------------------------------------------------------
 -----
 title
 -----
 Structure from the checkpoint file:  "methylcyclopropylketone.chk"
 Charge =  0 Multiplicity = 1

                         Standard orientation:
 ---------------------------------------------------------------------
 Center     Atomic      Atomic             Coordinates (Angstroms)
 Number     Number       Type             X           Y           Z
 ---------------------------------------------------------------------
      1          6           0        0.284009   -0.759507    0.000000
      2          6           0       -0.302823    1.638533    0.742121
      3          6           0       -0.302823    1.638533   -0.742121
      4          6           0       -0.688018    0.369102    0.000000
      5          6           0       -0.302823   -2.152697    0.000000
      6          8           0        1.484030   -0.570889    0.000000
      7          1           0        0.655236    1.614399    1.240617
      8          1           0       -1.093428    2.156153    1.265732
      9          1           0       -1.093428    2.156153   -1.265732
     10          1           0        0.655236    1.614399   -1.240617
     11          1           0       -1.734635    0.099083    0.000000
     12          1           0       -0.938808   -2.291274    0.877339
     13          1           0       -0.938808   -2.291274   -0.877339
     14          1           0        0.491252   -2.894317    0.000000
 ---------------------------------------------------------------------

 SCF Done:  E(RHF) =  -268.952281979     A.U. after    2 cycles

 The electronic state is 1-A'.
 Alpha  occ. eigenvalues --  -20.55219 -11.34059 -11.25092 -11.24898 -11.24842
 Alpha  occ. eigenvalues --  -11.24314  -1.34612  -1.14528  -1.01234  -0.87791
 Alpha  occ. eigenvalues --   -0.83160  -0.73836  -0.69538  -0.66216  -0.61675
 Alpha  occ. eigenvalues --   -0.60635  -0.57946  -0.54983  -0.53516  -0.50884
 Alpha  occ. eigenvalues --   -0.45665  -0.42369  -0.41780
 Alpha virt. eigenvalues --    0.03132   0.04170   0.04579   0.05106   0.06423
 Alpha virt. eigenvalues --    0.06565   0.07614   0.07703   0.09814   0.12002
 Alpha virt. eigenvalues --    0.12480   0.13167   0.13953   0.14174   0.14327

 Mulliken charges:
               1
     1  C   -0.442149
     2  C    0.665264
     3  C    0.665264
     4  C    0.880504
     5  C    0.406659
     6  O   -0.539555
     7  H   -0.294551
     8  H   -0.320134
     9  H   -0.320134
    10  H   -0.294551
    11  H   -0.471980
    12  H    0.076218
    13  H    0.076218
    14  H   -0.087072
 Sum of Mulliken charges =  -0.00000

 Dipole moment (field-independent basis, Debye):
    X=             -3.4594    Y=             -0.0271    Z=              0.0000  Tot=              3.4595

 Test job not archived.
 1\1\GINC-SE108\SP\RHF\Aug-CC-pVDZ\C5H8O1\OHZDE\05-Apr-2025\0\\#t hf au
 g-cc-pvdz iop(5/13=1,5/36=2,99/5=2) pseudo=read geom=check guess=(read
 ,tcheck) scf=(maxcycle=1)\\title\\0,1\C,0,0.284009,-0.759507,0.\C,0,-0
 .302823,1.638533,0.742121\C,0,-0.302823,1.638533,-0.742121\C,0,-0.6880
 18,0.369102,0.\C,0,-0.302823,-2.152697,0.\O,0,1.48403,-0.570889,0.\H,0
 ,0.655236,1.614399,1.240617\H,0,-1.093428,2.156153,1.265732\H,0,-1.093
 428,2.156153,-1.265732\H,0,0.655236,1.614399,-1.240617\H,0,-1.734635,0
 .099083,0.\H,0,-0.938808,-2.291274,0.877339\H,0,-0.938808,-2.291274,-0

 Normal termination of Gaussian 16 at Sat Apr  5 23:04:12 2025.
