 Gaussian 16, Revision C.01,

 ----------------------------------------------------------------------
 #t hf aug-cc-pvdz symm=none int=(grid=ultrafine) guess=(read,tcheck) s
 table=(opt,rrhf)
 ----------------------------------------------------------------------
 -----
 title
 -----
 Symbolic Z-matrix:
 Charge =  0 Multiplicity = 1

 SCF Done:  E(RHF) =  -460.904214075     A.U. after   14 cycles

 1\1\GINC-SE188\Stability\RHF\Aug-CC-pVDZ\C8H14O2\OHZDE\05-Apr-2025\0\\
 #t hf aug-cc-pvdz symm=none int=(grid=ultrafine) guess=(read,tcheck) s
 table=(opt,rrhf)\\title\\0,1\C,0,-1.111854,-0.407602,0.125096\C,0,2.51
 9955,0.35947,-0.688408\C,0,1.969676,-1.052974,-0.470654\C,0,1.411901,1
 .411583,-0.589259\C,0,1.194356,-1.168658,0.84717\C,0,0.666104,1.312877
 ,0.744533\C,0,0.0999,-0.101797,0.994429\C,0,-3.28167,0.319162,-0.47119
 8\O,0,-1.25017,-1.37067,-0.588255\O,0,-2.07217,0.532062,0.27385\H,0,3.
 28442,0.574297,0.066511\H,0,3.016327,0.424143,-1.65902\H,0,1.308119,-1

 Normal termination of Gaussian 16 at Sat Apr  5 23:06:33 2025.
 Gaussian 16:  ES64L-G16RevC.01  3-Jul-2019

 ----------------------------------------------------------------------
 #t hf aug-cc-pvdz iop(5/13=1,5/36=2,99/5=2) pseudo=read geom=check gue
 ss=(read,tcheck) scf=(maxcycle=1)
 ----------------------------------------------------------------------
 -----
 title
 -----
 Structure from the checkpoint file:  "methylcyclohexanoate.chk"
 Charge =  0 Multiplicity = 1

                         Standard orientation:
 ---------------------------------------------------------------------
 Center     Atomic      Atomic             Coordinates (Angstroms)
 Number     Number       Type             X           Y           Z
 ---------------------------------------------------------------------
      1          6           0       -1.111854   -0.407602    0.125096
      2          6           0        2.519955    0.359470   -0.688408
      3          6           0        1.969676   -1.052974   -0.470654
      4          6           0        1.411901    1.411583   -0.589259
      5          6           0        1.194356   -1.168658    0.847170
      6          6           0        0.666104    1.312877    0.744533
      7          6           0        0.099900   -0.101797    0.994429
      8          6           0       -3.281670    0.319161   -0.471198
      9          8           0       -1.250170   -1.370670   -0.588255
     10          8           0       -2.072170    0.532062    0.273850
     11          1           0        3.284420    0.574297    0.066511
     12          1           0        3.016327    0.424143   -1.659020
     13          1           0        1.308119   -1.318004   -1.297782
     14          1           0        2.784895   -1.779646   -0.477318
     15          1           0        1.828010    2.414978   -0.702103
     16          1           0        0.706946    1.275720   -1.416225
     17          1           0        0.756983   -2.162764    0.937526
     18          1           0        1.888488   -1.047022    1.684150
     19          1           0        1.361886    1.538168    1.557947
     20          1           0       -0.133635    2.050051    0.799485
     21          1           0       -0.284837   -0.125874    2.018897
     22          1           0       -3.073608    0.295601   -1.539403
     23          1           0       -3.927090    1.157270   -0.226901
     24          1           0       -3.748380   -0.620420   -0.180785
 ---------------------------------------------------------------------

 SCF Done:  E(RHF) =  -461.047641940     A.U. after    2 cycles

 The electronic state is 1-A.
 Alpha  occ. eigenvalues --  -20.61251 -20.55649 -11.38609 -11.29485 -11.25115
 Alpha  occ. eigenvalues --  -11.23398 -11.22737 -11.22699 -11.22345 -11.21902
 Alpha  occ. eigenvalues --   -1.41563  -1.31981  -1.11528  -1.02628  -0.99996
 Alpha  occ. eigenvalues --   -0.96686  -0.85919  -0.83462  -0.78956  -0.75795
 Alpha  occ. eigenvalues --   -0.69296  -0.68479  -0.67879  -0.65009  -0.61570
 Alpha  occ. eigenvalues --   -0.60945  -0.59419  -0.56151  -0.54330  -0.53301
 Alpha  occ. eigenvalues --   -0.52891  -0.52123  -0.52003  -0.48731  -0.47925
 Alpha  occ. eigenvalues --   -0.46888  -0.44179  -0.43636  -0.43454
 Alpha virt. eigenvalues --    0.03266   0.03980   0.04212   0.04511   0.05667
 Alpha virt. eigenvalues --    0.05938   0.06190   0.06369   0.06867   0.08147
 Alpha virt. eigenvalues --    0.08313   0.08805   0.09193   0.09474   0.12564

 Mulliken charges:
               1
     1  C    0.465101
     2  C    0.278535
     3  C    0.320122
     4  C    0.370911
     5  C    0.611406
     6  C    0.533613
     7  C   -0.645111
     8  C    0.851790
     9  O   -0.490848
    10  O   -0.616309
    11  H   -0.117089
    12  H   -0.132069
    13  H   -0.115368
    14  H   -0.112859
    15  H   -0.118299
    16  H   -0.143899
    17  H   -0.152681
    18  H   -0.041269
    19  H   -0.083123
    20  H   -0.143875
    21  H   -0.048916
    22  H   -0.098610
    23  H   -0.268172
    24  H   -0.102980
 Sum of Mulliken charges =   0.00000

 Dipole moment (field-independent basis, Debye):
    X=             -0.1039    Y=              1.7032    Z=              0.9198  Tot=              1.9385

 Test job not archived.
 1\1\GINC-SE188\SP\RHF\Aug-CC-pVDZ\C8H14O2\OHZDE\05-Apr-2025\0\\#t hf a
 ug-cc-pvdz iop(5/13=1,5/36=2,99/5=2) pseudo=read geom=check guess=(rea
 d,tcheck) scf=(maxcycle=1)\\title\\0,1\C,0,-1.111854,-0.407602,0.12509
 6\C,0,2.519955,0.35947,-0.688408\C,0,1.969676,-1.052974,-0.470654\C,0,
 1.411901,1.411583,-0.589259\C,0,1.194356,-1.168658,0.84717\C,0,0.66610
 4,1.312877,0.744533\C,0,0.0999,-0.101797,0.994429\C,0,-3.28167,0.31916
 2,-0.471198\O,0,-1.25017,-1.37067,-0.588255\O,0,-2.07217,0.532062,0.27
 385\H,0,3.28442,0.574297,0.066511\H,0,3.016327,0.424143,-1.65902\H,0,1

 Normal termination of Gaussian 16 at Sat Apr  5 23:06:50 2025.
