 Gaussian 16, Revision C.01,

 ----------------------------------------------------------------------
 #t hf aug-cc-pvdz symm=none int=(grid=ultrafine) guess=(read,tcheck) s
 table=(opt,rrhf)
 ----------------------------------------------------------------------
 -----
 title
 -----
 Symbolic Z-matrix:
 Charge =  0 Multiplicity = 1

 SCF Done:  E(RHF) =  -1308.72534885     A.U. after   13 cycles
 Normal termination of Gaussian 16 at Sat Apr  5 23:01:10 2025.
 Gaussian 16:  ES64L-G16RevC.01  3-Jul-2019

 ----------------------------------------------------------------------
 #t hf aug-cc-pvdz iop(5/13=1,5/36=2,99/5=2) pseudo=read geom=check gue
 ss=(read,tcheck) scf=(maxcycle=1)
 ----------------------------------------------------------------------
 -----
 title
 -----
 Structure from the checkpoint file:  "methoxyflurane.chk"
 Charge =  0 Multiplicity = 1

                         Standard orientation:
 ---------------------------------------------------------------------
 Center     Atomic      Atomic             Coordinates (Angstroms)
 Number     Number       Type             X           Y           Z
 ---------------------------------------------------------------------
      1          6           0       -2.942068    0.313166   -0.088641
      2          6           0        0.735707    0.108753   -0.508616
      3          6           0       -0.654620   -0.311306    0.007121
      4          8           0       -1.574078    0.542788   -0.481566
      5          9           0       -0.678682   -0.369389    1.367117
      6          9           0       -0.901212   -1.593523   -0.415518
      7         17           0        1.144790    1.756836    0.037582
      8         17           0        1.979103   -1.067794   -0.011846
      9          1           0       -3.270321   -0.674880   -0.406191
     10          1           0       -3.516616    1.078340   -0.599716
     11          1           0       -3.051412    0.421677    0.988511
     12          1           0        0.709733    0.121384   -1.591166
 ---------------------------------------------------------------------

 SCF Done:  E(RHF) =  -1308.89616324     A.U. after    2 cycles

 The electronic state is 1-A.
 Alpha  occ. eigenvalues -- -103.68294-103.68208 -26.15829 -26.15701 -20.63142
 Alpha  occ. eigenvalues --  -11.50995 -11.39839 -11.31635 -10.71578 -10.71501
 Alpha  occ. eigenvalues --   -8.37305  -8.37227  -8.36978  -8.36967  -8.36899
 Alpha  occ. eigenvalues --   -8.36889  -1.72896  -1.67769  -1.41073  -1.23482
 Alpha  occ. eigenvalues --   -1.15064  -1.05653  -0.95418  -0.91990  -0.85386
 Alpha  occ. eigenvalues --   -0.82502  -0.80100  -0.75822  -0.72832  -0.71468
 Alpha  occ. eigenvalues --   -0.66881  -0.66187  -0.65342  -0.61009  -0.59902
 Alpha  occ. eigenvalues --   -0.55790  -0.52440  -0.49352  -0.49120  -0.47015
 Alpha  occ. eigenvalues --   -0.46507
 Alpha virt. eigenvalues --    0.03253   0.04675   0.05526   0.05836   0.07870
 Alpha virt. eigenvalues --    0.08627   0.09435   0.12058   0.12506   0.12768
 Alpha virt. eigenvalues --    0.13989   0.14810   0.15350   0.15744   0.16623

 Mulliken charges:
               1
     1  C    0.676686
     2  C   -0.359429
     3  C    1.123783
     4  O   -0.575848
     5  F   -0.325555
     6  F   -0.337216
     7  Cl  -0.038005
     8  Cl  -0.009048
     9  H   -0.026278
    10  H   -0.235713
    11  H   -0.035817
    12  H    0.142440
 Sum of Mulliken charges =  -0.00000

 Dipole moment (field-independent basis, Debye):
    X=             -2.4678    Y=              0.6990    Z=             -1.3332  Tot=              2.8906

 Test job not archived.
 1\1\GINC-SE036\SP\RHF\Aug-CC-pVDZ\C3H4Cl2F2O1\OHZDE\05-Apr-2025\0\\#t
 hf aug-cc-pvdz iop(5/13=1,5/36=2,99/5=2) pseudo=read geom=check guess=
 (read,tcheck) scf=(maxcycle=1)\\title\\0,1\C,0,-2.942068,0.313165,-0.0
 88641\C,0,0.735707,0.108753,-0.508616\C,0,-0.65462,-0.311306,0.007121\
 O,0,-1.574078,0.542788,-0.481566\F,0,-0.678682,-0.369389,1.367117\F,0,
 -0.901211,-1.593523,-0.415518\Cl,0,1.14479,1.756836,0.037582\Cl,0,1.97
 9103,-1.067794,-0.011846\H,0,-3.270321,-0.674881,-0.406191\H,0,-3.5166
 16,1.078339,-0.599716\H,0,-3.051412,0.421676,0.988511\H,0,0.709733,0.1

 Normal termination of Gaussian 16 at Sat Apr  5 23:02:18 2025.
