 Gaussian 16, Revision C.01,

 ----------------------------------------------------------------------
 #t hf aug-cc-pvdz symm=none int=(grid=ultrafine) guess=(read,tcheck) s
 table=(opt,rrhf)
 ----------------------------------------------------------------------
 -----
 title
 -----
 Symbolic Z-matrix:
 Charge =  0 Multiplicity = 1

 SCF Done:  E(RHF) =  -928.173926870     A.U. after   14 cycles
 Normal termination of Gaussian 16 at Sat Apr  5 23:03:24 2025.
 Gaussian 16:  ES64L-G16RevC.01  3-Jul-2019

 ----------------------------------------------------------------------
 #t hf aug-cc-pvdz iop(5/13=1,5/36=2,99/5=2) pseudo=read geom=check gue
 ss=(read,tcheck) scf=(maxcycle=1)
 ----------------------------------------------------------------------
 -----
 title
 -----
 Structure from the checkpoint file:  "methylcarbamodithioic_acid.chk"
 Charge =  0 Multiplicity = 1

                         Standard orientation:
 ---------------------------------------------------------------------
 Center     Atomic      Atomic             Coordinates (Angstroms)
 Number     Number       Type             X           Y           Z
 ---------------------------------------------------------------------
      1          6           0        1.860208   -1.388426    0.000000
      2          7           0        1.300486   -0.046394    0.000000
      3          6           0        0.000000    0.288733    0.000000
      4         16           0       -0.535187    1.859700    0.000000
      5         16           0       -1.092712   -1.125087    0.000000
      6          1           0        1.555773   -1.946049    0.887371
      7          1           0        1.555773   -1.946049   -0.887371
      8          1           0        2.943735   -1.305923    0.000000
      9          1           0        1.930390    0.739868    0.000000
     10          1           0       -2.203937   -0.372747    0.000000
 ---------------------------------------------------------------------

 SCF Done:  E(RHF) =  -928.253827290     A.U. after    2 cycles

 The electronic state is 1-A'.
 Alpha  occ. eigenvalues --  -93.57385 -93.48595 -15.68787 -11.39240 -11.30310
 Alpha  occ. eigenvalues --   -8.87236  -8.78556  -6.21400  -6.21200  -6.20825
 Alpha  occ. eigenvalues --   -6.12789  -6.12239  -6.12164  -1.26568  -1.06276
 Alpha  occ. eigenvalues --   -0.98589  -0.91777  -0.80867  -0.68087  -0.64949
 Alpha  occ. eigenvalues --   -0.62822  -0.58057  -0.55441  -0.51899  -0.48584
 Alpha  occ. eigenvalues --   -0.40049  -0.32867  -0.32754
 Alpha virt. eigenvalues --    0.02632   0.04344   0.05155   0.05506   0.06900
 Alpha virt. eigenvalues --    0.08400   0.08721   0.09602   0.11328   0.12291
 Alpha virt. eigenvalues --    0.13612   0.14794   0.15147   0.16294   0.16531

 Mulliken charges:
               1
     1  C    0.767996
     2  N   -0.335979
     3  C   -0.250215
     4  S   -0.099619
     5  S    0.207910
     6  H   -0.069411
     7  H   -0.069411
     8  H   -0.224688
     9  H   -0.052346
    10  H    0.125764
 Sum of Mulliken charges =  -0.00000

 Dipole moment (field-independent basis, Debye):
    X=              2.6525    Y=             -3.5254    Z=              0.0000  Tot=              4.4118

 Test job not archived.
 1\1\GINC-SE115\SP\RHF\Aug-CC-pVDZ\C2H5N1S2\OHZDE\05-Apr-2025\0\\#t hf
 aug-cc-pvdz iop(5/13=1,5/36=2,99/5=2) pseudo=read geom=check guess=(re
 ad,tcheck) scf=(maxcycle=1)\\title\\0,1\C,0,1.860208,-1.388426,0.\N,0,
 1.300486,-0.046394,0.\C,0,0.,0.288733,0.\S,0,-0.535187,1.8597,0.\S,0,-
 1.092712,-1.125087,0.\H,0,1.555773,-1.946049,0.887371\H,0,1.555773,-1.
 946049,-0.887371\H,0,2.943735,-1.305923,0.\H,0,1.93039,0.739868,0.\H,0
 ,-2.203937,-0.372747,0.\\Version=ES64L-G16RevC.01\State=1-A'\HF=-928.2
 538273\RMSD=5.535e-03\Dipole=1.0435597,-1.3869973,0.\Quadrupole=6.2952

 Normal termination of Gaussian 16 at Sat Apr  5 23:03:40 2025.
