 Gaussian 16, Revision C.01,

 ----------------------------------------------------------------------
 #t hf aug-cc-pvdz symm=none int=(grid=ultrafine) guess=(read,tcheck) s
 table=(opt,rrhf)
 ----------------------------------------------------------------------
 -----
 title
 -----
 Symbolic Z-matrix:
 Charge =  0 Multiplicity = 1

 SCF Done:  E(RHF) =  -321.921262538     A.U. after   13 cycles
 Normal termination of Gaussian 16 at Sat Apr  5 23:01:07 2025.
 Gaussian 16:  ES64L-G16RevC.01  3-Jul-2019

 ----------------------------------------------------------------------
 #t hf aug-cc-pvdz iop(5/13=1,5/36=2,99/5=2) pseudo=read geom=check gue
 ss=(read,tcheck) scf=(maxcycle=1)
 ----------------------------------------------------------------------
 -----
 title
 -----
 Structure from the checkpoint file:  "methyl-N-methylcarbamate.chk"
 Charge =  0 Multiplicity = 1

                         Standard orientation:
 ---------------------------------------------------------------------
 Center     Atomic      Atomic             Coordinates (Angstroms)
 Number     Number       Type             X           Y           Z
 ---------------------------------------------------------------------
      1          6           0        0.017458    0.114976   -0.000014
      2          6           0       -2.442157   -0.010060    0.000035
      3          6           0        2.370388   -0.058037    0.000016
      4          7           0       -1.126195   -0.614338   -0.000060
      5          8           0        0.091274    1.325205   -0.000014
      6          8           0        1.096157   -0.714172    0.000010
      7          1           0       -2.316092    1.068892   -0.000449
      8          1           0       -3.008671   -0.296928    0.887756
      9          1           0       -3.009081   -0.297691   -0.887170
     10          1           0        2.483823    0.563324    0.886629
     11          1           0        2.483850    0.563286   -0.886620
     12          1           0        3.107408   -0.855675    0.000044
     13          1           0       -1.031457   -1.614379    0.000035
 ---------------------------------------------------------------------

 SCF Done:  E(RHF) =  -322.027719125     A.U. after    2 cycles

 The electronic state is 1-A.
 Alpha  occ. eigenvalues --  -20.61090 -20.53789 -15.64989 -11.41271 -11.29303
 Alpha  occ. eigenvalues --  -11.27306  -1.41658  -1.31494  -1.20341  -0.99154
 Alpha  occ. eigenvalues --   -0.92007  -0.79540  -0.75829  -0.68775  -0.68750
 Alpha  occ. eigenvalues --   -0.63483  -0.61628  -0.59708  -0.55555  -0.55229
 Alpha  occ. eigenvalues --   -0.53870  -0.47872  -0.47286  -0.39858
 Alpha virt. eigenvalues --    0.03220   0.04073   0.04971   0.05255   0.06556
 Alpha virt. eigenvalues --    0.06929   0.07753   0.10317   0.11631   0.13374
 Alpha virt. eigenvalues --    0.13518   0.14349   0.15166   0.16438   0.16886

 Mulliken charges:
               1
     1  C    0.694717
     2  C    0.760648
     3  C    0.755707
     4  N   -0.289181
     5  O   -0.443096
     6  O   -0.603888
     7  H   -0.169818
     8  H   -0.117374
     9  H   -0.117484
    10  H   -0.065588
    11  H   -0.065591
    12  H   -0.254467
    13  H   -0.084586
 Sum of Mulliken charges =  -0.00000

 Dipole moment (field-independent basis, Debye):
    X=             -0.5251    Y=             -2.5537    Z=              0.0002  Tot=              2.6071

 Test job not archived.
 1\1\GINC-SE180\SP\RHF\Aug-CC-pVDZ\C3H7N1O2\OHZDE\05-Apr-2025\0\\#t hf
 aug-cc-pvdz iop(5/13=1,5/36=2,99/5=2) pseudo=read geom=check guess=(re
 ad,tcheck) scf=(maxcycle=1)\\title\\0,1\C,0,0.017458,0.114976,-0.00001
 4\C,0,-2.442157,-0.01006,0.000035\C,0,2.370388,-0.058037,0.000016\N,0,
 -1.126195,-0.614338,-0.00006\O,0,0.091274,1.325205,-0.000014\O,0,1.096
 157,-0.714172,0.00001\H,0,-2.316092,1.068892,-0.000449\H,0,-3.008671,-
 0.296928,0.887756\H,0,-3.009081,-0.297691,-0.88717\H,0,2.483823,0.5633
 24,0.886629\H,0,2.48385,0.563286,-0.88662\H,0,3.107408,-0.855675,0.000

 Normal termination of Gaussian 16 at Sat Apr  5 23:02:15 2025.
