 Gaussian 16, Revision C.01,

 ----------------------------------------------------------------------
 #t hf aug-cc-pvdz symm=none int=(grid=ultrafine) guess=(read,tcheck) s
 table=(opt,rrhf)
 ----------------------------------------------------------------------
 -----
 title
 -----
 Symbolic Z-matrix:
 Charge =  0 Multiplicity = 1

 SCF Done:  E(RHF) =  -265.474062574     A.U. after   15 cycles
 Normal termination of Gaussian 16 at Sat Apr  5 23:03:22 2025.
 Gaussian 16:  ES64L-G16RevC.01  3-Jul-2019

 ----------------------------------------------------------------------
 #t hf aug-cc-pvdz iop(5/13=1,5/36=2,99/5=2) pseudo=read geom=check gue
 ss=(read,tcheck) scf=(maxcycle=1)
 ----------------------------------------------------------------------
 -----
 title
 -----
 Structure from the checkpoint file:  "methylperoxyacetylene.chk"
 Charge =  0 Multiplicity = 1

                         Standard orientation:
 ---------------------------------------------------------------------
 Center     Atomic      Atomic             Coordinates (Angstroms)
 Number     Number       Type             X           Y           Z
 ---------------------------------------------------------------------
      1          8           0        0.113175    0.611906   -0.000481
      2          8           0       -0.850519   -0.571912   -0.000730
      3          6           0        1.313138    0.157342   -0.000011
      4          6           0       -2.131835    0.020694    0.000616
      5          6           0        2.457104   -0.211516    0.000417
      6          1           0       -2.297771    0.619401   -0.896754
      7          1           0       -2.296639    0.617800    0.899259
      8          1           0       -2.808117   -0.835719    0.000264
      9          1           0        3.470842   -0.520554    0.000796
 ---------------------------------------------------------------------

 SCF Done:  E(RHF) =  -265.563369563     A.U. after    2 cycles

 The electronic state is 1-A.
 Alpha  occ. eigenvalues --  -20.69116 -20.68158 -11.31211 -11.30942 -11.24174
 Alpha  occ. eigenvalues --   -1.46131  -1.29296  -1.01516  -0.94314  -0.80105
 Alpha  occ. eigenvalues --   -0.72029  -0.70854  -0.70173  -0.62486  -0.62327
 Alpha  occ. eigenvalues --   -0.56451  -0.50712  -0.39866  -0.38090
 Alpha virt. eigenvalues --    0.03307   0.04349   0.05480   0.05761   0.08269
 Alpha virt. eigenvalues --    0.09062   0.10986   0.12339   0.13846   0.13885
 Alpha virt. eigenvalues --    0.14467   0.15062   0.16216   0.16714   0.16972

 Mulliken charges:
               1
     1  O   -0.307285
     2  O   -0.398947
     3  C   -0.293878
     4  C    0.810256
     5  C    0.922589
     6  H   -0.078594
     7  H   -0.078610
     8  H   -0.170357
     9  H   -0.405173
 Sum of Mulliken charges =  -0.00000

 Dipole moment (field-independent basis, Debye):
    X=             -1.8244    Y=              0.0140    Z=              0.0022  Tot=              1.8244

 Test job not archived.
 1\1\GINC-SE155\SP\RHF\Aug-CC-pVDZ\C3H4O2\OHZDE\05-Apr-2025\0\\#t hf au
 g-cc-pvdz iop(5/13=1,5/36=2,99/5=2) pseudo=read geom=check guess=(read
 ,tcheck) scf=(maxcycle=1)\\title\\0,1\O,0,0.113175,0.611906,-0.000481\
 O,0,-0.850519,-0.571912,-0.00073\C,0,1.313138,0.157342,-0.000011\C,0,-
 2.131835,0.020694,0.000616\C,0,2.457104,-0.211516,0.000417\H,0,-2.2977
 71,0.619401,-0.896754\H,0,-2.296639,0.6178,0.899259\H,0,-2.808117,-0.8
 35719,0.000264\H,0,3.470842,-0.520554,0.000796\\Version=ES64L-G16RevC.
 01\State=1-A\HF=-265.5633696\RMSD=5.516e-03\Dipole=-0.7177609,0.005524

 Normal termination of Gaussian 16 at Sat Apr  5 23:03:39 2025.
