 Gaussian 16, Revision C.01,

 ----------------------------------------------------------------------
 #t hf aug-cc-pvdz symm=none int=(grid=ultrafine) guess=(read,tcheck) s
 table=(opt,rrhf)
 ----------------------------------------------------------------------
 -----
 title
 -----
 Symbolic Z-matrix:
 Charge =  0 Multiplicity = 1

 SCF Done:  E(RHF) =  -318.522328754     A.U. after   15 cycles
 Normal termination of Gaussian 16 at Sat Apr  5 23:01:08 2025.
 Gaussian 16:  ES64L-G16RevC.01  3-Jul-2019

 ----------------------------------------------------------------------
 #t hf aug-cc-pvdz iop(5/13=1,5/36=2,99/5=2) pseudo=read geom=check gue
 ss=(read,tcheck) scf=(maxcycle=1)
 ----------------------------------------------------------------------
 -----
 title
 -----
 Structure from the checkpoint file:  "methyl_nitrate.chk"
 Charge =  0 Multiplicity = 1

                         Standard orientation:
 ---------------------------------------------------------------------
 Center     Atomic      Atomic             Coordinates (Angstroms)
 Number     Number       Type             X           Y           Z
 ---------------------------------------------------------------------
      1          7           0       -0.000000    0.625382    0.000000
      2          8           0       -1.204276    0.568235    0.000000
      3          8           0        0.724269    1.578295    0.000000
      4          8           0        0.708849   -0.603160    0.000000
      5          6           0       -0.143421   -1.760352    0.000000
      6          1           0        0.559744   -2.588769    0.000000
      7          1           0       -0.764976   -1.786875    0.892235
      8          1           0       -0.764976   -1.786875   -0.892235
 ---------------------------------------------------------------------

 SCF Done:  E(RHF) =  -318.624346962     A.U. after    2 cycles

 The electronic state is 1-A'.
 Alpha  occ. eigenvalues --  -20.68701 -20.65017 -20.64850 -15.99169 -11.32724
 Alpha  occ. eigenvalues --   -1.61649  -1.42235  -1.39387  -1.02110  -0.88584
 Alpha  occ. eigenvalues --   -0.82101  -0.79638  -0.78204  -0.67143  -0.66485
 Alpha  occ. eigenvalues --   -0.60413  -0.54602  -0.54037  -0.53568  -0.50691
 Alpha virt. eigenvalues --    0.02942   0.05137   0.05250   0.07949   0.08523
 Alpha virt. eigenvalues --    0.12529   0.13466   0.13498   0.15462   0.16646
 Alpha virt. eigenvalues --    0.17438   0.20468   0.21975   0.23312   0.24534

 Mulliken charges:
               1
     1  N    0.920776
     2  O   -0.426099
     3  O   -0.431141
     4  O   -0.574144
     5  C    0.802119
     6  H   -0.201072
     7  H   -0.045219
     8  H   -0.045219
 Sum of Mulliken charges =  -0.00000

 Dipole moment (field-independent basis, Debye):
    X=             -0.4681    Y=             -3.6108    Z=             -0.0000  Tot=              3.6410

 Test job not archived.
 1\1\GINC-SE176\SP\RHF\Aug-CC-pVDZ\C1H3N1O3\OHZDE\05-Apr-2025\0\\#t hf
 aug-cc-pvdz iop(5/13=1,5/36=2,99/5=2) pseudo=read geom=check guess=(re
 ad,tcheck) scf=(maxcycle=1)\\title\\0,1\N,0,0.,0.625382,0.\O,0,-1.2042
 76,0.568235,0.\O,0,0.724269,1.578295,0.\O,0,0.708849,-0.60316,0.\C,0,-
 0.143421,-1.760352,0.\H,0,0.559744,-2.588769,0.\H,0,-0.764976,-1.78687
 5,0.892235\H,0,-0.764976,-1.786875,-0.892235\\Version=ES64L-G16RevC.01
 \State=1-A'\HF=-318.624347\RMSD=3.380e-03\Dipole=-0.1841522,-1.420591,
 0.\Quadrupole=-2.6828883,1.4843447,1.1985436,0.1713576,0.,0.\PG=CS [SG

 Normal termination of Gaussian 16 at Sat Apr  5 23:02:14 2025.
