 Gaussian 16, Revision C.01,

 ----------------------------------------------------------------------
 #t hf aug-cc-pvdz symm=none int=(grid=ultrafine) guess=(read,tcheck) s
 table=(opt,rrhf)
 ----------------------------------------------------------------------
 -----
 title
 -----
 Symbolic Z-matrix:
 Charge =  0 Multiplicity = 1

 SCF Done:  E(RHF) =  -286.039209891     A.U. after   12 cycles
 Normal termination of Gaussian 16 at Sat Apr  5 23:03:27 2025.
 Gaussian 16:  ES64L-G16RevC.01  3-Jul-2019

 ----------------------------------------------------------------------
 #t hf aug-cc-pvdz iop(5/13=1,5/36=2,99/5=2) pseudo=read geom=check gue
 ss=(read,tcheck) scf=(maxcycle=1)
 ----------------------------------------------------------------------
 -----
 title
 -----
 Structure from the checkpoint file:  "morpholine.chk"
 Charge =  0 Multiplicity = 1

                         Standard orientation:
 ---------------------------------------------------------------------
 Center     Atomic      Atomic             Coordinates (Angstroms)
 Number     Number       Type             X           Y           Z
 ---------------------------------------------------------------------
      1          6           0       -0.005439    0.742948    1.206807
      2          6           0       -0.005439    0.742948   -1.206807
      3          6           0       -0.005439   -0.778359    1.177882
      4          6           0       -0.005439   -0.778359   -1.177882
      5          7           0        0.657361    1.234334    0.000000
      6          8           0       -0.635671   -1.270842    0.000000
      7          1           0       -1.046564    1.092682    1.289352
      8          1           0        0.540160    1.092900    2.084922
      9          1           0        0.540160    1.092900   -2.084922
     10          1           0       -1.046564    1.092682   -1.289352
     11          1           0        1.027148   -1.146672    1.227425
     12          1           0       -0.566071   -1.185206    2.018469
     13          1           0       -0.566071   -1.185206   -2.018469
     14          1           0        1.027148   -1.146672   -1.227425
     15          1           0        0.705027    2.243917    0.000000
 ---------------------------------------------------------------------

 SCF Done:  E(RHF) =  -286.128279297     A.U. after    2 cycles

 The electronic state is 1-A'.
 Alpha  occ. eigenvalues --  -20.56464 -15.61046 -11.27958 -11.27931 -11.25898
 Alpha  occ. eigenvalues --  -11.25893  -1.33103  -1.17500  -1.03040  -0.92158
 Alpha  occ. eigenvalues --   -0.87491  -0.77788  -0.70696  -0.64496  -0.64401
 Alpha  occ. eigenvalues --   -0.60876  -0.60685  -0.59204  -0.54691  -0.50313
 Alpha  occ. eigenvalues --   -0.49476  -0.46481  -0.42723  -0.36781
 Alpha virt. eigenvalues --    0.03426   0.04201   0.04542   0.04780   0.06500
 Alpha virt. eigenvalues --    0.06892   0.07025   0.07739   0.09516   0.11663
 Alpha virt. eigenvalues --    0.12689   0.13210   0.14068   0.14735   0.15180

 Mulliken charges:
               1
     1  C    0.636739
     2  C    0.636739
     3  C    0.634619
     4  C    0.634619
     5  N   -0.616656
     6  O   -0.689416
     7  H   -0.113034
     8  H   -0.163531
     9  H   -0.163531
    10  H   -0.113034
    11  H   -0.079462
    12  H   -0.221908
    13  H   -0.221908
    14  H   -0.079462
    15  H   -0.080774
 Sum of Mulliken charges =  -0.00000

 Dipole moment (field-independent basis, Debye):
    X=              0.3403    Y=              1.7084    Z=              0.0000  Tot=              1.7420

 Test job not archived.
 1\1\GINC-SE173\SP\RHF\Aug-CC-pVDZ\C4H9N1O1\OHZDE\05-Apr-2025\0\\#t hf
 aug-cc-pvdz iop(5/13=1,5/36=2,99/5=2) pseudo=read geom=check guess=(re
 ad,tcheck) scf=(maxcycle=1)\\title\\0,1\C,0,-0.005439,0.742948,1.20680
 7\C,0,-0.005439,0.742948,-1.206807\C,0,-0.005439,-0.778359,1.177882\C,
 0,-0.005439,-0.778359,-1.177882\N,0,0.657361,1.234334,0.\O,0,-0.635671
 ,-1.270842,0.\H,0,-1.046564,1.092682,1.289352\H,0,0.54016,1.0929,2.084
 922\H,0,0.54016,1.0929,-2.084922\H,0,-1.046564,1.092682,-1.289352\H,0,
 1.027148,-1.146672,1.227425\H,0,-0.566071,-1.185206,2.018469\H,0,-0.56

 Normal termination of Gaussian 16 at Sat Apr  5 23:03:40 2025.
