 Gaussian 16, Revision C.01,

 ----------------------------------------------------------------------
 #t hf aug-cc-pvdz symm=none int=(grid=ultrafine) guess=(read,tcheck) s
 table=(opt,rrhf)
 ----------------------------------------------------------------------
 -----
 title
 -----
 Symbolic Z-matrix:
 Charge =  0 Multiplicity = 1

 SCF Done:  E(RHF) =  -299.574094801     A.U. after   15 cycles
 Normal termination of Gaussian 16 at Sat Apr  5 22:46:01 2025.
 Gaussian 16:  ES64L-G16RevC.01  3-Jul-2019

 ----------------------------------------------------------------------
 #t hf aug-cc-pvdz iop(5/13=1,5/36=2,99/5=2) pseudo=read geom=check gue
 ss=(read,tcheck) scf=(maxcycle=1)
 ----------------------------------------------------------------------
 -----
 title
 -----
 Structure from the checkpoint file:  "N--ethynoxymethanimidamide.chk"
 Charge =  0 Multiplicity = 1

                         Standard orientation:
 ---------------------------------------------------------------------
 Center     Atomic      Atomic             Coordinates (Angstroms)
 Number     Number       Type             X           Y           Z
 ---------------------------------------------------------------------
      1          8           0       -0.689613    0.644791   -0.033712
      2          7           0        0.397947   -0.341322   -0.020979
      3          7           0        2.699526   -0.326539   -0.051220
      4          6           0        1.495578    0.309910    0.018594
      5          6           0       -1.853711    0.076390   -0.000732
      6          6           0       -2.964471   -0.373779    0.028776
      7          1           0        3.498737    0.148468    0.328845
      8          1           0        2.698373   -1.329150    0.048330
      9          1           0        1.518689    1.394723    0.066269
     10          1           0       -3.945580   -0.772460    0.051811
 ---------------------------------------------------------------------

 SCF Done:  E(RHF) =  -299.669103675     A.U. after    2 cycles

 The electronic state is 1-A.
 Alpha  occ. eigenvalues --  -20.65048 -15.69096 -15.67259 -11.35634 -11.29345
 Alpha  occ. eigenvalues --  -11.21883  -1.41533  -1.25418  -1.13101  -0.99629
 Alpha  occ. eigenvalues --   -0.85082  -0.79589  -0.72613  -0.69700  -0.68003
 Alpha  occ. eigenvalues --   -0.65910  -0.64262  -0.54836  -0.47909  -0.40480
 Alpha  occ. eigenvalues --   -0.38040  -0.34951
 Alpha virt. eigenvalues --    0.02180   0.03735   0.04539   0.06252   0.08223
 Alpha virt. eigenvalues --    0.10358   0.11743   0.11952   0.12963   0.13690
 Alpha virt. eigenvalues --    0.14336   0.15433   0.15813   0.16014   0.17078

 Mulliken charges:
               1
     1  O   -0.425032
     2  N   -0.265241
     3  N   -0.211816
     4  C    1.006865
     5  C   -0.437762
     6  C    0.968545
     7  H    0.015013
     8  H   -0.008486
     9  H   -0.179554
    10  H   -0.462532
 Sum of Mulliken charges =  -0.00000

 Dipole moment (field-independent basis, Debye):
    X=              4.4711    Y=              0.3742    Z=              0.8873  Tot=              4.5736

 Test job not archived.
 1\1\GINC-SE187\SP\RHF\Aug-CC-pVDZ\C3H4N2O1\OHZDE\05-Apr-2025\0\\#t hf
 aug-cc-pvdz iop(5/13=1,5/36=2,99/5=2) pseudo=read geom=check guess=(re
 ad,tcheck) scf=(maxcycle=1)\\title\\0,1\O,0,-0.689613,0.644791,-0.0337
 12\N,0,0.397947,-0.341322,-0.020979\N,0,2.699526,-0.326539,-0.05122\C,
 0,1.495578,0.30991,0.018594\C,0,-1.853711,0.07639,-0.000732\C,0,-2.964
 471,-0.373779,0.028776\H,0,3.498737,0.148468,0.328845\H,0,2.698373,-1.
 32915,0.04833\H,0,1.518689,1.394723,0.066269\H,0,-3.94558,-0.77246,0.0
 51811\\Version=ES64L-G16RevC.01\State=1-A\HF=-299.6691037\RMSD=4.983e-

 Normal termination of Gaussian 16 at Sat Apr  5 22:47:04 2025.
