 Gaussian 16, Revision C.01,

 ----------------------------------------------------------------------
 #t hf aug-cc-pvdz symm=none int=(grid=ultrafine) guess=(read,tcheck) s
 table=(opt,rrhf)
 ----------------------------------------------------------------------
 -----
 title
 -----
 Symbolic Z-matrix:
 Charge =  0 Multiplicity = 1

 SCF Done:  E(RHF) =  -262.989913464     A.U. after   13 cycles
 Normal termination of Gaussian 16 at Sat Apr  5 22:45:59 2025.
 Gaussian 16:  ES64L-G16RevC.01  3-Jul-2019

 ----------------------------------------------------------------------
 #t hf aug-cc-pvdz iop(5/13=1,5/36=2,99/5=2) pseudo=read geom=check gue
 ss=(read,tcheck) scf=(maxcycle=1)
 ----------------------------------------------------------------------
 -----
 title
 -----
 Structure from the checkpoint file:  "N--methylformic_hydrazide.chk"
 Charge =  0 Multiplicity = 1

                         Standard orientation:
 ---------------------------------------------------------------------
 Center     Atomic      Atomic             Coordinates (Angstroms)
 Number     Number       Type             X           Y           Z
 ---------------------------------------------------------------------
      1          6           0       -1.389634    0.299814   -0.198766
      2          6           0        1.952053   -0.334792   -0.368307
      3          7           0       -0.126016    0.752446    0.062428
      4          7           0        0.873407   -0.070871    0.575294
      5          8           0       -1.831251   -0.798313    0.032910
      6          1           0       -1.989676    1.107143   -0.659469
      7          1           0        2.420897    0.574948   -0.769208
      8          1           0        1.565322   -0.922739   -1.199271
      9          1           0        2.715072   -0.922090    0.141351
     10          1           0        0.119098    1.672856   -0.284035
     11          1           0        1.213038    0.315233    1.445736
 ---------------------------------------------------------------------

 SCF Done:  E(RHF) =  -263.073625691     A.U. after    2 cycles

 The electronic state is 1-A.
 Alpha  occ. eigenvalues --  -20.54030 -15.68301 -15.66231 -11.36416 -11.27230
 Alpha  occ. eigenvalues --   -1.35234  -1.27033  -1.09379  -0.92213  -0.81259
 Alpha  occ. eigenvalues --   -0.75973  -0.69123  -0.65405  -0.62171  -0.59474
 Alpha  occ. eigenvalues --   -0.55865  -0.55365  -0.44447  -0.41044  -0.40338
 Alpha virt. eigenvalues --    0.02429   0.03609   0.04282   0.05206   0.07298
 Alpha virt. eigenvalues --    0.07688   0.10171   0.11435   0.13325   0.13900
 Alpha virt. eigenvalues --    0.14668   0.15399   0.16761   0.16844   0.18436

 Mulliken charges:
               1
     1  C    0.776466
     2  C    0.853899
     3  N   -0.123996
     4  N   -0.393616
     5  O   -0.443699
     6  H   -0.176708
     7  H   -0.103204
     8  H   -0.160515
     9  H   -0.183805
    10  H   -0.070264
    11  H    0.025443
 Sum of Mulliken charges =   0.00000

 Dipole moment (field-independent basis, Debye):
    X=              3.4348    Y=              4.1593    Z=             -0.7135  Tot=              5.4412

 Test job not archived.
 1\1\GINC-SE225\SP\RHF\Aug-CC-pVDZ\C2H6N2O1\OHZDE\05-Apr-2025\0\\#t hf
 aug-cc-pvdz iop(5/13=1,5/36=2,99/5=2) pseudo=read geom=check guess=(re
 ad,tcheck) scf=(maxcycle=1)\\title\\0,1\C,0,-1.389634,0.299814,-0.1987
 66\C,0,1.952053,-0.334792,-0.368307\N,0,-0.126016,0.752446,0.062428\N,
 0,0.873407,-0.070871,0.575294\O,0,-1.831251,-0.798313,0.03291\H,0,-1.9
 89676,1.107143,-0.659469\H,0,2.420897,0.574948,-0.769208\H,0,1.565322,
 -0.922739,-1.199271\H,0,2.715072,-0.92209,0.141351\H,0,0.119098,1.6728
 56,-0.284035\H,0,1.213038,0.315233,1.445736\\Version=ES64L-G16RevC.01\

 Normal termination of Gaussian 16 at Sat Apr  5 22:47:04 2025.
