 Gaussian 16, Revision C.01,

 ----------------------------------------------------------------------
 #t hf aug-cc-pvdz symm=none int=(grid=ultrafine) guess=(read,tcheck) s
 table=(opt,rrhf)
 ----------------------------------------------------------------------
 -----
 title
 -----
 Symbolic Z-matrix:
 Charge =  0 Multiplicity = 1

 SCF Done:  E(RHF) =  -323.938800866     A.U. after   14 cycles
 Normal termination of Gaussian 16 at Sat Apr  5 22:46:28 2025.
 Gaussian 16:  ES64L-G16RevC.01  3-Jul-2019

 ----------------------------------------------------------------------
 #t hf aug-cc-pvdz iop(5/13=1,5/36=2,99/5=2) pseudo=read geom=check gue
 ss=(read,tcheck) scf=(maxcycle=1)
 ----------------------------------------------------------------------
 -----
 title
 -----
 Structure from the checkpoint file:  "N-1E-1-propen-1-ylacetamide.chk"
 Charge =  0 Multiplicity = 1

                         Standard orientation:
 ---------------------------------------------------------------------
 Center     Atomic      Atomic             Coordinates (Angstroms)
 Number     Number       Type             X           Y           Z
 ---------------------------------------------------------------------
      1          6           0       -1.936874   -0.817158    0.000000
      2          6           0       -0.619074   -0.628886    0.000000
      3          6           0        1.363850    0.795633    0.000000
      4          6           0       -2.590378   -2.163353    0.000000
      5          6           0        1.836552    2.234079    0.000000
      6          7           0        0.000000    0.623665    0.000000
      7          8           0        2.140869   -0.141131    0.000000
      8          1           0       -2.595791    0.047326    0.000000
      9          1           0        0.088707   -1.445676    0.000000
     10          1           0       -3.229377   -2.296211    0.877032
     11          1           0       -3.229377   -2.296211   -0.877032
     12          1           0       -1.850634   -2.963831    0.000000
     13          1           0        2.460883    2.395109   -0.878171
     14          1           0        2.460883    2.395109    0.878171
     15          1           0        1.027080    2.963093    0.000000
     16          1           0       -0.583780    1.442786    0.000000
 ---------------------------------------------------------------------

 SCF Done:  E(RHF) =  -324.042191608     A.U. after    2 cycles

 The electronic state is 1-A'.
 Alpha  occ. eigenvalues --  -20.53769 -15.66518 -11.37167 -11.27976 -11.25326
 Alpha  occ. eigenvalues --  -11.23730 -11.23367  -1.35259  -1.21733  -1.06236
 Alpha  occ. eigenvalues --   -1.00498  -0.92790  -0.80368  -0.79709  -0.69085
 Alpha  occ. eigenvalues --   -0.68531  -0.62948  -0.60972  -0.58413  -0.57561
 Alpha  occ. eigenvalues --   -0.57278  -0.54433  -0.54268  -0.51331  -0.46934
 Alpha  occ. eigenvalues --   -0.44390  -0.32438
 Alpha virt. eigenvalues --    0.02604   0.03685   0.04545   0.05511   0.06391
 Alpha virt. eigenvalues --    0.06465   0.06484   0.08430   0.08693   0.11160
 Alpha virt. eigenvalues --    0.11793   0.12032   0.12651   0.13959   0.14194

 Mulliken charges:
               1
     1  C    0.669423
     2  C    0.495885
     3  C    0.225153
     4  C    0.165355
     5  C    0.458142
     6  N   -0.256206
     7  O   -0.550349
     8  H   -0.559131
     9  H   -0.434403
    10  H    0.040503
    11  H    0.040503
    12  H   -0.114985
    13  H    0.040478
    14  H    0.040478
    15  H   -0.160196
    16  H   -0.100650
 Sum of Mulliken charges =  -0.00000

 Dipole moment (field-independent basis, Debye):
    X=             -2.7938    Y=              3.0126    Z=              0.0000  Tot=              4.1086

 Test job not archived.
 1\1\GINC-SE225\SP\RHF\Aug-CC-pVDZ\C5H9N1O1\OHZDE\05-Apr-2025\0\\#t hf
 aug-cc-pvdz iop(5/13=1,5/36=2,99/5=2) pseudo=read geom=check guess=(re
 ad,tcheck) scf=(maxcycle=1)\\title\\0,1\C,0,-1.936874,-0.817158,0.\C,0
 ,-0.619074,-0.628886,0.\C,0,1.36385,0.795633,0.\C,0,-2.590379,-2.16335
 2,0.\C,0,1.836552,2.234079,0.\N,0,0.,0.623665,0.\O,0,2.140869,-0.14113
 1,0.\H,0,-2.595791,0.047327,0.\H,0,0.088707,-1.445676,0.\H,0,-3.229378
 ,-2.29621,0.877032\H,0,-3.229378,-2.29621,-0.877032\H,0,-1.850635,-2.9
 63831,0.\H,0,2.460883,2.395108,-0.878171\H,0,2.460883,2.395108,0.87817

 Normal termination of Gaussian 16 at Sat Apr  5 22:47:06 2025.
