 Gaussian 16, Revision C.01,

 ----------------------------------------------------------------------
 #t hf aug-cc-pvdz symm=none int=(grid=ultrafine) guess=(read,tcheck) s
 table=(opt,rrhf)
 ----------------------------------------------------------------------
 -----
 title
 -----
 Symbolic Z-matrix:
 Charge =  0 Multiplicity = 1

 SCF Done:  E(RHF) =  -453.574309933     A.U. after   15 cycles
 Normal termination of Gaussian 16 at Sat Apr  5 22:48:25 2025.
 Gaussian 16:  ES64L-G16RevC.01  3-Jul-2019

 ----------------------------------------------------------------------
 #t hf aug-cc-pvdz iop(5/13=1,5/36=2,99/5=2) pseudo=read geom=check gue
 ss=(read,tcheck) scf=(maxcycle=1)
 ----------------------------------------------------------------------
 -----
 title
 -----
 Structure from the checkpoint file:  "N-4-pyridinylacetamide.chk"
 Charge =  0 Multiplicity = 1

                         Standard orientation:
 ---------------------------------------------------------------------
 Center     Atomic      Atomic             Coordinates (Angstroms)
 Number     Number       Type             X           Y           Z
 ---------------------------------------------------------------------
      1          6           0        1.276347   -0.143704    0.000000
      2          6           0       -0.094534    1.815947    0.000000
      3          6           0        2.368941    0.714696    0.000000
      4          6           0        1.065879    2.570549    0.000000
      5          6           0       -0.000000    0.420948    0.000000
      6          6           0       -1.364098   -1.686589    0.000000
      7          6           0       -2.811083   -2.138228    0.000000
      8          7           0        2.292696    2.045547    0.000000
      9          7           0       -1.189731   -0.317431    0.000000
     10          8           0       -0.446472   -2.481401    0.000000
     11          1           0        1.408310   -1.211468    0.000000
     12          1           0       -1.059712    2.307235    0.000000
     13          1           0        3.368384    0.294912    0.000000
     14          1           0        1.004291    3.652813    0.000000
     15          1           0       -2.977485   -2.760972    0.878119
     16          1           0       -2.977485   -2.760972   -0.878119
     17          1           0       -3.532976   -1.322843    0.000000
     18          1           0       -2.031016    0.233980    0.000000
 ---------------------------------------------------------------------

 SCF Done:  E(RHF) =  -453.710401137     A.U. after    2 cycles

 The electronic state is 1-A'.
 Alpha  occ. eigenvalues --  -20.55553 -15.68567 -15.62237 -11.38905 -11.32218
 Alpha  occ. eigenvalues --  -11.28789 -11.28450 -11.26442 -11.25195 -11.24072
 Alpha  occ. eigenvalues --   -1.37065  -1.25058  -1.22040  -1.07828  -1.03130
 Alpha  occ. eigenvalues --   -1.00854  -0.88478  -0.86636  -0.80013  -0.74962
 Alpha  occ. eigenvalues --   -0.70712  -0.66819  -0.65501  -0.64479  -0.63903
 Alpha  occ. eigenvalues --   -0.61308  -0.60030  -0.57874  -0.57400  -0.53537
 Alpha  occ. eigenvalues --   -0.52599  -0.47613  -0.45940  -0.41179  -0.35390
 Alpha  occ. eigenvalues --   -0.34713
 Alpha virt. eigenvalues --    0.01947   0.03467   0.04477   0.05273   0.05526
 Alpha virt. eigenvalues --    0.06094   0.07724   0.08168   0.08343   0.10335
 Alpha virt. eigenvalues --    0.10822   0.11349   0.11398   0.11866   0.12253

 Mulliken charges:
               1
     1  C    1.615639
     2  C    1.332880
     3  C    0.170795
     4  C    0.292968
     5  C   -0.814580
     6  C    0.108148
     7  C    0.617511
     8  N   -0.411577
     9  N   -0.377734
    10  O   -0.524499
    11  H   -0.568727
    12  H   -0.625655
    13  H   -0.327292
    14  H   -0.332839
    15  H    0.036696
    16  H    0.036696
    17  H   -0.185890
    18  H   -0.042539
 Sum of Mulliken charges =  -0.00000

 Dipole moment (field-independent basis, Debye):
    X=             -5.1756    Y=              0.8753    Z=             -0.0000  Tot=              5.2491

 Test job not archived.
 1\1\GINC-SE041\SP\RHF\Aug-CC-pVDZ\C7H8N2O1\OHZDE\05-Apr-2025\0\\#t hf
 aug-cc-pvdz iop(5/13=1,5/36=2,99/5=2) pseudo=read geom=check guess=(re
 ad,tcheck) scf=(maxcycle=1)\\title\\0,1\C,0,1.276347,-0.143704,0.\C,0,
 -0.094534,1.815947,0.\C,0,2.368941,0.714696,0.\C,0,1.065879,2.570549,0
 .\C,0,0.,0.420948,0.\C,0,-1.364098,-1.686589,0.\C,0,-2.811083,-2.13822
 8,0.\N,0,2.292696,2.045547,0.\N,0,-1.189731,-0.317431,0.\O,0,-0.446472
 ,-2.481401,0.\H,0,1.40831,-1.211468,0.\H,0,-1.059712,2.307235,0.\H,0,3
 .368384,0.294912,0.\H,0,1.004291,3.652813,0.\H,0,-2.977485,-2.760972,0

 Normal termination of Gaussian 16 at Sat Apr  5 22:48:40 2025.
