 Gaussian 16, Revision C.01,

 ----------------------------------------------------------------------
 #t hf aug-cc-pvdz symm=none int=(grid=ultrafine) guess=(read,tcheck) s
 table=(opt,rrhf)
 ----------------------------------------------------------------------
 -----
 title
 -----
 Symbolic Z-matrix:
 Charge =  0 Multiplicity = 1

 SCF Done:  E(RHF) =  -359.801244630     A.U. after   13 cycles
 Normal termination of Gaussian 16 at Sat Apr  5 22:47:49 2025.
 Gaussian 16:  ES64L-G16RevC.01  3-Jul-2019

 ----------------------------------------------------------------------
 #t hf aug-cc-pvdz iop(5/13=1,5/36=2,99/5=2) pseudo=read geom=check gue
 ss=(read,tcheck) scf=(maxcycle=1)
 ----------------------------------------------------------------------
 -----
 title
 -----
 Structure from the checkpoint file:  "N-acetylacetamide.chk"
 Charge =  0 Multiplicity = 1

                         Standard orientation:
 ---------------------------------------------------------------------
 Center     Atomic      Atomic             Coordinates (Angstroms)
 Number     Number       Type             X           Y           Z
 ---------------------------------------------------------------------
      1          6           0        0.000000    1.265036   -0.119107
      2          6           0       -0.000000   -1.265036   -0.119107
      3          6           0        0.000000    2.401004    0.887119
      4          6           0       -0.000000   -2.401004    0.887119
      5          7           0       -0.000000   -0.000000    0.490686
      6          8           0        0.000000    1.434626   -1.309734
      7          8           0       -0.000000   -1.434626   -1.309734
      8          1           0        0.000000    3.342860    0.347946
      9          1           0       -0.882484    2.352586    1.527823
     10          1           0        0.882484    2.352586    1.527823
     11          1           0       -0.882484   -2.352586    1.527823
     12          1           0        0.882484   -2.352586    1.527823
     13          1           0       -0.000000   -3.342860    0.347946
     14          1           0       -0.000000   -0.000000    1.497619
 ---------------------------------------------------------------------

 SCF Done:  E(RHF) =  -359.915987813     A.U. after    2 cycles

 The electronic state is 1-A1.
 Alpha  occ. eigenvalues --  -20.55669 -20.55669 -15.67867 -11.38432 -11.38425
 Alpha  occ. eigenvalues --  -11.26209 -11.26206  -1.38024  -1.35642  -1.21604
 Alpha  occ. eigenvalues --   -1.03853  -1.00006  -0.85712  -0.77937  -0.71277
 Alpha  occ. eigenvalues --   -0.68746  -0.65360  -0.63318  -0.61743  -0.61645
 Alpha  occ. eigenvalues --   -0.59296  -0.57235  -0.55632  -0.52004  -0.48038
 Alpha  occ. eigenvalues --   -0.43373  -0.43138
 Alpha virt. eigenvalues --    0.01969   0.03606   0.03941   0.04996   0.06473
 Alpha virt. eigenvalues --    0.06754   0.07991   0.08652   0.10719   0.11560
 Alpha virt. eigenvalues --    0.12523   0.12578   0.13666   0.14173   0.15487

 Mulliken charges:
               1
     1  C    0.389885
     2  C    0.389885
     3  C    0.298860
     4  C    0.298860
     5  N   -0.439123
     6  O   -0.433272
     7  O   -0.433272
     8  H   -0.060908
     9  H    0.020428
    10  H    0.020428
    11  H    0.020428
    12  H    0.020428
    13  H   -0.060908
    14  H   -0.031719
 Sum of Mulliken charges =  -0.00000

 Dipole moment (field-independent basis, Debye):
    X=              0.0000    Y=              0.0000    Z=              7.3720  Tot=              7.3720

 Test job not archived.
 1\1\GINC-SE190\SP\RHF\Aug-CC-pVDZ\C4H7N1O2\OHZDE\05-Apr-2025\0\\#t hf
 aug-cc-pvdz iop(5/13=1,5/36=2,99/5=2) pseudo=read geom=check guess=(re
 ad,tcheck) scf=(maxcycle=1)\\title\\0,1\C,0,0.,1.265036,-0.119107\C,0,
 0.,-1.265036,-0.119107\C,0,0.,2.401004,0.887119\C,0,0.,-2.401004,0.887
 119\N,0,0.,0.,0.490686\O,0,0.,1.434626,-1.309734\O,0,0.,-1.434626,-1.3
 09734\H,0,0.,3.34286,0.347946\H,0,-0.882484,2.352586,1.527823\H,0,0.88
 2484,2.352586,1.527823\H,0,-0.882484,-2.352586,1.527823\H,0,0.882484,-
 2.352586,1.527823\H,0,0.,-3.34286,0.347946\H,0,0.,0.,1.497619\\Version

 Normal termination of Gaussian 16 at Sat Apr  5 22:48:01 2025.
