 Gaussian 16, Revision C.01,

 ----------------------------------------------------------------------
 #t hf aug-cc-pvdz symm=none int=(grid=ultrafine) guess=(read,tcheck) s
 table=(opt,rrhf)
 ----------------------------------------------------------------------
 -----
 title
 -----
 Symbolic Z-matrix:
 Charge =  0 Multiplicity = 1

 SCF Done:  E(RHF) =  -677.306485142     A.U. after   16 cycles
 Normal termination of Gaussian 16 at Sat Apr  5 22:48:16 2025.
 Gaussian 16:  ES64L-G16RevC.01  3-Jul-2019

 ----------------------------------------------------------------------
 #t hf aug-cc-pvdz iop(5/13=1,5/36=2,99/5=2) pseudo=read geom=check gue
 ss=(read,tcheck) scf=(maxcycle=1)
 ----------------------------------------------------------------------
 -----
 title
 -----
 Structure from the checkpoint file:  "N-azido-2-3-dihydro-1-2-thiazole.chk"
 Charge =  0 Multiplicity = 1

                         Standard orientation:
 ---------------------------------------------------------------------
 Center     Atomic      Atomic             Coordinates (Angstroms)
 Number     Number       Type             X           Y           Z
 ---------------------------------------------------------------------
      1         16           0        0.865517   -1.220324    0.000033
      2          7           0       -0.472803   -0.109850    0.001005
      3          7           0       -1.693397   -0.595410   -0.000089
      4          7           0       -2.596092    0.285480   -0.000471
      5          6           0       -0.129116    1.320148    0.000374
      6          6           0        1.958652    0.149745   -0.000464
      7          6           0        1.366917    1.340992   -0.000208
      8          1           0       -3.475838   -0.230300   -0.001183
      9          1           0       -0.574130    1.802666   -0.877164
     10          1           0       -0.573436    1.803341    0.877870
     11          1           0        3.018570   -0.049441   -0.000901
     12          1           0        1.913894    2.272063   -0.000472
 ---------------------------------------------------------------------

 SCF Done:  E(RHF) =  -677.411787961     A.U. after    2 cycles

 The electronic state is 1-A.
 Alpha  occ. eigenvalues --  -93.58929 -15.74445 -15.69618 -15.64990 -11.29635
 Alpha  occ. eigenvalues --  -11.29229 -11.26631  -8.88364  -6.22569  -6.22334
 Alpha  occ. eigenvalues --   -6.21833  -1.36942  -1.20693  -1.08730  -1.01290
 Alpha  occ. eigenvalues --   -0.93203  -0.79385  -0.77363  -0.70886  -0.66582
 Alpha  occ. eigenvalues --   -0.65913  -0.62323  -0.57729  -0.55242  -0.53463
 Alpha  occ. eigenvalues --   -0.49676  -0.47579  -0.40478  -0.38908  -0.29938
 Alpha virt. eigenvalues --    0.02985   0.04060   0.04669   0.05536   0.06300
 Alpha virt. eigenvalues --    0.07951   0.09666   0.11123   0.11387   0.12000
 Alpha virt. eigenvalues --    0.13434   0.13645   0.14654   0.14715   0.14880

 Mulliken charges:
               1
     1  S    0.673987
     2  N   -0.506895
     3  N   -0.021323
     4  N   -0.223391
     5  C    0.757929
     6  C   -0.252435
     7  C    0.399885
     8  H    0.021611
     9  H   -0.092995
    10  H   -0.093290
    11  H   -0.366771
    12  H   -0.296313
 Sum of Mulliken charges =  -0.00000

 Dipole moment (field-independent basis, Debye):
    X=              1.9060    Y=              1.2365    Z=             -0.0013  Tot=              2.2719

 Test job not archived.
 1\1\GINC-SE052\SP\RHF\Aug-CC-pVDZ\C3H5N3S1\OHZDE\05-Apr-2025\0\\#t hf
 aug-cc-pvdz iop(5/13=1,5/36=2,99/5=2) pseudo=read geom=check guess=(re
 ad,tcheck) scf=(maxcycle=1)\\title\\0,1\S,0,0.865517,-1.220324,0.00003
 3\N,0,-0.472803,-0.10985,0.001005\N,0,-1.693397,-0.59541,-0.000089\N,0
 ,-2.596092,0.285481,-0.000471\C,0,-0.129116,1.320148,0.000374\C,0,1.95
 8652,0.149745,-0.000464\C,0,1.366917,1.340992,-0.000208\H,0,-3.475838,
 -0.230299,-0.001183\H,0,-0.57413,1.802666,-0.877164\H,0,-0.573436,1.80
 3341,0.87787\H,0,3.01857,-0.049442,-0.000901\H,0,1.913895,2.272063,-0.

 Normal termination of Gaussian 16 at Sat Apr  5 22:48:21 2025.
