 Gaussian 16, Revision C.01,

 ----------------------------------------------------------------------
 #t hf aug-cc-pvdz symm=none int=(grid=ultrafine) guess=(read,tcheck) s
 table=(opt,rrhf)
 ----------------------------------------------------------------------
 -----
 title
 -----
 Symbolic Z-matrix:
 Charge =  0 Multiplicity = 1

 SCF Done:  E(RHF) =  -368.498033445     A.U. after   12 cycles

 1\1\GINC-SE115\Stability\RHF\Aug-CC-pVDZ\C8H19N1\OHZDE\05-Apr-2025\0\\
 #t hf aug-cc-pvdz symm=none int=(grid=ultrafine) guess=(read,tcheck) s
 table=(opt,rrhf)\\title\\0,1\C,0,-0.455055,0.007781,5.01409\C,0,-0.455
 055,0.007781,-5.01409\C,0,0.435676,-0.020717,3.773122\C,0,0.435676,-0.
 020717,-3.773122\C,0,-0.355461,0.027942,2.465843\C,0,-0.355461,0.02794
 2,-2.465843\C,0,0.527885,-0.001819,1.223683\C,0,0.527885,-0.001819,-1.
 223683\N,0,-0.261779,0.067908,0.\H,0,0.13597,-0.027454,5.930256\H,0,-1
 .060071,0.916136,5.043881\H,0,-1.138956,-0.843381,5.027731\H,0,0.13597

 Normal termination of Gaussian 16 at Sat Apr  5 22:50:04 2025.
 Gaussian 16:  ES64L-G16RevC.01  3-Jul-2019

 ----------------------------------------------------------------------
 #t hf aug-cc-pvdz iop(5/13=1,5/36=2,99/5=2) pseudo=read geom=check gue
 ss=(read,tcheck) scf=(maxcycle=1)
 ----------------------------------------------------------------------
 -----
 title
 -----
 Structure from the checkpoint file:  "N-butyl-1-butanamine.chk"
 Charge =  0 Multiplicity = 1

                         Standard orientation:
 ---------------------------------------------------------------------
 Center     Atomic      Atomic             Coordinates (Angstroms)
 Number     Number       Type             X           Y           Z
 ---------------------------------------------------------------------
      1          6           0       -0.455055    0.007781    5.014090
      2          6           0       -0.455055    0.007781   -5.014090
      3          6           0        0.435676   -0.020717    3.773122
      4          6           0        0.435676   -0.020717   -3.773122
      5          6           0       -0.355461    0.027942    2.465843
      6          6           0       -0.355461    0.027942   -2.465843
      7          6           0        0.527885   -0.001819    1.223683
      8          6           0        0.527885   -0.001819   -1.223683
      9          7           0       -0.261779    0.067908   -0.000000
     10          1           0        0.135970   -0.027454    5.930256
     11          1           0       -1.060071    0.916136    5.043881
     12          1           0       -1.138956   -0.843381    5.027731
     13          1           0        0.135970   -0.027454   -5.930256
     14          1           0       -1.138956   -0.843381   -5.027731
     15          1           0       -1.060071    0.916136   -5.043881
     16          1           0        1.130138    0.824101    3.804951
     17          1           0        1.054579   -0.922676    3.790225
     18          1           0        1.054579   -0.922676   -3.790225
     19          1           0        1.130138    0.824101   -3.804951
     20          1           0       -1.049164   -0.820022    2.434262
     21          1           0       -0.971786    0.930230    2.437138
     22          1           0       -0.971786    0.930230   -2.437138
     23          1           0       -1.049164   -0.820022   -2.434262
     24          1           0        1.201869    0.860165    1.235204
     25          1           0        1.172318   -0.897454    1.253831
     26          1           0        1.172318   -0.897454   -1.253831
     27          1           0        1.201869    0.860165   -1.235204
     28          1           0       -0.953883   -0.672892   -0.000000
 ---------------------------------------------------------------------

 SCF Done:  E(RHF) =  -368.615122776     A.U. after    2 cycles

 The electronic state is 1-A'.
 Alpha  occ. eigenvalues --  -15.59880 -11.25028 -11.25023 -11.22599 -11.22598
 Alpha  occ. eigenvalues --  -11.22207 -11.22203 -11.22024 -11.22023  -1.17166
 Alpha  occ. eigenvalues --   -1.06730  -1.04483  -0.98060  -0.93238  -0.85483
 Alpha  occ. eigenvalues --   -0.82273  -0.79877  -0.78457  -0.66929  -0.64107
 Alpha  occ. eigenvalues --   -0.62208  -0.61101  -0.59982  -0.57068  -0.56775
 Alpha  occ. eigenvalues --   -0.56458  -0.52719  -0.52422  -0.50548  -0.49254
 Alpha  occ. eigenvalues --   -0.48550  -0.47276  -0.47157  -0.46718  -0.46206
 Alpha  occ. eigenvalues --   -0.44629  -0.35723
 Alpha virt. eigenvalues --    0.03613   0.03637   0.04009   0.04391   0.05104
 Alpha virt. eigenvalues --    0.05557   0.05776   0.06638   0.06902   0.07059
 Alpha virt. eigenvalues --    0.07511   0.07851   0.09075   0.09602   0.10314

 Mulliken charges:
               1
     1  C    0.497790
     2  C    0.497790
     3  C    0.445386
     4  C    0.445386
     5  C    0.281367
     6  C    0.281367
     7  C    0.438567
     8  C    0.438567
     9  N   -0.636119
    10  H   -0.063971
    11  H   -0.083325
    12  H   -0.094752
    13  H   -0.063971
    14  H   -0.094752
    15  H   -0.083325
    16  H   -0.146878
    17  H   -0.148793
    18  H   -0.148793
    19  H   -0.146878
    20  H   -0.191079
    21  H   -0.150287
    22  H   -0.150287
    23  H   -0.191079
    24  H   -0.279273
    25  H   -0.207962
    26  H   -0.207962
    27  H   -0.279273
    28  H    0.042541
 Sum of Mulliken charges =  -0.00000

 Dipole moment (field-independent basis, Debye):
    X=              0.3984    Y=             -0.8419    Z=              0.0000  Tot=              0.9314

 Test job not archived.
 1\1\GINC-SE115\SP\RHF\Aug-CC-pVDZ\C8H19N1\OHZDE\05-Apr-2025\0\\#t hf a
 ug-cc-pvdz iop(5/13=1,5/36=2,99/5=2) pseudo=read geom=check guess=(rea
 d,tcheck) scf=(maxcycle=1)\\title\\0,1\C,0,-0.455055,0.007781,5.01409\
 C,0,-0.455055,0.007781,-5.01409\C,0,0.435676,-0.020717,3.773122\C,0,0.
 435676,-0.020717,-3.773122\C,0,-0.355461,0.027942,2.465843\C,0,-0.3554
 61,0.027942,-2.465843\C,0,0.527885,-0.001819,1.223683\C,0,0.527885,-0.
 001819,-1.223683\N,0,-0.261779,0.067908,0.\H,0,0.13597,-0.027454,5.930
 256\H,0,-1.060071,0.916136,5.043881\H,0,-1.138956,-0.843381,5.027731\H

 Normal termination of Gaussian 16 at Sat Apr  5 22:50:14 2025.
