 Gaussian 16, Revision C.01,

 ----------------------------------------------------------------------
 #t hf aug-cc-pvdz symm=none int=(grid=ultrafine) guess=(read,tcheck) s
 table=(opt,rrhf)
 ----------------------------------------------------------------------
 -----
 title
 -----
 Symbolic Z-matrix:
 Charge =  0 Multiplicity = 1

 SCF Done:  E(RHF) =  -758.594042926     A.U. after   15 cycles
 Normal termination of Gaussian 16 at Sat Apr  5 22:47:35 2025.
 Gaussian 16:  ES64L-G16RevC.01  3-Jul-2019

 ----------------------------------------------------------------------
 #t hf aug-cc-pvdz iop(5/13=1,5/36=2,99/5=2) pseudo=read geom=check gue
 ss=(read,tcheck) scf=(maxcycle=1)
 ----------------------------------------------------------------------
 -----
 title
 -----
 Structure from the checkpoint file:  "N-chloro-N-cyanomethylformamide.chk"
 Charge =  0 Multiplicity = 1

                         Standard orientation:
 ---------------------------------------------------------------------
 Center     Atomic      Atomic             Coordinates (Angstroms)
 Number     Number       Type             X           Y           Z
 ---------------------------------------------------------------------
      1         17           0       -0.701864    1.462003   -0.034783
      2          8           0       -2.283438   -0.979375   -0.549331
      3          7           0       -0.344081   -0.165493    0.372382
      4          7           0        2.914608   -0.191919   -0.838450
      5          6           0        0.978044   -0.423781    0.908893
      6          6           0       -1.224862   -1.151741   -0.010019
      7          6           0        2.060093   -0.287664   -0.076810
      8          1           0        1.172647    0.247397    1.745782
      9          1           0        0.982654   -1.443332    1.297214
     10          1           0       -0.829457   -2.142106    0.273049
 ---------------------------------------------------------------------

 SCF Done:  E(RHF) =  -758.706215497     A.U. after    2 cycles

 The electronic state is 1-A.
 Alpha  occ. eigenvalues -- -103.72750 -20.58360 -15.74513 -15.66917 -11.40765
 Alpha  occ. eigenvalues --  -11.37699 -11.31293 -10.75676  -8.41447  -8.41037
 Alpha  occ. eigenvalues --   -8.40998  -1.39822  -1.30802  -1.22186  -1.14518
 Alpha  occ. eigenvalues --   -1.03821  -0.84940  -0.78221  -0.74494  -0.71917
 Alpha  occ. eigenvalues --   -0.66361  -0.63074  -0.62255  -0.57345  -0.54095
 Alpha  occ. eigenvalues --   -0.51207  -0.50036  -0.48976  -0.48394  -0.42620
 Alpha virt. eigenvalues --    0.01935   0.03597   0.05381   0.05970   0.07201
 Alpha virt. eigenvalues --    0.09371   0.09507   0.10669   0.11350   0.12028
 Alpha virt. eigenvalues --    0.13464   0.13661   0.14113   0.15018   0.15257

 Mulliken charges:
               1
     1  Cl   0.284182
     2  O   -0.399598
     3  N   -0.744219
     4  N   -0.144078
     5  C    0.826038
     6  C    0.710211
     7  C   -0.224342
     8  H   -0.068178
     9  H   -0.043432
    10  H   -0.196584
 Sum of Mulliken charges =  -0.00000

 Dipole moment (field-independent basis, Debye):
    X=              1.1171    Y=             -1.2413    Z=              4.2351  Tot=              4.5525

 Test job not archived.
 1\1\GINC-SE183\SP\RHF\Aug-CC-pVDZ\C3H3Cl1N2O1\OHZDE\05-Apr-2025\0\\#t
 hf aug-cc-pvdz iop(5/13=1,5/36=2,99/5=2) pseudo=read geom=check guess=
 (read,tcheck) scf=(maxcycle=1)\\title\\0,1\Cl,0,-0.701864,1.462003,-0.
 034783\O,0,-2.283438,-0.979375,-0.549331\N,0,-0.344081,-0.165493,0.372
 382\N,0,2.914608,-0.191919,-0.83845\C,0,0.978044,-0.423781,0.908893\C,
 0,-1.224862,-1.151741,-0.010019\C,0,2.060093,-0.287664,-0.07681\H,0,1.
 172647,0.247397,1.745782\H,0,0.982654,-1.443332,1.297214\H,0,-0.829457
 ,-2.142106,0.273049\\Version=ES64L-G16RevC.01\State=1-A\HF=-758.706215

 Normal termination of Gaussian 16 at Sat Apr  5 22:48:00 2025.
