 Gaussian 16, Revision C.01,

 ----------------------------------------------------------------------
 #t hf aug-cc-pvdz symm=none int=(grid=ultrafine) guess=(read,tcheck) s
 table=(opt,rrhf)
 ----------------------------------------------------------------------
 -----
 title
 -----
 Symbolic Z-matrix:
 Charge =  0 Multiplicity = 1

 SCF Done:  E(RHF) =  -817.518964835     A.U. after   13 cycles
 Normal termination of Gaussian 16 at Sat Apr  5 22:48:18 2025.
 Gaussian 16:  ES64L-G16RevC.01  3-Jul-2019

 ----------------------------------------------------------------------
 #t hf aug-cc-pvdz iop(5/13=1,5/36=2,99/5=2) pseudo=read geom=check gue
 ss=(read,tcheck) scf=(maxcycle=1)
 ----------------------------------------------------------------------
 -----
 title
 -----
 Structure from the checkpoint file:  "N-chlorosuccinimide.chk"
 Charge =  0 Multiplicity = 1

                         Standard orientation:
 ---------------------------------------------------------------------
 Center     Atomic      Atomic             Coordinates (Angstroms)
 Number     Number       Type             X           Y           Z
 ---------------------------------------------------------------------
      1          6           0       -0.000029   -1.883915    0.767287
      2          7           0        0.000023    0.323654    0.000000
      3          6           0        0.000000   -0.423893   -1.187980
      4          6           0       -0.000029   -1.883915   -0.767287
      5          6           0        0.000000   -0.423893    1.187980
      6         17           0        0.000020    2.020882    0.000000
      7          1           0        0.876572   -2.363854   -1.200021
      8          1           0       -0.876661   -2.363803   -1.200016
      9          1           0        0.876572   -2.363854    1.200021
     10          1           0       -0.876661   -2.363803    1.200016
     11          8           0        0.000000    0.033027   -2.295994
     12          8           0        0.000000    0.033027    2.295994
 ---------------------------------------------------------------------

 SCF Done:  E(RHF) =  -817.648724331     A.U. after    2 cycles

 The electronic state is 1-A'.
 Alpha  occ. eigenvalues -- -103.72247 -20.58470 -20.58470 -15.74196 -11.40953
 Alpha  occ. eigenvalues --  -11.40943 -11.29100 -11.29050 -10.75150  -8.40935
 Alpha  occ. eigenvalues --   -8.40497  -8.40471  -1.41114  -1.39105  -1.29608
 Alpha  occ. eigenvalues --   -1.17228  -1.05702  -0.97289  -0.86826  -0.78237
 Alpha  occ. eigenvalues --   -0.71594  -0.71463  -0.69478  -0.64643  -0.63306
 Alpha  occ. eigenvalues --   -0.62694  -0.61129  -0.59029  -0.53130  -0.52751
 Alpha  occ. eigenvalues --   -0.50614  -0.49413  -0.45796  -0.42722
 Alpha virt. eigenvalues --    0.02416   0.04042   0.04621   0.06111   0.06862
 Alpha virt. eigenvalues --    0.08420   0.09316   0.09566   0.10700   0.11561
 Alpha virt. eigenvalues --    0.11946   0.14076   0.14364   0.14366   0.15156

 Mulliken charges:
               1
     1  C    0.128776
     2  N   -0.860226
     3  C    0.514612
     4  C    0.128776
     5  C    0.514612
     6  Cl   0.383504
     7  H    0.023025
     8  H    0.023033
     9  H    0.023025
    10  H    0.023033
    11  O   -0.451085
    12  O   -0.451085
 Sum of Mulliken charges =  -0.00000

 Dipole moment (field-independent basis, Debye):
    X=             -0.0001    Y=             -4.0183    Z=              0.0000  Tot=              4.0183

 Test job not archived.
 1\1\GINC-SE188\SP\RHF\Aug-CC-pVDZ\C4H4Cl1N1O2\OHZDE\05-Apr-2025\0\\#t
 hf aug-cc-pvdz iop(5/13=1,5/36=2,99/5=2) pseudo=read geom=check guess=
 (read,tcheck) scf=(maxcycle=1)\\title\\0,1\C,0,-0.000029,-1.883915,0.7
 67287\N,0,0.000023,0.323654,0.\C,0,0.,-0.423893,-1.18798\C,0,-0.000029
 ,-1.883915,-0.767287\C,0,0.,-0.423893,1.18798\Cl,0,0.00002,2.020882,0.
 \H,0,0.876572,-2.363854,-1.200021\H,0,-0.876661,-2.363803,-1.200016\H,
 0,0.876572,-2.363854,1.200021\H,0,-0.876661,-2.363803,1.200016\O,0,0.,
 0.033027,-2.295994\O,0,0.,0.033027,2.295994\\Version=ES64L-G16RevC.01\

 Normal termination of Gaussian 16 at Sat Apr  5 22:48:23 2025.
