 Gaussian 16, Revision C.01,

 ----------------------------------------------------------------------
 #t hf aug-cc-pvdz symm=none int=(grid=ultrafine) guess=(read,tcheck) s
 table=(opt,rrhf)
 ----------------------------------------------------------------------
 -----
 title
 -----
 Symbolic Z-matrix:
 Charge =  0 Multiplicity = 1

 SCF Done:  E(RHF) =  -738.723799819     A.U. after   15 cycles
 Normal termination of Gaussian 16 at Sat Apr  5 22:48:14 2025.
 Gaussian 16:  ES64L-G16RevC.01  3-Jul-2019

 ----------------------------------------------------------------------
 #t hf aug-cc-pvdz iop(5/13=1,5/36=2,99/5=2) pseudo=read geom=check gue
 ss=(read,tcheck) scf=(maxcycle=1)
 ----------------------------------------------------------------------
 -----
 title
 -----
 Structure from the checkpoint file:  "N-chloro-N-cyano-N--methylimidoformamide.chk"
 Charge =  0 Multiplicity = 1

                         Standard orientation:
 ---------------------------------------------------------------------
 Center     Atomic      Atomic             Coordinates (Angstroms)
 Number     Number       Type             X           Y           Z
 ---------------------------------------------------------------------
      1         17           0       -0.857697    1.572767    0.000268
      2          7           0       -0.570057   -0.129205   -0.000081
      3          7           0        1.743589    0.140834    0.000082
      4          7           0       -2.544730   -1.638675   -0.000357
      5          6           0        0.749729   -0.615993   -0.000106
      6          6           0       -1.632177   -0.928384   -0.000224
      7          6           0        3.070199   -0.442365    0.000029
      8          1           0        0.755182   -1.709286   -0.000314
      9          1           0        3.613291   -0.089928    0.877506
     10          1           0        3.613351   -0.089629   -0.877292
     11          1           0        3.070905   -1.538419   -0.000158
 ---------------------------------------------------------------------

 SCF Done:  E(RHF) =  -738.828769482     A.U. after    2 cycles

 The electronic state is 1-A.
 Alpha  occ. eigenvalues -- -103.73545 -15.76452 -15.65767 -15.64864 -11.37092
 Alpha  occ. eigenvalues --  -11.34509 -11.28316 -10.76414  -8.42186  -8.41752
 Alpha  occ. eigenvalues --   -8.41714  -1.34585  -1.23424  -1.20645  -1.12769
 Alpha  occ. eigenvalues --   -0.98769  -0.86799  -0.79152  -0.69237  -0.66824
 Alpha  occ. eigenvalues --   -0.65703  -0.61019  -0.58372  -0.56791  -0.52022
 Alpha  occ. eigenvalues --   -0.51485  -0.48468  -0.47921  -0.43915  -0.38238
 Alpha virt. eigenvalues --    0.02817   0.04372   0.04782   0.05280   0.06384
 Alpha virt. eigenvalues --    0.08367   0.08480   0.09650   0.11682   0.11848
 Alpha virt. eigenvalues --    0.12684   0.13154   0.14603   0.15187   0.15214

 Mulliken charges:
               1
     1  Cl   0.381895
     2  N   -0.510324
     3  N   -0.455109
     4  N   -0.061949
     5  C    1.086243
     6  C   -0.460695
     7  C    0.722204
     8  H   -0.382964
     9  H   -0.123395
    10  H   -0.123390
    11  H   -0.072516
 Sum of Mulliken charges =  -0.00000

 Dipole moment (field-independent basis, Debye):
    X=              3.6319    Y=             -0.0026    Z=              0.0001  Tot=              3.6319

 Test job not archived.
 1\1\GINC-SE179\SP\RHF\Aug-CC-pVDZ\C3H4Cl1N3\OHZDE\05-Apr-2025\0\\#t hf
  aug-cc-pvdz iop(5/13=1,5/36=2,99/5=2) pseudo=read geom=check guess=(r
 ead,tcheck) scf=(maxcycle=1)\\title\\0,1\Cl,0,-0.857697,1.572767,0.000
 268\N,0,-0.570057,-0.129205,-0.000081\N,0,1.743589,0.140834,0.000082\N
 ,0,-2.54473,-1.638675,-0.000357\C,0,0.749729,-0.615993,-0.000106\C,0,-
 1.632177,-0.928384,-0.000224\C,0,3.070199,-0.442365,0.000029\H,0,0.755
 182,-1.709286,-0.000314\H,0,3.613291,-0.089928,0.877506\H,0,3.613351,-
 0.089629,-0.877292\H,0,3.070905,-1.538419,-0.000158\\Version=ES64L-G16

 Normal termination of Gaussian 16 at Sat Apr  5 22:48:19 2025.
