 Gaussian 16, Revision C.01,

 ----------------------------------------------------------------------
 #t hf aug-cc-pvdz symm=none int=(grid=ultrafine) guess=(read,tcheck) s
 table=(opt,rrhf)
 ----------------------------------------------------------------------
 -----
 title
 -----
 Symbolic Z-matrix:
 Charge =  0 Multiplicity = 1

 SCF Done:  E(RHF) =  -1178.32919937     A.U. after   15 cycles
 Normal termination of Gaussian 16 at Sat Apr  5 22:48:10 2025.
 Gaussian 16:  ES64L-G16RevC.01  3-Jul-2019

 ----------------------------------------------------------------------
 #t hf aug-cc-pvdz iop(5/13=1,5/36=2,99/5=2) pseudo=read geom=check gue
 ss=(read,tcheck) scf=(maxcycle=1)
 ----------------------------------------------------------------------
 -----
 title
 -----
 Structure from the checkpoint file:  "N-chlorocysteine.chk"
 Charge =  0 Multiplicity = 1

                         Standard orientation:
 ---------------------------------------------------------------------
 Center     Atomic      Atomic             Coordinates (Angstroms)
 Number     Number       Type             X           Y           Z
 ---------------------------------------------------------------------
      1         17           0        1.560711    1.893407   -0.220108
      2         16           0       -2.790812    0.329751   -0.047708
      3          8           0        1.341983   -2.035398   -1.015709
      4          8           0        1.598920   -1.268082    1.083308
      5          7           0        0.161310    1.041443    0.439465
      6          6           0       -0.069935   -0.213443   -0.269978
      7          6           0        1.035385   -1.265596   -0.146657
      8          6           0       -1.382089   -0.820778    0.246351
      9          1           0       -3.701568   -0.633058   -0.277035
     10          1           0        2.276249   -1.960533    1.095104
     11          1           0        0.436799    0.846291    1.397865
     12          1           0       -0.173273    0.009303   -1.329322
     13          1           0       -1.303752   -1.040723    1.310335
     14          1           0       -1.570111   -1.748572   -0.287123
 ---------------------------------------------------------------------

 SCF Done:  E(RHF) =  -1178.46602758     A.U. after    2 cycles

 The electronic state is 1-A.
 Alpha  occ. eigenvalues -- -103.68951 -93.54881 -20.64896 -20.58843 -15.70711
 Alpha  occ. eigenvalues --  -11.42095 -11.32241 -11.30209 -10.71963  -8.84569
 Alpha  occ. eigenvalues --   -8.37709  -8.37351  -8.37325  -6.18740  -6.18507
 Alpha  occ. eigenvalues --   -6.18155  -1.44933  -1.35233  -1.26233  -1.12462
 Alpha  occ. eigenvalues --   -1.02961  -0.96660  -0.88038  -0.84205  -0.74586
 Alpha  occ. eigenvalues --   -0.73535  -0.67689  -0.66655  -0.64928  -0.63763
 Alpha  occ. eigenvalues --   -0.59514  -0.56024  -0.54908  -0.53968  -0.52043
 Alpha  occ. eigenvalues --   -0.48879  -0.47713  -0.46589  -0.41333  -0.36966
 Alpha virt. eigenvalues --    0.02808   0.03874   0.04817   0.05677   0.06408
 Alpha virt. eigenvalues --    0.06987   0.08025   0.09572   0.10383   0.11407
 Alpha virt. eigenvalues --    0.12444   0.12698   0.13378   0.14401   0.14670

 Mulliken charges:
               1
     1  Cl   0.153282
     2  S    0.415653
     3  O   -0.492663
     4  O   -0.581474
     5  N   -0.654267
     6  C    0.602027
     7  C    0.629646
     8  C   -0.066406
     9  H    0.044184
    10  H    0.200488
    11  H    0.160389
    12  H   -0.218004
    13  H   -0.074125
    14  H   -0.118730
 Sum of Mulliken charges =  -0.00000

 Dipole moment (field-independent basis, Debye):
    X=             -0.3546    Y=             -2.0795    Z=              2.3178  Tot=              3.1341

 Test job not archived.
 1\1\GINC-SE183\SP\RHF\Aug-CC-pVDZ\C3H6Cl1N1O2S1\OHZDE\05-Apr-2025\0\\#
 t hf aug-cc-pvdz iop(5/13=1,5/36=2,99/5=2) pseudo=read geom=check gues
 s=(read,tcheck) scf=(maxcycle=1)\\title\\0,1\Cl,0,1.560711,1.893407,-0
 .220108\S,0,-2.790812,0.329751,-0.047708\O,0,1.341983,-2.035398,-1.015
 709\O,0,1.59892,-1.268082,1.083308\N,0,0.16131,1.041443,0.439465\C,0,-
 0.069935,-0.213443,-0.269978\C,0,1.035385,-1.265596,-0.146657\C,0,-1.3
 82089,-0.820778,0.246351\H,0,-3.701568,-0.633058,-0.277035\H,0,2.27624
 9,-1.960533,1.095104\H,0,0.436799,0.846291,1.397865\H,0,-0.173273,0.00

 Normal termination of Gaussian 16 at Sat Apr  5 22:48:17 2025.
