 Gaussian 16, Revision C.01,

 ----------------------------------------------------------------------
 #t hf aug-cc-pvdz symm=none int=(grid=ultrafine) guess=(read,tcheck) s
 table=(opt,rrhf)
 ----------------------------------------------------------------------
 -----
 title
 -----
 Symbolic Z-matrix:
 Charge =  0 Multiplicity = 1

 SCF Done:  E(RHF) =  -1003.06032824     A.U. after   14 cycles
 Normal termination of Gaussian 16 at Sat Apr  5 22:48:10 2025.
 Gaussian 16:  ES64L-G16RevC.01  3-Jul-2019

 ----------------------------------------------------------------------
 #t hf aug-cc-pvdz iop(5/13=1,5/36=2,99/5=2) pseudo=read geom=check gue
 ss=(read,tcheck) scf=(maxcycle=1)
 ----------------------------------------------------------------------
 -----
 title
 -----
 Structure from the checkpoint file:  "N-disulfanylacetamide.chk"
 Charge =  0 Multiplicity = 1

                         Standard orientation:
 ---------------------------------------------------------------------
 Center     Atomic      Atomic             Coordinates (Angstroms)
 Number     Number       Type             X           Y           Z
 ---------------------------------------------------------------------
      1         16           0       -0.977841    0.897750    0.426091
      2         16           0       -2.081995   -0.635586   -0.451951
      3          8           0        1.307860   -0.949315    1.030107
      4          7           0        0.582338    0.797816   -0.241341
      5          6           0        1.521372   -0.149599    0.148699
      6          6           0        2.812887   -0.107552   -0.640961
      7          1           0       -1.741791   -1.618901    0.408674
      8          1           0        0.761070    1.334091   -1.076406
      9          1           0        2.715102   -0.758963   -1.511499
     10          1           0        3.614677   -0.492310   -0.016893
     11          1           0        3.063516    0.894181   -0.987999
 ---------------------------------------------------------------------

 SCF Done:  E(RHF) =  -1003.17053190     A.U. after    2 cycles

 The electronic state is 1-A.
 Alpha  occ. eigenvalues --  -93.60497 -93.56804 -20.55536 -15.68357 -11.38367
 Alpha  occ. eigenvalues --  -11.26162  -8.89648  -8.86465  -6.23823  -6.23474
 Alpha  occ. eigenvalues --   -6.23099  -6.20562  -6.20349  -6.20010  -1.36840
 Alpha  occ. eigenvalues --   -1.21420  -1.04463  -0.99574  -0.87791  -0.79565
 Alpha  occ. eigenvalues --   -0.70561  -0.66163  -0.64042  -0.61093  -0.57906
 Alpha  occ. eigenvalues --   -0.55788  -0.54376  -0.49321  -0.46005  -0.41652
 Alpha  occ. eigenvalues --   -0.38933  -0.37771
 Alpha virt. eigenvalues --    0.02845   0.04520   0.04704   0.05833   0.06588
 Alpha virt. eigenvalues --    0.07635   0.09735   0.10354   0.11572   0.12081
 Alpha virt. eigenvalues --    0.12763   0.13283   0.14058   0.14343   0.15353

 Mulliken charges:
               1
     1  S    0.390548
     2  S   -0.134317
     3  O   -0.494421
     4  N   -0.582365
     5  C    0.454811
     6  C    0.274506
     7  H    0.171315
     8  H   -0.071406
     9  H    0.061704
    10  H   -0.003363
    11  H   -0.067012
 Sum of Mulliken charges =  -0.00000

 Dipole moment (field-independent basis, Debye):
    X=              1.7998    Y=              1.5336    Z=             -2.9430  Tot=              3.7752

 Test job not archived.
 1\1\GINC-SE225\SP\RHF\Aug-CC-pVDZ\C2H5N1O1S2\OHZDE\05-Apr-2025\0\\#t h
 f aug-cc-pvdz iop(5/13=1,5/36=2,99/5=2) pseudo=read geom=check guess=(
 read,tcheck) scf=(maxcycle=1)\\title\\0,1\S,0,-0.977841,0.89775,0.4260
 91\S,0,-2.081995,-0.635586,-0.451951\O,0,1.30786,-0.949315,1.030107\N,
 0,0.582338,0.797816,-0.241341\C,0,1.521372,-0.149599,0.148699\C,0,2.81
 2887,-0.107552,-0.640961\H,0,-1.741791,-1.618901,0.408674\H,0,0.76107,
 1.334091,-1.076406\H,0,2.715102,-0.758963,-1.511499\H,0,3.614677,-0.49
 231,-0.016893\H,0,3.063516,0.894181,-0.987999\\Version=ES64L-G16RevC.0

 Normal termination of Gaussian 16 at Sat Apr  5 22:48:15 2025.
