 Gaussian 16, Revision C.01,

 ----------------------------------------------------------------------
 #t hf aug-cc-pvdz symm=none int=(grid=ultrafine) guess=(read,tcheck) s
 table=(opt,rrhf)
 ----------------------------------------------------------------------
 -----
 title
 -----
 Symbolic Z-matrix:
 Charge =  0 Multiplicity = 1

 SCF Done:  E(RHF) =  -703.551335183     A.U. after   15 cycles
 Normal termination of Gaussian 16 at Sat Apr  5 22:47:30 2025.
 Gaussian 16:  ES64L-G16RevC.01  3-Jul-2019

 ----------------------------------------------------------------------
 #t hf aug-cc-pvdz iop(5/13=1,5/36=2,99/5=2) pseudo=read geom=check gue
 ss=(read,tcheck) scf=(maxcycle=1)
 ----------------------------------------------------------------------
 -----
 title
 -----
 Structure from the checkpoint file:  "N-ethynylcarbamoyl_chloride.chk"
 Charge =  0 Multiplicity = 1

                         Standard orientation:
 ---------------------------------------------------------------------
 Center     Atomic      Atomic             Coordinates (Angstroms)
 Number     Number       Type             X           Y           Z
 ---------------------------------------------------------------------
      1         17           0        2.020286   -0.360915    0.000049
      2          8           0        0.203450    1.555974   -0.000169
      3          7           0       -0.574181   -0.605015    0.000072
      4          6           0        0.376440    0.384407   -0.000039
      5          6           0       -1.897702   -0.346943    0.000026
      6          6           0       -3.075438   -0.133700   -0.000002
      7          1           0       -0.254865   -1.560965    0.000162
      8          1           0       -4.118136    0.061245   -0.000060
 ---------------------------------------------------------------------

 SCF Done:  E(RHF) =  -703.648805649     A.U. after    2 cycles

 The electronic state is 1-A.
 Alpha  occ. eigenvalues -- -103.69489 -20.60546 -15.72793 -11.46551 -11.30822
 Alpha  occ. eigenvalues --  -11.26391 -10.72801  -8.38516  -8.38203  -8.38201
 Alpha  occ. eigenvalues --   -1.43004  -1.27949  -1.18126  -1.04152  -0.89048
 Alpha  occ. eigenvalues --   -0.81557  -0.73995  -0.72394  -0.66735  -0.66662
 Alpha  occ. eigenvalues --   -0.53973  -0.51711  -0.49970  -0.49188  -0.43248
 Alpha  occ. eigenvalues --   -0.38573
 Alpha virt. eigenvalues --    0.02932   0.03850   0.07455   0.09121   0.09675
 Alpha virt. eigenvalues --    0.10047   0.10373   0.11654   0.12089   0.13487
 Alpha virt. eigenvalues --    0.13578   0.14309   0.15826   0.16080   0.16445

 Mulliken charges:
               1
     1  Cl  -0.104355
     2  O   -0.309887
     3  N   -0.110190
     4  C    0.336999
     5  C   -0.664854
     6  C    1.257340
     7  H    0.009788
     8  H   -0.414842
 Sum of Mulliken charges =  -0.00000

 Dipole moment (field-independent basis, Debye):
    X=             -1.2385    Y=             -3.1989    Z=              0.0003  Tot=              3.4302

 Test job not archived.
 1\1\GINC-SE198\SP\RHF\Aug-CC-pVDZ\C3H2Cl1N1O1\OHZDE\05-Apr-2025\0\\#t
 hf aug-cc-pvdz iop(5/13=1,5/36=2,99/5=2) pseudo=read geom=check guess=
 (read,tcheck) scf=(maxcycle=1)\\title\\0,1\Cl,0,2.020286,-0.360915,0.0
 00049\O,0,0.20345,1.555974,-0.000169\N,0,-0.574181,-0.605015,0.000072\
 C,0,0.37644,0.384407,-0.000039\C,0,-1.897702,-0.346943,0.000026\C,0,-3
 .075438,-0.1337,-0.000002\H,0,-0.254865,-1.560965,0.000162\H,0,-4.1181
 36,0.061245,-0.00006\\Version=ES64L-G16RevC.01\State=1-A\HF=-703.64880
 56\RMSD=6.401e-03\Dipole=-0.4872583,-1.2585272,0.0001118\Quadrupole=3.

 Normal termination of Gaussian 16 at Sat Apr  5 22:47:59 2025.
