 Gaussian 16, Revision C.01,

 ----------------------------------------------------------------------
 #t hf aug-cc-pvdz symm=none int=(grid=ultrafine) guess=(read,tcheck) s
 table=(opt,rrhf)
 ----------------------------------------------------------------------
 -----
 title
 -----
 Symbolic Z-matrix:
 Charge =  0 Multiplicity = 1

 SCF Done:  E(RHF) =  -363.839092038     A.U. after   15 cycles

 1\1\GINC-SE231\Stability\RHF\Aug-CC-pVDZ\C8H11N1\OHZDE\05-Apr-2025\0\\
 #t hf aug-cc-pvdz symm=none int=(grid=ultrafine) guess=(read,tcheck) s
 table=(opt,rrhf)\\title\\0,1\C,0,2.85544,0.252651,0.039517\C,0,1.95525
 1,1.308154,-0.00683\C,0,2.360141,-1.050018,0.041527\C,0,0.583533,1.082
 28,-0.050241\C,0,0.997959,-1.289253,-0.005941\C,0,0.08029,-0.226157,-0
 .05636\C,0,-3.683656,-0.105023,0.0191\C,0,-2.294319,0.511126,0.087695\
 N,0,-1.276349,-0.497538,-0.143162\H,0,3.919858,0.436494,0.075585\H,0,2
 .318186,2.327791,-0.005576\H,0,3.043134,-1.888633,0.080058\H,0,-0.0905

 Normal termination of Gaussian 16 at Sat Apr  5 22:48:48 2025.
 Gaussian 16:  ES64L-G16RevC.01  3-Jul-2019

 ----------------------------------------------------------------------
 #t hf aug-cc-pvdz iop(5/13=1,5/36=2,99/5=2) pseudo=read geom=check gue
 ss=(read,tcheck) scf=(maxcycle=1)
 ----------------------------------------------------------------------
 -----
 title
 -----
 Structure from the checkpoint file:  "N-ethylaniline.chk"
 Charge =  0 Multiplicity = 1

                         Standard orientation:
 ---------------------------------------------------------------------
 Center     Atomic      Atomic             Coordinates (Angstroms)
 Number     Number       Type             X           Y           Z
 ---------------------------------------------------------------------
      1          6           0        2.855440    0.252651    0.039517
      2          6           0        1.955251    1.308154   -0.006830
      3          6           0        2.360141   -1.050018    0.041527
      4          6           0        0.583533    1.082280   -0.050241
      5          6           0        0.997959   -1.289253   -0.005941
      6          6           0        0.080290   -0.226157   -0.056360
      7          6           0       -3.683656   -0.105023    0.019100
      8          6           0       -2.294319    0.511126    0.087695
      9          7           0       -1.276349   -0.497538   -0.143162
     10          1           0        3.919858    0.436494    0.075585
     11          1           0        2.318186    2.327791   -0.005576
     12          1           0        3.043134   -1.888633    0.080058
     13          1           0       -0.090520    1.925367   -0.082058
     14          1           0        0.628256   -2.307784   -0.011219
     15          1           0       -3.861554   -0.559934   -0.955872
     16          1           0       -3.812010   -0.873971    0.784186
     17          1           0       -4.445779    0.655703    0.185234
     18          1           0       -2.153505    1.006369    1.058333
     19          1           0       -2.204125    1.287273   -0.676443
     20          1           0       -1.535324   -1.428467    0.139104
 ---------------------------------------------------------------------

 SCF Done:  E(RHF) =  -363.949711293     A.U. after    2 cycles

 The electronic state is 1-A.
 Alpha  occ. eigenvalues --  -15.62599 -11.28492 -11.27183 -11.24024 -11.23973
 Alpha  occ. eigenvalues --  -11.23571 -11.22862 -11.22675 -11.22288  -1.21217
 Alpha  occ. eigenvalues --   -1.12213  -1.02829  -1.00352  -0.96053  -0.86300
 Alpha  occ. eigenvalues --   -0.82268  -0.79780  -0.71468  -0.66830  -0.65116
 Alpha  occ. eigenvalues --   -0.63925  -0.60937  -0.58779  -0.58323  -0.54231
 Alpha  occ. eigenvalues --   -0.54123  -0.51736  -0.50567  -0.49827  -0.48435
 Alpha  occ. eigenvalues --   -0.42058  -0.33694  -0.28449
 Alpha virt. eigenvalues --    0.03246   0.03688   0.03885   0.04986   0.05382
 Alpha virt. eigenvalues --    0.05565   0.07040   0.07350   0.07863   0.09374
 Alpha virt. eigenvalues --    0.10030   0.11061   0.11571   0.12163   0.13282

 Mulliken charges:
               1
     1  C    0.519226
     2  C    0.769422
     3  C    0.539467
     4  C    0.091418
     5  C    0.639585
     6  C    0.412054
     7  C    0.336207
     8  C    0.800038
     9  N   -0.646480
    10  H   -0.464001
    11  H   -0.468851
    12  H   -0.449401
    13  H   -0.707649
    14  H   -0.638887
    15  H   -0.010071
    16  H   -0.072913
    17  H   -0.058284
    18  H   -0.229979
    19  H   -0.290226
    20  H   -0.070675
 Sum of Mulliken charges =   0.00000

 Dipole moment (field-independent basis, Debye):
    X=             -1.7074    Y=             -0.2615    Z=              0.5265  Tot=              1.8058

 Test job not archived.
 1\1\GINC-SE231\SP\RHF\Aug-CC-pVDZ\C8H11N1\OHZDE\05-Apr-2025\0\\#t hf a
 ug-cc-pvdz iop(5/13=1,5/36=2,99/5=2) pseudo=read geom=check guess=(rea
 d,tcheck) scf=(maxcycle=1)\\title\\0,1\C,0,2.85544,0.252651,0.039517\C
 ,0,1.955251,1.308154,-0.00683\C,0,2.360141,-1.050018,0.041527\C,0,0.58
 3533,1.08228,-0.050241\C,0,0.997959,-1.289253,-0.005941\C,0,0.08029,-0
 .226157,-0.05636\C,0,-3.683656,-0.105023,0.0191\C,0,-2.294319,0.511126
 ,0.087695\N,0,-1.276349,-0.497538,-0.143162\H,0,3.919858,0.436494,0.07
 5585\H,0,2.318186,2.327791,-0.005576\H,0,3.043134,-1.888633,0.080058\H

 Normal termination of Gaussian 16 at Sat Apr  5 22:48:59 2025.
