 Gaussian 16, Revision C.01,

 ----------------------------------------------------------------------
 #t hf aug-cc-pvdz symm=none int=(grid=ultrafine) guess=(read,tcheck) s
 table=(opt,rrhf)
 ----------------------------------------------------------------------
 -----
 title
 -----
 Symbolic Z-matrix:
 Charge =  0 Multiplicity = 1

 SCF Done:  E(RHF) =  -207.528981218     A.U. after   13 cycles
 Normal termination of Gaussian 16 at Sat Apr  5 22:47:29 2025.
 Gaussian 16:  ES64L-G16RevC.01  3-Jul-2019

 ----------------------------------------------------------------------
 #t hf aug-cc-pvdz iop(5/13=1,5/36=2,99/5=2) pseudo=read geom=check gue
 ss=(read,tcheck) scf=(maxcycle=1)
 ----------------------------------------------------------------------
 -----
 title
 -----
 Structure from the checkpoint file:  "N-ethynylacetylenamine.chk"
 Charge =  0 Multiplicity = 1

                         Standard orientation:
 ---------------------------------------------------------------------
 Center     Atomic      Atomic             Coordinates (Angstroms)
 Number     Number       Type             X           Y           Z
 ---------------------------------------------------------------------
      1          7           0       -0.000000    0.712570   -0.000004
      2          6           0        1.187127    0.077814   -0.000007
      3          6           0       -1.187127    0.077815   -0.000007
      4          6           0        2.251031   -0.475403    0.000008
      5          6           0       -2.251031   -0.475403    0.000009
      6          1           0       -0.000000    1.720650    0.000024
      7          1           0        3.189310   -0.968793   -0.000008
      8          1           0       -3.189310   -0.968793   -0.000007
 ---------------------------------------------------------------------

 SCF Done:  E(RHF) =  -207.597544314     A.U. after    2 cycles

 The electronic state is 1-A.
 Alpha  occ. eigenvalues --  -15.70621 -11.29490 -11.29478 -11.24374 -11.24372
 Alpha  occ. eigenvalues --   -1.26157  -1.04190  -1.00283  -0.82894  -0.78286
 Alpha  occ. eigenvalues --   -0.70971  -0.70357  -0.59149  -0.42417  -0.42223
 Alpha  occ. eigenvalues --   -0.41036  -0.33463
 Alpha virt. eigenvalues --    0.03134   0.03740   0.04339   0.10138   0.10550
 Alpha virt. eigenvalues --    0.10729   0.11592   0.11766   0.11952   0.13591
 Alpha virt. eigenvalues --    0.13772   0.14085   0.15051   0.15942   0.18476

 Mulliken charges:
               1
     1  N   -0.238237
     2  C   -0.616333
     3  C   -0.616333
     4  C    1.109947
     5  C    1.109946
     6  H    0.003589
     7  H   -0.376290
     8  H   -0.376290
 Sum of Mulliken charges =  -0.00000

 Dipole moment (field-independent basis, Debye):
    X=              0.0000    Y=              1.0566    Z=             -0.0000  Tot=              1.0566

 Test job not archived.
 1\1\GINC-SE232\SP\RHF\Aug-CC-pVDZ\C4H3N1\OHZDE\05-Apr-2025\0\\#t hf au
 g-cc-pvdz iop(5/13=1,5/36=2,99/5=2) pseudo=read geom=check guess=(read
 ,tcheck) scf=(maxcycle=1)\\title\\0,1\N,0,0.,0.71257,-0.000004\C,0,1.1
 87127,0.077814,-0.000007\C,0,-1.187127,0.077815,-0.000007\C,0,2.251031
 ,-0.475403,0.000008\C,0,-2.251031,-0.475403,0.000009\H,0,0.,1.72065,0.
 000024\H,0,3.18931,-0.968793,-0.000008\H,0,-3.18931,-0.968793,-0.00000
 7\\Version=ES64L-G16RevC.01\State=1-A\HF=-207.5975443\RMSD=6.808e-03\D
 ipole=0.0000015,0.4156984,-0.000005\Quadrupole=2.7692155,1.2710153,-4.

 Normal termination of Gaussian 16 at Sat Apr  5 22:47:58 2025.
