 Gaussian 16, Revision C.01,

 ----------------------------------------------------------------------
 #t hf aug-cc-pvdz symm=none int=(grid=ultrafine) guess=(read,tcheck) s
 table=(opt,rrhf)
 ----------------------------------------------------------------------
 -----
 title
 -----
 Symbolic Z-matrix:
 Charge =  0 Multiplicity = 1

 SCF Done:  E(RHF) =  -381.654026531     A.U. after   14 cycles
 Normal termination of Gaussian 16 at Sat Apr  5 22:47:32 2025.
 Gaussian 16:  ES64L-G16RevC.01  3-Jul-2019

 ----------------------------------------------------------------------
 #t hf aug-cc-pvdz iop(5/13=1,5/36=2,99/5=2) pseudo=read geom=check gue
 ss=(read,tcheck) scf=(maxcycle=1)
 ----------------------------------------------------------------------
 -----
 title
 -----
 Structure from the checkpoint file:  "N-fluoroglycine.chk"
 Charge =  0 Multiplicity = 1

                         Standard orientation:
 ---------------------------------------------------------------------
 Center     Atomic      Atomic             Coordinates (Angstroms)
 Number     Number       Type             X           Y           Z
 ---------------------------------------------------------------------
      1          9           0        2.523812   -0.000530    0.037332
      2          8           0       -1.881341   -1.007854   -0.239265
      3          8           0       -1.539739    1.170779    0.004238
      4          7           0        1.215026   -0.004014   -0.555021
      5          6           0       -1.136839   -0.128298    0.067470
      6          6           0        0.302592   -0.347682    0.537573
      7          1           0       -0.888066    1.766285    0.392635
      8          1           0        1.117050    0.980700   -0.797020
      9          1           0        0.422906   -1.402721    0.762868
     10          1           0        0.502739    0.241088    1.440632
 ---------------------------------------------------------------------

 SCF Done:  E(RHF) =  -381.776284642     A.U. after    2 cycles

 The electronic state is 1-A.
 Alpha  occ. eigenvalues --  -26.14831 -20.65206 -20.58901 -15.75399 -11.42719
 Alpha  occ. eigenvalues --  -11.32360  -1.66174  -1.44690  -1.35957  -1.19690
 Alpha  occ. eigenvalues --   -0.98921  -0.87198  -0.80461  -0.76947  -0.73942
 Alpha  occ. eigenvalues --   -0.71951  -0.70964  -0.67313  -0.64285  -0.62479
 Alpha  occ. eigenvalues --   -0.59131  -0.52394  -0.49456  -0.46976
 Alpha virt. eigenvalues --    0.01859   0.03890   0.05193   0.06154   0.08945
 Alpha virt. eigenvalues --    0.10297   0.11292   0.11604   0.12192   0.12866
 Alpha virt. eigenvalues --    0.13394   0.15992   0.17842   0.18760   0.19040

 Mulliken charges:
               1
     1  F   -0.434364
     2  O   -0.396608
     3  O   -0.495482
     4  N   -0.182177
     5  C    0.629337
     6  C    0.778485
     7  H    0.187825
     8  H    0.120693
     9  H   -0.136820
    10  H   -0.070889
 Sum of Mulliken charges =   0.00000

 Dipole moment (field-independent basis, Debye):
    X=              1.3009    Y=              3.1768    Z=              2.0407  Tot=              3.9936

 Test job not archived.
 1\1\GINC-SE199\SP\RHF\Aug-CC-pVDZ\C2H4F1N1O2\OHZDE\05-Apr-2025\0\\#t h
 f aug-cc-pvdz iop(5/13=1,5/36=2,99/5=2) pseudo=read geom=check guess=(
 read,tcheck) scf=(maxcycle=1)\\title\\0,1\F,0,2.523812,-0.00053,0.0373
 32\O,0,-1.881341,-1.007854,-0.239265\O,0,-1.539739,1.170779,0.004238\N
 ,0,1.215026,-0.004014,-0.555021\C,0,-1.136839,-0.128298,0.06747\C,0,0.
 302592,-0.347682,0.537573\H,0,-0.888066,1.766285,0.392635\H,0,1.11705,
 0.9807,-0.79702\H,0,0.422906,-1.402721,0.762868\H,0,0.502739,0.241088,
 1.440632\\Version=ES64L-G16RevC.01\State=1-A\HF=-381.7762846\RMSD=4.13

 Normal termination of Gaussian 16 at Sat Apr  5 22:47:59 2025.
