 Gaussian 16, Revision C.01,

 ----------------------------------------------------------------------
 #t hf aug-cc-pvdz symm=none int=(grid=ultrafine) guess=(read,tcheck) s
 table=(opt,rrhf)
 ----------------------------------------------------------------------
 -----
 title
 -----
 Symbolic Z-matrix:
 Charge =  0 Multiplicity = 1

 SCF Done:  E(RHF) =  -336.665489630     A.U. after   14 cycles
 Normal termination of Gaussian 16 at Sat Apr  5 22:47:33 2025.
 Gaussian 16:  ES64L-G16RevC.01  3-Jul-2019

 ----------------------------------------------------------------------
 #t hf aug-cc-pvdz iop(5/13=1,5/36=2,99/5=2) pseudo=read geom=check gue
 ss=(read,tcheck) scf=(maxcycle=1)
 ----------------------------------------------------------------------
 -----
 title
 -----
 Structure from the checkpoint file:  "N-formyloxyimidoformamide.chk"
 Charge =  0 Multiplicity = 1

                         Standard orientation:
 ---------------------------------------------------------------------
 Center     Atomic      Atomic             Coordinates (Angstroms)
 Number     Number       Type             X           Y           Z
 ---------------------------------------------------------------------
      1          8           0        0.398686   -0.658181    0.432310
      2          8           0        2.110858    0.540150   -0.435213
      3          7           0       -0.324934    0.558558    0.529684
      4          7           0       -2.184383   -0.564932   -0.359925
      5          6           0        1.635791   -0.499882   -0.069258
      6          6           0       -1.596806    0.501735   -0.024181
      7          1           0        0.269573    1.312628    0.194878
      8          1           0       -3.129950   -0.371180   -0.673543
      9          1           0        2.131567   -1.475260   -0.070979
     10          1           0       -2.016233    1.511565   -0.054807
 ---------------------------------------------------------------------

 SCF Done:  E(RHF) =  -336.771307125     A.U. after    2 cycles

 The electronic state is 1-A.
 Alpha  occ. eigenvalues --  -20.67400 -20.59544 -15.71918 -15.61804 -11.42213
 Alpha  occ. eigenvalues --  -11.34667  -1.47147  -1.37113  -1.22596  -1.12595
 Alpha  occ. eigenvalues --   -0.90246  -0.83583  -0.77487  -0.72941  -0.70950
 Alpha  occ. eigenvalues --   -0.68006  -0.64591  -0.60243  -0.56504  -0.50941
 Alpha  occ. eigenvalues --   -0.49935  -0.43717  -0.39241
 Alpha virt. eigenvalues --    0.03047   0.03976   0.04712   0.07175   0.07791
 Alpha virt. eigenvalues --    0.09746   0.10331   0.12011   0.13573   0.14137
 Alpha virt. eigenvalues --    0.14909   0.15196   0.15840   0.16892   0.18438

 Mulliken charges:
               1
     1  O   -0.524080
     2  O   -0.378410
     3  N   -0.079569
     4  N   -0.331063
     5  C    0.747910
     6  C    0.844436
     7  H    0.103113
     8  H    0.032311
     9  H   -0.179543
    10  H   -0.235105
 Sum of Mulliken charges =  -0.00000

 Dipole moment (field-independent basis, Debye):
    X=             -0.7628    Y=              1.1229    Z=             -0.1586  Tot=              1.3667

 Test job not archived.
 1\1\GINC-SE009\SP\RHF\Aug-CC-pVDZ\C2H4N2O2\OHZDE\05-Apr-2025\0\\#t hf
 aug-cc-pvdz iop(5/13=1,5/36=2,99/5=2) pseudo=read geom=check guess=(re
 ad,tcheck) scf=(maxcycle=1)\\title\\0,1\O,0,0.398686,-0.658181,0.43231
 \O,0,2.110858,0.54015,-0.435213\N,0,-0.324934,0.558558,0.529684\N,0,-2
 .184383,-0.564932,-0.359925\C,0,1.635791,-0.499882,-0.069258\C,0,-1.59
 6806,0.501735,-0.024181\H,0,0.269573,1.312628,0.194878\H,0,-3.12995,-0
 .37118,-0.673543\H,0,2.131567,-1.47526,-0.070979\H,0,-2.016233,1.51156
 5,-0.054807\\Version=ES64L-G16RevC.01\State=1-A\HF=-336.7713071\RMSD=2

 Normal termination of Gaussian 16 at Sat Apr  5 22:47:59 2025.
