 Gaussian 16, Revision C.01,

 ----------------------------------------------------------------------
 #t hf aug-cc-pvdz symm=none int=(grid=ultrafine) guess=(read,tcheck) s
 table=(opt,rrhf)
 ----------------------------------------------------------------------
 -----
 title
 -----
 Symbolic Z-matrix:
 Charge =  0 Multiplicity = 1

 SCF Done:  E(RHF) =  -489.342430486     A.U. after   16 cycles
 Normal termination of Gaussian 16 at Sat Apr  5 22:48:35 2025.
 Gaussian 16:  ES64L-G16RevC.01  3-Jul-2019

 ----------------------------------------------------------------------
 #t hf aug-cc-pvdz iop(5/13=1,5/36=2,99/5=2) pseudo=read geom=check gue
 ss=(read,tcheck) scf=(maxcycle=1)
 ----------------------------------------------------------------------
 -----
 title
 -----
 Structure from the checkpoint file:  "N-hydroxy-3-pyridinecarboximidic_acid.chk"
 Charge =  0 Multiplicity = 1

                         Standard orientation:
 ---------------------------------------------------------------------
 Center     Atomic      Atomic             Coordinates (Angstroms)
 Number     Number       Type             X           Y           Z
 ---------------------------------------------------------------------
      1          6           0       -2.434690    1.007305    0.195988
      2          6           0       -1.066080    1.206618    0.141234
      3          6           0       -2.925749   -0.286900    0.055755
      4          6           0       -0.831663   -1.149867   -0.199198
      5          6           0       -0.234965    0.103590   -0.047113
      6          6           0        1.234805    0.320466   -0.099690
      7          7           0       -2.146220   -1.349895   -0.145302
      8          7           0        2.025184   -0.770786    0.116502
      9          8           0        1.753325    1.403823   -0.352026
     10          8           0        3.394425   -0.509645    0.206692
     11          1           0       -3.113977    1.834745    0.344733
     12          1           0       -0.627372    2.189562    0.238840
     13          1           0       -3.991491   -0.478121    0.101031
     14          1           0       -0.227759   -2.027390   -0.401000
     15          1           0        1.753487   -1.488411    0.769860
     16          1           0        3.422406    0.453688    0.028951
 ---------------------------------------------------------------------

 SCF Done:  E(RHF) =  -489.487473985     A.U. after    2 cycles

 The electronic state is 1-A.
 Alpha  occ. eigenvalues --  -20.62646 -20.56800 -15.71696 -15.65183 -11.39525
 Alpha  occ. eigenvalues --  -11.31526 -11.31079 -11.29116 -11.28144 -11.26995
 Alpha  occ. eigenvalues --   -1.42066  -1.34751  -1.25838  -1.14924  -1.10198
 Alpha  occ. eigenvalues --   -1.05525  -0.91064  -0.88397  -0.84600  -0.77683
 Alpha  occ. eigenvalues --   -0.73189  -0.71974  -0.69367  -0.66337  -0.65141
 Alpha  occ. eigenvalues --   -0.62158  -0.60788  -0.59807  -0.57894  -0.55758
 Alpha  occ. eigenvalues --   -0.54716  -0.48853  -0.43434  -0.41705  -0.40454
 Alpha  occ. eigenvalues --   -0.37340
 Alpha virt. eigenvalues --    0.02783   0.03574   0.04148   0.05488   0.05637
 Alpha virt. eigenvalues --    0.05949   0.06601   0.08105   0.09276   0.09781
 Alpha virt. eigenvalues --    0.11268   0.11712   0.12105   0.12567   0.13718

 Mulliken charges:
               1
     1  C    0.496777
     2  C    0.051608
     3  C    0.575959
     4  C    0.814812
     5  C    0.932416
     6  C    0.184546
     7  N   -0.566934
     8  N    0.064164
     9  O   -0.584209
    10  O   -0.506152
    11  H   -0.373611
    12  H   -0.556604
    13  H   -0.336148
    14  H   -0.453662
    15  H    0.065556
    16  H    0.191482
 Sum of Mulliken charges =  -0.00000

 Dipole moment (field-independent basis, Debye):
    X=             -2.6943    Y=              0.0299    Z=              1.5394  Tot=              3.1032

 Test job not archived.
 1\1\GINC-SE012\SP\RHF\Aug-CC-pVDZ\C6H6N2O2\OHZDE\05-Apr-2025\0\\#t hf
 aug-cc-pvdz iop(5/13=1,5/36=2,99/5=2) pseudo=read geom=check guess=(re
 ad,tcheck) scf=(maxcycle=1)\\title\\0,1\C,0,-2.43469,1.007305,0.195988
 \C,0,-1.06608,1.206618,0.141234\C,0,-2.925749,-0.2869,0.055755\C,0,-0.
 831663,-1.149867,-0.199198\C,0,-0.234965,0.10359,-0.047113\C,0,1.23480
 5,0.320466,-0.09969\N,0,-2.14622,-1.349895,-0.145302\N,0,2.025184,-0.7
 70786,0.116502\O,0,1.753325,1.403823,-0.352026\O,0,3.394425,-0.509645,
 0.206692\H,0,-3.113977,1.834745,0.344733\H,0,-0.627372,2.189562,0.2388

 Normal termination of Gaussian 16 at Sat Apr  5 22:48:44 2025.
