 Gaussian 16, Revision C.01,

 ----------------------------------------------------------------------
 #t hf aug-cc-pvdz symm=none int=(grid=ultrafine) guess=(read,tcheck) s
 table=(opt,rrhf)
 ----------------------------------------------------------------------
 -----
 title
 -----
 Symbolic Z-matrix:
 Charge =  0 Multiplicity = 1

 SCF Done:  E(RHF) =  -321.850245179     A.U. after   15 cycles
 Normal termination of Gaussian 16 at Sat Apr  5 22:47:44 2025.
 Gaussian 16:  ES64L-G16RevC.01  3-Jul-2019

 ----------------------------------------------------------------------
 #t hf aug-cc-pvdz iop(5/13=1,5/36=2,99/5=2) pseudo=read geom=check gue
 ss=(read,tcheck) scf=(maxcycle=1)
 ----------------------------------------------------------------------
 -----
 title
 -----
 Structure from the checkpoint file:  "N-hydroxy-N-methylacetamide.chk"
 Charge =  0 Multiplicity = 1

                         Standard orientation:
 ---------------------------------------------------------------------
 Center     Atomic      Atomic             Coordinates (Angstroms)
 Number     Number       Type             X           Y           Z
 ---------------------------------------------------------------------
      1          6           0        0.691531   -0.351810   -0.035843
      2          6           0        1.785942    0.685648    0.044153
      3          6           0       -1.753536   -0.709923    0.070079
      4          7           0       -0.596467    0.122694   -0.200791
      5          8           0        0.907289   -1.549850   -0.004258
      6          8           0       -0.805591    1.479569    0.133264
      7          1           0        2.738393    0.164728    0.040895
      8          1           0        1.688929    1.273709    0.956539
      9          1           0        1.741301    1.381719   -0.792856
     10          1           0       -2.070590   -0.610444    1.110769
     11          1           0       -1.471281   -1.739112   -0.127674
     12          1           0       -2.574605   -0.421529   -0.584996
     13          1           0       -1.034080    1.910829   -0.699522
 ---------------------------------------------------------------------

 SCF Done:  E(RHF) =  -321.952857634     A.U. after    2 cycles

 The electronic state is 1-A.
 Alpha  occ. eigenvalues --  -20.63690 -20.54236 -15.70327 -11.36988 -11.27306
 Alpha  occ. eigenvalues --  -11.24534  -1.40412  -1.34423  -1.14129  -1.01925
 Alpha  occ. eigenvalues --   -0.93051  -0.78467  -0.73005  -0.69593  -0.67612
 Alpha  occ. eigenvalues --   -0.61396  -0.59752  -0.59116  -0.57706  -0.55536
 Alpha  occ. eigenvalues --   -0.54042  -0.52111  -0.44371  -0.39515
 Alpha virt. eigenvalues --    0.02778   0.04192   0.04735   0.05332   0.06883
 Alpha virt. eigenvalues --    0.07498   0.07843   0.09701   0.12396   0.12905
 Alpha virt. eigenvalues --    0.13385   0.14956   0.15900   0.16136   0.16560

 Mulliken charges:
               1
     1  C    0.370210
     2  C    0.337851
     3  C    0.842815
     4  N   -0.324792
     5  O   -0.521497
     6  O   -0.552065
     7  H   -0.054730
     8  H    0.068647
     9  H    0.019197
    10  H   -0.088737
    11  H   -0.130021
    12  H   -0.174953
    13  H    0.208076
 Sum of Mulliken charges =  -0.00000

 Dipole moment (field-independent basis, Debye):
    X=             -1.5200    Y=              3.1346    Z=             -1.0972  Tot=              3.6524

 Test job not archived.
 1\1\GINC-SE014\SP\RHF\Aug-CC-pVDZ\C3H7N1O2\OHZDE\05-Apr-2025\0\\#t hf
 aug-cc-pvdz iop(5/13=1,5/36=2,99/5=2) pseudo=read geom=check guess=(re
 ad,tcheck) scf=(maxcycle=1)\\title\\0,1\C,0,0.691531,-0.35181,-0.03584
 3\C,0,1.785942,0.685648,0.044153\C,0,-1.753536,-0.709923,0.070079\N,0,
 -0.596467,0.122694,-0.200791\O,0,0.907289,-1.54985,-0.004258\O,0,-0.80
 5591,1.479569,0.133264\H,0,2.738393,0.164728,0.040895\H,0,1.688929,1.2
 73709,0.956539\H,0,1.741301,1.381719,-0.792856\H,0,-2.07059,-0.610444,
 1.110769\H,0,-1.471281,-1.739112,-0.127674\H,0,-2.574605,-0.421529,-0.

 Normal termination of Gaussian 16 at Sat Apr  5 22:48:00 2025.
