 Gaussian 16, Revision C.01,

 ----------------------------------------------------------------------
 #t hf aug-cc-pvdz symm=none int=(grid=ultrafine) guess=(read,tcheck) s
 table=(opt,rrhf)
 ----------------------------------------------------------------------
 -----
 title
 -----
 Symbolic Z-matrix:
 Charge =  0 Multiplicity = 1

 SCF Done:  E(RHF) =  -243.766052625     A.U. after   14 cycles
 Normal termination of Gaussian 16 at Sat Apr  5 22:47:26 2025.
 Gaussian 16:  ES64L-G16RevC.01  3-Jul-2019

 ----------------------------------------------------------------------
 #t hf aug-cc-pvdz iop(5/13=1,5/36=2,99/5=2) pseudo=read geom=check gue
 ss=(read,tcheck) scf=(maxcycle=1)
 ----------------------------------------------------------------------
 -----
 title
 -----
 Structure from the checkpoint file:  "N-hydroxyformamide.chk"
 Charge =  0 Multiplicity = 1

                         Standard orientation:
 ---------------------------------------------------------------------
 Center     Atomic      Atomic             Coordinates (Angstroms)
 Number     Number       Type             X           Y           Z
 ---------------------------------------------------------------------
      1          6           0       -0.776157    0.482170    0.010862
      2          7           0        0.561163    0.638019   -0.078048
      3          8           0       -1.303837   -0.617381    0.001319
      4          8           0        1.345896   -0.512290    0.011708
      5          1           0       -1.318051    1.436615    0.052353
      6          1           0        1.043410    1.455182    0.258679
      7          1           0        0.666967   -1.213576    0.065911
 ---------------------------------------------------------------------

 SCF Done:  E(RHF) =  -243.843882628     A.U. after    2 cycles

 The electronic state is 1-A.
 Alpha  occ. eigenvalues --  -20.63503 -20.56798 -15.72406 -11.38941  -1.42309
 Alpha  occ. eigenvalues --   -1.34918  -1.14500  -0.87599  -0.78463  -0.72423
 Alpha  occ. eigenvalues --   -0.66561  -0.63643  -0.61422  -0.55706  -0.48148
 Alpha  occ. eigenvalues --   -0.41164
 Alpha virt. eigenvalues --    0.02663   0.04663   0.05600   0.08438   0.11051
 Alpha virt. eigenvalues --    0.12699   0.14191   0.15312   0.15945   0.17965
 Alpha virt. eigenvalues --    0.18288   0.21369   0.22883   0.24339   0.24963

 Mulliken charges:
               1
     1  C    0.769353
     2  N    0.104332
     3  O   -0.482311
     4  O   -0.488051
     5  H   -0.147665
     6  H    0.051084
     7  H    0.193258
 Sum of Mulliken charges =  -0.00000

 Dipole moment (field-independent basis, Debye):
    X=              0.7458    Y=              3.3138    Z=              0.7173  Tot=              3.4715

 Test job not archived.
 1\1\GINC-SE045\SP\RHF\Aug-CC-pVDZ\C1H3N1O2\OHZDE\05-Apr-2025\0\\#t hf
 aug-cc-pvdz iop(5/13=1,5/36=2,99/5=2) pseudo=read geom=check guess=(re
 ad,tcheck) scf=(maxcycle=1)\\title\\0,1\C,0,-0.776157,0.48217,0.010862
 \N,0,0.561163,0.638019,-0.078048\O,0,-1.303837,-0.617381,0.001319\O,0,
 1.345896,-0.51229,0.011708\H,0,-1.318051,1.436615,0.052353\H,0,1.04341
 ,1.455182,0.258679\H,0,0.666967,-1.213576,0.065911\\Version=ES64L-G16R
 evC.01\State=1-A\HF=-243.8438826\RMSD=2.558e-03\Dipole=0.293408,1.3037
 305,0.2822048\Quadrupole=-3.4012449,3.8113621,-0.4101172,-1.4134865,0.

 Normal termination of Gaussian 16 at Sat Apr  5 22:47:58 2025.
