 Gaussian 16, Revision C.01,

 ----------------------------------------------------------------------
 #t hf aug-cc-pvdz symm=none int=(grid=ultrafine) guess=(read,tcheck) s
 table=(opt,rrhf)
 ----------------------------------------------------------------------
 -----
 title
 -----
 Symbolic Z-matrix:
 Charge =  0 Multiplicity = 1

 SCF Done:  E(RHF) =  -403.118617101     A.U. after   14 cycles
 Normal termination of Gaussian 16 at Sat Apr  5 22:49:33 2025.
 Gaussian 16:  ES64L-G16RevC.01  3-Jul-2019

 ----------------------------------------------------------------------
 #t hf aug-cc-pvdz iop(5/13=1,5/36=2,99/5=2) pseudo=read geom=check gue
 ss=(read,tcheck) scf=(maxcycle=1)
 ----------------------------------------------------------------------
 -----
 title
 -----
 Structure from the checkpoint file:  "N-hydroxyheptan-2-imine.chk"
 Charge =  0 Multiplicity = 1

                         Standard orientation:
 ---------------------------------------------------------------------
 Center     Atomic      Atomic             Coordinates (Angstroms)
 Number     Number       Type             X           Y           Z
 ---------------------------------------------------------------------
      1          8           0        3.657272   -0.908486    0.267264
      2          7           0        2.280419   -1.049466   -0.034086
      3          6           0        1.723395    0.078313   -0.240657
      4          6           0        0.252045    0.045182   -0.552072
      5          6           0       -0.612702    0.655783    0.563633
      6          6           0        2.452308    1.390511   -0.181512
      7          6           0       -2.104484    0.739914    0.222819
      8          6           0       -2.812872   -0.610021    0.085967
      9          6           0       -4.311099   -0.469861   -0.179030
     10          1           0        3.935602   -1.821933    0.382506
     11          1           0        0.079088    0.601638   -1.480057
     12          1           0       -0.033680   -0.989673   -0.733020
     13          1           0       -0.477778    0.065952    1.474702
     14          1           0       -0.249404    1.660864    0.792252
     15          1           0        1.801297    2.215730   -0.461660
     16          1           0        3.314651    1.372956   -0.848863
     17          1           0        2.840303    1.572750    0.821967
     18          1           0       -2.605873    1.318775    1.004289
     19          1           0       -2.232338    1.310663   -0.703449
     20          1           0       -2.358845   -1.189949   -0.720907
     21          1           0       -2.656457   -1.188678    1.001435
     22          1           0       -4.805958    0.071843    0.629774
     23          1           0       -4.498308    0.078583   -1.104556
     24          1           0       -4.792947   -1.444298   -0.268812
 ---------------------------------------------------------------------

 SCF Done:  E(RHF) =  -403.243435563     A.U. after    2 cycles

 The electronic state is 1-A.
 Alpha  occ. eigenvalues --  -20.59906 -15.67150 -11.28502 -11.23868 -11.23674
 Alpha  occ. eigenvalues --  -11.23463 -11.22966 -11.22769 -11.22244  -1.36224
 Alpha  occ. eigenvalues --   -1.15116  -1.07528  -1.01494  -0.97318  -0.93017
 Alpha  occ. eigenvalues --   -0.84611  -0.78704  -0.73367  -0.69540  -0.66209
 Alpha  occ. eigenvalues --   -0.64023  -0.61995  -0.60184  -0.59240  -0.57625
 Alpha  occ. eigenvalues --   -0.55909  -0.55537  -0.54622  -0.51554  -0.51013
 Alpha  occ. eigenvalues --   -0.49479  -0.47137  -0.46762  -0.45760  -0.42540
 Alpha  occ. eigenvalues --   -0.37844
 Alpha virt. eigenvalues --    0.03438   0.03907   0.04320   0.04371   0.05578
 Alpha virt. eigenvalues --    0.05646   0.06105   0.06680   0.06968   0.08178
 Alpha virt. eigenvalues --    0.08284   0.08647   0.09438   0.10272   0.11137

 Mulliken charges:
               1
     1  O   -0.518847
     2  N   -0.350061
     3  C    0.053410
     4  C    0.596408
     5  C    0.202942
     6  C    0.548479
     7  C    0.248414
     8  C    0.171879
     9  C    0.515438
    10  H    0.168546
    11  H   -0.110038
    12  H   -0.203491
    13  H   -0.212397
    14  H   -0.145213
    15  H   -0.235293
    16  H    0.014514
    17  H    0.085105
    18  H   -0.102213
    19  H   -0.174241
    20  H   -0.173178
    21  H   -0.144062
    22  H   -0.094387
    23  H   -0.072725
    24  H   -0.068988
 Sum of Mulliken charges =  -0.00000

 Dipole moment (field-independent basis, Debye):
    X=             -0.9849    Y=              0.8853    Z=             -0.1436  Tot=              1.3321

 Test job not archived.
 1\1\GINC-SE046\SP\RHF\Aug-CC-pVDZ\C7H15N1O1\OHZDE\05-Apr-2025\0\\#t hf
  aug-cc-pvdz iop(5/13=1,5/36=2,99/5=2) pseudo=read geom=check guess=(r
 ead,tcheck) scf=(maxcycle=1)\\title\\0,1\O,0,3.657272,-0.908486,0.2672
 64\N,0,2.280419,-1.049466,-0.034086\C,0,1.723395,0.078313,-0.240657\C,
 0,0.252045,0.045182,-0.552072\C,0,-0.612702,0.655783,0.563633\C,0,2.45
 2308,1.390511,-0.181512\C,0,-2.104484,0.739914,0.222819\C,0,-2.812872,
 -0.610021,0.085967\C,0,-4.311099,-0.469861,-0.17903\H,0,3.935602,-1.82
 1933,0.382506\H,0,0.079088,0.601638,-1.480057\H,0,-0.03368,-0.989673,-

 Normal termination of Gaussian 16 at Sat Apr  5 22:50:12 2025.
