 Gaussian 16, Revision C.01,

 ----------------------------------------------------------------------
 #t hf aug-cc-pvdz symm=none int=(grid=ultrafine) guess=(read,tcheck) s
 table=(opt,rrhf)
 ----------------------------------------------------------------------
 -----
 title
 -----
 Symbolic Z-matrix:
 Charge =  0 Multiplicity = 1

 SCF Done:  E(RHF) =  -319.441403385     A.U. after   16 cycles
 Normal termination of Gaussian 16 at Sat Apr  5 22:47:30 2025.
 Gaussian 16:  ES64L-G16RevC.01  3-Jul-2019

 ----------------------------------------------------------------------
 #t hf aug-cc-pvdz iop(5/13=1,5/36=2,99/5=2) pseudo=read geom=check gue
 ss=(read,tcheck) scf=(maxcycle=1)
 ----------------------------------------------------------------------
 -----
 title
 -----
 Structure from the checkpoint file:  "N-hydroxy-2-propynamide.chk"
 Charge =  0 Multiplicity = 1

                         Standard orientation:
 ---------------------------------------------------------------------
 Center     Atomic      Atomic             Coordinates (Angstroms)
 Number     Number       Type             X           Y           Z
 ---------------------------------------------------------------------
      1          8           0        0.003808    1.878896   -0.058549
      2          8           0       -1.325093   -1.341271   -0.193926
      3          7           0       -1.242362    0.008951    0.182819
      4          6           0       -0.039394    0.667675    0.014547
      5          6           0        1.144130   -0.169618    0.016092
      6          6           0        2.171403   -0.787527    0.007182
      7          1           0       -1.418255   -1.824660    0.635941
      8          1           0       -2.054044    0.531650   -0.119875
      9          1           0        3.082284   -1.333822   -0.002916
 ---------------------------------------------------------------------

 SCF Done:  E(RHF) =  -319.541817919     A.U. after    2 cycles

 The electronic state is 1-A.
 Alpha  occ. eigenvalues --  -20.64909 -20.57032 -15.71925 -11.41005 -11.28162
 Alpha  occ. eigenvalues --  -11.27288  -1.41742  -1.36925  -1.14033  -1.06084
 Alpha  occ. eigenvalues --   -0.90787  -0.78345  -0.75104  -0.72592  -0.70556
 Alpha  occ. eigenvalues --   -0.65256  -0.59924  -0.56083  -0.48943  -0.43471
 Alpha  occ. eigenvalues --   -0.43286  -0.43110
 Alpha virt. eigenvalues --    0.02949   0.03689   0.04972   0.07299   0.09408
 Alpha virt. eigenvalues --    0.09639   0.10195   0.11631   0.12253   0.13598
 Alpha virt. eigenvalues --    0.15024   0.15527   0.15933   0.17786   0.18220

 Mulliken charges:
               1
     1  O   -0.480100
     2  O   -0.501816
     3  N   -0.011659
     4  C    0.450341
     5  C   -0.083758
     6  C    0.769742
     7  H    0.215374
     8  H    0.094558
     9  H   -0.452682
 Sum of Mulliken charges =  -0.00000

 Dipole moment (field-independent basis, Debye):
    X=             -0.4151    Y=             -3.6332    Z=              1.0449  Tot=              3.8032

 Test job not archived.
 1\1\GINC-SE010\SP\RHF\Aug-CC-pVDZ\C3H3N1O2\OHZDE\05-Apr-2025\0\\#t hf
 aug-cc-pvdz iop(5/13=1,5/36=2,99/5=2) pseudo=read geom=check guess=(re
 ad,tcheck) scf=(maxcycle=1)\\title\\0,1\O,0,0.003809,1.878896,-0.05854
 9\O,0,-1.325094,-1.34127,-0.193926\N,0,-1.242362,0.008952,0.182819\C,0
 ,-0.039394,0.667675,0.014547\C,0,1.14413,-0.169619,0.016092\C,0,2.1714
 02,-0.787529,0.007182\H,0,-1.418256,-1.824659,0.635941\H,0,-2.054044,0
 .531652,-0.119875\H,0,3.082283,-1.333824,-0.002916\\Version=ES64L-G16R
 evC.01\State=1-A\HF=-319.5418179\RMSD=7.002e-03\Dipole=-0.1633214,-1.4

 Normal termination of Gaussian 16 at Sat Apr  5 22:47:59 2025.
