 Gaussian 16, Revision C.01,

 ----------------------------------------------------------------------
 #t hf aug-cc-pvdz symm=none int=(grid=ultrafine) guess=(read,tcheck) s
 table=(opt,rrhf)
 ----------------------------------------------------------------------
 -----
 title
 -----
 Symbolic Z-matrix:
 Charge =  0 Multiplicity = 1

 SCF Done:  E(RHF) =  -227.183367807     A.U. after   13 cycles
 Normal termination of Gaussian 16 at Sat Apr  5 22:48:12 2025.
 Gaussian 16:  ES64L-G16RevC.01  3-Jul-2019

 ----------------------------------------------------------------------
 #t hf aug-cc-pvdz iop(5/13=1,5/36=2,99/5=2) pseudo=read geom=check gue
 ss=(read,tcheck) scf=(maxcycle=1)
 ----------------------------------------------------------------------
 -----
 title
 -----
 Structure from the checkpoint file:  "N-methylacetamidine.chk"
 Charge =  0 Multiplicity = 1

                         Standard orientation:
 ---------------------------------------------------------------------
 Center     Atomic      Atomic             Coordinates (Angstroms)
 Number     Number       Type             X           Y           Z
 ---------------------------------------------------------------------
      1          6           0        0.504007    0.162021   -0.000522
      2          6           0        1.815083   -0.581549    0.000816
      3          6           0       -1.959986   -0.145515    0.001321
      4          7           0        0.504425    1.442302    0.000085
      5          7           0       -0.605061   -0.647080   -0.003604
      6          1           0        1.900600   -1.219397    0.883090
      7          1           0        1.902657   -1.218858   -0.881594
      8          1           0        2.630056    0.134964    0.002108
      9          1           0       -2.164863    0.459162    0.889530
     10          1           0       -2.648126   -0.987715   -0.000986
     11          1           0       -2.167537    0.465376   -0.881811
     12          1           0       -0.436074    1.830537   -0.000616
     13          1           0       -0.466885   -1.640362    0.005221
 ---------------------------------------------------------------------

 SCF Done:  E(RHF) =  -227.255256443     A.U. after    2 cycles

 The electronic state is 1-A.
 Alpha  occ. eigenvalues --  -15.64039 -15.57690 -11.32067 -11.27783 -11.23511
 Alpha  occ. eigenvalues --   -1.23798  -1.11635  -0.99552  -0.92325  -0.76681
 Alpha  occ. eigenvalues --   -0.70368  -0.66099  -0.62719  -0.57883  -0.56406
 Alpha  occ. eigenvalues --   -0.54544  -0.53735  -0.46276  -0.40622  -0.34573
 Alpha virt. eigenvalues --    0.02754   0.03915   0.04863   0.04944   0.06745
 Alpha virt. eigenvalues --    0.07370   0.07648   0.09420   0.10811   0.12381
 Alpha virt. eigenvalues --    0.14362   0.15124   0.15363   0.15695   0.16456

 Mulliken charges:
               1
     1  C    0.390849
     2  C    0.400566
     3  C    0.765290
     4  N   -0.431696
     5  N   -0.434574
     6  H   -0.002182
     7  H    0.000220
     8  H   -0.062693
     9  H   -0.100076
    10  H   -0.260400
    11  H   -0.102156
    12  H   -0.058462
    13  H   -0.104685
 Sum of Mulliken charges =  -0.00000

 Dipole moment (field-independent basis, Debye):
    X=             -2.0005    Y=             -3.2628    Z=              0.0152  Tot=              3.8273

 Test job not archived.
 1\1\GINC-SE047\SP\RHF\Aug-CC-pVDZ\C3H8N2\OHZDE\05-Apr-2025\0\\#t hf au
 g-cc-pvdz iop(5/13=1,5/36=2,99/5=2) pseudo=read geom=check guess=(read
 ,tcheck) scf=(maxcycle=1)\\title\\0,1\C,0,0.504007,0.162021,-0.000522\
 C,0,1.815083,-0.58155,0.000816\C,0,-1.959986,-0.145515,0.001321\N,0,0.
 504425,1.442302,0.000085\N,0,-0.605061,-0.64708,-0.003604\H,0,1.9006,-
 1.219398,0.88309\H,0,1.902657,-1.218859,-0.881594\H,0,2.630056,0.13496
 3,0.002108\H,0,-2.164863,0.459162,0.88953\H,0,-2.648126,-0.987714,-0.0
 00986\H,0,-2.167537,0.465376,-0.881811\H,0,-0.436074,1.830537,-0.00061

 Normal termination of Gaussian 16 at Sat Apr  5 22:48:15 2025.
