 Gaussian 16, Revision C.01,

 ----------------------------------------------------------------------
 #t hf aug-cc-pvdz symm=none int=(grid=ultrafine) guess=(read,tcheck) s
 table=(opt,rrhf)
 ----------------------------------------------------------------------
 -----
 title
 -----
 Symbolic Z-matrix:
 Charge =  0 Multiplicity = 1

 SCF Done:  E(RHF) =  -606.603713143     A.U. after   14 cycles
 Normal termination of Gaussian 16 at Sat Apr  5 22:48:36 2025.
 Gaussian 16:  ES64L-G16RevC.01  3-Jul-2019

 ----------------------------------------------------------------------
 #t hf aug-cc-pvdz iop(5/13=1,5/36=2,99/5=2) pseudo=read geom=check gue
 ss=(read,tcheck) scf=(maxcycle=1)
 ----------------------------------------------------------------------
 -----
 title
 -----
 Structure from the checkpoint file:  "N-methylmethanesulfinamide.chk"
 Charge =  0 Multiplicity = 1

                         Standard orientation:
 ---------------------------------------------------------------------
 Center     Atomic      Atomic             Coordinates (Angstroms)
 Number     Number       Type             X           Y           Z
 ---------------------------------------------------------------------
      1          6           0       -2.176225   -0.108634    0.025106
      2          6           0        1.750470   -0.864926    0.195527
      3          7           0       -0.860662   -0.714324    0.273353
      4          8           0        0.496434    1.481896    0.368384
      5         16           0        0.435590    0.228882   -0.434302
      6          1           0       -2.186081    0.887800    0.460796
      7          1           0       -2.927918   -0.708978    0.535442
      8          1           0       -2.441606   -0.034928   -1.035315
      9          1           0        1.646109   -0.917873    1.276493
     10          1           0        2.694683   -0.403665   -0.084828
     11          1           0        1.666868   -1.848965   -0.264591
     12          1           0       -0.813806   -1.649042   -0.123504
 ---------------------------------------------------------------------

 SCF Done:  E(RHF) =  -606.715907050     A.U. after    2 cycles

 The electronic state is 1-A.
 Alpha  occ. eigenvalues --  -93.68253 -20.52548 -15.65327 -11.27412 -11.27159
 Alpha  occ. eigenvalues --   -8.96271  -6.30538  -6.30388  -6.30020  -1.31863
 Alpha  occ. eigenvalues --   -1.17815  -1.02337  -0.91745  -0.82294  -0.68520
 Alpha  occ. eigenvalues --   -0.64119  -0.63780  -0.60594  -0.59210  -0.56063
 Alpha  occ. eigenvalues --   -0.54640  -0.53805  -0.45217  -0.43789  -0.36491
 Alpha virt. eigenvalues --    0.02853   0.03921   0.04974   0.05053   0.06963
 Alpha virt. eigenvalues --    0.07189   0.08238   0.09739   0.11789   0.12491
 Alpha virt. eigenvalues --    0.13528   0.14139   0.15123   0.15746   0.16611

 Mulliken charges:
               1
     1  C    0.781470
     2  C    0.107212
     3  N   -0.830018
     4  O   -1.014125
     5  S    1.397469
     6  H   -0.130536
     7  H   -0.209251
     8  H   -0.084929
     9  H    0.018061
    10  H   -0.022861
    11  H   -0.053959
    12  H    0.041467
 Sum of Mulliken charges =  -0.00000

 Dipole moment (field-independent basis, Debye):
    X=             -0.3829    Y=             -4.4734    Z=             -1.6624  Tot=              4.7876

 Test job not archived.
 1\1\GINC-SE129\SP\RHF\Aug-CC-pVDZ\C2H7N1O1S1\OHZDE\05-Apr-2025\0\\#t h
 f aug-cc-pvdz iop(5/13=1,5/36=2,99/5=2) pseudo=read geom=check guess=(
 read,tcheck) scf=(maxcycle=1)\\title\\0,1\C,0,-2.176225,-0.108634,0.02
 5106\C,0,1.75047,-0.864926,0.195527\N,0,-0.860662,-0.714324,0.273353\O
 ,0,0.496434,1.481896,0.368384\S,0,0.43559,0.228882,-0.434302\H,0,-2.18
 6081,0.8878,0.460796\H,0,-2.927918,-0.708978,0.535442\H,0,-2.441606,-0
 .034928,-1.035315\H,0,1.646109,-0.917873,1.276493\H,0,2.694683,-0.4036
 65,-0.084828\H,0,1.666868,-1.848965,-0.264591\H,0,-0.813806,-1.649042,

 Normal termination of Gaussian 16 at Sat Apr  5 22:48:40 2025.
