 Gaussian 16, Revision C.01,

 ----------------------------------------------------------------------
 #t hf aug-cc-pvdz symm=none int=(grid=ultrafine) guess=(read,tcheck) s
 table=(opt,rrhf)
 ----------------------------------------------------------------------
 -----
 title
 -----
 Symbolic Z-matrix:
 Charge =  0 Multiplicity = 1

 SCF Done:  E(RHF) =  -829.123816591     A.U. after   16 cycles
 Normal termination of Gaussian 16 at Sat Apr  5 22:49:54 2025.
 Gaussian 16:  ES64L-G16RevC.01  3-Jul-2019

 ----------------------------------------------------------------------
 #t hf aug-cc-pvdz iop(5/13=1,5/36=2,99/5=2) pseudo=read geom=check gue
 ss=(read,tcheck) scf=(maxcycle=1)
 ----------------------------------------------------------------------
 -----
 title
 -----
 Structure from the checkpoint file:  "N-methylpyrimidine-5-sulfinamide.chk"
 Charge =  0 Multiplicity = 1

                         Standard orientation:
 ---------------------------------------------------------------------
 Center     Atomic      Atomic             Coordinates (Angstroms)
 Number     Number       Type             X           Y           Z
 ---------------------------------------------------------------------
      1          6           0       -1.066927    0.993447    0.503517
      2          6           0       -1.369945   -1.059353   -0.651102
      3          6           0       -3.086115   -0.027909    0.398756
      4          6           0       -0.518719   -0.048949   -0.236276
      5          6           0        3.264554   -0.589277    0.915395
      6          7           0       -2.356726    1.004528    0.828796
      7          7           0       -2.664799   -1.059267   -0.329369
      8          7           0        1.810425   -0.382266    0.877742
      9          8           0        1.609131    1.384777   -0.978583
     10         16           0        1.227894   -0.030720   -0.731013
     11          1           0       -0.454317    1.827531    0.822442
     12          1           0       -1.012893   -1.886063   -1.256520
     13          1           0       -4.135818   -0.021604    0.667155
     14          1           0        3.754433    0.313715    0.557523
     15          1           0        3.609015   -1.442093    0.321297
     16          1           0        3.556910   -0.741479    1.953119
     17          1           0        1.303932   -1.185425    1.237919
 ---------------------------------------------------------------------

 SCF Done:  E(RHF) =  -829.295125394     A.U. after    2 cycles

 The electronic state is 1-A.
 Alpha  occ. eigenvalues --  -93.70556 -20.54189 -15.66513 -15.65772 -15.65662
 Alpha  occ. eigenvalues --  -11.34687 -11.33545 -11.33081 -11.29231 -11.28212
 Alpha  occ. eigenvalues --   -8.98471  -6.32738  -6.32624  -6.32270  -1.33828
 Alpha  occ. eigenvalues --   -1.30463  -1.19137  -1.18517  -1.09918  -0.96903
 Alpha  occ. eigenvalues --   -0.91656  -0.90672  -0.84625  -0.75851  -0.73378
 Alpha  occ. eigenvalues --   -0.70718  -0.64529  -0.64222  -0.62112  -0.61156
 Alpha  occ. eigenvalues --   -0.60294  -0.59035  -0.57511  -0.55821  -0.50922
 Alpha  occ. eigenvalues --   -0.46408  -0.44854  -0.43814  -0.42752  -0.40611
 Alpha  occ. eigenvalues --   -0.37908
 Alpha virt. eigenvalues --    0.02595   0.03706   0.03888   0.04740   0.05370
 Alpha virt. eigenvalues --    0.06181   0.06985   0.07216   0.07609   0.08763
 Alpha virt. eigenvalues --    0.09786   0.10510   0.10849   0.12105   0.12464

 Mulliken charges:
               1
     1  C    0.360939
     2  C    0.919472
     3  C    0.588780
     4  C    0.136324
     5  C    0.747985
     6  N   -0.570358
     7  N   -0.645332
     8  N   -0.787880
     9  O   -1.040219
    10  S    1.604095
    11  H   -0.341113
    12  H   -0.330964
    13  H   -0.254365
    14  H   -0.131129
    15  H   -0.080016
    16  H   -0.215121
    17  H    0.038903
 Sum of Mulliken charges =  -0.00000

 Dipole moment (field-independent basis, Debye):
    X=              0.6678    Y=             -3.9737    Z=              1.5530  Tot=              4.3184

 Test job not archived.
 1\1\GINC-SE053\SP\RHF\Aug-CC-pVDZ\C5H7N3O1S1\OHZDE\05-Apr-2025\0\\#t h
 f aug-cc-pvdz iop(5/13=1,5/36=2,99/5=2) pseudo=read geom=check guess=(
 read,tcheck) scf=(maxcycle=1)\\title\\0,1\C,0,-1.066927,0.993447,0.503
 517\C,0,-1.369945,-1.059353,-0.651102\C,0,-3.086115,-0.027909,0.398756
 \C,0,-0.518719,-0.048949,-0.236276\C,0,3.264554,-0.589277,0.915395\N,0
 ,-2.356726,1.004528,0.828796\N,0,-2.664799,-1.059267,-0.329369\N,0,1.8
 10425,-0.382266,0.877742\O,0,1.609131,1.384777,-0.978583\S,0,1.227894,
 -0.03072,-0.731013\H,0,-0.454317,1.827531,0.822442\H,0,-1.012893,-1.88

 Normal termination of Gaussian 16 at Sat Apr  5 22:50:08 2025.
