 Gaussian 16, Revision C.01,

 ----------------------------------------------------------------------
 #t hf aug-cc-pvdz symm=none int=(grid=ultrafine) guess=(read,tcheck) s
 table=(opt,rrhf)
 ----------------------------------------------------------------------
 -----
 title
 -----
 Symbolic Z-matrix:
 Charge =  0 Multiplicity = 1

 SCF Done:  E(RHF) =  -469.567695605     A.U. after   16 cycles
 Normal termination of Gaussian 16 at Sat Apr  5 22:49:49 2025.
 Gaussian 16:  ES64L-G16RevC.01  3-Jul-2019

 ----------------------------------------------------------------------
 #t hf aug-cc-pvdz iop(5/13=1,5/36=2,99/5=2) pseudo=read geom=check gue
 ss=(read,tcheck) scf=(maxcycle=1)
 ----------------------------------------------------------------------
 -----
 title
 -----
 Structure from the checkpoint file:  "N-methylpyrimidine-2-carboxamide.chk"
 Charge =  0 Multiplicity = 1

                         Standard orientation:
 ---------------------------------------------------------------------
 Center     Atomic      Atomic             Coordinates (Angstroms)
 Number     Number       Type             X           Y           Z
 ---------------------------------------------------------------------
      1          6           0       -2.911807   -0.353161    0.000000
      2          6           0       -1.970075   -1.370420    0.000028
      3          6           0       -2.420063    0.945020   -0.000029
      4          6           0       -0.295388    0.168403   -0.000001
      5          6           0        1.202333    0.467839    0.000009
      6          6           0        3.415957   -0.609641   -0.000010
      7          7           0       -0.663500   -1.117055    0.000026
      8          7           0       -1.117120    1.213429   -0.000028
      9          7           0        1.969122   -0.648818   -0.000052
     10          8           0        1.629250    1.606620    0.000055
     11          1           0       -3.971769   -0.560591    0.000002
     12          1           0       -2.264814   -2.413448    0.000052
     13          1           0       -3.089232    1.798175   -0.000054
     14          1           0        3.820894   -1.101243   -0.886355
     15          1           0        3.820882   -1.099999    0.887039
     16          1           0        3.726013    0.431675   -0.000714
     17          1           0        1.478770   -1.528660   -0.000016
 ---------------------------------------------------------------------

 SCF Done:  E(RHF) =  -469.706984887     A.U. after    2 cycles

 The electronic state is 1-A.
 Alpha  occ. eigenvalues --  -20.53159 -15.65808 -15.65009 -15.64420 -11.36462
 Alpha  occ. eigenvalues --  -11.34496 -11.32398 -11.32046 -11.27310 -11.26691
 Alpha  occ. eigenvalues --   -1.34842  -1.29926  -1.20055  -1.17622  -1.08673
 Alpha  occ. eigenvalues --   -0.96938  -0.90932  -0.89800  -0.79598  -0.76536
 Alpha  occ. eigenvalues --   -0.72483  -0.69154  -0.64471  -0.63711  -0.63107
 Alpha  occ. eigenvalues --   -0.61169  -0.59444  -0.58631  -0.54840  -0.53845
 Alpha  occ. eigenvalues --   -0.49722  -0.44171  -0.43488  -0.41901  -0.39465
 Alpha  occ. eigenvalues --   -0.38206
 Alpha virt. eigenvalues --    0.02337   0.03227   0.04156   0.05386   0.05540
 Alpha virt. eigenvalues --    0.06687   0.06722   0.07211   0.08319   0.08908
 Alpha virt. eigenvalues --    0.09875   0.10711   0.12338   0.13011   0.13286

 Mulliken charges:
               1
     1  C    0.568418
     2  C    0.490905
     3  C    0.583972
     4  C    0.152385
     5  C    0.646795
     6  C    0.760960
     7  N   -0.422425
     8  N   -0.406739
     9  N   -0.345236
    10  O   -0.524147
    11  H   -0.357401
    12  H   -0.371888
    13  H   -0.349815
    14  H   -0.106766
    15  H   -0.106597
    16  H   -0.177283
    17  H   -0.035137
 Sum of Mulliken charges =   0.00000

 Dipole moment (field-independent basis, Debye):
    X=             -3.1762    Y=             -4.6314    Z=             -0.0001  Tot=              5.6159

 Test job not archived.
 1\1\GINC-SE040\SP\RHF\Aug-CC-pVDZ\C6H7N3O1\OHZDE\05-Apr-2025\0\\#t hf
 aug-cc-pvdz iop(5/13=1,5/36=2,99/5=2) pseudo=read geom=check guess=(re
 ad,tcheck) scf=(maxcycle=1)\\title\\0,1\C,0,-2.911807,-0.353161,0.\C,0
 ,-1.970075,-1.37042,0.000028\C,0,-2.420063,0.94502,-0.000029\C,0,-0.29
 5388,0.168403,-0.000001\C,0,1.202333,0.467839,0.000009\C,0,3.415957,-0
 .609641,-0.00001\N,0,-0.6635,-1.117055,0.000026\N,0,-1.11712,1.213429,
 -0.000028\N,0,1.969122,-0.648818,-0.000052\O,0,1.62925,1.60662,0.00005
 5\H,0,-3.971769,-0.560591,0.000002\H,0,-2.264814,-2.413448,0.000052\H,

 Normal termination of Gaussian 16 at Sat Apr  5 22:50:07 2025.
