 Gaussian 16, Revision C.01,

 ----------------------------------------------------------------------
 #t hf aug-cc-pvdz symm=none int=(grid=ultrafine) guess=(read,tcheck) s
 table=(opt,rrhf)
 ----------------------------------------------------------------------
 -----
 title
 -----
 Symbolic Z-matrix:
 Charge =  0 Multiplicity = 1

 SCF Done:  E(RHF) =  -247.042321938     A.U. after   13 cycles
 Normal termination of Gaussian 16 at Sat Apr  5 22:48:06 2025.
 Gaussian 16:  ES64L-G16RevC.01  3-Jul-2019

 ----------------------------------------------------------------------
 #t hf aug-cc-pvdz iop(5/13=1,5/36=2,99/5=2) pseudo=read geom=check gue
 ss=(read,tcheck) scf=(maxcycle=1)
 ----------------------------------------------------------------------
 -----
 title
 -----
 Structure from the checkpoint file:  "N-methylacetamide.chk"
 Charge =  0 Multiplicity = 1

                         Standard orientation:
 ---------------------------------------------------------------------
 Center     Atomic      Atomic             Coordinates (Angstroms)
 Number     Number       Type             X           Y           Z
 ---------------------------------------------------------------------
      1          6           0        0.484528    0.165592    0.000016
      2          6           0        1.812482   -0.565934   -0.000009
      3          6           0       -1.975116   -0.101915   -0.000016
      4          7           0       -0.623641   -0.629072    0.000038
      5          8           0        0.425955    1.384169   -0.000000
      6          1           0        2.378559   -0.258444   -0.878404
      7          1           0        2.378838   -0.257978    0.878038
      8          1           0        1.716856   -1.651294    0.000288
      9          1           0       -2.523186   -0.423664   -0.887098
     10          1           0       -1.906742    0.982265   -0.000850
     11          1           0       -2.522801   -0.422285    0.887811
     12          1           0       -0.495040   -1.624899    0.000005
 ---------------------------------------------------------------------

 SCF Done:  E(RHF) =  -247.122656591     A.U. after    2 cycles

 The electronic state is 1-A.
 Alpha  occ. eigenvalues --  -20.52596 -15.65026 -11.36109 -11.26906 -11.24652
 Alpha  occ. eigenvalues --   -1.34021  -1.19524  -1.01253  -0.92741  -0.78773
 Alpha  occ. eigenvalues --   -0.69487  -0.65692  -0.63525  -0.59039  -0.58883
 Alpha  occ. eigenvalues --   -0.55696  -0.54750  -0.51369  -0.43484  -0.39289
 Alpha virt. eigenvalues --    0.02862   0.04024   0.04955   0.05115   0.06980
 Alpha virt. eigenvalues --    0.07186   0.08148   0.11155   0.12471   0.13132
 Alpha virt. eigenvalues --    0.13493   0.14661   0.15230   0.16342   0.16945

 Mulliken charges:
               1
     1  C    0.376174
     2  C    0.373556
     3  C    0.723678
     4  N   -0.345652
     5  O   -0.564503
     6  H    0.033150
     7  H    0.033125
     8  H   -0.133427
     9  H   -0.120834
    10  H   -0.171269
    11  H   -0.120702
    12  H   -0.083295
 Sum of Mulliken charges =  -0.00000

 Dipole moment (field-independent basis, Debye):
    X=             -0.6256    Y=             -4.2786    Z=             -0.0002  Tot=              4.3241

 Test job not archived.
 1\1\GINC-SE047\SP\RHF\Aug-CC-pVDZ\C3H7N1O1\OHZDE\05-Apr-2025\0\\#t hf
 aug-cc-pvdz iop(5/13=1,5/36=2,99/5=2) pseudo=read geom=check guess=(re
 ad,tcheck) scf=(maxcycle=1)\\title\\0,1\C,0,0.484528,0.165592,0.000016
 \C,0,1.812482,-0.565934,-0.000009\C,0,-1.975116,-0.101915,-0.000016\N,
 0,-0.623641,-0.629072,0.000038\O,0,0.425955,1.384169,0.\H,0,2.378559,-
 0.258444,-0.878404\H,0,2.378838,-0.257978,0.878038\H,0,1.716856,-1.651
 294,0.000288\H,0,-2.523186,-0.423664,-0.887098\H,0,-1.906742,0.982265,
 -0.00085\H,0,-2.522801,-0.422285,0.887811\H,0,-0.49504,-1.624899,0.000

 Normal termination of Gaussian 16 at Sat Apr  5 22:48:09 2025.
