 Gaussian 16, Revision C.01,

 ----------------------------------------------------------------------
 #t hf aug-cc-pvdz symm=none int=(grid=ultrafine) guess=(read,tcheck) s
 table=(opt,rrhf)
 ----------------------------------------------------------------------
 -----
 title
 -----
 Symbolic Z-matrix:
 Charge =  0 Multiplicity = 1

 SCF Done:  E(RHF) =  -661.638173025     A.U. after   14 cycles
 Normal termination of Gaussian 16 at Sat Apr  5 22:48:53 2025.
 Gaussian 16:  ES64L-G16RevC.01  3-Jul-2019

 ----------------------------------------------------------------------
 #t hf aug-cc-pvdz iop(5/13=1,5/36=2,99/5=2) pseudo=read geom=check gue
 ss=(read,tcheck) scf=(maxcycle=1)
 ----------------------------------------------------------------------
 -----
 title
 -----
 Structure from the checkpoint file:  "N-methylsulfinamoylmethanamine.chk"
 Charge =  0 Multiplicity = 1

                         Standard orientation:
 ---------------------------------------------------------------------
 Center     Atomic      Atomic             Coordinates (Angstroms)
 Number     Number       Type             X           Y           Z
 ---------------------------------------------------------------------
      1          6           0        2.348792   -0.536780    0.248659
      2          6           0       -2.054949   -0.747002    0.633612
      3          7           0        0.953152   -0.827439   -0.095931
      4          7           0       -1.433378   -0.277244   -0.614256
      5          8           0        0.101328    1.411281    0.730744
      6         16           0        0.030842    0.587441   -0.500901
      7          1           0        2.820782   -1.466819    0.562554
      8          1           0        2.364292    0.153252    1.088342
      9          1           0        2.932278   -0.107281   -0.573544
     10          1           0       -2.298120    0.067754    1.317861
     11          1           0       -1.373670   -1.430882    1.131354
     12          1           0       -2.964289   -1.286454    0.373636
     13          1           0        0.877511   -1.467415   -0.879936
     14          1           0       -2.064357    0.284026   -1.174130
 ---------------------------------------------------------------------

 SCF Done:  E(RHF) =  -661.771211456     A.U. after    2 cycles

 The electronic state is 1-A.
 Alpha  occ. eigenvalues --  -93.70516 -20.52982 -15.65395 -15.64759 -11.26894
 Alpha  occ. eigenvalues --  -11.26811  -8.98136  -6.32412  -6.32263  -6.31899
 Alpha  occ. eigenvalues --   -1.33587  -1.19430  -1.16172  -0.96111  -0.91102
 Alpha  occ. eigenvalues --   -0.81856  -0.69519  -0.68208  -0.64082  -0.61978
 Alpha  occ. eigenvalues --   -0.60334  -0.58094  -0.55240  -0.54867  -0.53946
 Alpha  occ. eigenvalues --   -0.46985  -0.44664  -0.41602  -0.36821
 Alpha virt. eigenvalues --    0.03204   0.03699   0.04357   0.05147   0.06413
 Alpha virt. eigenvalues --    0.07013   0.07973   0.08680   0.10442   0.11745
 Alpha virt. eigenvalues --    0.12331   0.13590   0.13941   0.15288   0.16271

 Mulliken charges:
               1
     1  C    0.759535
     2  C    0.802685
     3  N   -0.789243
     4  N   -0.778681
     5  O   -1.020874
     6  S    1.882649
     7  H   -0.205565
     8  H   -0.138828
     9  H   -0.092591
    10  H   -0.086113
    11  H   -0.123542
    12  H   -0.200001
    13  H    0.021611
    14  H   -0.031041
 Sum of Mulliken charges =  -0.00000

 Dipole moment (field-independent basis, Debye):
    X=             -0.5118    Y=             -2.6394    Z=             -2.3171  Tot=              3.5493

 Test job not archived.
 1\1\GINC-SE165\SP\RHF\Aug-CC-pVDZ\C2H8N2O1S1\OHZDE\05-Apr-2025\0\\#t h
 f aug-cc-pvdz iop(5/13=1,5/36=2,99/5=2) pseudo=read geom=check guess=(
 read,tcheck) scf=(maxcycle=1)\\title\\0,1\C,0,2.348792,-0.53678,0.2486
 59\C,0,-2.054949,-0.747002,0.633612\N,0,0.953152,-0.827439,-0.095931\N
 ,0,-1.433378,-0.277244,-0.614256\O,0,0.101328,1.411281,0.730744\S,0,0.
 030842,0.587441,-0.500901\H,0,2.820782,-1.466819,0.562554\H,0,2.364292
 ,0.153252,1.088342\H,0,2.932278,-0.107281,-0.573544\H,0,-2.29812,0.067
 754,1.317861\H,0,-1.37367,-1.430882,1.131354\H,0,-2.964289,-1.286453,0

 Normal termination of Gaussian 16 at Sat Apr  5 22:48:59 2025.
