 Gaussian 16, Revision C.01,

 ----------------------------------------------------------------------
 #t hf aug-cc-pvdz symm=none int=(grid=ultrafine) guess=(read,tcheck) s
 table=(opt,rrhf)
 ----------------------------------------------------------------------
 -----
 title
 -----
 Symbolic Z-matrix:
 Charge =  0 Multiplicity = 1

 SCF Done:  E(RHF) =  -324.797636762     A.U. after   15 cycles
 Normal termination of Gaussian 16 at Sat Apr  5 22:49:21 2025.
 Gaussian 16:  ES64L-G16RevC.01  3-Jul-2019

 ----------------------------------------------------------------------
 #t hf aug-cc-pvdz iop(5/13=1,5/36=2,99/5=2) pseudo=read geom=check gue
 ss=(read,tcheck) scf=(maxcycle=1)
 ----------------------------------------------------------------------
 -----
 title
 -----
 Structure from the checkpoint file:  "N-methylaniline.chk"
 Charge =  0 Multiplicity = 1

                         Standard orientation:
 ---------------------------------------------------------------------
 Center     Atomic      Atomic             Coordinates (Angstroms)
 Number     Number       Type             X           Y           Z
 ---------------------------------------------------------------------
      1          6           0        2.308280    0.333913    0.032715
      2          6           0        1.874791   -0.990670    0.036977
      3          6           0        1.359701    1.346306   -0.009499
      4          6           0        0.525138   -1.293489   -0.004025
      5          6           0       -0.000206    1.056554   -0.046565
      6          6           0       -0.440752   -0.273922   -0.049701
      7          6           0       -2.835641    0.363095    0.089889
      8          7           0       -1.783597   -0.606016   -0.128315
      9          1           0        3.363058    0.567419    0.063881
     10          1           0        2.596525   -1.796291    0.072123
     11          1           0        1.674892    2.381687   -0.010024
     12          1           0        0.202937   -2.328068   -0.007472
     13          1           0       -0.713687    1.866797   -0.075478
     14          1           0       -2.839553    1.117185   -0.699380
     15          1           0       -2.751251    0.880801    1.053410
     16          1           0       -3.794605   -0.149894    0.057667
     17          1           0       -2.001002   -1.548246    0.144734
 ---------------------------------------------------------------------

 SCF Done:  E(RHF) =  -324.896312636     A.U. after    2 cycles

 The electronic state is 1-A.
 Alpha  occ. eigenvalues --  -15.62915 -11.28582 -11.26928 -11.24095 -11.24044
 Alpha  occ. eigenvalues --  -11.22934 -11.22745 -11.22342  -1.21152  -1.12018
 Alpha  occ. eigenvalues --   -1.00659  -0.99724  -0.91574  -0.82902  -0.80110
 Alpha  occ. eigenvalues --   -0.71673  -0.67445  -0.64397  -0.61380  -0.61104
 Alpha  occ. eigenvalues --   -0.58492  -0.58166  -0.54359  -0.51351  -0.50593
 Alpha  occ. eigenvalues --   -0.48672  -0.42357  -0.33769  -0.28505
 Alpha virt. eigenvalues --    0.03194   0.03833   0.03995   0.05537   0.05678
 Alpha virt. eigenvalues --    0.05854   0.07315   0.08284   0.09832   0.11002
 Alpha virt. eigenvalues --    0.11244   0.12620   0.13385   0.13527   0.13903

 Mulliken charges:
               1
     1  C    0.425564
     2  C    0.533086
     3  C    0.605654
     4  C    0.524544
     5  C    0.275993
     6  C    0.580842
     7  C    0.887449
     8  N   -0.524296
     9  H   -0.463902
    10  H   -0.436551
    11  H   -0.453200
    12  H   -0.609537
    13  H   -0.703998
    14  H   -0.155923
    15  H   -0.094994
    16  H   -0.285270
    17  H   -0.105462
 Sum of Mulliken charges =   0.00000

 Dipole moment (field-independent basis, Debye):
    X=             -1.5713    Y=             -0.4072    Z=              0.5406  Tot=              1.7108

 Test job not archived.
 1\1\GINC-SE042\SP\RHF\Aug-CC-pVDZ\C7H9N1\OHZDE\05-Apr-2025\0\\#t hf au
 g-cc-pvdz iop(5/13=1,5/36=2,99/5=2) pseudo=read geom=check guess=(read
 ,tcheck) scf=(maxcycle=1)\\title\\0,1\C,0,2.30828,0.333913,0.032715\C,
 0,1.874791,-0.99067,0.036977\C,0,1.359701,1.346306,-0.009499\C,0,0.525
 138,-1.293489,-0.004025\C,0,-0.000206,1.056554,-0.046565\C,0,-0.440752
 ,-0.273922,-0.049701\C,0,-2.835641,0.363095,0.089889\N,0,-1.783597,-0.
 606016,-0.128315\H,0,3.363058,0.567419,0.063881\H,0,2.596525,-1.796291
 ,0.072123\H,0,1.674892,2.381687,-0.010024\H,0,0.202937,-2.328068,-0.00

 Normal termination of Gaussian 16 at Sat Apr  5 22:50:06 2025.
