 Gaussian 16, Revision C.01,

 ----------------------------------------------------------------------
 #t hf aug-cc-pvdz symm=none int=(grid=ultrafine) guess=(read,tcheck) s
 table=(opt,rrhf)
 ----------------------------------------------------------------------
 -----
 title
 -----
 Symbolic Z-matrix:
 Charge =  0 Multiplicity = 1

 SCF Done:  E(RHF) =  -133.080427865     A.U. after   12 cycles
 Normal termination of Gaussian 16 at Sat Apr  5 22:48:27 2025.
 Gaussian 16:  ES64L-G16RevC.01  3-Jul-2019

 ----------------------------------------------------------------------
 #t hf aug-cc-pvdz iop(5/13=1,5/36=2,99/5=2) pseudo=read geom=check gue
 ss=(read,tcheck) scf=(maxcycle=1)
 ----------------------------------------------------------------------
 -----
 title
 -----
 Structure from the checkpoint file:  "N-methylmethanimine.chk"
 Charge =  0 Multiplicity = 1

                         Standard orientation:
 ---------------------------------------------------------------------
 Center     Atomic      Atomic             Coordinates (Angstroms)
 Number     Number       Type             X           Y           Z
 ---------------------------------------------------------------------
      1          6           0       -1.074952   -0.423350    0.000000
      2          7           0        0.000000    0.548631    0.000000
      3          6           0        1.187443    0.128587    0.000000
      4          1           0       -0.726044   -1.464229    0.000000
      5          1           0       -1.702940   -0.256325    0.876539
      6          1           0       -1.702940   -0.256325   -0.876539
      7          1           0        1.449451   -0.937256    0.000000
      8          1           0        2.007530    0.842294    0.000000
 ---------------------------------------------------------------------

 SCF Done:  E(RHF) =  -133.123093187     A.U. after    2 cycles

 The electronic state is 1-A'.
 Alpha  occ. eigenvalues --  -15.63107 -11.28409 -11.25977  -1.19951  -0.95793
 Alpha  occ. eigenvalues --   -0.78953  -0.65867  -0.63129  -0.59274  -0.53454
 Alpha  occ. eigenvalues --   -0.41973  -0.40269
 Alpha virt. eigenvalues --    0.03553   0.04553   0.05311   0.05698   0.07777
 Alpha virt. eigenvalues --    0.09833   0.10693   0.14315   0.14966   0.16147
 Alpha virt. eigenvalues --    0.16945   0.17528   0.17801   0.20133   0.22060

 Mulliken charges:
               1
     1  C    0.708948
     2  N   -0.472946
     3  C    0.561581
     4  H   -0.130342
     5  H   -0.121213
     6  H   -0.121213
     7  H   -0.185442
     8  H   -0.239373
 Sum of Mulliken charges =  -0.00000

 Dipole moment (field-independent basis, Debye):
    X=              0.5375    Y=             -1.6200    Z=             -0.0000  Tot=              1.7069

 Test job not archived.
 1\1\GINC-SE185\SP\RHF\Aug-CC-pVDZ\C2H5N1\OHZDE\05-Apr-2025\0\\#t hf au
 g-cc-pvdz iop(5/13=1,5/36=2,99/5=2) pseudo=read geom=check guess=(read
 ,tcheck) scf=(maxcycle=1)\\title\\0,1\C,0,-1.074952,-0.42335,0.\N,0,0.
 ,0.548631,0.\C,0,1.187443,0.128587,0.\H,0,-0.726044,-1.464229,0.\H,0,-
 1.70294,-0.256326,0.876539\H,0,-1.70294,-0.256326,-0.876539\H,0,1.4494
 51,-0.937256,0.\H,0,2.00753,0.842294,0.\\Version=ES64L-G16RevC.01\Stat
 e=1-A'\HF=-133.1230932\RMSD=1.699e-03\Dipole=0.2114828,-0.6373725,0.\Q
 uadrupole=2.13216,-1.4581615,-0.6739985,0.4274702,0.,0.\PG=CS [SG(C2H3

 Normal termination of Gaussian 16 at Sat Apr  5 22:48:33 2025.
