 Gaussian 16, Revision C.01,

 ----------------------------------------------------------------------
 #t hf aug-cc-pvdz symm=none int=(grid=ultrafine) guess=(read,tcheck) s
 table=(opt,rrhf)
 ----------------------------------------------------------------------
 -----
 title
 -----
 Symbolic Z-matrix:
 Charge =  0 Multiplicity = 1

 SCF Done:  E(RHF) =  -211.166847627     A.U. after   13 cycles
 Normal termination of Gaussian 16 at Sat Apr  5 22:47:39 2025.
 Gaussian 16:  ES64L-G16RevC.01  3-Jul-2019

 ----------------------------------------------------------------------
 #t hf aug-cc-pvdz iop(5/13=1,5/36=2,99/5=2) pseudo=read geom=check gue
 ss=(read,tcheck) scf=(maxcycle=1)
 ----------------------------------------------------------------------
 -----
 title
 -----
 Structure from the checkpoint file:  "N-methyl-2-propanimine.chk"
 Charge =  0 Multiplicity = 1

                         Standard orientation:
 ---------------------------------------------------------------------
 Center     Atomic      Atomic             Coordinates (Angstroms)
 Number     Number       Type             X           Y           Z
 ---------------------------------------------------------------------
      1          6           0        0.000000    0.400135    0.000000
      2          6           0       -0.559646    1.800763    0.000000
      3          6           0        1.512118    0.333612    0.000000
      4          6           0       -0.421806   -1.955288    0.000000
      5          7           0       -0.823365   -0.565462    0.000000
      6          1           0       -0.214550    2.354611    0.877083
      7          1           0       -0.214550    2.354611   -0.877083
      8          1           0       -1.645869    1.770131    0.000000
      9          1           0        1.903128    0.856799    0.875493
     10          1           0        1.903128    0.856799   -0.875493
     11          1           0        1.909280   -0.676287    0.000000
     12          1           0       -0.857799   -2.442000   -0.874888
     13          1           0       -0.857799   -2.442000    0.874888
     14          1           0        0.654591   -2.149764    0.000000
 ---------------------------------------------------------------------

 SCF Done:  E(RHF) =  -211.234309397     A.U. after    2 cycles

 The electronic state is 1-A'.
 Alpha  occ. eigenvalues --  -15.60575 -11.28734 -11.24882 -11.23870 -11.22672
 Alpha  occ. eigenvalues --   -1.19128  -1.02206  -0.95190  -0.90661  -0.70671
 Alpha  occ. eigenvalues --   -0.64524  -0.62322  -0.61256  -0.56895  -0.54696
 Alpha  occ. eigenvalues --   -0.54556  -0.52701  -0.51320  -0.38673  -0.37746
 Alpha virt. eigenvalues --    0.03347   0.04333   0.04923   0.05045   0.07020
 Alpha virt. eigenvalues --    0.07042   0.07378   0.07911   0.09513   0.10748
 Alpha virt. eigenvalues --    0.13864   0.14565   0.14647   0.15352   0.15761

 Mulliken charges:
               1
     1  C   -0.523749
     2  C    0.583977
     3  C    0.465188
     4  C    0.723307
     5  N   -0.550643
     6  H    0.041239
     7  H    0.041239
     8  H   -0.149605
     9  H    0.046115
    10  H    0.046115
    11  H   -0.272978
    12  H   -0.128997
    13  H   -0.128997
    14  H   -0.192212
 Sum of Mulliken charges =  -0.00000

 Dipole moment (field-independent basis, Debye):
    X=              1.9889    Y=              0.3718    Z=             -0.0000  Tot=              2.0234

 Test job not archived.
 1\1\GINC-SE046\SP\RHF\Aug-CC-pVDZ\C4H9N1\OHZDE\05-Apr-2025\0\\#t hf au
 g-cc-pvdz iop(5/13=1,5/36=2,99/5=2) pseudo=read geom=check guess=(read
 ,tcheck) scf=(maxcycle=1)\\title\\0,1\C,0,0.,0.400135,0.\C,0,-0.559646
 ,1.800763,0.\C,0,1.512118,0.333612,0.\C,0,-0.421806,-1.955288,0.\N,0,-
 0.823365,-0.565462,0.\H,0,-0.21455,2.354611,0.877083\H,0,-0.21455,2.35
 4611,-0.877083\H,0,-1.645869,1.770131,0.\H,0,1.903128,0.856799,0.87549
 3\H,0,1.903128,0.856799,-0.875493\H,0,1.90928,-0.676287,0.\H,0,-0.8577
 99,-2.442,-0.874888\H,0,-0.857799,-2.442,0.874888\H,0,0.654591,-2.1497

 Normal termination of Gaussian 16 at Sat Apr  5 22:47:59 2025.
