 Gaussian 16, Revision C.01,

 ----------------------------------------------------------------------
 #t hf aug-cc-pvdz symm=none int=(grid=ultrafine) guess=(read,tcheck) s
 table=(opt,rrhf)
 ----------------------------------------------------------------------
 -----
 title
 -----
 Symbolic Z-matrix:
 Charge =  0 Multiplicity = 1

 SCF Done:  E(RHF) =  -903.986667154     A.U. after   15 cycles
 Normal termination of Gaussian 16 at Sat Apr  5 22:50:10 2025.
 Gaussian 16:  ES64L-G16RevC.01  3-Jul-2019

 ----------------------------------------------------------------------
 #t hf aug-cc-pvdz iop(5/13=1,5/36=2,99/5=2) pseudo=read geom=check gue
 ss=(read,tcheck) scf=(maxcycle=1)
 ----------------------------------------------------------------------
 -----
 title
 -----
 Structure from the checkpoint file:  "N-methylpyrimidine-5-sulfonamide.chk"
 Charge =  0 Multiplicity = 1

                         Standard orientation:
 ---------------------------------------------------------------------
 Center     Atomic      Atomic             Coordinates (Angstroms)
 Number     Number       Type             X           Y           Z
 ---------------------------------------------------------------------
      1          6           0       -1.325488   -1.023014   -0.620671
      2          6           0       -1.153772    0.908207    0.754322
      3          6           0       -3.123935    0.272789   -0.162363
      4          6           0       -0.530909   -0.169977    0.137241
      5          6           0        1.986994    1.737827   -1.056432
      6          7           0       -2.628272   -0.802402   -0.775809
      7          7           0       -2.457181    1.136617    0.601107
      8          7           0        1.994174    0.281587   -0.935689
      9          8           0        1.635439    0.218540    1.535945
     10          8           0        1.440056   -1.889346    0.122330
     11         16           0        1.229691   -0.470095    0.327322
     12          1           0       -0.905378   -1.902771   -1.092500
     13          1           0       -0.596738    1.583105    1.391696
     14          1           0       -4.183013    0.459325   -0.293879
     15          1           0        1.020179    2.141933   -1.369626
     16          1           0        2.740545    2.019831   -1.789059
     17          1           0        2.264660    2.168978   -0.098408
     18          1           0        1.902340   -0.248049   -1.791428
 ---------------------------------------------------------------------

 SCF Done:  E(RHF) =  -904.214840460     A.U. after    2 cycles

 The electronic state is 1-A.
 Alpha  occ. eigenvalues --  -93.82407 -20.57541 -20.57537 -15.67965 -15.66456
 Alpha  occ. eigenvalues --  -15.66434 -11.35527 -11.34216 -11.34175 -11.30260
 Alpha  occ. eigenvalues --  -11.29969  -9.08597  -6.43277  -6.43123  -6.43008
 Alpha  occ. eigenvalues --   -1.44574  -1.32558  -1.31364  -1.21818  -1.19328
 Alpha  occ. eigenvalues --   -1.10873  -0.97975  -0.93397  -0.92386  -0.85002
 Alpha  occ. eigenvalues --   -0.77675  -0.75136  -0.74191  -0.71238  -0.69269
 Alpha  occ. eigenvalues --   -0.65084  -0.63182  -0.62685  -0.61553  -0.60586
 Alpha  occ. eigenvalues --   -0.58415  -0.54859  -0.53943  -0.52450  -0.51297
 Alpha  occ. eigenvalues --   -0.48140  -0.44898  -0.44566  -0.43434  -0.40512
 Alpha virt. eigenvalues --    0.02443   0.03600   0.03784   0.04955   0.05261
 Alpha virt. eigenvalues --    0.05976   0.06193   0.06775   0.07384   0.09198
 Alpha virt. eigenvalues --    0.09589   0.10260   0.11108   0.12243   0.12646

 Mulliken charges:
               1
     1  C    0.593189
     2  C    0.612560
     3  C    0.628579
     4  C    0.044029
     5  C    0.813371
     6  N   -0.607921
     7  N   -0.585418
     8  N   -0.848196
     9  O   -1.036449
    10  O   -0.989707
    11  S    2.823045
    12  H   -0.340835
    13  H   -0.364081
    14  H   -0.259948
    15  H   -0.092931
    16  H   -0.208904
    17  H   -0.124554
    18  H   -0.055829
 Sum of Mulliken charges =  -0.00000

 Dipole moment (field-independent basis, Debye):
    X=             -0.9320    Y=              2.9246    Z=             -3.8667  Tot=              4.9369

 Test job not archived.
 1\1\GINC-SE146\SP\RHF\Aug-CC-pVDZ\C5H7N3O2S1\OHZDE\05-Apr-2025\0\\#t h
 f aug-cc-pvdz iop(5/13=1,5/36=2,99/5=2) pseudo=read geom=check guess=(
 read,tcheck) scf=(maxcycle=1)\\title\\0,1\C,0,-1.325488,-1.023014,-0.6
 20671\C,0,-1.153772,0.908207,0.754322\C,0,-3.123935,0.272789,-0.162363
 \C,0,-0.530909,-0.169977,0.137241\C,0,1.986994,1.737827,-1.056432\N,0,
 -2.628272,-0.802402,-0.775809\N,0,-2.457181,1.136617,0.601107\N,0,1.99
 4174,0.281587,-0.935689\O,0,1.635439,0.21854,1.535945\O,0,1.440056,-1.
 889346,0.12233\S,0,1.229691,-0.470095,0.327322\H,0,-0.905378,-1.902771

 Normal termination of Gaussian 16 at Sat Apr  5 22:50:22 2025.
