 Gaussian 16, Revision C.01,

 ----------------------------------------------------------------------
 #t hf aug-cc-pvdz symm=none int=(grid=ultrafine) guess=(read,tcheck) s
 table=(opt,rrhf)
 ----------------------------------------------------------------------
 -----
 title
 -----
 Symbolic Z-matrix:
 Charge =  0 Multiplicity = 1

 SCF Done:  E(RHF) =  -699.486204724     A.U. after   15 cycles
 Normal termination of Gaussian 16 at Sat Apr  5 22:52:14 2025.
 Gaussian 16:  ES64L-G16RevC.01  3-Jul-2019

 ----------------------------------------------------------------------
 #t hf aug-cc-pvdz iop(5/13=1,5/36=2,99/5=2) pseudo=read geom=check gue
 ss=(read,tcheck) scf=(maxcycle=1)
 ----------------------------------------------------------------------
 -----
 title
 -----
 Structure from the checkpoint file:  "N-methyl-N-2-2-2-trifluoroethylaniline.chk"
 Charge =  0 Multiplicity = 1

                         Standard orientation:
 ---------------------------------------------------------------------
 Center     Atomic      Atomic             Coordinates (Angstroms)
 Number     Number       Type             X           Y           Z
 ---------------------------------------------------------------------
      1          6           0       -3.674067   -0.853951   -0.083418
      2          6           0       -2.544884   -1.650937    0.067775
      3          6           0       -3.509148    0.522321   -0.154373
      4          6           0       -1.279010   -1.090719    0.146626
      5          6           0       -2.248330    1.098967   -0.065846
      6          6           0       -1.102333    0.302544    0.091353
      7          6           0        0.314133    2.318038    0.012392
      8          6           0        1.235426    0.205711    0.866884
      9          6           0        2.316851   -0.367967   -0.044102
     10          7           0        0.170829    0.879498    0.166684
     11          9           0        3.284492   -0.950410    0.698778
     12          9           0        1.843375   -1.300588   -0.890331
     13          9           0        2.908950    0.584737   -0.794752
     14          1           0       -4.657463   -1.297035   -0.151204
     15          1           0       -2.643137   -2.727701    0.109315
     16          1           0       -4.370757    1.166188   -0.272823
     17          1           0       -0.425739   -1.747886    0.213334
     18          1           0       -2.166729    2.173555   -0.110469
     19          1           0       -0.155118    2.650083   -0.912697
     20          1           0        1.369780    2.566254   -0.050624
     21          1           0       -0.127388    2.879150    0.846120
     22          1           0        1.743693    0.891876    1.548447
     23          1           0        0.853873   -0.618659    1.466816
 ---------------------------------------------------------------------

 SCF Done:  E(RHF) =  -699.716303358     A.U. after    2 cycles

 The electronic state is 1-A.
 Alpha  occ. eigenvalues --  -26.16423 -26.16313 -26.16298 -15.65161 -11.52109
 Alpha  occ. eigenvalues --  -11.31076 -11.29797 -11.27791 -11.24820 -11.24808
 Alpha  occ. eigenvalues --  -11.23849 -11.23829 -11.23328  -1.75808  -1.68781
 Alpha  occ. eigenvalues --   -1.68727  -1.24735  -1.13854  -1.07446  -1.01730
 Alpha  occ. eigenvalues --   -1.00864  -0.97297  -0.91468  -0.87775  -0.87631
 Alpha  occ. eigenvalues --   -0.83913  -0.82671  -0.79082  -0.77198  -0.76985
 Alpha  occ. eigenvalues --   -0.73278  -0.72684  -0.71925  -0.71463  -0.66722
 Alpha  occ. eigenvalues --   -0.66465  -0.64724  -0.63201  -0.60232  -0.59932
 Alpha  occ. eigenvalues --   -0.58260  -0.56832  -0.55145  -0.51747  -0.51601
 Alpha  occ. eigenvalues --   -0.49451  -0.42479  -0.34533  -0.29825
 Alpha virt. eigenvalues --    0.03079   0.03667   0.03808   0.04859   0.05423
 Alpha virt. eigenvalues --    0.05893   0.07013   0.07615   0.08008   0.08812
 Alpha virt. eigenvalues --    0.09782   0.10301   0.10820   0.12024   0.12582

 Mulliken charges:
               1
     1  C    0.622116
     2  C    0.640306
     3  C    0.727146
     4  C    0.274735
     5  C    0.317172
     6  C    0.375152
     7  C    0.957701
     8  C    0.415108
     9  C    1.080191
    10  N   -0.685891
    11  F   -0.338035
    12  F   -0.363368
    13  F   -0.348355
    14  H   -0.466341
    15  H   -0.468815
    16  H   -0.467726
    17  H   -0.702948
    18  H   -0.786433
    19  H   -0.170418
    20  H   -0.272693
    21  H   -0.064841
    22  H   -0.149757
    23  H   -0.124005
 Sum of Mulliken charges =   0.00000

 Dipole moment (field-independent basis, Debye):
    X=             -1.2067    Y=              1.7476    Z=              1.6914  Tot=              2.7150

 Test job not archived.
 1\1\GINC-SE145\SP\RHF\Aug-CC-pVDZ\C9H10F3N1\OHZDE\05-Apr-2025\0\\#t hf
  aug-cc-pvdz iop(5/13=1,5/36=2,99/5=2) pseudo=read geom=check guess=(r
 ead,tcheck) scf=(maxcycle=1)\\title\\0,1\C,0,-3.674067,-0.853951,-0.08
 3418\C,0,-2.544884,-1.650937,0.067775\C,0,-3.509148,0.522321,-0.154373
 \C,0,-1.27901,-1.090719,0.146626\C,0,-2.24833,1.098967,-0.065846\C,0,-
 1.102333,0.302544,0.091353\C,0,0.314133,2.318038,0.012392\C,0,1.235426
 ,0.205711,0.866884\C,0,2.316851,-0.367967,-0.044102\N,0,0.170829,0.879
 498,0.166684\F,0,3.284492,-0.95041,0.698778\F,0,1.843375,-1.300588,-0.

 Normal termination of Gaussian 16 at Sat Apr  5 22:53:03 2025.
