 Gaussian 16, Revision C.01,

 ----------------------------------------------------------------------
 #t hf aug-cc-pvdz symm=none int=(grid=ultrafine) guess=(read,tcheck) s
 table=(opt,rrhf)
 ----------------------------------------------------------------------
 -----
 title
 -----
 Symbolic Z-matrix:
 Charge =  0 Multiplicity = 1

 SCF Done:  E(RHF) =  -645.650830532     A.U. after   14 cycles
 Normal termination of Gaussian 16 at Sat Apr  5 22:48:54 2025.
 Gaussian 16:  ES64L-G16RevC.01  3-Jul-2019

 ----------------------------------------------------------------------
 #t hf aug-cc-pvdz iop(5/13=1,5/36=2,99/5=2) pseudo=read geom=check gue
 ss=(read,tcheck) scf=(maxcycle=1)
 ----------------------------------------------------------------------
 -----
 title
 -----
 Structure from the checkpoint file:  "N-methylethanesulfinamide.chk"
 Charge =  0 Multiplicity = 1

                         Standard orientation:
 ---------------------------------------------------------------------
 Center     Atomic      Atomic             Coordinates (Angstroms)
 Number     Number       Type             X           Y           Z
 ---------------------------------------------------------------------
      1          6           0       -2.139834   -0.710922    0.596826
      2          6           0        1.068695   -0.883406   -0.030439
      3          7           0       -1.459776   -0.309985   -0.644054
      4          8           0        0.011483    1.442982    0.707174
      5         16           0        0.021665    0.552366   -0.498920
      6          1           0       -1.644773   -1.577025    1.031747
      7          1           0       -3.157132   -1.003061    0.342196
      8          1           0       -2.170598    0.089547    1.338748
      9          6           0        2.503165   -0.427132    0.192491
     10          1           0        0.977363   -1.601303   -0.844626
     11          1           0        0.639979   -1.306459    0.877147
     12          1           0       -2.062842    0.266509   -1.218062
     13          1           0        2.551572    0.320870    0.982347
     14          1           0        2.931112    0.002810   -0.714236
     15          1           0        3.123098   -1.274945    0.485174
 ---------------------------------------------------------------------

 SCF Done:  E(RHF) =  -645.774743335     A.U. after    2 cycles

 The electronic state is 1-A.
 Alpha  occ. eigenvalues --  -93.67426 -20.51941 -15.65278 -11.27303 -11.27248
 Alpha  occ. eigenvalues --  -11.24093  -8.95477  -6.29759  -6.29569  -6.29262
 Alpha  occ. eigenvalues --   -1.31022  -1.17887  -1.05605  -0.95128  -0.88925
 Alpha  occ. eigenvalues --   -0.79624  -0.68310  -0.65120  -0.64309  -0.60771
 Alpha  occ. eigenvalues --   -0.60506  -0.56054  -0.54622  -0.53588  -0.53250
 Alpha  occ. eigenvalues --   -0.50887  -0.45075  -0.41522  -0.37592
 Alpha virt. eigenvalues --    0.03207   0.03799   0.04428   0.05212   0.06190
 Alpha virt. eigenvalues --    0.06682   0.07602   0.08216   0.09398   0.11031
 Alpha virt. eigenvalues --    0.11329   0.13159   0.13986   0.14599   0.15047

 Mulliken charges:
               1
     1  C    0.802980
     2  C   -0.142622
     3  N   -0.815566
     4  O   -1.104867
     5  S    1.673551
     6  H   -0.199497
     7  H   -0.192626
     8  H   -0.062062
     9  C    0.386600
    10  H   -0.079310
    11  H   -0.097121
    12  H   -0.032291
    13  H   -0.017461
    14  H   -0.066080
    15  H   -0.053629
 Sum of Mulliken charges =  -0.00000

 Dipole moment (field-independent basis, Debye):
    X=             -0.6254    Y=             -3.1862    Z=             -1.4240  Tot=              3.5455

 Test job not archived.
 1\1\GINC-SE055\SP\RHF\Aug-CC-pVDZ\C3H9N1O1S1\OHZDE\05-Apr-2025\0\\#t h
 f aug-cc-pvdz iop(5/13=1,5/36=2,99/5=2) pseudo=read geom=check guess=(
 read,tcheck) scf=(maxcycle=1)\\title\\0,1\C,0,-2.139834,-0.710922,0.59
 6826\C,0,1.068695,-0.883406,-0.030439\N,0,-1.459776,-0.309985,-0.64405
 4\O,0,0.011483,1.442982,0.707174\S,0,0.021665,0.552366,-0.49892\H,0,-1
 .644773,-1.577025,1.031747\H,0,-3.157132,-1.003061,0.342196\H,0,-2.170
 598,0.089547,1.338748\C,0,2.503165,-0.427132,0.192491\H,0,0.977363,-1.
 601303,-0.844626\H,0,0.639979,-1.306459,0.877147\H,0,-2.062842,0.26650

 Normal termination of Gaussian 16 at Sat Apr  5 22:50:04 2025.
