 Gaussian 16, Revision C.01,

 ----------------------------------------------------------------------
 #t hf aug-cc-pvdz symm=none int=(grid=ultrafine) guess=(read,tcheck) s
 table=(opt,rrhf)
 ----------------------------------------------------------------------
 -----
 title
 -----
 Symbolic Z-matrix:
 Charge =  0 Multiplicity = 1

 SCF Done:  E(RHF) =  -681.467451593     A.U. after   13 cycles
 Normal termination of Gaussian 16 at Sat Apr  5 22:48:45 2025.
 Gaussian 16:  ES64L-G16RevC.01  3-Jul-2019

 ----------------------------------------------------------------------
 #t hf aug-cc-pvdz iop(5/13=1,5/36=2,99/5=2) pseudo=read geom=check gue
 ss=(read,tcheck) scf=(maxcycle=1)
 ----------------------------------------------------------------------
 -----
 title
 -----
 Structure from the checkpoint file:  "N-methylmethanesulfonamide.chk"
 Charge =  0 Multiplicity = 1

                         Standard orientation:
 ---------------------------------------------------------------------
 Center     Atomic      Atomic             Coordinates (Angstroms)
 Number     Number       Type             X           Y           Z
 ---------------------------------------------------------------------
      1          6           0        2.232485    0.157277   -0.013976
      2          6           0       -0.853826    1.545278   -0.325744
      3          7           0        1.037219   -0.489380   -0.546136
      4          8           0       -0.349336   -0.241094    1.524633
      5          8           0       -1.388574   -1.007151   -0.660628
      6         16           0       -0.465777   -0.166383    0.079766
      7          1           0        3.102438   -0.419526   -0.323302
      8          1           0        2.182272    0.139562    1.071682
      9          1           0        2.358894    1.190381   -0.351993
     10          1           0       -0.896515    1.650085   -1.406514
     11          1           0       -1.825830    1.753160    0.115159
     12          1           0       -0.099483    2.195057    0.110415
     13          1           0        1.001456   -0.650307   -1.542474
 ---------------------------------------------------------------------

 SCF Done:  E(RHF) =  -681.636612554     A.U. after    2 cycles

 The electronic state is 1-A.
 Alpha  occ. eigenvalues --  -93.80356 -20.55797 -20.55781 -15.66798 -11.29283
 Alpha  occ. eigenvalues --  -11.28886  -9.06644  -6.41302  -6.41168  -6.40985
 Alpha  occ. eigenvalues --   -1.42707  -1.30619  -1.20647  -1.03407  -0.95814
 Alpha  occ. eigenvalues --   -0.82928  -0.73356  -0.68847  -0.68630  -0.65047
 Alpha  occ. eigenvalues --   -0.62463  -0.61282  -0.60545  -0.57248  -0.52249
 Alpha  occ. eigenvalues --   -0.51723  -0.49331  -0.47573  -0.42903
 Alpha virt. eigenvalues --    0.02388   0.03783   0.04296   0.05209   0.06674
 Alpha virt. eigenvalues --    0.07050   0.07873   0.10841   0.11323   0.12201
 Alpha virt. eigenvalues --    0.13980   0.14470   0.15321   0.15647   0.15931

 Mulliken charges:
               1
     1  C    0.793661
     2  C    0.023740
     3  N   -0.865598
     4  O   -1.042326
     5  O   -1.010663
     6  S    2.525830
     7  H   -0.183948
     8  H   -0.104691
     9  H   -0.113695
    10  H    0.019943
    11  H    0.030620
    12  H   -0.006170
    13  H   -0.066704
 Sum of Mulliken charges =  -0.00000

 Dipole moment (field-independent basis, Debye):
    X=              3.3287    Y=              4.1303    Z=             -2.7995  Tot=              5.9981

 Test job not archived.
 1\1\GINC-SE158\SP\RHF\Aug-CC-pVDZ\C2H7N1O2S1\OHZDE\05-Apr-2025\0\\#t h
 f aug-cc-pvdz iop(5/13=1,5/36=2,99/5=2) pseudo=read geom=check guess=(
 read,tcheck) scf=(maxcycle=1)\\title\\0,1\C,0,2.232485,0.157278,-0.013
 976\C,0,-0.853827,1.545278,-0.325744\N,0,1.037219,-0.48938,-0.546136\O
 ,0,-0.349336,-0.241094,1.524633\O,0,-1.388574,-1.007152,-0.660628\S,0,
 -0.465777,-0.166383,0.079766\H,0,3.102438,-0.419525,-0.323302\H,0,2.18
 2272,0.139563,1.071682\H,0,2.358894,1.190382,-0.351993\H,0,-0.896516,1
 .650085,-1.406514\H,0,-1.825831,1.753159,0.115159\H,0,-0.099484,2.1950

 Normal termination of Gaussian 16 at Sat Apr  5 22:48:50 2025.
