 Gaussian 16, Revision C.01,

 ----------------------------------------------------------------------
 #t hf aug-cc-pvdz symm=none int=(grid=ultrafine) guess=(read,tcheck) s
 table=(opt,rrhf)
 ----------------------------------------------------------------------
 -----
 title
 -----
 Symbolic Z-matrix:
 Charge =  0 Multiplicity = 1

 SCF Done:  E(RHF) =  -569.668412858     A.U. after   13 cycles
 Normal termination of Gaussian 16 at Sat Apr  5 22:47:31 2025.
 Gaussian 16:  ES64L-G16RevC.01  3-Jul-2019

 ----------------------------------------------------------------------
 #t hf aug-cc-pvdz iop(5/13=1,5/36=2,99/5=2) pseudo=read geom=check gue
 ss=(read,tcheck) scf=(maxcycle=1)
 ----------------------------------------------------------------------
 -----
 title
 -----
 Structure from the checkpoint file:  "N-N-dimethylthioformamide.chk"
 Charge =  0 Multiplicity = 1

                         Standard orientation:
 ---------------------------------------------------------------------
 Center     Atomic      Atomic             Coordinates (Angstroms)
 Number     Number       Type             X           Y           Z
 ---------------------------------------------------------------------
      1          6           0        0.000000    0.771893    0.000000
      2         16           0        1.640420    0.979773    0.000000
      3          7           0       -0.700922   -0.369480    0.000000
      4          6           0       -0.070945   -1.678921    0.000000
      5          6           0       -2.154440   -0.362728    0.000000
      6          1           0       -0.648724    1.645722    0.000000
      7          1           0       -0.374521   -2.239525    0.886803
      8          1           0       -0.374521   -2.239525   -0.886803
      9          1           0        1.006974   -1.550438    0.000000
     10          1           0       -2.539090   -0.874548   -0.885289
     11          1           0       -2.539090   -0.874548    0.885289
     12          1           0       -2.518989    0.661390    0.000000
 ---------------------------------------------------------------------

 SCF Done:  E(RHF) =  -569.742775942     A.U. after    2 cycles

 The electronic state is 1-A'.
 Alpha  occ. eigenvalues --  -93.47793 -15.68835 -11.35057 -11.29891 -11.28065
 Alpha  occ. eigenvalues --   -8.77729  -6.11959  -6.11456  -6.11352  -1.26791
 Alpha  occ. eigenvalues --   -1.03107  -0.99632  -0.90415  -0.76912  -0.70189
 Alpha  occ. eigenvalues --   -0.67104  -0.63470  -0.58267  -0.58065  -0.55807
 Alpha  occ. eigenvalues --   -0.49745  -0.47536  -0.32194  -0.31907
 Alpha virt. eigenvalues --    0.02474   0.03897   0.04488   0.05258   0.07353
 Alpha virt. eigenvalues --    0.07464   0.07787   0.09400   0.10633   0.10927
 Alpha virt. eigenvalues --    0.12359   0.13418   0.13831   0.15144   0.15940

 Mulliken charges:
               1
     1  C    0.050034
     2  S   -0.119959
     3  N   -0.185433
     4  C    0.705050
     5  C    0.738303
     6  H   -0.389732
     7  H   -0.087153
     8  H   -0.087153
     9  H   -0.221890
    10  H   -0.085264
    11  H   -0.085264
    12  H   -0.231540
 Sum of Mulliken charges =  -0.00000

 Dipole moment (field-independent basis, Debye):
    X=             -4.9649    Y=             -2.3734    Z=             -0.0000  Tot=              5.5030

 Test job not archived.
 1\1\GINC-SE176\SP\RHF\Aug-CC-pVDZ\C3H7N1S1\OHZDE\05-Apr-2025\0\\#t hf
 aug-cc-pvdz iop(5/13=1,5/36=2,99/5=2) pseudo=read geom=check guess=(re
 ad,tcheck) scf=(maxcycle=1)\\title\\0,1\C,0,0.,0.771893,0.\S,0,1.64042
 ,0.979773,0.\N,0,-0.700922,-0.36948,0.\C,0,-0.070945,-1.678921,0.\C,0,
 -2.15444,-0.362728,0.\H,0,-0.648724,1.645722,0.\H,0,-0.374521,-2.23952
 5,0.886803\H,0,-0.374521,-2.239525,-0.886803\H,0,1.006974,-1.550438,0.
 \H,0,-2.53909,-0.874548,-0.885289\H,0,-2.53909,-0.874548,0.885289\H,0,
 -2.518989,0.66139,0.\\Version=ES64L-G16RevC.01\State=1-A'\HF=-569.7427

 Normal termination of Gaussian 16 at Sat Apr  5 22:48:00 2025.
