 Gaussian 16, Revision C.01,

 ----------------------------------------------------------------------
 #t hf aug-cc-pvdz symm=none int=(grid=ultrafine) guess=(read,tcheck) s
 table=(opt,rrhf)
 ----------------------------------------------------------------------
 -----
 title
 -----
 Symbolic Z-matrix:
 Charge =  0 Multiplicity = 1

 SCF Done:  E(RHF) =  -369.713854884     A.U. after   14 cycles
 Normal termination of Gaussian 16 at Sat Apr  5 22:47:32 2025.
 Gaussian 16:  ES64L-G16RevC.01  3-Jul-2019

 ----------------------------------------------------------------------
 #t hf aug-cc-pvdz iop(5/13=1,5/36=2,99/5=2) pseudo=read geom=check gue
 ss=(read,tcheck) scf=(maxcycle=1)
 ----------------------------------------------------------------------
 -----
 title
 -----
 Structure from the checkpoint file:  "N-N-difluoro-2-propen-1-amine.chk"
 Charge =  0 Multiplicity = 1

                         Standard orientation:
 ---------------------------------------------------------------------
 Center     Atomic      Atomic             Coordinates (Angstroms)
 Number     Number       Type             X           Y           Z
 ---------------------------------------------------------------------
      1          9           0       -1.941746   -0.828965   -0.048656
      2          9           0       -1.207342    1.234561    0.002398
      3          7           0       -0.837230   -0.049645   -0.459202
      4          6           0        0.253975   -0.468738    0.449582
      5          6           0        1.490150    0.334470    0.186438
      6          6           0        2.628245   -0.194799   -0.239489
      7          1           0        0.410259   -1.522526    0.224676
      8          1           0       -0.096603   -0.362385    1.478991
      9          1           0        1.421730    1.396780    0.385841
     10          1           0        2.723117   -1.253412   -0.447875
     11          1           0        3.509677    0.413089   -0.390093
 ---------------------------------------------------------------------

 SCF Done:  E(RHF) =  -369.836010022     A.U. after    2 cycles

 The electronic state is 1-A.
 Alpha  occ. eigenvalues --  -26.15885 -26.15873 -15.83929 -11.30742 -11.26886
 Alpha  occ. eigenvalues --  -11.26190  -1.70720  -1.65010  -1.17962  -1.06598
 Alpha  occ. eigenvalues --   -0.94253  -0.82243  -0.80383  -0.79656  -0.76941
 Alpha  occ. eigenvalues --   -0.73730  -0.69504  -0.67628  -0.66430  -0.62225
 Alpha  occ. eigenvalues --   -0.57126  -0.52820  -0.49433  -0.40019
 Alpha virt. eigenvalues --    0.03237   0.04306   0.04625   0.06336   0.06885
 Alpha virt. eigenvalues --    0.09010   0.10298   0.12178   0.12802   0.14776
 Alpha virt. eigenvalues --    0.14987   0.15379   0.15846   0.16787   0.17290

 Mulliken charges:
               1
     1  F   -0.362694
     2  F   -0.362132
     3  N   -0.017200
     4  C    0.867585
     5  C    0.603932
     6  C    0.365116
     7  H   -0.176607
     8  H   -0.020715
     9  H   -0.356835
    10  H   -0.263649
    11  H   -0.276802
 Sum of Mulliken charges =  -0.00000

 Dipole moment (field-independent basis, Debye):
    X=              3.2017    Y=             -0.9891    Z=              0.7780  Tot=              3.4401

 Test job not archived.
 1\1\GINC-SE036\SP\RHF\Aug-CC-pVDZ\C3H5F2N1\OHZDE\05-Apr-2025\0\\#t hf
 aug-cc-pvdz iop(5/13=1,5/36=2,99/5=2) pseudo=read geom=check guess=(re
 ad,tcheck) scf=(maxcycle=1)\\title\\0,1\F,0,-1.941746,-0.828965,-0.048
 656\F,0,-1.207342,1.234561,0.002398\N,0,-0.83723,-0.049645,-0.459202\C
 ,0,0.253975,-0.468738,0.449582\C,0,1.49015,0.33447,0.186438\C,0,2.6282
 45,-0.194799,-0.239489\H,0,0.410259,-1.522526,0.224676\H,0,-0.096603,-
 0.362385,1.478991\H,0,1.42173,1.39678,0.385841\H,0,2.723117,-1.253412,
 -0.447875\H,0,3.509677,0.413089,-0.390093\\Version=ES64L-G16RevC.01\St

 Normal termination of Gaussian 16 at Sat Apr  5 22:47:59 2025.
