 Gaussian 16, Revision C.01,

 ----------------------------------------------------------------------
 #t hf aug-cc-pvdz symm=none int=(grid=ultrafine) guess=(read,tcheck) s
 table=(opt,rrhf)
 ----------------------------------------------------------------------
 -----
 title
 -----
 Symbolic Z-matrix:
 Charge =  0 Multiplicity = 1

 SCF Done:  E(RHF) =  -515.634516859     A.U. after   16 cycles
 Normal termination of Gaussian 16 at Sat Apr  5 22:51:22 2025.
 Gaussian 16:  ES64L-G16RevC.01  3-Jul-2019

 ----------------------------------------------------------------------
 #t hf aug-cc-pvdz iop(5/13=1,5/36=2,99/5=2) pseudo=read geom=check gue
 ss=(read,tcheck) scf=(maxcycle=1)
 ----------------------------------------------------------------------
 -----
 title
 -----
 Structure from the checkpoint file:  "N-N-4-trimethylbenzamide.chk"
 Charge =  0 Multiplicity = 1

                         Standard orientation:
 ---------------------------------------------------------------------
 Center     Atomic      Atomic             Coordinates (Angstroms)
 Number     Number       Type             X           Y           Z
 ---------------------------------------------------------------------
      1          6           0       -0.824709    1.228044    0.516573
      2          6           0       -0.551689   -0.837659   -0.670034
      3          6           0       -2.192547    1.016290    0.567183
      4          6           0       -1.928178   -1.033187   -0.636809
      5          6           0        0.016971    0.292751   -0.088553
      6          6           0       -2.771189   -0.118200   -0.009775
      7          6           0        1.480040    0.615826   -0.196992
      8          6           0       -4.260063   -0.333800    0.047428
      9          6           0        3.800000   -0.087883   -0.163135
     10          6           0        2.129735   -1.553398    0.876092
     11          7           0        2.392421   -0.372582    0.069758
     12          8           0        1.827343    1.734039   -0.557225
     13          1           0       -0.393860    2.126909    0.935086
     14          1           0        0.076121   -1.560776   -1.173451
     15          1           0       -2.825569    1.749761    1.051454
     16          1           0       -2.351256   -1.910030   -1.110565
     17          1           0       -4.560652   -1.194770   -0.547754
     18          1           0       -4.593447   -0.504188    1.073579
     19          1           0       -4.800270    0.538795   -0.323928
     20          1           0        4.294841   -0.991603   -0.522094
     21          1           0        4.298732    0.238192    0.755175
     22          1           0        3.890077    0.701076   -0.901854
     23          1           0        2.743352   -1.528530    1.781764
     24          1           0        2.377510   -2.465691    0.327084
     25          1           0        1.088513   -1.596087    1.173131
 ---------------------------------------------------------------------

 SCF Done:  E(RHF) =  -515.791953806     A.U. after    2 cycles

 The electronic state is 1-A.
 Alpha  occ. eigenvalues --  -20.52644 -15.64841 -11.35965 -11.27577 -11.26175
 Alpha  occ. eigenvalues --  -11.26012 -11.25543 -11.25267 -11.25025 -11.24576
 Alpha  occ. eigenvalues --  -11.24356 -11.24043  -1.33963  -1.20877  -1.15600
 Alpha  occ. eigenvalues --   -1.05727  -1.01730  -0.97308  -0.95925  -0.91997
 Alpha  occ. eigenvalues --   -0.84052  -0.82261  -0.75505  -0.71262  -0.67086
 Alpha  occ. eigenvalues --   -0.65694  -0.65185  -0.63840  -0.62479  -0.59641
 Alpha  occ. eigenvalues --   -0.58642  -0.58050  -0.56525  -0.55993  -0.55323
 Alpha  occ. eigenvalues --   -0.54043  -0.52924  -0.51227  -0.49632  -0.49459
 Alpha  occ. eigenvalues --   -0.43595  -0.37219  -0.34697  -0.33588
 Alpha virt. eigenvalues --    0.02964   0.03435   0.03943   0.04557   0.04931
 Alpha virt. eigenvalues --    0.05358   0.05818   0.06844   0.07274   0.07677
 Alpha virt. eigenvalues --    0.07855   0.08639   0.09486   0.09694   0.10284

 Mulliken charges:
               1
     1  C   -0.084526
     2  C    0.319860
     3  C    0.689748
     4  C    0.248642
     5  C    1.454738
     6  C   -0.250697
     7  C   -0.475467
     8  C    0.844457
     9  C    0.792390
    10  C    0.890455
    11  N   -0.380159
    12  O   -0.543463
    13  H   -0.622678
    14  H   -0.662608
    15  H   -0.594054
    16  H   -0.596016
    17  H   -0.183187
    18  H    0.097584
    19  H    0.055313
    20  H   -0.139343
    21  H   -0.092299
    22  H   -0.219621
    23  H   -0.123557
    24  H   -0.149813
    25  H   -0.275698
 Sum of Mulliken charges =   0.00000

 Dipole moment (field-independent basis, Debye):
    X=             -1.2443    Y=             -3.8218    Z=              1.5397  Tot=              4.3041

 Test job not archived.
 1\1\GINC-SE145\SP\RHF\Aug-CC-pVDZ\C10H13N1O1\OHZDE\05-Apr-2025\0\\#t h
 f aug-cc-pvdz iop(5/13=1,5/36=2,99/5=2) pseudo=read geom=check guess=(
 read,tcheck) scf=(maxcycle=1)\\title\\0,1\C,0,-0.824709,1.228044,0.516
 573\C,0,-0.551689,-0.837659,-0.670034\C,0,-2.192547,1.01629,0.567183\C
 ,0,-1.928178,-1.033187,-0.636809\C,0,0.016971,0.292751,-0.088553\C,0,-
 2.771189,-0.1182,-0.009775\C,0,1.48004,0.615826,-0.196992\C,0,-4.26006
 3,-0.3338,0.047428\C,0,3.8,-0.087883,-0.163135\C,0,2.129735,-1.553398,
 0.876092\N,0,2.392421,-0.372582,0.069758\O,0,1.827343,1.734039,-0.5572

 Normal termination of Gaussian 16 at Sat Apr  5 22:51:46 2025.
