 Gaussian 16, Revision C.01,

 ----------------------------------------------------------------------
 #t hf aug-cc-pvdz symm=none int=(grid=ultrafine) guess=(read,tcheck) s
 table=(opt,rrhf)
 ----------------------------------------------------------------------
 -----
 title
 -----
 Symbolic Z-matrix:
 Charge =  0 Multiplicity = 1

 SCF Done:  E(RHF) =  -736.500568424     A.U. after   13 cycles
 Normal termination of Gaussian 16 at Sat Apr  5 22:47:43 2025.
 Gaussian 16:  ES64L-G16RevC.01  3-Jul-2019

 ----------------------------------------------------------------------
 #t hf aug-cc-pvdz iop(5/13=1,5/36=2,99/5=2) pseudo=read geom=check gue
 ss=(read,tcheck) scf=(maxcycle=1)
 ----------------------------------------------------------------------
 -----
 title
 -----
 Structure from the checkpoint file:  "N-N--dimethylsulfamide.chk"
 Charge =  0 Multiplicity = 1

                         Standard orientation:
 ---------------------------------------------------------------------
 Center     Atomic      Atomic             Coordinates (Angstroms)
 Number     Number       Type             X           Y           Z
 ---------------------------------------------------------------------
      1          6           0       -2.061141    1.167898    0.047427
      2          6           0        2.042644    1.195619   -0.057100
      3          7           0       -0.984023    0.568342   -0.743304
      4          7           0        1.205917    0.297792    0.735190
      5          8           0       -0.706460   -1.214268    1.093487
      6          8           0        0.585495   -1.313495   -1.089732
      7         16           0        0.003297   -0.568296    0.006116
      8          1           0       -2.593209    1.870367   -0.591540
      9          1           0       -1.635479    1.730384    0.877392
     10          1           0       -2.760962    0.433271    0.448081
     11          1           0        1.506342    2.078498   -0.412353
     12          1           0        2.430424    0.647758   -0.912276
     13          1           0        2.883696    1.505789    0.560159
     14          1           0       -1.279673    0.182618   -1.630608
     15          1           0        0.921539    0.622114    1.648067
 ---------------------------------------------------------------------

 SCF Done:  E(RHF) =  -736.690519339     A.U. after    2 cycles

 The electronic state is 1-A.
 Alpha  occ. eigenvalues --  -93.82298 -20.56266 -20.56179 -15.66689 -15.66664
 Alpha  occ. eigenvalues --  -11.28933 -11.28606  -9.08275  -6.42944  -6.42787
 Alpha  occ. eigenvalues --   -6.42732  -1.44070  -1.31307  -1.21369  -1.19353
 Alpha  occ. eigenvalues --   -0.96988  -0.94458  -0.83525  -0.74679  -0.71712
 Alpha  occ. eigenvalues --   -0.69046  -0.65748  -0.64544  -0.62086  -0.60799
 Alpha  occ. eigenvalues --   -0.57781  -0.57104  -0.53186  -0.51948  -0.50770
 Alpha  occ. eigenvalues --   -0.49539  -0.44381  -0.42012
 Alpha virt. eigenvalues --    0.02571   0.03516   0.04148   0.05096   0.06518
 Alpha virt. eigenvalues --    0.06695   0.07585   0.08519   0.10657   0.12011
 Alpha virt. eigenvalues --    0.12694   0.13203   0.14753   0.15364   0.15611

 Mulliken charges:
               1
     1  C    0.785694
     2  C    0.788327
     3  N   -0.868023
     4  N   -0.789789
     5  O   -0.963973
     6  O   -0.956222
     7  S    2.881874
     8  H   -0.196337
     9  H   -0.143596
    10  H   -0.089515
    11  H   -0.097120
    12  H   -0.107763
    13  H   -0.190477
    14  H   -0.001208
    15  H   -0.051871
 Sum of Mulliken charges =  -0.00000

 Dipole moment (field-independent basis, Debye):
    X=             -0.6454    Y=              5.3760    Z=              0.0494  Tot=              5.4148

 Test job not archived.
 1\1\GINC-SE028\SP\RHF\Aug-CC-pVDZ\C2H8N2O2S1\OHZDE\05-Apr-2025\0\\#t h
 f aug-cc-pvdz iop(5/13=1,5/36=2,99/5=2) pseudo=read geom=check guess=(
 read,tcheck) scf=(maxcycle=1)\\title\\0,1\C,0,-2.061141,1.167898,0.047
 427\C,0,2.042644,1.195619,-0.0571\N,0,-0.984023,0.568342,-0.743304\N,0
 ,1.205917,0.297792,0.73519\O,0,-0.70646,-1.214268,1.093487\O,0,0.58549
 5,-1.313495,-1.089732\S,0,0.003297,-0.568296,0.006116\H,0,-2.593209,1.
 870367,-0.59154\H,0,-1.635479,1.730384,0.877392\H,0,-2.760962,0.433271
 ,0.448081\H,0,1.506342,2.078498,-0.412353\H,0,2.430424,0.647758,-0.912

 Normal termination of Gaussian 16 at Sat Apr  5 22:48:02 2025.
