 Gaussian 16, Revision C.01,

 ----------------------------------------------------------------------
 #t hf aug-cc-pvdz symm=none int=(grid=ultrafine) guess=(read,tcheck) s
 table=(opt,rrhf)
 ----------------------------------------------------------------------
 -----
 title
 -----
 Symbolic Z-matrix:
 Charge =  0 Multiplicity = 1

 SCF Done:  E(RHF) =  -1239.66724574     A.U. after   15 cycles
 Normal termination of Gaussian 16 at Sat Apr  5 22:47:47 2025.
 Gaussian 16:  ES64L-G16RevC.01  3-Jul-2019

 ----------------------------------------------------------------------
 #t hf aug-cc-pvdz iop(5/13=1,5/36=2,99/5=2) pseudo=read geom=check gue
 ss=(read,tcheck) scf=(maxcycle=1)
 ----------------------------------------------------------------------
 -----
 title
 -----
 Structure from the checkpoint file:  "N-N-dichloroalanine.chk"
 Charge =  0 Multiplicity = 1

                         Standard orientation:
 ---------------------------------------------------------------------
 Center     Atomic      Atomic             Coordinates (Angstroms)
 Number     Number       Type             X           Y           Z
 ---------------------------------------------------------------------
      1         17           0        0.728531    1.497292    0.772640
      2         17           0        2.223389   -0.562465   -0.591632
      3          8           0       -2.668641   -0.240390    0.519523
      4          8           0       -1.881708    0.532517   -1.435981
      5          7           0        0.638389    0.232441   -0.474123
      6          6           0       -0.389595   -0.778712   -0.100354
      7          6           0       -1.770143   -0.126666   -0.269201
      8          6           0       -0.253722   -1.474534    1.243293
      9          1           0       -2.779254    0.895548   -1.477125
     10          1           0       -0.305243   -1.508256   -0.910817
     11          1           0        0.726260   -1.938756    1.327217
     12          1           0       -0.395120   -0.777206    2.064971
     13          1           0       -1.014466   -2.248024    1.326727
 ---------------------------------------------------------------------

 SCF Done:  E(RHF) =  -1239.80463361     A.U. after    2 cycles

 The electronic state is 1-A.
 Alpha  occ. eigenvalues -- -103.70711-103.70441 -20.64128 -20.58624 -15.77437
 Alpha  occ. eigenvalues --  -11.42114 -11.32981 -11.24744 -10.73705 -10.73445
 Alpha  occ. eigenvalues --   -8.39444  -8.39183  -8.39070  -8.39044  -8.38816
 Alpha  occ. eigenvalues --   -8.38785  -1.44657  -1.34907  -1.29876  -1.15716
 Alpha  occ. eigenvalues --   -1.10662  -0.98075  -0.91869  -0.81350  -0.73823
 Alpha  occ. eigenvalues --   -0.73418  -0.69751  -0.64608  -0.63898  -0.62374
 Alpha  occ. eigenvalues --   -0.60527  -0.56040  -0.55270  -0.53796  -0.52028
 Alpha  occ. eigenvalues --   -0.50624  -0.49519  -0.48095  -0.47248  -0.41549
 Alpha virt. eigenvalues --    0.03323   0.03938   0.04759   0.05433   0.06490
 Alpha virt. eigenvalues --    0.07223   0.09187   0.09273   0.10587   0.11673
 Alpha virt. eigenvalues --    0.12884   0.13271   0.14120   0.14740   0.15364

 Mulliken charges:
               1
     1  Cl   0.137466
     2  Cl   0.159467
     3  O   -0.461443
     4  O   -0.528635
     5  N   -0.889618
     6  C    0.223548
     7  C    0.647569
     8  C    0.619084
     9  H    0.211364
    10  H   -0.042685
    11  H   -0.037524
    12  H   -0.012395
    13  H   -0.026198
 Sum of Mulliken charges =  -0.00000

 Dipole moment (field-independent basis, Debye):
    X=             -0.2223    Y=             -1.1615    Z=             -0.7228  Tot=              1.3860

 Test job not archived.
 1\1\GINC-SE177\SP\RHF\Aug-CC-pVDZ\C3H5Cl2N1O2\OHZDE\05-Apr-2025\0\\#t
 hf aug-cc-pvdz iop(5/13=1,5/36=2,99/5=2) pseudo=read geom=check guess=
 (read,tcheck) scf=(maxcycle=1)\\title\\0,1\Cl,0,0.728531,1.497292,0.77
 264\Cl,0,2.223389,-0.562465,-0.591632\O,0,-2.668641,-0.24039,0.519523\
 O,0,-1.881708,0.532517,-1.435981\N,0,0.638389,0.232441,-0.474123\C,0,-
 0.389595,-0.778712,-0.100354\C,0,-1.770143,-0.126666,-0.269201\C,0,-0.
 253722,-1.474534,1.243293\H,0,-2.779254,0.895548,-1.477125\H,0,-0.3052
 43,-1.508256,-0.910817\H,0,0.72626,-1.938756,1.327217\H,0,-0.39512,-0.

 Normal termination of Gaussian 16 at Sat Apr  5 22:48:02 2025.
