 Gaussian 16, Revision C.01,

 ----------------------------------------------------------------------
 #t hf aug-cc-pvdz symm=none int=(grid=ultrafine) guess=(read,tcheck) s
 table=(opt,rrhf)
 ----------------------------------------------------------------------
 -----
 title
 -----
 Symbolic Z-matrix:
 Charge =  0 Multiplicity = 1

 SCF Done:  E(RHF) =  -302.084663494     A.U. after   13 cycles
 Normal termination of Gaussian 16 at Sat Apr  5 22:47:47 2025.
 Gaussian 16:  ES64L-G16RevC.01  3-Jul-2019

 ----------------------------------------------------------------------
 #t hf aug-cc-pvdz iop(5/13=1,5/36=2,99/5=2) pseudo=read geom=check gue
 ss=(read,tcheck) scf=(maxcycle=1)
 ----------------------------------------------------------------------
 -----
 title
 -----
 Structure from the checkpoint file:  "N-N-dimethylurea.chk"
 Charge =  0 Multiplicity = 1

                         Standard orientation:
 ---------------------------------------------------------------------
 Center     Atomic      Atomic             Coordinates (Angstroms)
 Number     Number       Type             X           Y           Z
 ---------------------------------------------------------------------
      1          1           0        2.546292    0.664510    0.165310
      2          8           0        1.231997   -1.340449   -0.051260
      3          6           0        0.759803   -0.212659   -0.016985
      4          7           0       -0.589131    0.040718   -0.042504
      5          1           0        1.276432    1.747193    0.451488
      6          7           0        1.584512    0.906330   -0.005452
      7          1           0       -2.218134   -1.068197   -0.768577
      8          1           0       -2.090342   -1.011668    0.999406
      9          1           0       -0.951852   -1.996650    0.058184
     10          6           0       -1.517068   -1.071094    0.069328
     11          1           0       -1.231220    1.809057    0.957610
     12          1           0       -2.152797    1.337971   -0.470531
     13          1           0       -0.559592    2.045476   -0.673917
     14          6           0       -1.149808    1.378179   -0.047877
 ---------------------------------------------------------------------

 SCF Done:  E(RHF) =  -302.182496458     A.U. after    2 cycles

 The electronic state is 1-A.
 Alpha  occ. eigenvalues --  -20.51698 -15.64666 -15.64105 -11.38543 -11.28306
 Alpha  occ. eigenvalues --  -11.26353  -1.34837  -1.21649  -1.15921  -0.97424
 Alpha  occ. eigenvalues --   -0.93063  -0.76771  -0.73473  -0.68535  -0.66115
 Alpha  occ. eigenvalues --   -0.62863  -0.59699  -0.56992  -0.56625  -0.56168
 Alpha  occ. eigenvalues --   -0.53451  -0.45106  -0.42018  -0.37273
 Alpha virt. eigenvalues --    0.02650   0.03654   0.04450   0.04942   0.06774
 Alpha virt. eigenvalues --    0.07379   0.07783   0.08998   0.10248   0.12287
 Alpha virt. eigenvalues --    0.13690   0.14261   0.14450   0.15023   0.16068

 Mulliken charges:
               1
     1  H    0.002280
     2  O   -0.525215
     3  C    0.593244
     4  N   -0.500088
     5  H   -0.011505
     6  N   -0.165014
     7  H   -0.123974
     8  H   -0.058151
     9  H   -0.221339
    10  C    0.673734
    11  H   -0.097817
    12  H   -0.210503
    13  H   -0.181176
    14  C    0.825523
 Sum of Mulliken charges =  -0.00000

 Dipole moment (field-independent basis, Debye):
    X=             -2.1437    Y=              3.9408    Z=              1.0335  Tot=              4.6036

 Test job not archived.
 1\1\GINC-SE165\SP\RHF\Aug-CC-pVDZ\C3H8N2O1\OHZDE\05-Apr-2025\0\\#t hf
 aug-cc-pvdz iop(5/13=1,5/36=2,99/5=2) pseudo=read geom=check guess=(re
 ad,tcheck) scf=(maxcycle=1)\\title\\0,1\H,0,2.546292,0.66451,0.16531\O
 ,0,1.231997,-1.340449,-0.05126\C,0,0.759803,-0.212659,-0.016985\N,0,-0
 .589131,0.040718,-0.042504\H,0,1.276432,1.747193,0.451488\N,0,1.584512
 ,0.90633,-0.005452\H,0,-2.218134,-1.068197,-0.768577\H,0,-2.090342,-1.
 011668,0.999406\H,0,-0.951852,-1.99665,0.058184\C,0,-1.517068,-1.07109
 4,0.069328\H,0,-1.23122,1.809057,0.95761\H,0,-2.152797,1.337971,-0.470

 Normal termination of Gaussian 16 at Sat Apr  5 22:48:00 2025.
