 Gaussian 16, Revision C.01,

 ----------------------------------------------------------------------
 #t hf aug-cc-pvdz symm=none int=(grid=ultrafine) guess=(read,tcheck) s
 table=(opt,rrhf)
 ----------------------------------------------------------------------
 -----
 title
 -----
 Symbolic Z-matrix:
 Charge =  0 Multiplicity = 1

 SCF Done:  E(RHF) =  -407.548258953     A.U. after   15 cycles
 Normal termination of Gaussian 16 at Sat Apr  5 22:47:37 2025.
 Gaussian 16:  ES64L-G16RevC.01  3-Jul-2019

 ----------------------------------------------------------------------
 #t hf aug-cc-pvdz iop(5/13=1,5/36=2,99/5=2) pseudo=read geom=check gue
 ss=(read,tcheck) scf=(maxcycle=1)
 ----------------------------------------------------------------------
 -----
 title
 -----
 Structure from the checkpoint file:  "N-N-difluorobut-2-yn-1-amine.chk"
 Charge =  0 Multiplicity = 1

                         Standard orientation:
 ---------------------------------------------------------------------
 Center     Atomic      Atomic             Coordinates (Angstroms)
 Number     Number       Type             X           Y           Z
 ---------------------------------------------------------------------
      1          9           0        2.662788   -0.389952   -0.184145
      2          9           0        1.350478    1.307291    0.242723
      3          7           0        1.365233    0.093381   -0.468109
      4          6           0        0.486442   -0.814523    0.318269
      5          6           0       -0.906899   -0.447656    0.149345
      6          6           0       -3.460800    0.209456   -0.144708
      7          6           0       -2.062686   -0.155069    0.017364
      8          1           0        0.689215   -1.805176   -0.090461
      9          1           0        0.800414   -0.789621    1.363966
     10          1           0       -3.548554    1.185872   -0.623577
     11          1           0       -3.988577   -0.517719   -0.763260
     12          1           0       -3.964868    0.263674    0.821272
 ---------------------------------------------------------------------

 SCF Done:  E(RHF) =  -407.683352108     A.U. after    2 cycles

 The electronic state is 1-A.
 Alpha  occ. eigenvalues --  -26.16130 -26.16025 -15.84319 -11.32803 -11.27040
 Alpha  occ. eigenvalues --  -11.26283 -11.25080  -1.71021  -1.65222  -1.18136
 Alpha  occ. eigenvalues --   -1.07014  -0.99960  -0.93693  -0.81209  -0.80638
 Alpha  occ. eigenvalues --   -0.79761  -0.74256  -0.69646  -0.68118  -0.67705
 Alpha  occ. eigenvalues --   -0.63188  -0.62325  -0.60426  -0.60175  -0.49844
 Alpha  occ. eigenvalues --   -0.40239  -0.39512
 Alpha virt. eigenvalues --    0.02921   0.03932   0.04803   0.05917   0.06440
 Alpha virt. eigenvalues --    0.08268   0.09838   0.12205   0.13477   0.13878
 Alpha virt. eigenvalues --    0.14283   0.15056   0.15689   0.15762   0.16375

 Mulliken charges:
               1
     1  F   -0.370290
     2  F   -0.344932
     3  N    0.013278
     4  C    0.833800
     5  C   -0.248103
     6  C    0.156910
     7  C   -0.719225
     8  H    0.082816
     9  H    0.105418
    10  H    0.170598
    11  H    0.155927
    12  H    0.163802
 Sum of Mulliken charges =   0.00000

 Dipole moment (field-independent basis, Debye):
    X=             -3.2937    Y=             -1.6793    Z=              0.4601  Tot=              3.7256

 Test job not archived.
 1\1\GINC-SE040\SP\RHF\Aug-CC-pVDZ\C4H5F2N1\OHZDE\05-Apr-2025\0\\#t hf
 aug-cc-pvdz iop(5/13=1,5/36=2,99/5=2) pseudo=read geom=check guess=(re
 ad,tcheck) scf=(maxcycle=1)\\title\\0,1\F,0,2.662788,-0.389952,-0.1841
 45\F,0,1.350478,1.307291,0.242723\N,0,1.365233,0.093381,-0.468109\C,0,
 0.486442,-0.814523,0.318269\C,0,-0.906899,-0.447656,0.149345\C,0,-3.46
 08,0.209456,-0.144708\C,0,-2.062686,-0.155069,0.017364\H,0,0.689215,-1
 .805176,-0.090461\H,0,0.800414,-0.789621,1.363966\H,0,-3.548554,1.1858
 72,-0.623577\H,0,-3.988577,-0.517719,-0.76326\H,0,-3.964868,0.263674,0

 Normal termination of Gaussian 16 at Sat Apr  5 22:48:00 2025.
