 Gaussian 16, Revision C.01,

 ----------------------------------------------------------------------
 #t hf aug-cc-pvdz symm=none int=(grid=ultrafine) guess=(read,tcheck) s
 table=(opt,rrhf)
 ----------------------------------------------------------------------
 -----
 title
 -----
 Symbolic Z-matrix:
 Charge =  0 Multiplicity = 1

 SCF Done:  E(RHF) =  -330.669169225     A.U. after   14 cycles
 Normal termination of Gaussian 16 at Sat Apr  5 22:47:26 2025.
 Gaussian 16:  ES64L-G16RevC.01  3-Jul-2019

 ----------------------------------------------------------------------
 #t hf aug-cc-pvdz iop(5/13=1,5/36=2,99/5=2) pseudo=read geom=check gue
 ss=(read,tcheck) scf=(maxcycle=1)
 ----------------------------------------------------------------------
 -----
 title
 -----
 Structure from the checkpoint file:  "N-N-difluoroethenamine.chk"
 Charge =  0 Multiplicity = 1

                         Standard orientation:
 ---------------------------------------------------------------------
 Center     Atomic      Atomic             Coordinates (Angstroms)
 Number     Number       Type             X           Y           Z
 ---------------------------------------------------------------------
      1          9           0        1.116105    1.093260    0.040175
      2          9           0        1.116118   -1.093252    0.040168
      3          7           0        0.345864   -0.000000   -0.426963
      4          6           0       -0.813920   -0.000009    0.420336
      5          6           0       -2.001377   -0.000000   -0.157052
      6          1           0       -0.622645   -0.000022    1.485320
      7          1           0       -2.091523    0.000012   -1.234028
      8          1           0       -2.905105   -0.000005    0.434659
 ---------------------------------------------------------------------

 SCF Done:  E(RHF) =  -330.780469930     A.U. after    2 cycles

 The electronic state is 1-A.
 Alpha  occ. eigenvalues --  -26.16085 -26.16081 -15.84577 -11.31036 -11.28582
 Alpha  occ. eigenvalues --   -1.70883  -1.65070  -1.19208  -1.03279  -0.86414
 Alpha  occ. eigenvalues --   -0.80607  -0.80401  -0.75915  -0.73938  -0.71170
 Alpha  occ. eigenvalues --   -0.69464  -0.63279  -0.59141  -0.50300  -0.43234
 Alpha virt. eigenvalues --    0.03179   0.04285   0.05670   0.07895   0.10853
 Alpha virt. eigenvalues --    0.10911   0.11537   0.14614   0.14744   0.16216
 Alpha virt. eigenvalues --    0.17253   0.17306   0.17782   0.19138   0.21365

 Mulliken charges:
               1
     1  F   -0.369769
     2  F   -0.369769
     3  N   -0.011464
     4  C    0.950589
     5  C    0.394480
     6  H   -0.160619
     7  H   -0.208136
     8  H   -0.225312
 Sum of Mulliken charges =   0.00000

 Dipole moment (field-independent basis, Debye):
    X=             -3.6029    Y=             -0.0000    Z=              0.4692  Tot=              3.6333

 Test job not archived.
 1\1\GINC-SE055\SP\RHF\Aug-CC-pVDZ\C2H3F2N1\OHZDE\05-Apr-2025\0\\#t hf
 aug-cc-pvdz iop(5/13=1,5/36=2,99/5=2) pseudo=read geom=check guess=(re
 ad,tcheck) scf=(maxcycle=1)\\title\\0,1\F,0,1.116105,1.09326,0.040175\
 F,0,1.116118,-1.093252,0.040168\N,0,0.345864,0.,-0.426963\C,0,-0.81392
 ,-0.000009,0.420336\C,0,-2.001377,0.,-0.157052\H,0,-0.622645,-0.000022
 ,1.48532\H,0,-2.091523,0.000012,-1.234028\H,0,-2.905105,-0.000005,0.43
 4659\\Version=ES64L-G16RevC.01\State=1-A\HF=-330.7804699\RMSD=5.727e-0
 3\Dipole=-1.4174742,-0.0000084,0.1845921\Quadrupole=1.7641966,-2.89716

 Normal termination of Gaussian 16 at Sat Apr  5 22:47:58 2025.
