 Gaussian 16, Revision C.01,

 ----------------------------------------------------------------------
 #t hf aug-cc-pvdz symm=none int=(grid=ultrafine) guess=(read,tcheck) s
 table=(opt,rrhf)
 ----------------------------------------------------------------------
 -----
 title
 -----
 Symbolic Z-matrix:
 Charge =  0 Multiplicity = 1

 SCF Done:  E(RHF) =  -363.821016017     A.U. after   15 cycles

 1\1\GINC-SE104\Stability\RHF\Aug-CC-pVDZ\C8H11N1\OHZDE\05-Apr-2025\0\\
 #t hf aug-cc-pvdz symm=none int=(grid=ultrafine) guess=(read,tcheck) s
 table=(opt,rrhf)\\title\\0,1\C,0,-0.060027,-2.648826,0.\C,0,-0.034335,
 -1.937551,1.193561\C,0,-0.034335,-1.937551,-1.193561\C,0,0.022378,-0.5
 51433,1.203052\C,0,0.022378,-0.551433,-1.203052\C,0,0.066946,0.18052,0
 .\C,0,-0.034335,2.290729,1.239444\C,0,-0.034335,2.290729,-1.239444\N,0
 ,0.163911,1.564753,0.\H,0,-0.106296,-3.728607,0.\H,0,-0.063515,-2.4650
 3,2.138258\H,0,-0.063515,-2.46503,-2.138258\H,0,0.033546,-0.040931,2.1

 Normal termination of Gaussian 16 at Sat Apr  5 22:48:53 2025.
 Gaussian 16:  ES64L-G16RevC.01  3-Jul-2019

 ----------------------------------------------------------------------
 #t hf aug-cc-pvdz iop(5/13=1,5/36=2,99/5=2) pseudo=read geom=check gue
 ss=(read,tcheck) scf=(maxcycle=1)
 ----------------------------------------------------------------------
 -----
 title
 -----
 Structure from the checkpoint file:  "N-N-dimethylaniline.chk"
 Charge =  0 Multiplicity = 1

                         Standard orientation:
 ---------------------------------------------------------------------
 Center     Atomic      Atomic             Coordinates (Angstroms)
 Number     Number       Type             X           Y           Z
 ---------------------------------------------------------------------
      1          6           0       -0.060027   -2.648826    0.000000
      2          6           0       -0.034335   -1.937551    1.193561
      3          6           0       -0.034335   -1.937551   -1.193561
      4          6           0        0.022378   -0.551433    1.203052
      5          6           0        0.022378   -0.551433   -1.203052
      6          6           0        0.066946    0.180520   -0.000000
      7          6           0       -0.034335    2.290729    1.239444
      8          6           0       -0.034335    2.290729   -1.239444
      9          7           0        0.163911    1.564753   -0.000000
     10          1           0       -0.106296   -3.728607    0.000000
     11          1           0       -0.063515   -2.465030    2.138258
     12          1           0       -0.063515   -2.465030   -2.138258
     13          1           0        0.033546   -0.040931    2.153087
     14          1           0        0.033546   -0.040931   -2.153087
     15          1           0       -1.037990    2.148981    1.661823
     16          1           0        0.110493    3.352219    1.055557
     17          1           0        0.693922    1.986879    1.992824
     18          1           0        0.110493    3.352219   -1.055557
     19          1           0       -1.037990    2.148981   -1.661823
     20          1           0        0.693922    1.986879   -1.992824
 ---------------------------------------------------------------------

 SCF Done:  E(RHF) =  -363.932891798     A.U. after    2 cycles

 The electronic state is 1-A'.
 Alpha  occ. eigenvalues --  -15.63117 -11.28513 -11.26671 -11.26665 -11.23870
 Alpha  occ. eigenvalues --  -11.23866 -11.22648 -11.22648 -11.22196  -1.22468
 Alpha  occ. eigenvalues --   -1.12255  -1.00701  -1.00158  -0.96548  -0.88724
 Alpha  occ. eigenvalues --   -0.81863  -0.78388  -0.71252  -0.65106  -0.65082
 Alpha  occ. eigenvalues --   -0.63930  -0.62107  -0.58691  -0.57802  -0.56121
 Alpha  occ. eigenvalues --   -0.54911  -0.53226  -0.50857  -0.50110  -0.47969
 Alpha  occ. eigenvalues --   -0.40580  -0.33568  -0.27939
 Alpha virt. eigenvalues --    0.03242   0.03833   0.03941   0.05214   0.05521
 Alpha virt. eigenvalues --    0.05601   0.07286   0.07304   0.07703   0.09837
 Alpha virt. eigenvalues --    0.09990   0.10948   0.11607   0.12519   0.13430

 Mulliken charges:
               1
     1  C    0.556238
     2  C    0.692251
     3  C    0.692251
     4  C    0.224211
     5  C    0.224211
     6  C    0.657541
     7  C    0.865829
     8  C    0.865829
     9  N   -0.755338
    10  H   -0.470587
    11  H   -0.471088
    12  H   -0.471088
    13  H   -0.766370
    14  H   -0.766370
    15  H   -0.057668
    16  H   -0.307595
    17  H   -0.173496
    18  H   -0.307595
    19  H   -0.057668
    20  H   -0.173496
 Sum of Mulliken charges =  -0.00000

 Dipole moment (field-independent basis, Debye):
    X=             -0.2162    Y=              1.8019    Z=             -0.0000  Tot=              1.8149

 Test job not archived.
 1\1\GINC-SE104\SP\RHF\Aug-CC-pVDZ\C8H11N1\OHZDE\05-Apr-2025\0\\#t hf a
 ug-cc-pvdz iop(5/13=1,5/36=2,99/5=2) pseudo=read geom=check guess=(rea
 d,tcheck) scf=(maxcycle=1)\\title\\0,1\C,0,-0.060027,-2.648826,0.\C,0,
 -0.034335,-1.937551,1.193561\C,0,-0.034335,-1.937551,-1.193561\C,0,0.0
 22378,-0.551433,1.203052\C,0,0.022378,-0.551433,-1.203052\C,0,0.066946
 ,0.18052,0.\C,0,-0.034335,2.290729,1.239444\C,0,-0.034335,2.290729,-1.
 239444\N,0,0.163911,1.564753,0.\H,0,-0.106296,-3.728607,0.\H,0,-0.0635
 15,-2.46503,2.138258\H,0,-0.063515,-2.46503,-2.138258\H,0,0.033546,-0.

 Normal termination of Gaussian 16 at Sat Apr  5 22:50:05 2025.
