 Gaussian 16, Revision C.01,

 ----------------------------------------------------------------------
 #t hf aug-cc-pvdz symm=none int=(grid=ultrafine) guess=(read,tcheck) s
 table=(opt,rrhf)
 ----------------------------------------------------------------------
 -----
 title
 -----
 Symbolic Z-matrix:
 Charge =  0 Multiplicity = 1

 SCF Done:  E(RHF) =  -1239.67519726     A.U. after   15 cycles
 Normal termination of Gaussian 16 at Sat Apr  5 22:47:41 2025.
 Gaussian 16:  ES64L-G16RevC.01  3-Jul-2019

 ----------------------------------------------------------------------
 #t hf aug-cc-pvdz iop(5/13=1,5/36=2,99/5=2) pseudo=read geom=check gue
 ss=(read,tcheck) scf=(maxcycle=1)
 ----------------------------------------------------------------------
 -----
 title
 -----
 Structure from the checkpoint file:  "N-N-dichloro-beta-alanine.chk"
 Charge =  0 Multiplicity = 1

                         Standard orientation:
 ---------------------------------------------------------------------
 Center     Atomic      Atomic             Coordinates (Angstroms)
 Number     Number       Type             X           Y           Z
 ---------------------------------------------------------------------
      1         17           0       -1.403966    1.580358   -0.186597
      2         17           0       -2.213265   -1.174993   -0.243708
      3          8           0        2.873057    0.758059   -0.738556
      4          8           0        2.277698   -1.354913   -0.264765
      5          7           0       -0.804970   -0.095332   -0.210337
      6          6           0       -0.056679   -0.361932    1.040612
      7          6           0        1.277873    0.375527    1.029972
      8          6           0        2.216236   -0.012637   -0.091722
      9          1           0        2.900728   -1.522198   -0.987239
     10          1           0        0.107577   -1.437333    1.044710
     11          1           0       -0.639389   -0.090423    1.923058
     12          1           0        1.143470    1.452829    0.989941
     13          1           0        1.784708    0.142322    1.970482
 ---------------------------------------------------------------------

 SCF Done:  E(RHF) =  -1239.81242825     A.U. after    2 cycles

 The electronic state is 1-A.
 Alpha  occ. eigenvalues -- -103.70349-103.70221 -20.63612 -20.57576 -15.77197
 Alpha  occ. eigenvalues --  -11.41257 -11.31337 -11.27879 -10.73358 -10.73240
 Alpha  occ. eigenvalues --   -8.39097  -8.38976  -8.38722  -8.38694  -8.38610
 Alpha  occ. eigenvalues --   -8.38577  -1.43692  -1.33922  -1.29704  -1.15438
 Alpha  occ. eigenvalues --   -1.10767  -1.00583  -0.88577  -0.83349  -0.73191
 Alpha  occ. eigenvalues --   -0.71110  -0.68993  -0.67112  -0.64835  -0.63101
 Alpha  occ. eigenvalues --   -0.60247  -0.57835  -0.55589  -0.53846  -0.51310
 Alpha  occ. eigenvalues --   -0.49383  -0.49122  -0.47825  -0.46936  -0.41793
 Alpha virt. eigenvalues --    0.03014   0.04061   0.05016   0.05243   0.06138
 Alpha virt. eigenvalues --    0.07387   0.08587   0.09463   0.10099   0.11248
 Alpha virt. eigenvalues --    0.13068   0.13724   0.14012   0.14835   0.15430

 Mulliken charges:
               1
     1  Cl   0.150806
     2  Cl   0.166669
     3  O   -0.462164
     4  O   -0.527318
     5  N   -0.895663
     6  C    1.042452
     7  C    0.036941
     8  C    0.582967
     9  H    0.185317
    10  H   -0.172362
    11  H   -0.168555
    12  H   -0.073701
    13  H    0.134611
 Sum of Mulliken charges =  -0.00000

 Dipole moment (field-independent basis, Debye):
    X=              0.2655    Y=             -1.7195    Z=              2.5958  Tot=              3.1249

 Test job not archived.
 1\1\GINC-SE146\SP\RHF\Aug-CC-pVDZ\C3H5Cl2N1O2\OHZDE\05-Apr-2025\0\\#t
 hf aug-cc-pvdz iop(5/13=1,5/36=2,99/5=2) pseudo=read geom=check guess=
 (read,tcheck) scf=(maxcycle=1)\\title\\0,1\Cl,0,-1.403966,1.580358,-0.
 186597\Cl,0,-2.213265,-1.174993,-0.243708\O,0,2.873057,0.758059,-0.738
 556\O,0,2.277698,-1.354913,-0.264765\N,0,-0.80497,-0.095332,-0.210337\
 C,0,-0.056679,-0.361932,1.040612\C,0,1.277873,0.375527,1.029972\C,0,2.
 216236,-0.012637,-0.091722\H,0,2.900728,-1.522198,-0.987239\H,0,0.1075
 77,-1.437333,1.04471\H,0,-0.639389,-0.090423,1.923058\H,0,1.14347,1.45

 Normal termination of Gaussian 16 at Sat Apr  5 22:48:01 2025.
