 Gaussian 16, Revision C.01,

 ----------------------------------------------------------------------
 #t hf aug-cc-pvdz symm=none int=(grid=ultrafine) guess=(read,tcheck) s
 table=(opt,rrhf)
 ----------------------------------------------------------------------
 -----
 title
 -----
 Symbolic Z-matrix:
 Charge =  0 Multiplicity = 1

 SCF Done:  E(RHF) =  -247.023993251     A.U. after   13 cycles
 Normal termination of Gaussian 16 at Sat Apr  5 22:47:28 2025.
 Gaussian 16:  ES64L-G16RevC.01  3-Jul-2019

 ----------------------------------------------------------------------
 #t hf aug-cc-pvdz iop(5/13=1,5/36=2,99/5=2) pseudo=read geom=check gue
 ss=(read,tcheck) scf=(maxcycle=1)
 ----------------------------------------------------------------------
 -----
 title
 -----
 Structure from the checkpoint file:  "N-N-dimethylformamide.chk"
 Charge =  0 Multiplicity = 1

                         Standard orientation:
 ---------------------------------------------------------------------
 Center     Atomic      Atomic             Coordinates (Angstroms)
 Number     Number       Type             X           Y           Z
 ---------------------------------------------------------------------
      1          6           0       -0.691463   -0.825035    0.000000
      2          6           0        1.451045    0.342396    0.000000
      3          6           0       -0.673160    1.625303    0.000000
      4          7           0        0.000000    0.344183    0.000000
      5          8           0       -0.204681   -1.939050    0.000000
      6          1           0       -1.782485   -0.660464    0.000000
      7          1           0        1.835600    0.852868    0.886378
      8          1           0        1.835600    0.852868   -0.886378
      9          1           0        1.793661   -0.687964    0.000000
     10          1           0       -0.406192    2.208353    0.885441
     11          1           0       -1.751076    1.473118    0.000000
     12          1           0       -0.406192    2.208353   -0.885441
 ---------------------------------------------------------------------

 SCF Done:  E(RHF) =  -247.105232907     A.U. after    2 cycles

 The electronic state is 1-A'.
 Alpha  occ. eigenvalues --  -20.53496 -15.65790 -11.35949 -11.28760 -11.27119
 Alpha  occ. eigenvalues --   -1.34386  -1.22229  -0.98482  -0.94691  -0.78023
 Alpha  occ. eigenvalues --   -0.70855  -0.66403  -0.66167  -0.59103  -0.57281
 Alpha  occ. eigenvalues --   -0.57095  -0.54395  -0.54286  -0.44300  -0.37881
 Alpha virt. eigenvalues --    0.02800   0.04063   0.04658   0.05221   0.07435
 Alpha virt. eigenvalues --    0.07640   0.07995   0.10110   0.10853   0.12894
 Alpha virt. eigenvalues --    0.14030   0.14735   0.15626   0.16187   0.16328

 Mulliken charges:
               1
     1  C    0.538267
     2  C    0.719316
     3  C    0.713451
     4  N   -0.320028
     5  O   -0.485135
     6  H   -0.280598
     7  H   -0.103724
     8  H   -0.103724
     9  H   -0.231474
    10  H   -0.100440
    11  H   -0.245471
    12  H   -0.100440
 Sum of Mulliken charges =  -0.00000

 Dipole moment (field-independent basis, Debye):
    X=             -0.5104    Y=              4.5621    Z=             -0.0000  Tot=              4.5905

 Test job not archived.
 1\1\GINC-SE158\SP\RHF\Aug-CC-pVDZ\C3H7N1O1\OHZDE\05-Apr-2025\0\\#t hf
 aug-cc-pvdz iop(5/13=1,5/36=2,99/5=2) pseudo=read geom=check guess=(re
 ad,tcheck) scf=(maxcycle=1)\\title\\0,1\C,0,-0.691463,-0.825035,0.\C,0
 ,1.451045,0.342396,0.\C,0,-0.67316,1.625303,0.\N,0,0.,0.344183,0.\O,0,
 -0.204681,-1.93905,0.\H,0,-1.782485,-0.660464,0.\H,0,1.8356,0.852868,0
 .886378\H,0,1.8356,0.852868,-0.886378\H,0,1.793661,-0.687964,0.\H,0,-0
 .406192,2.208353,0.885441\H,0,-1.751076,1.473118,0.\H,0,-0.406192,2.20
 8353,-0.885441\\Version=ES64L-G16RevC.01\State=1-A'\HF=-247.1052329\RM

 Normal termination of Gaussian 16 at Sat Apr  5 22:47:59 2025.
