 Gaussian 16, Revision C.01,

 ----------------------------------------------------------------------
 #t hf aug-cc-pvdz symm=none int=(grid=ultrafine) guess=(read,tcheck) s
 table=(opt,rrhf)
 ----------------------------------------------------------------------
 -----
 title
 -----
 Symbolic Z-matrix:
 Charge =  0 Multiplicity = 1

 SCF Done:  E(RHF) =  -302.088889654     A.U. after   13 cycles
 Normal termination of Gaussian 16 at Sat Apr  5 22:47:24 2025.
 Gaussian 16:  ES64L-G16RevC.01  3-Jul-2019

 ----------------------------------------------------------------------
 #t hf aug-cc-pvdz iop(5/13=1,5/36=2,99/5=2) pseudo=read geom=check gue
 ss=(read,tcheck) scf=(maxcycle=1)
 ----------------------------------------------------------------------
 -----
 title
 -----
 Structure from the checkpoint file:  "N-N--dimethylurea.chk"
 Charge =  0 Multiplicity = 1

                         Standard orientation:
 ---------------------------------------------------------------------
 Center     Atomic      Atomic             Coordinates (Angstroms)
 Number     Number       Type             X           Y           Z
 ---------------------------------------------------------------------
      1          6           0       -0.000000    0.000000    0.096002
      2          6           0        0.000000    2.447119    0.009890
      3          6           0       -0.000000   -2.447119    0.009890
      4          7           0        0.094200    1.156237   -0.651588
      5          7           0       -0.094200   -1.156237   -0.651588
      6          8           0       -0.000000    0.000000    1.316825
      7          1           0       -1.012864    2.672349    0.355132
      8          1           0        0.320580    3.222188   -0.683998
      9          1           0        0.658299    2.453848    0.874307
     10          1           0        1.012864   -2.672349    0.355132
     11          1           0       -0.320580   -3.222188   -0.683998
     12          1           0       -0.658299   -2.453848    0.874307
     13          1           0       -0.241505    1.113406   -1.598970
     14          1           0        0.241505   -1.113406   -1.598970
 ---------------------------------------------------------------------

 SCF Done:  E(RHF) =  -302.186334399     A.U. after    2 cycles

 The electronic state is 1-A.
 Alpha  occ. eigenvalues --  -20.52207 -15.64170 -15.64166 -11.38234 -11.26558
 Alpha  occ. eigenvalues --  -11.26558  -1.35071  -1.20501  -1.17037  -0.96654
 Alpha  occ. eigenvalues --   -0.89989  -0.78827  -0.75361  -0.66346  -0.64241
 Alpha  occ. eigenvalues --   -0.62309  -0.59637  -0.58201  -0.54646  -0.54479
 Alpha  occ. eigenvalues --   -0.53837  -0.45393  -0.40668  -0.38203
 Alpha virt. eigenvalues --    0.02630   0.03665   0.04627   0.05109   0.06463
 Alpha virt. eigenvalues --    0.06872   0.07836   0.08679   0.11224   0.12105
 Alpha virt. eigenvalues --    0.13580   0.14163   0.15076   0.15482   0.16109

 Mulliken charges:
               1
     1  C    0.652987
     2  C    0.803962
     3  C    0.803962
     4  N   -0.366578
     5  N   -0.366578
     6  O   -0.497553
     7  H   -0.079885
     8  H   -0.205558
     9  H   -0.123689
    10  H   -0.079885
    11  H   -0.205558
    12  H   -0.123689
    13  H   -0.105968
    14  H   -0.105968
 Sum of Mulliken charges =  -0.00000

 Dipole moment (field-independent basis, Debye):
    X=              0.0000    Y=             -0.0000    Z=             -4.2269  Tot=              4.2269

 Test job not archived.
 1\1\GINC-SE226\SP\RHF\Aug-CC-pVDZ\C3H8N2O1\OHZDE\05-Apr-2025\0\\#t hf
 aug-cc-pvdz iop(5/13=1,5/36=2,99/5=2) pseudo=read geom=check guess=(re
 ad,tcheck) scf=(maxcycle=1)\\title\\0,1\C,0,0.,0.,0.096002\C,0,0.,2.44
 7119,0.00989\C,0,0.,-2.447119,0.00989\N,0,0.0942,1.156237,-0.651588\N,
 0,-0.0942,-1.156237,-0.651588\O,0,0.,0.,1.316825\H,0,-1.012864,2.67234
 9,0.355132\H,0,0.32058,3.222188,-0.683998\H,0,0.658299,2.453848,0.8743
 07\H,0,1.012864,-2.672349,0.355132\H,0,-0.32058,-3.222188,-0.683998\H,
 0,-0.658299,-2.453848,0.874307\H,0,-0.241505,1.113406,-1.59897\H,0,0.2

 Normal termination of Gaussian 16 at Sat Apr  5 22:47:59 2025.
