 Gaussian 16, Revision C.01,

 ----------------------------------------------------------------------
 #t hf aug-cc-pvdz symm=none int=(grid=ultrafine) guess=(read,tcheck) s
 table=(opt,rrhf)
 ----------------------------------------------------------------------
 -----
 title
 -----
 Symbolic Z-matrix:
 Charge =  0 Multiplicity = 1

 SCF Done:  E(RHF) =  -305.222886156     A.U. after   14 cycles

 1\1\GINC-SE146\Stability\RHF\Aug-CC-pVDZ\C5H12N2\OHZDE\05-Apr-2025\0\\
 #t hf aug-cc-pvdz symm=none int=(grid=ultrafine) guess=(read,tcheck) s
 table=(opt,rrhf)\\title\\0,1\C,0,-0.187905,0.651224,0.062869\C,0,0.516
 351,1.963676,0.319752\C,0,-2.243533,-0.480238,-0.361032\C,0,0.408532,-
 1.679218,0.623345\C,0,2.013376,-0.300958,-0.547808\N,0,-1.463119,0.665
 717,0.054242\N,0,0.62009,-0.477546,-0.174016\H,0,-0.225648,2.696922,0.
 619317\H,0,1.012868,2.331307,-0.580297\H,0,1.278208,1.87296,1.096432\H
 ,0,-3.133483,-0.114305,-0.874912\H,0,-2.599264,-1.057251,0.498552\H,0,

 Normal termination of Gaussian 16 at Sat Apr  5 22:47:55 2025.
 Gaussian 16:  ES64L-G16RevC.01  3-Jul-2019

 ----------------------------------------------------------------------
 #t hf aug-cc-pvdz iop(5/13=1,5/36=2,99/5=2) pseudo=read geom=check gue
 ss=(read,tcheck) scf=(maxcycle=1)
 ----------------------------------------------------------------------
 -----
 title
 -----
 Structure from the checkpoint file:  "N-N-N--trimethylethanimidamide.chk"
 Charge =  0 Multiplicity = 1

                         Standard orientation:
 ---------------------------------------------------------------------
 Center     Atomic      Atomic             Coordinates (Angstroms)
 Number     Number       Type             X           Y           Z
 ---------------------------------------------------------------------
      1          6           0       -0.187905    0.651224    0.062869
      2          6           0        0.516349    1.963676    0.319752
      3          6           0       -2.243533   -0.480240   -0.361032
      4          6           0        0.408533   -1.679218    0.623345
      5          6           0        2.013376   -0.300956   -0.547808
      6          7           0       -1.463120    0.665716    0.054242
      7          7           0        0.620090   -0.477546   -0.174016
      8          1           0       -0.225650    2.696922    0.619317
      9          1           0        1.012866    2.331308   -0.580297
     10          1           0        1.278207    1.872961    1.096432
     11          1           0       -3.133483   -0.114307   -0.874912
     12          1           0       -2.599263   -1.057253    0.498552
     13          1           0       -1.707656   -1.161889   -1.031043
     14          1           0        1.084453   -1.699901    1.489156
     15          1           0        0.600245   -2.572869    0.025300
     16          1           0       -0.607802   -1.727618    0.994091
     17          1           0        2.367241   -1.220178   -1.017111
     18          1           0        2.668083   -0.091651    0.309584
     19          1           0        2.123038    0.500367   -1.273403
 ---------------------------------------------------------------------

 SCF Done:  E(RHF) =  -305.319877741     A.U. after    2 cycles

 The electronic state is 1-A.
 Alpha  occ. eigenvalues --  -15.62966 -15.58792 -11.31373 -11.26812 -11.26641
 Alpha  occ. eigenvalues --  -11.24112 -11.22965  -1.23792  -1.14567  -1.00526
 Alpha  occ. eigenvalues --   -0.95905  -0.90875  -0.87960  -0.72169  -0.65924
 Alpha  occ. eigenvalues --   -0.65460  -0.64016  -0.58826  -0.57504  -0.57179
 Alpha  occ. eigenvalues --   -0.55596  -0.55270  -0.54005  -0.53205  -0.51066
 Alpha  occ. eigenvalues --   -0.42206  -0.37906  -0.32982
 Alpha virt. eigenvalues --    0.03150   0.03872   0.04153   0.04598   0.06551
 Alpha virt. eigenvalues --    0.06841   0.07212   0.07279   0.07760   0.08966
 Alpha virt. eigenvalues --    0.09287   0.09975   0.10872   0.12838   0.13613

 Mulliken charges:
               1
     1  C   -0.002041
     2  C    0.405648
     3  C    0.727743
     4  C    0.809663
     5  C    0.923406
     6  N   -0.610733
     7  N   -0.646749
     8  H   -0.166676
     9  H    0.081693
    10  H    0.061094
    11  H   -0.300711
    12  H   -0.079820
    13  H   -0.071729
    14  H   -0.020990
    15  H   -0.124262
    16  H   -0.422522
    17  H   -0.224510
    18  H   -0.098836
    19  H   -0.239668
 Sum of Mulliken charges =  -0.00000

 Dipole moment (field-independent basis, Debye):
    X=              2.4143    Y=             -1.3443    Z=              0.0291  Tot=              2.7634

 Test job not archived.
 1\1\GINC-SE146\SP\RHF\Aug-CC-pVDZ\C5H12N2\OHZDE\05-Apr-2025\0\\#t hf a
 ug-cc-pvdz iop(5/13=1,5/36=2,99/5=2) pseudo=read geom=check guess=(rea
 d,tcheck) scf=(maxcycle=1)\\title\\0,1\C,0,-0.187905,0.651224,0.062869
 \C,0,0.516351,1.963676,0.319752\C,0,-2.243533,-0.480238,-0.361032\C,0,
 0.408532,-1.679218,0.623345\C,0,2.013376,-0.300958,-0.547808\N,0,-1.46
 3119,0.665717,0.054242\N,0,0.62009,-0.477546,-0.174016\H,0,-0.225648,2
 .696922,0.619317\H,0,1.012868,2.331307,-0.580297\H,0,1.278208,1.87296,
 1.096432\H,0,-3.133483,-0.114305,-0.874912\H,0,-2.599264,-1.057251,0.4

 Normal termination of Gaussian 16 at Sat Apr  5 22:48:03 2025.
