 Gaussian 16, Revision C.01,

 ----------------------------------------------------------------------
 #t hf aug-cc-pvdz symm=none int=(grid=ultrafine) guess=(read,tcheck) s
 table=(opt,rrhf)
 ----------------------------------------------------------------------
 -----
 title
 -----
 Symbolic Z-matrix:
 Charge =  0 Multiplicity = 1

 SCF Done:  E(RHF) =  -793.054177044     A.U. after   17 cycles
 Normal termination of Gaussian 16 at Sat Apr  5 22:49:03 2025.
 Gaussian 16:  ES64L-G16RevC.01  3-Jul-2019

 ----------------------------------------------------------------------
 #t hf aug-cc-pvdz iop(5/13=1,5/36=2,99/5=2) pseudo=read geom=check gue
 ss=(read,tcheck) scf=(maxcycle=1)
 ----------------------------------------------------------------------
 -----
 title
 -----
 Structure from the checkpoint file:  "N-oxocysteine.chk"
 Charge =  0 Multiplicity = 1

                         Standard orientation:
 ---------------------------------------------------------------------
 Center     Atomic      Atomic             Coordinates (Angstroms)
 Number     Number       Type             X           Y           Z
 ---------------------------------------------------------------------
      1         16           0        2.138126   -0.471424   -0.497762
      2          8           0       -1.262728    1.239322   -1.123753
      3          8           0       -0.184106    2.173393    0.574489
      4          8           0       -2.195916   -1.611940    0.020091
      5          7           0       -1.071021   -1.335428   -0.264211
      6          6           0       -0.489680   -0.243773    0.615987
      7          6           0       -0.694454    1.099412   -0.085165
      8          6           0        0.973673   -0.594469    0.910781
      9          1           0        2.200865    0.872262   -0.543734
     10          1           0        0.192088    1.925376    1.427496
     11          1           0       -1.071763   -0.233746    1.544268
     12          1           0        1.349553   -0.008418    1.748575
     13          1           0        1.021152   -1.637918    1.220832
 ---------------------------------------------------------------------

 SCF Done:  E(RHF) =  -793.194476720     A.U. after    2 cycles

 The electronic state is 1-A.
 Alpha  occ. eigenvalues --  -93.56228 -20.67017 -20.65413 -20.58905 -15.79000
 Alpha  occ. eigenvalues --  -11.42985 -11.33222 -11.32257  -8.85936  -6.20100
 Alpha  occ. eigenvalues --   -6.19891  -6.19540  -1.50191  -1.44841  -1.36157
 Alpha  occ. eigenvalues --   -1.14447  -1.02636  -0.92517  -0.89714  -0.85313
 Alpha  occ. eigenvalues --   -0.77492  -0.73321  -0.71231  -0.68063  -0.67652
 Alpha  occ. eigenvalues --   -0.64876  -0.63044  -0.60622  -0.59078  -0.55636
 Alpha  occ. eigenvalues --   -0.52584  -0.49448  -0.47968  -0.42611  -0.38279
 Alpha virt. eigenvalues --    0.01643   0.03854   0.04280   0.05308   0.06359
 Alpha virt. eigenvalues --    0.07490   0.09096   0.09405   0.10767   0.11598
 Alpha virt. eigenvalues --    0.11683   0.12480   0.13257   0.14051   0.14577

 Mulliken charges:
               1
     1  S    0.363264
     2  O   -0.409072
     3  O   -0.504164
     4  O   -0.349828
     5  N   -0.295007
     6  C    0.401376
     7  C    0.585052
     8  C    0.043479
     9  H    0.068765
    10  H    0.192576
    11  H    0.031980
    12  H   -0.129011
    13  H    0.000590
 Sum of Mulliken charges =  -0.00000

 Dipole moment (field-independent basis, Debye):
    X=              2.8832    Y=              0.0828    Z=              5.3799  Tot=              6.1043

 Test job not archived.
 1\1\GINC-SE183\SP\RHF\Aug-CC-pVDZ\C3H5N1O3S1\OHZDE\05-Apr-2025\0\\#t h
 f aug-cc-pvdz iop(5/13=1,5/36=2,99/5=2) pseudo=read geom=check guess=(
 read,tcheck) scf=(maxcycle=1)\\title\\0,1\S,0,2.138126,-0.471424,-0.49
 7762\O,0,-1.262728,1.239322,-1.123753\O,0,-0.184106,2.173393,0.574489\
 O,0,-2.195916,-1.61194,0.020091\N,0,-1.071021,-1.335428,-0.264211\C,0,
 -0.48968,-0.243773,0.615987\C,0,-0.694454,1.099412,-0.085165\C,0,0.973
 673,-0.594469,0.910781\H,0,2.200865,0.872262,-0.543734\H,0,0.192088,1.
 925376,1.427496\H,0,-1.071763,-0.233746,1.544268\H,0,1.349553,-0.00841

 Normal termination of Gaussian 16 at Sat Apr  5 22:50:04 2025.
