 Gaussian 16, Revision C.01,

 ----------------------------------------------------------------------
 #t hf aug-cc-pvdz symm=none int=(grid=ultrafine) guess=(read,tcheck) s
 table=(opt,rrhf)
 ----------------------------------------------------------------------
 -----
 title
 -----
 Symbolic Z-matrix:
 Charge =  0 Multiplicity = 1

 SCF Done:  E(RHF) =  -817.539466011     A.U. after   15 cycles
 Normal termination of Gaussian 16 at Sat Apr  5 22:48:46 2025.
 Gaussian 16:  ES64L-G16RevC.01  3-Jul-2019

 ----------------------------------------------------------------------
 #t hf aug-cc-pvdz iop(5/13=1,5/36=2,99/5=2) pseudo=read geom=check gue
 ss=(read,tcheck) scf=(maxcycle=1)
 ----------------------------------------------------------------------
 -----
 title
 -----
 Structure from the checkpoint file:  "N-oxomethylene-beta-alanyl_chloride.chk"
 Charge =  0 Multiplicity = 1

                         Standard orientation:
 ---------------------------------------------------------------------
 Center     Atomic      Atomic             Coordinates (Angstroms)
 Number     Number       Type             X           Y           Z
 ---------------------------------------------------------------------
      1         17           0       -3.060401   -0.655123   -0.000036
      2          8           0       -1.695936    1.586291    0.000019
      3          8           0        4.467584   -0.178785   -0.000057
      4          7           0        2.105957   -0.328874    0.000063
      5          6           0       -0.315239   -0.391161    0.000014
      6          6           0        0.924008    0.501299    0.000045
      7          6           0       -1.585387    0.409377    0.000004
      8          6           0        3.297525   -0.188848   -0.000003
      9          1           0       -0.325259   -1.048562    0.871003
     10          1           0       -0.325232   -1.048540   -0.870992
     11          1           0        0.918478    1.146124    0.879487
     12          1           0        0.918511    1.146144   -0.879383
 ---------------------------------------------------------------------

 SCF Done:  E(RHF) =  -817.670011240     A.U. after    2 cycles

 The electronic state is 1-A.
 Alpha  occ. eigenvalues -- -103.68184 -20.63277 -20.62788 -15.66767 -11.43862
 Alpha  occ. eigenvalues --  -11.42870 -11.33105 -11.29706 -10.71512  -8.37215
 Alpha  occ. eigenvalues --   -8.36924  -8.36913  -1.43562  -1.43529  -1.25910
 Alpha  occ. eigenvalues --   -1.17754  -1.09706  -0.95994  -0.79604  -0.76922
 Alpha  occ. eigenvalues --   -0.73850  -0.71089  -0.69874  -0.68093  -0.66731
 Alpha  occ. eigenvalues --   -0.65955  -0.61805  -0.58847  -0.55833  -0.49437
 Alpha  occ. eigenvalues --   -0.49067  -0.48389  -0.45586  -0.43884
 Alpha virt. eigenvalues --    0.03036   0.04122   0.04170   0.06444   0.06864
 Alpha virt. eigenvalues --    0.08419   0.09705   0.09715   0.10057   0.10421
 Alpha virt. eigenvalues --    0.11089   0.12243   0.13725   0.14266   0.14632

 Mulliken charges:
               1
     1  Cl  -0.178037
     2  O   -0.358125
     3  O   -0.207668
     4  N   -0.054910
     5  C    0.239421
     6  C    1.072345
     7  C    0.024194
     8  C   -0.348424
     9  H    0.050449
    10  H    0.050452
    11  H   -0.144845
    12  H   -0.144855
 Sum of Mulliken charges =  -0.00000

 Dipole moment (field-independent basis, Debye):
    X=             -0.5112    Y=             -0.7509    Z=              0.0000  Tot=              0.9084

 Test job not archived.
 1\1\GINC-SE190\SP\RHF\Aug-CC-pVDZ\C4H4Cl1N1O2\OHZDE\05-Apr-2025\0\\#t
 hf aug-cc-pvdz iop(5/13=1,5/36=2,99/5=2) pseudo=read geom=check guess=
 (read,tcheck) scf=(maxcycle=1)\\title\\0,1\Cl,0,-3.060401,-0.655123,-0
 .000036\O,0,-1.695936,1.586291,0.000019\O,0,4.467584,-0.178785,-0.0000
 57\N,0,2.105957,-0.328874,0.000063\C,0,-0.315239,-0.391161,0.000014\C,
 0,0.924008,0.501299,0.000045\C,0,-1.585387,0.409377,0.000004\C,0,3.297
 525,-0.188848,-0.000003\H,0,-0.325259,-1.048562,0.871003\H,0,-0.325232
 ,-1.04854,-0.870992\H,0,0.918478,1.146124,0.879487\H,0,0.918511,1.1461

 Normal termination of Gaussian 16 at Sat Apr  5 22:48:51 2025.
