 Gaussian 16, Revision C.01,

 ----------------------------------------------------------------------
 #t hf aug-cc-pvdz symm=none int=(grid=ultrafine) guess=(read,tcheck) s
 table=(opt,rrhf)
 ----------------------------------------------------------------------
 -----
 title
 -----
 Symbolic Z-matrix:
 Charge =  0 Multiplicity = 1

 SCF Done:  E(RHF) =  -344.966752626     A.U. after   13 cycles

 1\1\GINC-SE273\Stability\RHF\Aug-CC-pVDZ\C5H10O2\OHZDE\05-Apr-2025\0\\
 #t hf aug-cc-pvdz symm=none int=(grid=ultrafine) guess=(read,tcheck) s
 table=(opt,rrhf)\\title\\0,1\C,0,-1.505345,0.854261,0.\C,0,2.618558,-2
 .127663,0.\C,0,0.,0.771586,0.\C,0,2.06835,-0.70264,0.\C,0,0.540531,-0.
 653982,0.\O,0,-2.272406,-0.073756,0.\O,0,-1.931154,2.143966,0.\H,0,3.7
 09158,-2.132876,0.\H,0,2.28356,-2.679277,0.880542\H,0,2.28356,-2.67927
 7,-0.880542\H,0,0.357515,1.331075,-0.869047\H,0,0.357515,1.331075,0.86
 9047\H,0,2.448656,-0.165278,-0.874152\H,0,2.448656,-0.165278,0.874152\

 Normal termination of Gaussian 16 at Sat Apr  5 23:02:52 2025.
 Gaussian 16:  ES64L-G16RevC.01  3-Jul-2019

 ----------------------------------------------------------------------
 #t hf aug-cc-pvdz iop(5/13=1,5/36=2,99/5=2) pseudo=read geom=check gue
 ss=(read,tcheck) scf=(maxcycle=1)
 ----------------------------------------------------------------------
 -----
 title
 -----
 Structure from the checkpoint file:  "n-pentanoic_acid.chk"
 Charge =  0 Multiplicity = 1

                         Standard orientation:
 ---------------------------------------------------------------------
 Center     Atomic      Atomic             Coordinates (Angstroms)
 Number     Number       Type             X           Y           Z
 ---------------------------------------------------------------------
      1          6           0       -1.505345    0.854261    0.000000
      2          6           0        2.618558   -2.127663    0.000000
      3          6           0        0.000000    0.771586    0.000000
      4          6           0        2.068350   -0.702640    0.000000
      5          6           0        0.540531   -0.653982    0.000000
      6          8           0       -2.272406   -0.073756    0.000000
      7          8           0       -1.931154    2.143966    0.000000
      8          1           0        3.709158   -2.132876    0.000000
      9          1           0        2.283560   -2.679277    0.880542
     10          1           0        2.283560   -2.679277   -0.880542
     11          1           0        0.357515    1.331075   -0.869047
     12          1           0        0.357515    1.331075    0.869047
     13          1           0        2.448656   -0.165278   -0.874152
     14          1           0        2.448656   -0.165278    0.874152
     15          1           0        0.153343   -1.186524   -0.871351
     16          1           0        0.153343   -1.186524    0.871351
     17          1           0       -2.899395    2.121831    0.000000
 ---------------------------------------------------------------------

 SCF Done:  E(RHF) =  -345.077581080     A.U. after    2 cycles

 The electronic state is 1-A'.
 Alpha  occ. eigenvalues --  -20.62402 -20.56558 -11.39932 -11.25600 -11.23523
 Alpha  occ. eigenvalues --  -11.23451 -11.22556  -1.42455  -1.32695  -1.08494
 Alpha  occ. eigenvalues --   -1.01513  -0.91355  -0.82516  -0.79195  -0.71753
 Alpha  occ. eigenvalues --   -0.69619  -0.67584  -0.63588  -0.60519  -0.59274
 Alpha  occ. eigenvalues --   -0.57902  -0.54353  -0.51272  -0.50162  -0.49081
 Alpha  occ. eigenvalues --   -0.48368  -0.47441  -0.46492
 Alpha virt. eigenvalues --    0.03365   0.03975   0.04732   0.04819   0.05692
 Alpha virt. eigenvalues --    0.06757   0.07409   0.07604   0.08487   0.10111
 Alpha virt. eigenvalues --    0.11099   0.11626   0.13220   0.14010   0.14517

 Mulliken charges:
               1
     1  C    0.493225
     2  C    0.565105
     3  C    0.149573
     4  C    0.327635
     5  C    0.168287
     6  O   -0.463513
     7  O   -0.530280
     8  H   -0.057817
     9  H   -0.077512
    10  H   -0.077512
    11  H   -0.014112
    12  H   -0.014112
    13  H   -0.161742
    14  H   -0.161742
    15  H   -0.176650
    16  H   -0.176650
    17  H    0.207816
 Sum of Mulliken charges =  -0.00000

 Dipole moment (field-independent basis, Debye):
    X=              1.5025    Y=              1.2222    Z=             -0.0000  Tot=              1.9368

 Test job not archived.
 1\1\GINC-SE273\SP\RHF\Aug-CC-pVDZ\C5H10O2\OHZDE\05-Apr-2025\0\\#t hf a
 ug-cc-pvdz iop(5/13=1,5/36=2,99/5=2) pseudo=read geom=check guess=(rea
 d,tcheck) scf=(maxcycle=1)\\title\\0,1\C,0,-1.505345,0.854261,0.\C,0,2
 .618558,-2.127663,0.\C,0,0.,0.771586,0.\C,0,2.06835,-0.70264,0.\C,0,0.
 540531,-0.653982,0.\O,0,-2.272406,-0.073756,0.\O,0,-1.931154,2.143966,
 0.\H,0,3.709158,-2.132876,0.\H,0,2.28356,-2.679277,0.880542\H,0,2.2835
 6,-2.679277,-0.880542\H,0,0.357515,1.331075,-0.869047\H,0,0.357515,1.3
 31075,0.869047\H,0,2.448656,-0.165278,-0.874152\H,0,2.448656,-0.165278

 Normal termination of Gaussian 16 at Sat Apr  5 23:03:07 2025.
