 Gaussian 16, Revision C.01,

 ----------------------------------------------------------------------
 #t hf aug-cc-pvdz symm=none int=(grid=ultrafine) guess=(read,tcheck) s
 table=(opt,rrhf)
 ----------------------------------------------------------------------
 -----
 title
 -----
 Symbolic Z-matrix:
 Charge =  0 Multiplicity = 1

 SCF Done:  E(RHF) =  -401.705390514     A.U. after   15 cycles

 1\1\GINC-SE196\Stability\RHF\Aug-CC-pVDZ\C9H11N1\OHZDE\05-Apr-2025\0\\
 #t hf aug-cc-pvdz symm=none int=(grid=ultrafine) guess=(read,tcheck) s
 table=(opt,rrhf)\\title\\0,1\C,0,2.998166,-0.117026,0.186742\C,0,2.250
 26,-1.206555,-0.245165\C,0,2.377431,1.12006,0.32829\C,0,0.896545,-1.06
 7455,-0.525584\C,0,1.027004,1.269555,0.042344\C,0,0.267676,0.172124,-0
 .374549\C,0,-2.052493,0.014676,0.007335\C,0,-3.450793,0.232807,-0.5032
 77\C,0,-1.944865,-0.58286,1.389174\N,0,-1.07882,0.35005,-0.736188\H,0,
 4.051545,-0.228318,0.403476\H,0,2.72157,-2.173091,-0.366506\H,0,2.9491

 Normal termination of Gaussian 16 at Sat Apr  5 22:50:24 2025.
 Gaussian 16:  ES64L-G16RevC.01  3-Jul-2019

 ----------------------------------------------------------------------
 #t hf aug-cc-pvdz iop(5/13=1,5/36=2,99/5=2) pseudo=read geom=check gue
 ss=(read,tcheck) scf=(maxcycle=1)
 ----------------------------------------------------------------------
 -----
 title
 -----
 Structure from the checkpoint file:  "N-phenylpropan-2-imine.chk"
 Charge =  0 Multiplicity = 1

                         Standard orientation:
 ---------------------------------------------------------------------
 Center     Atomic      Atomic             Coordinates (Angstroms)
 Number     Number       Type             X           Y           Z
 ---------------------------------------------------------------------
      1          6           0        2.998166   -0.117026    0.186742
      2          6           0        2.250260   -1.206555   -0.245165
      3          6           0        2.377431    1.120060    0.328290
      4          6           0        0.896545   -1.067455   -0.525584
      5          6           0        1.027004    1.269555    0.042344
      6          6           0        0.267676    0.172124   -0.374549
      7          6           0       -2.052493    0.014676    0.007335
      8          6           0       -3.450793    0.232807   -0.503277
      9          6           0       -1.944865   -0.582860    1.389174
     10          7           0       -1.078820    0.350050   -0.736188
     11          1           0        4.051545   -0.228318    0.403476
     12          1           0        2.721570   -2.173091   -0.366506
     13          1           0        2.949124    1.977574    0.658099
     14          1           0        0.319634   -1.913528   -0.874264
     15          1           0        0.548756    2.235247    0.134308
     16          1           0       -4.006387    0.889434    0.170715
     17          1           0       -3.995891   -0.713622   -0.539447
     18          1           0       -3.427654    0.672409   -1.496672
     19          1           0       -2.429938   -1.561221    1.412890
     20          1           0       -2.478210    0.046473    2.105055
     21          1           0       -0.914394   -0.693657    1.713800
 ---------------------------------------------------------------------

 SCF Done:  E(RHF) =  -401.825548744     A.U. after    2 cycles

 The electronic state is 1-A.
 Alpha  occ. eigenvalues --  -15.61760 -11.30581 -11.27582 -11.24200 -11.24164
 Alpha  occ. eigenvalues --  -11.24127 -11.23690 -11.23353 -11.23250 -11.23206
 Alpha  occ. eigenvalues --   -1.22061  -1.13179  -1.03885  -1.00597  -0.97494
 Alpha  occ. eigenvalues --   -0.95338  -0.83456  -0.82661  -0.74415  -0.68531
 Alpha  occ. eigenvalues --   -0.65722  -0.63865  -0.62275  -0.61048  -0.60695
 Alpha  occ. eigenvalues --   -0.58631  -0.55732  -0.55365  -0.52752  -0.51743
 Alpha  occ. eigenvalues --   -0.50114  -0.49735  -0.42127  -0.40989  -0.33790
 Alpha  occ. eigenvalues --   -0.30703
 Alpha virt. eigenvalues --    0.03182   0.03797   0.03943   0.04680   0.05428
 Alpha virt. eigenvalues --    0.05511   0.07007   0.07183   0.07421   0.07828
 Alpha virt. eigenvalues --    0.08456   0.10709   0.11135   0.11803   0.12439

 Mulliken charges:
               1
     1  C    0.603766
     2  C    0.649143
     3  C    0.593903
     4  C    0.597906
     5  C    0.506387
     6  C    0.400075
     7  C   -1.045425
     8  C    0.540632
     9  C    0.629570
    10  N   -0.638954
    11  H   -0.462937
    12  H   -0.456266
    13  H   -0.448627
    14  H   -0.605044
    15  H   -0.589995
    16  H    0.044773
    17  H    0.042774
    18  H   -0.162941
    19  H    0.018979
    20  H    0.003508
    21  H   -0.221227
 Sum of Mulliken charges =   0.00000

 Dipole moment (field-independent basis, Debye):
    X=             -1.4599    Y=             -0.7789    Z=              1.7729  Tot=              2.4251

 Test job not archived.
 1\1\GINC-SE196\SP\RHF\Aug-CC-pVDZ\C9H11N1\OHZDE\05-Apr-2025\0\\#t hf a
 ug-cc-pvdz iop(5/13=1,5/36=2,99/5=2) pseudo=read geom=check guess=(rea
 d,tcheck) scf=(maxcycle=1)\\title\\0,1\C,0,2.998166,-0.117026,0.186742
 \C,0,2.25026,-1.206555,-0.245165\C,0,2.377431,1.12006,0.32829\C,0,0.89
 6545,-1.067455,-0.525584\C,0,1.027004,1.269555,0.042344\C,0,0.267676,0
 .172124,-0.374549\C,0,-2.052493,0.014676,0.007335\C,0,-3.450793,0.2328
 07,-0.503277\C,0,-1.944865,-0.58286,1.389174\N,0,-1.07882,0.35005,-0.7
 36188\H,0,4.051545,-0.228318,0.403476\H,0,2.72157,-2.173091,-0.366506\

 Normal termination of Gaussian 16 at Sat Apr  5 22:50:37 2025.
