 Gaussian 16, Revision C.01,

 ----------------------------------------------------------------------
 #t hf aug-cc-pvdz symm=none int=(grid=ultrafine) guess=(read,tcheck) s
 table=(opt,rrhf)
 ----------------------------------------------------------------------
 -----
 title
 -----
 Symbolic Z-matrix:
 Charge =  0 Multiplicity = 1

 SCF Done:  E(RHF) =  -344.955610930     A.U. after   13 cycles

 1\1\GINC-SE252\Stability\RHF\Aug-CC-pVDZ\C5H10O2\OHZDE\05-Apr-2025\0\\
 #t hf aug-cc-pvdz symm=none int=(grid=ultrafine) guess=(read,tcheck) s
 table=(opt,rrhf)\\title\\0,1\C,0,-1.603643,0.174878,-0.000006\C,0,-2.7
 67397,-0.780438,0.000006\C,0,3.283501,0.155432,0.000008\C,0,1.963727,-
 0.615105,-0.000005\C,0,0.76915,0.317432,-0.000001\O,0,-1.68809,1.37780
 8,-0.000001\O,0,-0.429939,-0.489876,-0.000012\H,0,-2.721291,-1.424419,
 0.878141\H,0,-2.721158,-1.424638,-0.877958\H,0,-3.696732,-0.219858,-0.
 000125\H,0,3.372308,0.793346,0.88123\H,0,4.132141,-0.528255,0.000005\H

 Normal termination of Gaussian 16 at Sat Apr  5 23:03:50 2025.
 Gaussian 16:  ES64L-G16RevC.01  3-Jul-2019

 ----------------------------------------------------------------------
 #t hf aug-cc-pvdz iop(5/13=1,5/36=2,99/5=2) pseudo=read geom=check gue
 ss=(read,tcheck) scf=(maxcycle=1)
 ----------------------------------------------------------------------
 -----
 title
 -----
 Structure from the checkpoint file:  "n-propyl_acetate.chk"
 Charge =  0 Multiplicity = 1

                         Standard orientation:
 ---------------------------------------------------------------------
 Center     Atomic      Atomic             Coordinates (Angstroms)
 Number     Number       Type             X           Y           Z
 ---------------------------------------------------------------------
      1          6           0       -1.603643    0.174878   -0.000006
      2          6           0       -2.767397   -0.780438    0.000006
      3          6           0        3.283501    0.155432    0.000008
      4          6           0        1.963727   -0.615105   -0.000005
      5          6           0        0.769150    0.317432   -0.000001
      6          8           0       -1.688090    1.377808   -0.000001
      7          8           0       -0.429939   -0.489876   -0.000012
      8          1           0       -2.721291   -1.424419    0.878141
      9          1           0       -2.721158   -1.424638   -0.877958
     10          1           0       -3.696732   -0.219858   -0.000125
     11          1           0        3.372308    0.793346    0.881230
     12          1           0        4.132141   -0.528255    0.000005
     13          1           0        3.372315    0.793363   -0.881202
     14          1           0        1.908444   -1.264592    0.876224
     15          1           0        1.908451   -1.264576   -0.876246
     16          1           0        0.758862    0.961481    0.880478
     17          1           0        0.758869    0.961496   -0.880469
 ---------------------------------------------------------------------

 SCF Done:  E(RHF) =  -345.068348433     A.U. after    2 cycles

 The electronic state is 1-A.
 Alpha  occ. eigenvalues --  -20.61136 -20.55665 -11.39151 -11.29523 -11.24920
 Alpha  occ. eigenvalues --  -11.23846 -11.23269  -1.41499  -1.32059  -1.06985
 Alpha  occ. eigenvalues --   -1.01391  -0.93413  -0.82425  -0.78711  -0.69916
 Alpha  occ. eigenvalues --   -0.69597  -0.67907  -0.62930  -0.59904  -0.57994
 Alpha  occ. eigenvalues --   -0.57624  -0.54575  -0.53013  -0.52187  -0.49391
 Alpha  occ. eigenvalues --   -0.49266  -0.46998  -0.46187
 Alpha virt. eigenvalues --    0.03340   0.03973   0.04797   0.04924   0.05934
 Alpha virt. eigenvalues --    0.06326   0.06811   0.07488   0.08394   0.09188
 Alpha virt. eigenvalues --    0.10481   0.11526   0.13891   0.14343   0.14953

 Mulliken charges:
               1
     1  C    0.173104
     2  C    0.322251
     3  C    0.446047
     4  C    0.201299
     5  C    0.659791
     6  O   -0.453731
     7  O   -0.534621
     8  H    0.025876
     9  H    0.025840
    10  H   -0.025904
    11  H   -0.067571
    12  H   -0.073379
    13  H   -0.067568
    14  H   -0.125481
    15  H   -0.125481
    16  H   -0.190235
    17  H   -0.190237
 Sum of Mulliken charges =  -0.00000

 Dipole moment (field-independent basis, Debye):
    X=              0.9584    Y=             -2.1915    Z=              0.0000  Tot=              2.3919

 Test job not archived.
 1\1\GINC-SE252\SP\RHF\Aug-CC-pVDZ\C5H10O2\OHZDE\05-Apr-2025\0\\#t hf a
 ug-cc-pvdz iop(5/13=1,5/36=2,99/5=2) pseudo=read geom=check guess=(rea
 d,tcheck) scf=(maxcycle=1)\\title\\0,1\C,0,-1.603643,0.174878,-0.00000
 6\C,0,-2.767397,-0.780438,0.000006\C,0,3.283501,0.155432,0.000008\C,0,
 1.963727,-0.615105,-0.000005\C,0,0.76915,0.317432,-0.000001\O,0,-1.688
 09,1.377808,-0.000001\O,0,-0.429939,-0.489876,-0.000012\H,0,-2.721291,
 -1.424419,0.878141\H,0,-2.721158,-1.424638,-0.877958\H,0,-3.696732,-0.
 219858,-0.000125\H,0,3.372308,0.793346,0.88123\H,0,4.132141,-0.528255,

 Normal termination of Gaussian 16 at Sat Apr  5 23:04:15 2025.
