 Gaussian 16, Revision C.01,

 ----------------------------------------------------------------------
 #t hf aug-cc-pvdz symm=none int=(grid=ultrafine) guess=(read,tcheck) s
 table=(opt,rrhf)
 ----------------------------------------------------------------------
 -----
 title
 -----
 Symbolic Z-matrix:
 Charge =  0 Multiplicity = 1

 SCF Done:  E(RHF) =  -305.904589175     A.U. after   13 cycles
 Normal termination of Gaussian 16 at Sat Apr  5 23:03:23 2025.
 Gaussian 16:  ES64L-G16RevC.01  3-Jul-2019

 ----------------------------------------------------------------------
 #t hf aug-cc-pvdz iop(5/13=1,5/36=2,99/5=2) pseudo=read geom=check gue
 ss=(read,tcheck) scf=(maxcycle=1)
 ----------------------------------------------------------------------
 -----
 title
 -----
 Structure from the checkpoint file:  "n-propyl_formate.chk"
 Charge =  0 Multiplicity = 1

                         Standard orientation:
 ---------------------------------------------------------------------
 Center     Atomic      Atomic             Coordinates (Angstroms)
 Number     Number       Type             X           Y           Z
 ---------------------------------------------------------------------
      1          6           0       -1.071395   -1.776836    0.000000
      2          6           0        1.414442    2.421868    0.000000
      3          6           0        1.409577    0.893657    0.000000
      4          6           0        0.000000    0.338803    0.000000
      5          8           0       -2.169335   -1.290400    0.000000
      6          8           0        0.086608   -1.109139    0.000000
      7          1           0       -0.866386   -2.854791    0.000000
      8          1           0        0.909790    2.821701    0.881287
      9          1           0        2.434143    2.805918    0.000000
     10          1           0        0.909790    2.821701   -0.881287
     11          1           0        1.940343    0.515991    0.876316
     12          1           0        1.940343    0.515991   -0.876316
     13          1           0       -0.560976    0.652422    0.881239
     14          1           0       -0.560976    0.652422   -0.881239
 ---------------------------------------------------------------------

 SCF Done:  E(RHF) =  -306.005325478     A.U. after    2 cycles

 The electronic state is 1-A'.
 Alpha  occ. eigenvalues --  -20.62293 -20.56968 -11.39690 -11.30250 -11.24298
 Alpha  occ. eigenvalues --  -11.23616  -1.42394  -1.33293  -1.07142  -0.96264
 Alpha  occ. eigenvalues --   -0.84706  -0.81001  -0.73688  -0.69855  -0.69479
 Alpha  occ. eigenvalues --   -0.62300  -0.60954  -0.55650  -0.55379  -0.52992
 Alpha  occ. eigenvalues --   -0.49980  -0.49894  -0.47669  -0.47661
 Alpha virt. eigenvalues --    0.03347   0.04181   0.04804   0.04820   0.06152
 Alpha virt. eigenvalues --    0.07332   0.07852   0.07999   0.11019   0.11043
 Alpha virt. eigenvalues --    0.11416   0.13098   0.15131   0.15356   0.16215

 Mulliken charges:
               1
     1  C    0.648119
     2  C    0.401213
     3  C    0.141165
     4  C    0.673895
     5  O   -0.389309
     6  O   -0.479226
     7  H   -0.231057
     8  H   -0.065606
     9  H   -0.075851
    10  H   -0.065606
    11  H   -0.089466
    12  H   -0.089466
    13  H   -0.189402
    14  H   -0.189402
 Sum of Mulliken charges =  -0.00000

 Dipole moment (field-independent basis, Debye):
    X=              2.4320    Y=              0.5606    Z=              0.0000  Tot=              2.4958

 Test job not archived.
 1\1\GINC-SE255\SP\RHF\Aug-CC-pVDZ\C4H8O2\OHZDE\05-Apr-2025\0\\#t hf au
 g-cc-pvdz iop(5/13=1,5/36=2,99/5=2) pseudo=read geom=check guess=(read
 ,tcheck) scf=(maxcycle=1)\\title\\0,1\C,0,-1.071395,-1.776836,0.\C,0,1
 .414442,2.421868,0.\C,0,1.409577,0.893657,0.\C,0,0.,0.338803,0.\O,0,-2
 .169335,-1.2904,0.\O,0,0.086608,-1.109139,0.\H,0,-0.866386,-2.854791,0
 .\H,0,0.90979,2.821701,0.881287\H,0,2.434143,2.805918,0.\H,0,0.90979,2
 .821701,-0.881287\H,0,1.940343,0.515991,0.876316\H,0,1.940343,0.515991
 ,-0.876316\H,0,-0.560976,0.652422,0.881239\H,0,-0.560976,0.652422,-0.8

 Normal termination of Gaussian 16 at Sat Apr  5 23:03:39 2025.
