 Gaussian 16, Revision C.01,

 ----------------------------------------------------------------------
 #t hf aug-cc-pvdz symm=none int=(grid=ultrafine) guess=(read,tcheck) s
 table=(opt,rrhf)
 ----------------------------------------------------------------------
 -----
 title
 -----
 Symbolic Z-matrix:
 Charge =  0 Multiplicity = 1

 SCF Done:  E(RHF) =  -829.138059445     A.U. after   16 cycles
 Normal termination of Gaussian 16 at Sat Apr  5 22:49:49 2025.
 Gaussian 16:  ES64L-G16RevC.01  3-Jul-2019

 ----------------------------------------------------------------------
 #t hf aug-cc-pvdz iop(5/13=1,5/36=2,99/5=2) pseudo=read geom=check gue
 ss=(read,tcheck) scf=(maxcycle=1)
 ----------------------------------------------------------------------
 -----
 title
 -----
 Structure from the checkpoint file:  "N-pyrazin-2-ylmethanesulfinamide.chk"
 Charge =  0 Multiplicity = 1

                         Standard orientation:
 ---------------------------------------------------------------------
 Center     Atomic      Atomic             Coordinates (Angstroms)
 Number     Number       Type             X           Y           Z
 ---------------------------------------------------------------------
      1          6           0        3.276469   -0.292227    0.099087
      2          6           0        2.790514    0.999064    0.229996
      3          6           0        1.181024   -1.031756   -0.375895
      4          6           0        0.688197    0.275288   -0.221938
      5          6           0       -3.203955    0.336431   -0.890716
      6          7           0        2.463709   -1.307293   -0.206599
      7          7           0        1.497661    1.284923    0.078596
      8          7           0       -0.655790    0.607184   -0.433652
      9          8           0       -2.260256   -0.137191    1.534977
     10         16           0       -1.909653   -0.449316    0.121673
     11          1           0        4.326381   -0.516346    0.234552
     12          1           0        3.449330    1.825368    0.467782
     13          1           0        0.524349   -1.850733   -0.640400
     14          1           0       -4.132247   -0.170891   -0.639919
     15          1           0       -2.965474    0.215129   -1.944190
     16          1           0       -3.270616    1.387654   -0.614934
     17          1           0       -0.827771    1.581914   -0.201099
 ---------------------------------------------------------------------

 SCF Done:  E(RHF) =  -829.310436710     A.U. after    2 cycles

 The electronic state is 1-A.
 Alpha  occ. eigenvalues --  -93.70485 -20.54016 -15.67684 -15.66448 -15.65681
 Alpha  occ. eigenvalues --  -11.34993 -11.30187 -11.29684 -11.28842 -11.28733
 Alpha  occ. eigenvalues --   -8.98418  -6.32699  -6.32504  -6.32199  -1.33760
 Alpha  occ. eigenvalues --   -1.29909  -1.22274  -1.17620  -1.05391  -1.01616
 Alpha  occ. eigenvalues --   -0.91317  -0.89492  -0.84447  -0.74235  -0.72913
 Alpha  occ. eigenvalues --   -0.69899  -0.66291  -0.64489  -0.63496  -0.62171
 Alpha  occ. eigenvalues --   -0.60476  -0.58901  -0.57149  -0.56009  -0.50127
 Alpha  occ. eigenvalues --   -0.49036  -0.47068  -0.43254  -0.41655  -0.40464
 Alpha  occ. eigenvalues --   -0.33731
 Alpha virt. eigenvalues --    0.02910   0.03381   0.04071   0.05122   0.05678
 Alpha virt. eigenvalues --    0.05991   0.07004   0.07854   0.09694   0.09966
 Alpha virt. eigenvalues --    0.10776   0.11010   0.11448   0.12223   0.12741

 Mulliken charges:
               1
     1  C    0.518685
     2  C    0.662658
     3  C    0.645856
     4  C    0.507110
     5  C    0.099005
     6  N   -0.489185
     7  N   -0.567688
     8  N   -0.751560
     9  O   -1.049355
    10  S    1.582736
    11  H   -0.293205
    12  H   -0.352615
    13  H   -0.360120
    14  H   -0.027101
    15  H   -0.028813
    16  H   -0.059040
    17  H   -0.037370
 Sum of Mulliken charges =  -0.00000

 Dipole moment (field-independent basis, Debye):
    X=             -0.4086    Y=              1.1901    Z=             -3.6038  Tot=              3.8172

 Test job not archived.
 1\1\GINC-SE011\SP\RHF\Aug-CC-pVDZ\C5H7N3O1S1\OHZDE\05-Apr-2025\0\\#t h
 f aug-cc-pvdz iop(5/13=1,5/36=2,99/5=2) pseudo=read geom=check guess=(
 read,tcheck) scf=(maxcycle=1)\\title\\0,1\C,0,3.276469,-0.292227,0.099
 087\C,0,2.790514,0.999064,0.229996\C,0,1.181024,-1.031756,-0.375895\C,
 0,0.688197,0.275288,-0.221938\C,0,-3.203955,0.336431,-0.890716\N,0,2.4
 63709,-1.307293,-0.206599\N,0,1.497661,1.284923,0.078596\N,0,-0.65579,
 0.607184,-0.433652\O,0,-2.260256,-0.137191,1.534977\S,0,-1.909653,-0.4
 49316,0.121673\H,0,4.326381,-0.516346,0.234552\H,0,3.44933,1.825368,0.

 Normal termination of Gaussian 16 at Sat Apr  5 22:50:08 2025.
