 Gaussian 16, Revision C.01,

 ----------------------------------------------------------------------
 #t hf aug-cc-pvdz symm=none int=(grid=ultrafine) guess=(read,tcheck) s
 table=(opt,rrhf)
 ----------------------------------------------------------------------
 -----
 title
 -----
 Symbolic Z-matrix:
 Charge =  0 Multiplicity = 1

 SCF Done:  E(RHF) =  -903.993346583     A.U. after   15 cycles
 Normal termination of Gaussian 16 at Sat Apr  5 22:50:21 2025.
 Gaussian 16:  ES64L-G16RevC.01  3-Jul-2019

 ----------------------------------------------------------------------
 #t hf aug-cc-pvdz iop(5/13=1,5/36=2,99/5=2) pseudo=read geom=check gue
 ss=(read,tcheck) scf=(maxcycle=1)
 ----------------------------------------------------------------------
 -----
 title
 -----
 Structure from the checkpoint file:  "N-pyrazin-2-ylmethanesulfonamide.chk"
 Charge =  0 Multiplicity = 1

                         Standard orientation:
 ---------------------------------------------------------------------
 Center     Atomic      Atomic             Coordinates (Angstroms)
 Number     Number       Type             X           Y           Z
 ---------------------------------------------------------------------
      1          6           0        3.364850    0.398763    0.150943
      2          6           0        2.326412    1.312586    0.065958
      3          6           0        1.891085   -1.300109   -0.147133
      4          6           0        0.842900   -0.369826   -0.242482
      5          6           0       -2.122614    1.334764   -0.896648
      6          7           0        3.141045   -0.913697    0.037962
      7          7           0        1.065571    0.934122   -0.143705
      8          7           0       -0.461515   -0.797266   -0.495355
      9          8           0       -2.884414   -1.071196   -0.072187
     10          8           0       -1.587626    0.402262    1.509475
     11         16           0       -1.856311   -0.074094    0.169128
     12          1           0        4.385597    0.718852    0.312895
     13          1           0        2.507994    2.376178    0.160123
     14          1           0        1.700423   -2.365075   -0.225096
     15          1           0       -3.002391    1.842073   -0.507181
     16          1           0       -1.240827    1.965017   -0.832434
     17          1           0       -2.293340    0.973464   -1.906154
     18          1           0       -0.611669   -1.792707   -0.582644
 ---------------------------------------------------------------------

 SCF Done:  E(RHF) =  -904.220766479     A.U. after    2 cycles

 The electronic state is 1-A.
 Alpha  occ. eigenvalues --  -93.81718 -20.57059 -20.56887 -15.68950 -15.67360
 Alpha  occ. eigenvalues --  -15.66619 -11.36232 -11.31095 -11.30811 -11.29647
 Alpha  occ. eigenvalues --  -11.29109  -9.08004  -6.42633  -6.42524  -6.42336
 Alpha  occ. eigenvalues --   -1.43856  -1.31725  -1.31117  -1.23466  -1.18918
 Alpha  occ. eigenvalues --   -1.05929  -1.03497  -0.92179  -0.91032  -0.83656
 Alpha  occ. eigenvalues --   -0.77059  -0.74387  -0.71826  -0.70073  -0.69220
 Alpha  occ. eigenvalues --   -0.67158  -0.64355  -0.62588  -0.61510  -0.60101
 Alpha  occ. eigenvalues --   -0.58354  -0.54873  -0.53079  -0.51058  -0.50628
 Alpha  occ. eigenvalues --   -0.49226  -0.48832  -0.44333  -0.42321  -0.34854
 Alpha virt. eigenvalues --    0.02823   0.03168   0.03575   0.05306   0.05386
 Alpha virt. eigenvalues --    0.06198   0.06910   0.07988   0.08949   0.09697
 Alpha virt. eigenvalues --    0.09983   0.10867   0.11307   0.12075   0.12400

 Mulliken charges:
               1
     1  C    0.532427
     2  C    0.567548
     3  C    0.903788
     4  C    0.201301
     5  C    0.103887
     6  N   -0.552493
     7  N   -0.349863
     8  N   -0.895239
     9  O   -1.030017
    10  O   -1.073376
    11  S    2.619231
    12  H   -0.288060
    13  H   -0.367914
    14  H   -0.359836
    15  H    0.040921
    16  H   -0.019271
    17  H    0.021465
    18  H   -0.054499
 Sum of Mulliken charges =   0.00000

 Dipole moment (field-independent basis, Debye):
    X=              2.2081    Y=              1.9129    Z=             -3.2950  Tot=              4.4036

 Test job not archived.
 1\1\GINC-SE085\SP\RHF\Aug-CC-pVDZ\C5H7N3O2S1\OHZDE\05-Apr-2025\0\\#t h
 f aug-cc-pvdz iop(5/13=1,5/36=2,99/5=2) pseudo=read geom=check guess=(
 read,tcheck) scf=(maxcycle=1)\\title\\0,1\C,0,3.36485,0.398763,0.15094
 3\C,0,2.326412,1.312586,0.065958\C,0,1.891085,-1.300109,-0.147133\C,0,
 0.8429,-0.369826,-0.242482\C,0,-2.122614,1.334764,-0.896648\N,0,3.1410
 45,-0.913697,0.037962\N,0,1.065571,0.934122,-0.143705\N,0,-0.461515,-0
 .797266,-0.495355\O,0,-2.884414,-1.071196,-0.072187\O,0,-1.587626,0.40
 2262,1.509475\S,0,-1.856311,-0.074094,0.169128\H,0,4.385597,0.718852,0

 Normal termination of Gaussian 16 at Sat Apr  5 22:50:32 2025.
