 Gaussian 16, Revision C.01,

 ----------------------------------------------------------------------
 #t hf aug-cc-pvdz symm=none int=(grid=ultrafine) guess=(read,tcheck) s
 table=(opt,rrhf)
 ----------------------------------------------------------------------
 -----
 title
 -----
 Symbolic Z-matrix:
 Charge =  0 Multiplicity = 1

 SCF Done:  E(RHF) =  -601.673150202     A.U. after   13 cycles
 Normal termination of Gaussian 16 at Sat Apr  5 22:48:41 2025.
 Gaussian 16:  ES64L-G16RevC.01  3-Jul-2019

 ----------------------------------------------------------------------
 #t hf aug-cc-pvdz iop(5/13=1,5/36=2,99/5=2) pseudo=read geom=check gue
 ss=(read,tcheck) scf=(maxcycle=1)
 ----------------------------------------------------------------------
 -----
 title
 -----
 Structure from the checkpoint file:  "N-sulfanylguanidine.chk"
 Charge =  0 Multiplicity = 1

                         Standard orientation:
 ---------------------------------------------------------------------
 Center     Atomic      Atomic             Coordinates (Angstroms)
 Number     Number       Type             X           Y           Z
 ---------------------------------------------------------------------
      1         16           0       -1.804112   -0.039089   -0.085409
      2          7           0       -0.228364   -0.684420    0.016954
      3          7           0        0.819790    1.392841   -0.011749
      4          7           0        2.070170   -0.650194    0.057789
      5          6           0        0.910802    0.124627   -0.000028
      6          1           0       -1.789467    0.778881    0.993822
      7          1           0       -0.146667   -1.513718    0.584188
      8          1           0        1.724397    1.840201   -0.118314
      9          1           0        2.927975   -0.134408   -0.049798
     10          1           0        2.053559   -1.500893   -0.484146
 ---------------------------------------------------------------------

 SCF Done:  E(RHF) =  -601.758631563     A.U. after    2 cycles

 The electronic state is 1-A.
 Alpha  occ. eigenvalues --  -93.56710 -15.66462 -15.65279 -15.58882 -11.36860
 Alpha  occ. eigenvalues --   -8.86063  -6.20316  -6.19960  -6.19609  -1.27679
 Alpha  occ. eigenvalues --   -1.15944  -1.11744  -0.93650  -0.79849  -0.72934
 Alpha  occ. eigenvalues --   -0.70668  -0.64082  -0.62260  -0.55527  -0.50213
 Alpha  occ. eigenvalues --   -0.43366  -0.41687  -0.37445  -0.36032
 Alpha virt. eigenvalues --    0.02558   0.03869   0.04703   0.06244   0.07212
 Alpha virt. eigenvalues --    0.09632   0.10675   0.12927   0.13401   0.14894
 Alpha virt. eigenvalues --    0.15272   0.16234   0.17000   0.17820   0.18777

 Mulliken charges:
               1
     1  S    0.444046
     2  N   -0.704176
     3  N   -0.300824
     4  N   -0.202977
     5  C    0.788349
     6  H    0.055022
     7  H   -0.065445
     8  H   -0.008237
     9  H    0.002978
    10  H   -0.008737
 Sum of Mulliken charges =  -0.00000

 Dipole moment (field-independent basis, Debye):
    X=              2.7677    Y=             -2.1289    Z=              0.3079  Tot=              3.5053

 Test job not archived.
 1\1\GINC-SE176\SP\RHF\Aug-CC-pVDZ\C1H5N3S1\OHZDE\05-Apr-2025\0\\#t hf
 aug-cc-pvdz iop(5/13=1,5/36=2,99/5=2) pseudo=read geom=check guess=(re
 ad,tcheck) scf=(maxcycle=1)\\title\\0,1\S,0,-1.804112,-0.039089,-0.085
 409\N,0,-0.228364,-0.68442,0.016954\N,0,0.81979,1.392841,-0.011749\N,0
 ,2.07017,-0.650194,0.057789\C,0,0.910802,0.124627,-0.000028\H,0,-1.789
 467,0.778881,0.993822\H,0,-0.146667,-1.513718,0.584188\H,0,1.724397,1.
 840201,-0.118314\H,0,2.927975,-0.134408,-0.049798\H,0,2.053559,-1.5008
 93,-0.484146\\Version=ES64L-G16RevC.01\State=1-A\HF=-601.7586316\RMSD=

 Normal termination of Gaussian 16 at Sat Apr  5 22:48:45 2025.
