 Gaussian 16, Revision C.01,

 ----------------------------------------------------------------------
 #t hf aug-cc-pvdz symm=none int=(grid=ultrafine) guess=(read,tcheck) s
 table=(opt,rrhf)
 ----------------------------------------------------------------------
 -----
 title
 -----
 Symbolic Z-matrix:
 Charge =  0 Multiplicity = 1

 SCF Done:  E(RHF) =  -375.812352180     A.U. after   14 cycles
 Normal termination of Gaussian 16 at Sat Apr  5 22:48:53 2025.
 Gaussian 16:  ES64L-G16RevC.01  3-Jul-2019

 ----------------------------------------------------------------------
 #t hf aug-cc-pvdz iop(5/13=1,5/36=2,99/5=2) pseudo=read geom=check gue
 ss=(read,tcheck) scf=(maxcycle=1)
 ----------------------------------------------------------------------
 -----
 title
 -----
 Structure from the checkpoint file:  "N2-formylglycinamide.chk"
 Charge =  0 Multiplicity = 1

                         Standard orientation:
 ---------------------------------------------------------------------
 Center     Atomic      Atomic             Coordinates (Angstroms)
 Number     Number       Type             X           Y           Z
 ---------------------------------------------------------------------
      1          6           0        2.188329   -0.578455    0.000000
      2          6           0       -1.460704    0.073620    0.000000
      3          6           0        0.000000    0.510660    0.000000
      4          7           0       -2.360917    1.087263    0.000000
      5          7           0        0.840666   -0.658435    0.000000
      6          8           0        2.817916    0.462897    0.000000
      7          8           0       -1.784599   -1.100738    0.000000
      8          1           0        2.671946   -1.568981    0.000000
      9          1           0        0.198935    1.134237    0.876265
     10          1           0        0.198935    1.134237   -0.876265
     11          1           0       -3.341011    0.863104    0.000000
     12          1           0       -2.082734    2.051773    0.000000
     13          1           0        0.363396   -1.548392    0.000000
 ---------------------------------------------------------------------

 SCF Done:  E(RHF) =  -375.930557990     A.U. after    2 cycles

 The electronic state is 1-A'.
 Alpha  occ. eigenvalues --  -20.56061 -20.54263 -15.67049 -15.65790 -11.39106
 Alpha  occ. eigenvalues --  -11.36576 -11.30427  -1.37453  -1.34984  -1.21185
 Alpha  occ. eigenvalues --   -1.20238  -1.00654  -0.84354  -0.80584  -0.77325
 Alpha  occ. eigenvalues --   -0.72624  -0.68820  -0.67095  -0.65448  -0.61933
 Alpha  occ. eigenvalues --   -0.59049  -0.58726  -0.54166  -0.46870  -0.45064
 Alpha  occ. eigenvalues --   -0.44396  -0.40285
 Alpha virt. eigenvalues --    0.02311   0.04018   0.04471   0.04868   0.06203
 Alpha virt. eigenvalues --    0.07317   0.10279   0.11532   0.11915   0.12304
 Alpha virt. eigenvalues --    0.12481   0.13607   0.15055   0.15924   0.16348

 Mulliken charges:
               1
     1  C    0.604836
     2  C    0.505498
     3  C    0.825980
     4  N   -0.112816
     5  N   -0.275823
     6  O   -0.491660
     7  O   -0.552445
     8  H   -0.210377
     9  H   -0.107718
    10  H   -0.107718
    11  H   -0.011967
    12  H   -0.019817
    13  H   -0.045972
 Sum of Mulliken charges =   0.00000

 Dipole moment (field-independent basis, Debye):
    X=             -3.2744    Y=              1.4189    Z=              0.0000  Tot=              3.5686

 Test job not archived.
 1\1\GINC-SE176\SP\RHF\Aug-CC-pVDZ\C3H6N2O2\OHZDE\05-Apr-2025\0\\#t hf
 aug-cc-pvdz iop(5/13=1,5/36=2,99/5=2) pseudo=read geom=check guess=(re
 ad,tcheck) scf=(maxcycle=1)\\title\\0,1\C,0,2.188329,-0.578455,0.\C,0,
 -1.460704,0.07362,0.\C,0,0.,0.51066,0.\N,0,-2.360917,1.087263,0.\N,0,0
 .840666,-0.658435,0.\O,0,2.817916,0.462897,0.\O,0,-1.784599,-1.100738,
 0.\H,0,2.671946,-1.568981,0.\H,0,0.198935,1.134237,0.876265\H,0,0.1989
 35,1.134237,-0.876265\H,0,-3.341011,0.863104,0.\H,0,-2.082734,2.051773
 ,0.\H,0,0.363396,-1.548392,0.\\Version=ES64L-G16RevC.01\State=1-A'\HF=

 Normal termination of Gaussian 16 at Sat Apr  5 22:48:59 2025.
