 Gaussian 16, Revision C.01,

 ----------------------------------------------------------------------
 #t hf aug-cc-pvdz symm=none int=(grid=ultrafine) guess=(read,tcheck) s
 table=(opt,rrhf)
 ----------------------------------------------------------------------
 -----
 title
 -----
 Symbolic Z-matrix:
 Charge =  0 Multiplicity = 1

 SCF Done:  E(RHF) =  -554.392954651     A.U. after   16 cycles
 Normal termination of Gaussian 16 at Sat Apr  5 22:49:39 2025.
 Gaussian 16:  ES64L-G16RevC.01  3-Jul-2019

 ----------------------------------------------------------------------
 #t hf aug-cc-pvdz iop(5/13=1,5/36=2,99/5=2) pseudo=read geom=check gue
 ss=(read,tcheck) scf=(maxcycle=1)
 ----------------------------------------------------------------------
 -----
 title
 -----
 Structure from the checkpoint file:  "N3-N3-difluoro-3-4-pyridinediamine.chk"
 Charge =  0 Multiplicity = 1

                         Standard orientation:
 ---------------------------------------------------------------------
 Center     Atomic      Atomic             Coordinates (Angstroms)
 Number     Number       Type             X           Y           Z
 ---------------------------------------------------------------------
      1          9           0       -2.192510   -0.268440    1.108615
      2          9           0       -2.196021   -0.431782   -1.071868
      3          7           0       -1.580972    0.316470   -0.035136
      4          7           0        1.505260   -1.737413    0.024215
      5          7           0        0.347175    2.296354    0.002544
      6          6           0       -0.202650   -0.061410   -0.009063
      7          6           0        0.727919    0.992051   -0.013556
      8          6           0        0.228543   -1.384447    0.013005
      9          6           0        2.079236    0.604782   -0.004927
     10          6           0        2.400219   -0.735610    0.013200
     11          1           0        1.025447    3.014652   -0.169637
     12          1           0       -0.622485    2.526037   -0.124140
     13          1           0       -0.507894   -2.178420    0.017074
     14          1           0        2.859819    1.353746   -0.007846
     15          1           0        3.442048   -1.034086    0.020506
 ---------------------------------------------------------------------

 SCF Done:  E(RHF) =  -554.565365152     A.U. after    2 cycles

 The electronic state is 1-A.
 Alpha  occ. eigenvalues --  -26.16272 -26.16029 -15.84684 -15.66731 -15.63182
 Alpha  occ. eigenvalues --  -11.34503 -11.31133 -11.30606 -11.29168 -11.25792
 Alpha  occ. eigenvalues --   -1.70688  -1.64954  -1.26819  -1.22314  -1.17340
 Alpha  occ. eigenvalues --   -1.05878  -1.01746  -0.89024  -0.87665  -0.80364
 Alpha  occ. eigenvalues --   -0.80296  -0.79944  -0.75105  -0.73990  -0.73897
 Alpha  occ. eigenvalues --   -0.69827  -0.69400  -0.65499  -0.64099  -0.62792
 Alpha  occ. eigenvalues --   -0.58469  -0.54680  -0.51765  -0.50475  -0.42449
 Alpha  occ. eigenvalues --   -0.38026  -0.34866
 Alpha virt. eigenvalues --    0.02151   0.03550   0.04975   0.05603   0.07095
 Alpha virt. eigenvalues --    0.07635   0.08443   0.10377   0.11378   0.11512
 Alpha virt. eigenvalues --    0.12647   0.12803   0.13281   0.13773   0.14066

 Mulliken charges:
               1
     1  F   -0.399397
     2  F   -0.397506
     3  N   -0.283849
     4  N   -0.494612
     5  N   -0.253885
     6  C    1.412448
     7  C   -0.645987
     8  C    0.623480
     9  C    1.303670
    10  C    0.357604
    11  H   -0.057673
    12  H    0.003345
    13  H   -0.332558
    14  H   -0.505402
    15  H   -0.329678
 Sum of Mulliken charges =  -0.00000

 Dipole moment (field-independent basis, Debye):
    X=              2.7616    Y=              4.0561    Z=             -0.5225  Tot=              4.9347

 Test job not archived.
 1\1\GINC-SE180\SP\RHF\Aug-CC-pVDZ\C5H5F2N3\OHZDE\05-Apr-2025\0\\#t hf
 aug-cc-pvdz iop(5/13=1,5/36=2,99/5=2) pseudo=read geom=check guess=(re
 ad,tcheck) scf=(maxcycle=1)\\title\\0,1\F,0,-2.19251,-0.26844,1.108615
 \F,0,-2.196021,-0.431782,-1.071868\N,0,-1.580972,0.31647,-0.035136\N,0
 ,1.50526,-1.737413,0.024215\N,0,0.347175,2.296354,0.002544\C,0,-0.2026
 5,-0.06141,-0.009063\C,0,0.727919,0.992051,-0.013556\C,0,0.228543,-1.3
 84447,0.013005\C,0,2.079236,0.604782,-0.004927\C,0,2.400219,-0.73561,0
 .0132\H,0,1.025447,3.014652,-0.169637\H,0,-0.622485,2.526037,-0.12414\

 Normal termination of Gaussian 16 at Sat Apr  5 22:50:05 2025.
