 Gaussian 16, Revision C.01,

 ----------------------------------------------------------------------
 #t hf aug-cc-pvdz symm=none int=(grid=ultrafine) guess=(read,tcheck) s
 table=(opt,rrhf)
 ----------------------------------------------------------------------
 -----
 title
 -----
 Symbolic Z-matrix:
 Charge =  0 Multiplicity = 1

 SCF Done:  E(RHF) =  -438.434376605     A.U. after   17 cycles

 1\1\GINC-SE388\Stability\RHF\Aug-CC-pVDZ\C10H9N1\OHZDE\05-Apr-2025\0\\
 #t hf aug-cc-pvdz symm=none int=(grid=ultrafine) guess=(read,tcheck) s
 table=(opt,rrhf)\\title\\0,1\C,0,-2.745482,-0.250488,0.015139\C,0,-2.3
 50376,1.101274,-0.020876\C,0,1.89462,-1.629753,-0.016536\C,0,-1.798435
 ,-1.240778,0.025645\C,0,-1.018277,1.430836,-0.033362\C,0,0.565283,-1.9
 5962,0.002317\C,0,2.304363,-0.285408,-0.011578\C,0,-0.414684,-0.938347
 ,0.010052\C,0,-0.013885,0.433355,-0.006243\C,0,1.383991,0.743412,-0.00
 0677\N,0,1.805666,2.071855,-0.042792\H,0,-3.797274,-0.503107,0.026539\

 Normal termination of Gaussian 16 at Sat Apr  5 23:04:22 2025.
 Gaussian 16:  ES64L-G16RevC.01  3-Jul-2019

 ----------------------------------------------------------------------
 #t hf aug-cc-pvdz iop(5/13=1,5/36=2,99/5=2) pseudo=read geom=check gue
 ss=(read,tcheck) scf=(maxcycle=1)
 ----------------------------------------------------------------------
 -----
 title
 -----
 Structure from the checkpoint file:  "naphthalen-1-amine.chk"
 Charge =  0 Multiplicity = 1

                         Standard orientation:
 ---------------------------------------------------------------------
 Center     Atomic      Atomic             Coordinates (Angstroms)
 Number     Number       Type             X           Y           Z
 ---------------------------------------------------------------------
      1          6           0       -2.745482   -0.250488    0.015139
      2          6           0       -2.350376    1.101274   -0.020876
      3          6           0        1.894620   -1.629753   -0.016536
      4          6           0       -1.798435   -1.240778    0.025645
      5          6           0       -1.018277    1.430836   -0.033362
      6          6           0        0.565283   -1.959620    0.002317
      7          6           0        2.304363   -0.285408   -0.011578
      8          6           0       -0.414684   -0.938347    0.010052
      9          6           0       -0.013885    0.433355   -0.006243
     10          6           0        1.383991    0.743412   -0.000677
     11          7           0        1.805666    2.071855   -0.042792
     12          1           0       -3.797274   -0.503107    0.026539
     13          1           0       -3.099801    1.880731   -0.046991
     14          1           0        2.647310   -2.406938   -0.024601
     15          1           0       -2.097908   -2.281072    0.043095
     16          1           0       -0.742879    2.474995   -0.088131
     17          1           0        0.249676   -2.994190    0.010295
     18          1           0        3.361776   -0.050767   -0.011365
     19          1           0        2.778199    2.210429    0.179331
     20          1           0        1.218530    2.740032    0.428091
 ---------------------------------------------------------------------

 SCF Done:  E(RHF) =  -438.561579719     A.U. after    2 cycles

 The electronic state is 1-A.
 Alpha  occ. eigenvalues --  -15.63284 -11.29262 -11.25193 -11.24870 -11.24735
 Alpha  occ. eigenvalues --  -11.24497 -11.24371 -11.24288 -11.24238 -11.23020
 Alpha  occ. eigenvalues --  -11.22912  -1.20520  -1.14760  -1.09428  -1.02724
 Alpha  occ. eigenvalues --   -1.00406  -0.96575  -0.85371  -0.84542  -0.80448
 Alpha  occ. eigenvalues --   -0.72303  -0.71596  -0.68862  -0.65973  -0.63994
 Alpha  occ. eigenvalues --   -0.60773  -0.60020  -0.58283  -0.56530  -0.55133
 Alpha  occ. eigenvalues --   -0.53398  -0.49150  -0.49028  -0.48060  -0.43639
 Alpha  occ. eigenvalues --   -0.36106  -0.32435  -0.27130
 Alpha virt. eigenvalues --    0.03147   0.03535   0.03786   0.05035   0.05165
 Alpha virt. eigenvalues --    0.06725   0.07020   0.07491   0.08647   0.09076
 Alpha virt. eigenvalues --    0.09935   0.11197   0.11335   0.12325   0.13000

 Mulliken charges:
               1
     1  C    0.604720
     2  C    0.595419
     3  C    0.395183
     4  C    0.419069
     5  C    0.244738
     6  C    0.659899
     7  C    1.114200
     8  C   -0.108670
     9  C    0.643153
    10  C   -0.396801
    11  N   -0.308518
    12  H   -0.457355
    13  H   -0.464713
    14  H   -0.454802
    15  H   -0.578868
    16  H   -0.679562
    17  H   -0.603613
    18  H   -0.589460
    19  H    0.002737
    20  H   -0.036756
 Sum of Mulliken charges =   0.00000

 Dipole moment (field-independent basis, Debye):
    X=              0.4373    Y=              0.9896    Z=              0.9209  Tot=              1.4207

 Test job not archived.
 1\1\GINC-SE388\SP\RHF\Aug-CC-pVDZ\C10H9N1\OHZDE\05-Apr-2025\0\\#t hf a
 ug-cc-pvdz iop(5/13=1,5/36=2,99/5=2) pseudo=read geom=check guess=(rea
 d,tcheck) scf=(maxcycle=1)\\title\\0,1\C,0,-2.745482,-0.250488,0.01513
 9\C,0,-2.350376,1.101274,-0.020876\C,0,1.89462,-1.629753,-0.016536\C,0
 ,-1.798435,-1.240778,0.025645\C,0,-1.018277,1.430836,-0.033362\C,0,0.5
 65283,-1.95962,0.002317\C,0,2.304363,-0.285408,-0.011578\C,0,-0.414684
 ,-0.938347,0.010052\C,0,-0.013885,0.433355,-0.006243\C,0,1.383991,0.74
 3412,-0.000677\N,0,1.805666,2.071855,-0.042792\H,0,-3.797274,-0.503107

 Normal termination of Gaussian 16 at Sat Apr  5 23:04:58 2025.
