 Gaussian 16, Revision C.01,

 ----------------------------------------------------------------------
 #t hf aug-cc-pvdz symm=none int=(grid=ultrafine) guess=(read,tcheck) s
 table=(opt,rrhf)
 ----------------------------------------------------------------------
 -----
 title
 -----
 Symbolic Z-matrix:
 Charge =  0 Multiplicity = 1

 SCF Done:  E(RHF) =  -458.267079723     A.U. after   16 cycles

 1\1\GINC-SE412\Stability\RHF\Aug-CC-pVDZ\C10H8O1\OHZDE\05-Apr-2025\0\\
 #t hf aug-cc-pvdz symm=none int=(grid=ultrafine) guess=(read,tcheck) s
 table=(opt,rrhf)\\title\\0,1\C,0,-2.810255,0.874015,0.\C,0,-2.014183,2
 .040128,0.\C,0,-2.216594,-0.361309,0.\C,0,-0.646606,1.950634,0.\C,0,-0
 .160779,-1.748178,0.\C,0,1.205234,-1.842363,0.\C,0,1.407649,0.566607,0
 .\C,0,-0.807166,-0.489734,0.\C,0,0.,0.689037,0.\C,0,1.997415,-0.671969
 ,0.\O,0,3.364255,-0.741235,0.\H,0,-3.888286,0.960491,0.\H,0,-2.491116,
 3.011227,0.\H,0,-2.821658,-1.259354,0.\H,0,-0.040456,2.847562,0.\H,0,-

 Normal termination of Gaussian 16 at Sat Apr  5 23:04:00 2025.
 Gaussian 16:  ES64L-G16RevC.01  3-Jul-2019

 ----------------------------------------------------------------------
 #t hf aug-cc-pvdz iop(5/13=1,5/36=2,99/5=2) pseudo=read geom=check gue
 ss=(read,tcheck) scf=(maxcycle=1)
 ----------------------------------------------------------------------
 -----
 title
 -----
 Structure from the checkpoint file:  "naphthalen-2-ol.chk"
 Charge =  0 Multiplicity = 1

                         Standard orientation:
 ---------------------------------------------------------------------
 Center     Atomic      Atomic             Coordinates (Angstroms)
 Number     Number       Type             X           Y           Z
 ---------------------------------------------------------------------
      1          6           0       -2.810255    0.874016    0.000000
      2          6           0       -2.014183    2.040128    0.000000
      3          6           0       -2.216594   -0.361309    0.000000
      4          6           0       -0.646606    1.950634    0.000000
      5          6           0       -0.160779   -1.748178    0.000000
      6          6           0        1.205234   -1.842363   -0.000000
      7          6           0        1.407649    0.566607   -0.000000
      8          6           0       -0.807166   -0.489734    0.000000
      9          6           0        0.000000    0.689037    0.000000
     10          6           0        1.997415   -0.671969   -0.000000
     11          8           0        3.364255   -0.741236   -0.000000
     12          1           0       -3.888286    0.960492    0.000000
     13          1           0       -2.491116    3.011227    0.000000
     14          1           0       -2.821658   -1.259353    0.000000
     15          1           0       -0.040456    2.847562    0.000000
     16          1           0       -0.762743   -2.647866    0.000000
     17          1           0        1.687193   -2.813217   -0.000000
     18          1           0        2.030075    1.451183   -0.000000
     19          1           0        3.644668   -1.661358   -0.000000
 ---------------------------------------------------------------------

 SCF Done:  E(RHF) =  -458.402027996     A.U. after    2 cycles

 The electronic state is 1-A'.
 Alpha  occ. eigenvalues --  -20.60704 -11.31594 -11.25782 -11.25690 -11.25126
 Alpha  occ. eigenvalues --  -11.24888 -11.24760 -11.24661 -11.24222 -11.24125
 Alpha  occ. eigenvalues --  -11.23520  -1.36919  -1.16851  -1.10309  -1.04784
 Alpha  occ. eigenvalues --   -1.00376  -0.98290  -0.86440  -0.85052  -0.82036
 Alpha  occ. eigenvalues --   -0.76048  -0.71235  -0.69750  -0.66561  -0.63210
 Alpha  occ. eigenvalues --   -0.61093  -0.60876  -0.60273  -0.58712  -0.57671
 Alpha  occ. eigenvalues --   -0.53349  -0.53075  -0.50592  -0.48398  -0.44331
 Alpha  occ. eigenvalues --   -0.39043  -0.31984  -0.28897
 Alpha virt. eigenvalues --    0.03003   0.03604   0.03933   0.05105   0.05435
 Alpha virt. eigenvalues --    0.06832   0.07395   0.07456   0.09196   0.09708
 Alpha virt. eigenvalues --    0.10530   0.10827   0.11804   0.11991   0.13159

 Mulliken charges:
               1
     1  C    0.481112
     2  C    0.393309
     3  C    0.496219
     4  C    0.466474
     5  C    0.489308
     6  C    0.738880
     7  C    0.539822
     8  C   -0.002191
     9  C    0.223730
    10  C    0.438823
    11  O   -0.608148
    12  H   -0.453720
    13  H   -0.452895
    14  H   -0.581714
    15  H   -0.578033
    16  H   -0.594775
    17  H   -0.590591
    18  H   -0.558941
    19  H    0.153330
 Sum of Mulliken charges =  -0.00000

 Dipole moment (field-independent basis, Debye):
    X=             -0.4721    Y=             -1.6283    Z=             -0.0000  Tot=              1.6954

 Test job not archived.
 1\1\GINC-SE412\SP\RHF\Aug-CC-pVDZ\C10H8O1\OHZDE\05-Apr-2025\0\\#t hf a
 ug-cc-pvdz iop(5/13=1,5/36=2,99/5=2) pseudo=read geom=check guess=(rea
 d,tcheck) scf=(maxcycle=1)\\title\\0,1\C,0,-2.810255,0.874015,0.\C,0,-
 2.014183,2.040128,0.\C,0,-2.216594,-0.361309,0.\C,0,-0.646606,1.950634
 ,0.\C,0,-0.160779,-1.748178,0.\C,0,1.205234,-1.842363,0.\C,0,1.407649,
 0.566607,0.\C,0,-0.807166,-0.489734,0.\C,0,0.,0.689037,0.\C,0,1.997415
 ,-0.671969,0.\O,0,3.364255,-0.741235,0.\H,0,-3.888286,0.960491,0.\H,0,
 -2.491116,3.011227,0.\H,0,-2.821658,-1.259354,0.\H,0,-0.040456,2.84756

 Normal termination of Gaussian 16 at Sat Apr  5 23:04:20 2025.
