 Gaussian 16, Revision C.01,

 ----------------------------------------------------------------------
 #t hf aug-cc-pvdz symm=none int=(grid=ultrafine) guess=(read,tcheck) s
 table=(opt,rrhf)
 ----------------------------------------------------------------------
 -----
 title
 -----
 Symbolic Z-matrix:
 Charge =  0 Multiplicity = 1

 SCF Done:  E(RHF) =  -458.264109761     A.U. after   17 cycles

 1\1\GINC-SE396\Stability\RHF\Aug-CC-pVDZ\C10H8O1\OHZDE\05-Apr-2025\0\\
 #t hf aug-cc-pvdz symm=none int=(grid=ultrafine) guess=(read,tcheck) s
 table=(opt,rrhf)\\title\\0,1\C,0,-2.727109,-0.326483,0.\C,0,-2.37526,1
 .03839,0.\C,0,1.957686,-1.557474,0.\C,0,-1.750278,-1.28697,0.\C,0,-1.0
 55155,1.409855,0.\C,0,0.63811,-1.927342,0.\C,0,2.326734,-0.200714,0.\C
 ,0,-0.376443,-0.941789,0.\C,0,-0.019952,0.443553,0.\C,0,1.365002,0.779
 883,0.\O,0,1.794772,2.076411,0.\H,0,-3.770509,-0.611247,0.\H,0,-3.1488
 62,1.793966,0.\H,0,2.733146,-2.31155,0.\H,0,-2.017573,-2.335991,0.\H,0

 Normal termination of Gaussian 16 at Sat Apr  5 23:04:05 2025.
 Gaussian 16:  ES64L-G16RevC.01  3-Jul-2019

 ----------------------------------------------------------------------
 #t hf aug-cc-pvdz iop(5/13=1,5/36=2,99/5=2) pseudo=read geom=check gue
 ss=(read,tcheck) scf=(maxcycle=1)
 ----------------------------------------------------------------------
 -----
 title
 -----
 Structure from the checkpoint file:  "naphthalen-1-ol.chk"
 Charge =  0 Multiplicity = 1

                         Standard orientation:
 ---------------------------------------------------------------------
 Center     Atomic      Atomic             Coordinates (Angstroms)
 Number     Number       Type             X           Y           Z
 ---------------------------------------------------------------------
      1          6           0       -2.727109   -0.326483   -0.000000
      2          6           0       -2.375260    1.038390   -0.000000
      3          6           0        1.957686   -1.557474   -0.000000
      4          6           0       -1.750278   -1.286970   -0.000000
      5          6           0       -1.055155    1.409855   -0.000000
      6          6           0        0.638110   -1.927342   -0.000000
      7          6           0        2.326734   -0.200714   -0.000000
      8          6           0       -0.376443   -0.941789   -0.000000
      9          6           0       -0.019952    0.443553   -0.000000
     10          6           0        1.365002    0.779883   -0.000000
     11          8           0        1.794772    2.076411   -0.000000
     12          1           0       -3.770509   -0.611247   -0.000000
     13          1           0       -3.148862    1.793966   -0.000000
     14          1           0        2.733146   -2.311550   -0.000000
     15          1           0       -2.017573   -2.335991   -0.000000
     16          1           0       -0.825143    2.468776   -0.000000
     17          1           0        0.356325   -2.971639   -0.000000
     18          1           0        3.367436    0.091086   -0.000000
     19          1           0        1.046996    2.679866    0.000001
 ---------------------------------------------------------------------

 SCF Done:  E(RHF) =  -458.398973567     A.U. after    2 cycles

 The electronic state is 1-A.
 Alpha  occ. eigenvalues --  -20.60705 -11.31737 -11.26055 -11.25999 -11.25898
 Alpha  occ. eigenvalues --  -11.25335 -11.25223 -11.25094 -11.24993 -11.23797
 Alpha  occ. eigenvalues --  -11.23592  -1.37107  -1.17055  -1.10858  -1.04470
 Alpha  occ. eigenvalues --   -1.01338  -0.98414  -0.86585  -0.85790  -0.82028
 Alpha  occ. eigenvalues --   -0.76038  -0.72259  -0.69246  -0.67340  -0.64204
 Alpha  occ. eigenvalues --   -0.61687  -0.61121  -0.60648  -0.58090  -0.56795
 Alpha  occ. eigenvalues --   -0.54318  -0.52974  -0.49826  -0.49763  -0.45275
 Alpha  occ. eigenvalues --   -0.38406  -0.33127  -0.28731
 Alpha virt. eigenvalues --    0.03119   0.03655   0.03912   0.05135   0.05332
 Alpha virt. eigenvalues --    0.06755   0.07084   0.07629   0.09187   0.09318
 Alpha virt. eigenvalues --    0.10052   0.10893   0.11302   0.12247   0.12805

 Mulliken charges:
               1
     1  C    0.531768
     2  C    0.490776
     3  C    0.504871
     4  C    0.488464
     5  C    0.403128
     6  C    0.634949
     7  C    0.790258
     8  C    0.028351
     9  C    0.813745
    10  C   -0.584038
    11  O   -0.529152
    12  H   -0.451896
    13  H   -0.459857
    14  H   -0.444995
    15  H   -0.578578
    16  H   -0.639381
    17  H   -0.594469
    18  H   -0.513668
    19  H    0.109724
 Sum of Mulliken charges =   0.00000

 Dipole moment (field-independent basis, Debye):
    X=             -1.6517    Y=             -0.0171    Z=              0.0000  Tot=              1.6518

 Test job not archived.
 1\1\GINC-SE396\SP\RHF\Aug-CC-pVDZ\C10H8O1\OHZDE\05-Apr-2025\0\\#t hf a
 ug-cc-pvdz iop(5/13=1,5/36=2,99/5=2) pseudo=read geom=check guess=(rea
 d,tcheck) scf=(maxcycle=1)\\title\\0,1\C,0,-2.727109,-0.326483,0.\C,0,
 -2.37526,1.03839,0.\C,0,1.957686,-1.557474,0.\C,0,-1.750278,-1.28697,0
 .\C,0,-1.055155,1.409855,0.\C,0,0.63811,-1.927342,0.\C,0,2.326734,-0.2
 00714,0.\C,0,-0.376443,-0.941789,0.\C,0,-0.019952,0.443553,0.\C,0,1.36
 5002,0.779883,0.\O,0,1.794772,2.076411,0.\H,0,-3.770509,-0.611247,0.\H
 ,0,-3.148862,1.793966,0.\H,0,2.733146,-2.31155,0.\H,0,-2.017573,-2.335

 Normal termination of Gaussian 16 at Sat Apr  5 23:04:20 2025.
