 Gaussian 16, Revision C.01,

 ----------------------------------------------------------------------
 #t hf aug-cc-pvdz symm=none int=(grid=ultrafine) guess=(read,tcheck) s
 table=(opt,rrhf)
 ----------------------------------------------------------------------
 -----
 title
 -----
 Symbolic Z-matrix:
 Charge =  0 Multiplicity = 1

 SCF Done:  E(RHF) =  -383.394278297     A.U. after   13 cycles
 Normal termination of Gaussian 16 at Sat Apr  5 23:04:47 2025.
 Gaussian 16:  ES64L-G16RevC.01  3-Jul-2019

 ----------------------------------------------------------------------
 #t hf aug-cc-pvdz iop(5/13=1,5/36=2,99/5=2) pseudo=read geom=check gue
 ss=(read,tcheck) scf=(maxcycle=1)
 ----------------------------------------------------------------------
 -----
 title
 -----
 Structure from the checkpoint file:  "naphthalene.chk"
 Charge =  0 Multiplicity = 1

                         Standard orientation:
 ---------------------------------------------------------------------
 Center     Atomic      Atomic             Coordinates (Angstroms)
 Number     Number       Type             X           Y           Z
 ---------------------------------------------------------------------
      1          6           0        0.000000    0.000000    0.713923
      2          6           0        0.000000    1.240542    1.396864
      3          6           0       -0.000000   -1.240542    1.396864
      4          6           0        0.000000    2.423616    0.705779
      5          6           0        0.000000    2.423616   -0.705779
      6          6           0        0.000000    1.240542   -1.396864
      7          6           0       -0.000000   -2.423616    0.705779
      8          6           0       -0.000000   -2.423616   -0.705779
      9          6           0       -0.000000   -1.240542   -1.396864
     10          6           0        0.000000    0.000000   -0.713923
     11          1           0        0.000000   -3.364265    1.240162
     12          1           0        0.000000   -3.364265   -1.240162
     13          1           0        0.000000    3.364265   -1.240162
     14          1           0        0.000000    3.364265    1.240162
     15          1           0        0.000000    1.239118   -2.479712
     16          1           0       -0.000000   -1.239118    2.479712
     17          1           0       -0.000000   -1.239118   -2.479712
     18          1           0       -0.000000    1.239118    2.479712
 ---------------------------------------------------------------------

 SCF Done:  E(RHF) =  -383.505721086     A.U. after    2 cycles

 The electronic state is 1-AG.
 Alpha  occ. eigenvalues --  -11.25271 -11.25179 -11.24665 -11.24660 -11.24636
 Alpha  occ. eigenvalues --  -11.24625 -11.24534 -11.24528 -11.24472 -11.24472
 Alpha  occ. eigenvalues --   -1.16891  -1.10489  -1.04627  -1.00577  -0.98029
 Alpha  occ. eigenvalues --   -0.85740  -0.84093  -0.81626  -0.71096  -0.70695
 Alpha  occ. eigenvalues --   -0.68550  -0.62826  -0.61901  -0.59239  -0.58980
 Alpha  occ. eigenvalues --   -0.57008  -0.53874  -0.52975  -0.49466  -0.48152
 Alpha  occ. eigenvalues --   -0.45371  -0.39085  -0.32403  -0.29383
 Alpha virt. eigenvalues --    0.03462   0.03666   0.03812   0.05123   0.05331
 Alpha virt. eigenvalues --    0.06770   0.07389   0.07423   0.09301   0.09780
 Alpha virt. eigenvalues --    0.09857   0.11052   0.11814   0.12427   0.13199

 Mulliken charges:
               1
     1  C    0.060437
     2  C    0.514789
     3  C    0.514789
     4  C    0.485980
     5  C    0.485980
     6  C    0.514789
     7  C    0.485980
     8  C    0.485980
     9  C    0.514789
    10  C    0.060437
    11  H   -0.453041
    12  H   -0.453041
    13  H   -0.453041
    14  H   -0.453041
    15  H   -0.577947
    16  H   -0.577947
    17  H   -0.577947
    18  H   -0.577947
 Sum of Mulliken charges =   0.00000

 Dipole moment (field-independent basis, Debye):
    X=             -0.0000    Y=             -0.0000    Z=              0.0000  Tot=              0.0000

 Test job not archived.
 1\1\GINC-SE270\SP\RHF\Aug-CC-pVDZ\C10H8\OHZDE\05-Apr-2025\0\\#t hf aug
 -cc-pvdz iop(5/13=1,5/36=2,99/5=2) pseudo=read geom=check guess=(read,
 tcheck) scf=(maxcycle=1)\\title\\0,1\C,0,0.,0.,0.713923\C,0,0.,1.24054
 2,1.396864\C,0,0.,-1.240542,1.396864\C,0,0.,2.423616,0.705779\C,0,0.,2
 .423616,-0.705779\C,0,0.,1.240542,-1.396864\C,0,0.,-2.423616,0.705779\
 C,0,0.,-2.423616,-0.705779\C,0,0.,-1.240542,-1.396864\C,0,0.,0.,-0.713
 923\H,0,0.,-3.364265,1.240162\H,0,0.,-3.364265,-1.240162\H,0,0.,3.3642
 65,-1.240162\H,0,0.,3.364265,1.240162\H,0,0.,1.239118,-2.479712\H,0,0.

 Normal termination of Gaussian 16 at Sat Apr  5 23:05:09 2025.
