 Gaussian 16, Revision C.01,

 ----------------------------------------------------------------------
 #t hf aug-cc-pvdz symm=none int=(grid=ultrafine) guess=(read,tcheck) s
 table=(opt,rrhf)
 ----------------------------------------------------------------------
 -----
 title
 -----
 Symbolic Z-matrix:
 Charge =  0 Multiplicity = 1

 SCF Done:  E(RHF) =  -438.436975970     A.U. after   16 cycles

 1\1\GINC-SE398\Stability\RHF\Aug-CC-pVDZ\C10H9N1\OHZDE\05-Apr-2025\0\\
 #t hf aug-cc-pvdz symm=none int=(grid=ultrafine) guess=(read,tcheck) s
 table=(opt,rrhf)\\title\\0,1\C,0,2.93475,0.367685,0.004894\C,0,2.68748
 1,-1.021705,0.002229\C,0,1.883651,1.248979,0.00421\C,0,1.403115,-1.502
 176,-0.001292\C,0,-0.563413,1.664514,-0.000104\C,0,-1.844909,1.18994,-
 0.005795\C,0,-1.040095,-1.082969,-0.003076\C,0,0.547644,0.786363,0.000
 56\C,0,0.294326,-0.618925,-0.002537\C,0,-2.104204,-0.206518,-0.005473\
 N,0,-3.423722,-0.650874,-0.06787\H,0,3.95287,0.732442,0.0072\H,0,3.520

 Normal termination of Gaussian 16 at Sat Apr  5 23:06:11 2025.
 Gaussian 16:  ES64L-G16RevC.01  3-Jul-2019

 ----------------------------------------------------------------------
 #t hf aug-cc-pvdz iop(5/13=1,5/36=2,99/5=2) pseudo=read geom=check gue
 ss=(read,tcheck) scf=(maxcycle=1)
 ----------------------------------------------------------------------
 -----
 title
 -----
 Structure from the checkpoint file:  "naphthalen-2-amine.chk"
 Charge =  0 Multiplicity = 1

                         Standard orientation:
 ---------------------------------------------------------------------
 Center     Atomic      Atomic             Coordinates (Angstroms)
 Number     Number       Type             X           Y           Z
 ---------------------------------------------------------------------
      1          6           0        2.934750    0.367685    0.004894
      2          6           0        2.687481   -1.021705    0.002229
      3          6           0        1.883651    1.248979    0.004210
      4          6           0        1.403115   -1.502176   -0.001292
      5          6           0       -0.563413    1.664514   -0.000104
      6          6           0       -1.844909    1.189940   -0.005795
      7          6           0       -1.040095   -1.082969   -0.003076
      8          6           0        0.547644    0.786363    0.000560
      9          6           0        0.294326   -0.618925   -0.002537
     10          6           0       -2.104204   -0.206518   -0.005473
     11          7           0       -3.423722   -0.650874   -0.067870
     12          1           0        3.952870    0.732442    0.007200
     13          1           0        3.520954   -1.711733    0.002509
     14          1           0        2.064878    2.316734    0.006029
     15          1           0        1.220915   -2.569562   -0.003920
     16          1           0       -0.385911    2.732646    0.001922
     17          1           0       -2.680007    1.879584   -0.016198
     18          1           0       -1.221281   -2.151525   -0.006138
     19          1           0       -4.116285   -0.020662    0.301917
     20          1           0       -3.580151   -1.602931    0.220075
 ---------------------------------------------------------------------

 SCF Done:  E(RHF) =  -438.564435350     A.U. after    2 cycles

 The electronic state is 1-A.
 Alpha  occ. eigenvalues --  -15.63288 -11.29132 -11.25060 -11.24989 -11.24263
 Alpha  occ. eigenvalues --  -11.24157 -11.24105 -11.24036 -11.23644 -11.23477
 Alpha  occ. eigenvalues --  -11.22803  -1.20132  -1.15209  -1.08474  -1.03832
 Alpha  occ. eigenvalues --   -0.99228  -0.96737  -0.85630  -0.83174  -0.81436
 Alpha  occ. eigenvalues --   -0.71857  -0.71009  -0.69706  -0.65634  -0.62730
 Alpha  occ. eigenvalues --   -0.61379  -0.59054  -0.58088  -0.57771  -0.54764
 Alpha  occ. eigenvalues --   -0.52922  -0.50047  -0.49270  -0.47711  -0.41738
 Alpha  occ. eigenvalues --   -0.38035  -0.30810  -0.27453
 Alpha virt. eigenvalues --    0.03072   0.03595   0.03774   0.05019   0.05095
 Alpha virt. eigenvalues --    0.06695   0.07124   0.08110   0.08916   0.09752
 Alpha virt. eigenvalues --    0.10152   0.10920   0.11364   0.11715   0.12340

 Mulliken charges:
               1
     1  C    0.483820
     2  C    0.343774
     3  C    0.485240
     4  C    0.512355
     5  C    0.723308
     6  C    0.902322
     7  C    0.591046
     8  C    0.014636
     9  C    0.062546
    10  C    0.171447
    11  N   -0.281570
    12  H   -0.456606
    13  H   -0.458607
    14  H   -0.582646
    15  H   -0.572805
    16  H   -0.628587
    17  H   -0.581808
    18  H   -0.651306
    19  H   -0.045109
    20  H   -0.031450
 Sum of Mulliken charges =  -0.00000

 Dipole moment (field-independent basis, Debye):
    X=             -1.4211    Y=             -0.0537    Z=              0.9351  Tot=              1.7020

 Test job not archived.
 1\1\GINC-SE398\SP\RHF\Aug-CC-pVDZ\C10H9N1\OHZDE\05-Apr-2025\0\\#t hf a
 ug-cc-pvdz iop(5/13=1,5/36=2,99/5=2) pseudo=read geom=check guess=(rea
 d,tcheck) scf=(maxcycle=1)\\title\\0,1\C,0,2.93475,0.367685,0.004894\C
 ,0,2.687481,-1.021705,0.002229\C,0,1.883651,1.248979,0.00421\C,0,1.403
 115,-1.502176,-0.001292\C,0,-0.563413,1.664514,-0.000104\C,0,-1.844909
 ,1.18994,-0.005795\C,0,-1.040095,-1.082969,-0.003076\C,0,0.547644,0.78
 6363,0.00056\C,0,0.294326,-0.618925,-0.002537\C,0,-2.104204,-0.206518,
 -0.005473\N,0,-3.423722,-0.650874,-0.06787\H,0,3.95287,0.732442,0.0072

 Normal termination of Gaussian 16 at Sat Apr  5 23:06:23 2025.
