 Gaussian 16, Revision C.01,

 ----------------------------------------------------------------------
 #t hf aug-cc-pvdz symm=none int=(grid=ultrafine) guess=(read,tcheck) s
 table=(opt,rrhf)
 ----------------------------------------------------------------------
 -----
 title
 -----
 Symbolic Z-matrix:
 Charge =  0 Multiplicity = 1

 SCF Done:  E(RHF) =  -282.746878838     A.U. after   13 cycles
 Normal termination of Gaussian 16 at Sat Apr  5 23:03:09 2025.
 Gaussian 16:  ES64L-G16RevC.01  3-Jul-2019

 ----------------------------------------------------------------------
 #t hf aug-cc-pvdz iop(5/13=1,5/36=2,99/5=2) pseudo=read geom=check gue
 ss=(read,tcheck) scf=(maxcycle=1)
 ----------------------------------------------------------------------
 -----
 title
 -----
 Structure from the checkpoint file:  "nitroethane.chk"
 Charge =  0 Multiplicity = 1

                         Standard orientation:
 ---------------------------------------------------------------------
 Center     Atomic      Atomic             Coordinates (Angstroms)
 Number     Number       Type             X           Y           Z
 ---------------------------------------------------------------------
      1          6           0       -0.252099   -1.864578    0.000000
      2          6           0        0.698505   -0.690619    0.000000
      3          7           0        0.000000    0.657769    0.000000
      4          8           0        0.728213    1.635752    0.000000
      5          8           0       -1.217324    0.683616    0.000000
      6          1           0       -0.889475   -1.861633    0.881474
      7          1           0       -0.889475   -1.861633   -0.881474
      8          1           0        0.333045   -2.784908    0.000000
      9          1           0        1.340180   -0.659983   -0.878434
     10          1           0        1.340180   -0.659983    0.878434
 ---------------------------------------------------------------------

 SCF Done:  E(RHF) =  -282.835858152     A.U. after    2 cycles

 The electronic state is 1-A'.
 Alpha  occ. eigenvalues --  -20.62204 -20.61602 -15.91283 -11.32324 -11.25971
 Alpha  occ. eigenvalues --   -1.55178  -1.36882  -1.11156  -0.96053  -0.83916
 Alpha  occ. eigenvalues --   -0.76174  -0.74502  -0.73816  -0.63913  -0.60148
 Alpha  occ. eigenvalues --   -0.56843  -0.54078  -0.51443  -0.49976  -0.47417
 Alpha virt. eigenvalues --    0.02716   0.04143   0.04451   0.05642   0.07437
 Alpha virt. eigenvalues --    0.08817   0.10728   0.11497   0.12950   0.14153
 Alpha virt. eigenvalues --    0.15253   0.15410   0.16381   0.17129   0.18223

 Mulliken charges:
               1
     1  C    0.280771
     2  C    0.751633
     3  N    0.386910
     4  O   -0.578908
     5  O   -0.562471
     6  H    0.004777
     7  H    0.004777
     8  H   -0.025204
     9  H   -0.131142
    10  H   -0.131142
 Sum of Mulliken charges =   0.00000

 Dipole moment (field-independent basis, Debye):
    X=              1.6488    Y=             -4.1851    Z=              0.0000  Tot=              4.4981

 Test job not archived.
 1\1\GINC-SE210\SP\RHF\Aug-CC-pVDZ\C2H5N1O2\OHZDE\05-Apr-2025\0\\#t hf
 aug-cc-pvdz iop(5/13=1,5/36=2,99/5=2) pseudo=read geom=check guess=(re
 ad,tcheck) scf=(maxcycle=1)\\title\\0,1\C,0,-0.252099,-1.864578,0.\C,0
 ,0.698505,-0.690619,0.\N,0,0.,0.657769,0.\O,0,0.728213,1.635752,0.\O,0
 ,-1.217324,0.683616,0.\H,0,-0.889475,-1.861633,0.881474\H,0,-0.889475,
 -1.861633,-0.881474\H,0,0.333046,-2.784908,0.\H,0,1.34018,-0.659983,-0
 .878434\H,0,1.34018,-0.659983,0.878434\\Version=ES64L-G16RevC.01\State
 =1-A'\HF=-282.8358582\RMSD=3.866e-03\Dipole=0.6486739,-1.646526,0.\Qua

 Normal termination of Gaussian 16 at Sat Apr  5 23:03:18 2025.
