 Gaussian 16, Revision C.01,

 ----------------------------------------------------------------------
 #t hf aug-cc-pvdz symm=none int=(grid=ultrafine) guess=(read,tcheck) s
 table=(opt,rrhf)
 ----------------------------------------------------------------------
 -----
 title
 -----
 Symbolic Z-matrix:
 Charge =  0 Multiplicity = 1

 SCF Done:  E(RHF) =  -434.233337450     A.U. after   15 cycles
 Normal termination of Gaussian 16 at Sat Apr  5 23:02:52 2025.
 Gaussian 16:  ES64L-G16RevC.01  3-Jul-2019

 ----------------------------------------------------------------------
 #t hf aug-cc-pvdz iop(5/13=1,5/36=2,99/5=2) pseudo=read geom=check gue
 ss=(read,tcheck) scf=(maxcycle=1)
 ----------------------------------------------------------------------
 -----
 title
 -----
 Structure from the checkpoint file:  "nitrobenzene.chk"
 Charge =  0 Multiplicity = 1

                         Standard orientation:
 ---------------------------------------------------------------------
 Center     Atomic      Atomic             Coordinates (Angstroms)
 Number     Number       Type             X           Y           Z
 ---------------------------------------------------------------------
      1          6           0        0.000000    0.000000   -2.509568
      2          6           0        0.000000    1.206952   -1.817042
      3          6           0       -0.000000   -1.206952   -1.817042
      4          6           0        0.000000    1.215022   -0.429244
      5          6           0       -0.000000   -1.215022   -0.429244
      6          6           0        0.000000   -0.000000    0.241376
      7          7           0        0.000000   -0.000000    1.718131
      8          8           0        0.000000    1.082390    2.285939
      9          8           0       -0.000000   -1.082390    2.285939
     10          1           0        0.000000    0.000000   -3.590995
     11          1           0        0.000000    2.143267   -2.357131
     12          1           0       -0.000000   -2.143267   -2.357131
     13          1           0        0.000000    2.134833    0.133951
     14          1           0       -0.000000   -2.134833    0.133951
 ---------------------------------------------------------------------

 SCF Done:  E(RHF) =  -434.362998934     A.U. after    2 cycles

 The electronic state is 1-A1.
 Alpha  occ. eigenvalues --  -20.61878 -20.61868 -15.92155 -11.32134 -11.28503
 Alpha  occ. eigenvalues --  -11.28502 -11.28248 -11.27500 -11.27493  -1.55284
 Alpha  occ. eigenvalues --   -1.36768  -1.19284  -1.08667  -1.04973  -0.95608
 Alpha  occ. eigenvalues --   -0.86952  -0.83375  -0.79047  -0.74090  -0.72917
 Alpha  occ. eigenvalues --   -0.71478  -0.66605  -0.65685  -0.63179  -0.56237
 Alpha  occ. eigenvalues --   -0.54299  -0.53652  -0.51615  -0.51239  -0.47638
 Alpha  occ. eigenvalues --   -0.38309  -0.37397
 Alpha virt. eigenvalues --    0.02574   0.03065   0.03494   0.04469   0.05921
 Alpha virt. eigenvalues --    0.06270   0.08466   0.10623   0.10688   0.12443
 Alpha virt. eigenvalues --    0.13028   0.13069   0.13242   0.13337   0.13516

 Mulliken charges:
               1
     1  C    0.502168
     2  C    0.515853
     3  C    0.515853
     4  C    0.154676
     5  C    0.154676
     6  C    1.346046
     7  N    0.119039
     8  O   -0.569485
     9  O   -0.569485
    10  H   -0.439239
    11  H   -0.426686
    12  H   -0.426686
    13  H   -0.438365
    14  H   -0.438365
 Sum of Mulliken charges =  -0.00000

 Dipole moment (field-independent basis, Debye):
    X=              0.0000    Y=             -0.0000    Z=             -5.3806  Tot=              5.3806

 Test job not archived.
 1\1\GINC-SE275\SP\RHF\Aug-CC-pVDZ\C6H5N1O2\OHZDE\05-Apr-2025\0\\#t hf
 aug-cc-pvdz iop(5/13=1,5/36=2,99/5=2) pseudo=read geom=check guess=(re
 ad,tcheck) scf=(maxcycle=1)\\title\\0,1\C,0,0.,0.,-2.509568\C,0,0.,1.2
 06952,-1.817042\C,0,0.,-1.206952,-1.817042\C,0,0.,1.215022,-0.429244\C
 ,0,0.,-1.215022,-0.429244\C,0,0.,0.,0.241376\N,0,0.,0.,1.718131\O,0,0.
 ,1.08239,2.285939\O,0,0.,-1.08239,2.285939\H,0,0.,0.,-3.590995\H,0,0.,
 2.143267,-2.357131\H,0,0.,-2.143267,-2.357131\H,0,0.,2.134833,0.133951
 \H,0,0.,-2.134833,0.133951\\Version=ES64L-G16RevC.01\State=1-A1\HF=-43

 Normal termination of Gaussian 16 at Sat Apr  5 23:03:06 2025.
