 Gaussian 16, Revision C.01,

 ----------------------------------------------------------------------
 #t hf aug-cc-pvdz symm=none int=(grid=ultrafine) guess=(read,tcheck) s
 table=(opt,rrhf)
 ----------------------------------------------------------------------
 -----
 title
 -----
 Symbolic Z-matrix:
 Charge =  0 Multiplicity = 1

 SCF Done:  E(RHF) =  -243.704488945     A.U. after   13 cycles
 Normal termination of Gaussian 16 at Sat Apr  5 23:04:51 2025.
 Gaussian 16:  ES64L-G16RevC.01  3-Jul-2019

 ----------------------------------------------------------------------
 #t hf aug-cc-pvdz iop(5/13=1,5/36=2,99/5=2) pseudo=read geom=check gue
 ss=(read,tcheck) scf=(maxcycle=1)
 ----------------------------------------------------------------------
 -----
 title
 -----
 Structure from the checkpoint file:  "nitromethane.chk"
 Charge =  0 Multiplicity = 1

                         Standard orientation:
 ---------------------------------------------------------------------
 Center     Atomic      Atomic             Coordinates (Angstroms)
 Number     Number       Type             X           Y           Z
 ---------------------------------------------------------------------
      1          6           0        0.000229   -1.324841   -0.000000
      2          7           0       -0.009436    0.173920    0.000000
      3          8           0        0.000229    0.730465    1.084390
      4          8           0        0.000229    0.730465   -1.084390
      5          1           0       -0.491970   -1.664331   -0.903741
      6          1           0       -0.491970   -1.664331    0.903741
      7          1           0        1.044943   -1.627166   -0.000000
 ---------------------------------------------------------------------

 SCF Done:  E(RHF) =  -243.781692230     A.U. after    2 cycles

 The electronic state is 1-A'.
 Alpha  occ. eigenvalues --  -20.62434 -20.62424 -15.92071 -11.32428  -1.55734
 Alpha  occ. eigenvalues --   -1.37406  -1.09291  -0.86756  -0.76651  -0.74925
 Alpha  occ. eigenvalues --   -0.74637  -0.63513  -0.60838  -0.51858  -0.51318
 Alpha  occ. eigenvalues --   -0.47952
 Alpha virt. eigenvalues --    0.02634   0.04507   0.05231   0.08354   0.08533
 Alpha virt. eigenvalues --    0.13524   0.14049   0.14127   0.14603   0.15781
 Alpha virt. eigenvalues --    0.18972   0.23564   0.23594   0.25157   0.26112

 Mulliken charges:
               1
     1  C    0.840502
     2  N    0.401567
     3  O   -0.550905
     4  O   -0.550905
     5  H   -0.065928
     6  H   -0.065928
     7  H   -0.008403
 Sum of Mulliken charges =  -0.00000

 Dipole moment (field-independent basis, Debye):
    X=              0.0097    Y=             -4.3055    Z=             -0.0000  Tot=              4.3055

 Test job not archived.
 1\1\GINC-SE011\SP\RHF\Aug-CC-pVDZ\C1H3N1O2\OHZDE\05-Apr-2025\0\\#t hf
 aug-cc-pvdz iop(5/13=1,5/36=2,99/5=2) pseudo=read geom=check guess=(re
 ad,tcheck) scf=(maxcycle=1)\\title\\0,1\C,0,0.000229,-1.324841,0.\N,0,
 -0.009436,0.17392,0.\O,0,0.000229,0.730465,1.08439\O,0,0.000229,0.7304
 65,-1.08439\H,0,-0.49197,-1.664331,-0.903741\H,0,-0.49197,-1.664331,0.
 903741\H,0,1.044943,-1.627166,0.\\Version=ES64L-G16RevC.01\State=1-A'\
 HF=-243.7816922\RMSD=3.593e-03\Dipole=0.00383,-1.693896,0.\Quadrupole=
 1.4600334,1.2026358,-2.6626692,-0.0469647,0.,0.\PG=CS [SG(C1H1N1),X(H2

 Normal termination of Gaussian 16 at Sat Apr  5 23:05:04 2025.
