 Gaussian 16, Revision C.01,

 ----------------------------------------------------------------------
 #t hf aug-cc-pvdz symm=none int=(grid=ultrafine) guess=(read,tcheck) s
 table=(opt,rrhf)
 ----------------------------------------------------------------------
 -----
 title
 -----
 Symbolic Z-matrix:
 Charge =  0 Multiplicity = 1

 SCF Done:  E(RHF) =  -351.319576444     A.U. after   13 cycles
 Normal termination of Gaussian 16 at Sat Apr  5 23:08:47 2025.
 Gaussian 16:  ES64L-G16RevC.01  3-Jul-2019

 ----------------------------------------------------------------------
 #t hf aug-cc-pvdz iop(5/13=1,5/36=2,99/5=2) pseudo=read geom=check gue
 ss=(read,tcheck) scf=(maxcycle=1)
 ----------------------------------------------------------------------
 -----
 title
 -----
 Structure from the checkpoint file:  "non-1-ene.chk"
 Charge =  0 Multiplicity = 1

                         Standard orientation:
 ---------------------------------------------------------------------
 Center     Atomic      Atomic             Coordinates (Angstroms)
 Number     Number       Type             X           Y           Z
 ---------------------------------------------------------------------
      1          6           0        4.970457   -0.129620    0.573340
      2          6           0        3.980470   -0.194879   -0.308575
      3          6           0       -3.651956   -0.553136    0.088042
      4          6           0        2.695911    0.573157   -0.232484
      5          6           0       -2.411683    0.337221    0.003428
      6          6           0        1.456682   -0.330273   -0.147562
      7          6           0       -1.096612   -0.441957   -0.031602
      8          6           0        0.142340    0.449970   -0.118069
      9          6           0       -4.960299    0.234816    0.126740
     10          1           0        5.870978   -0.718575    0.461701
     11          1           0        4.915733    0.519817    1.439288
     12          1           0        4.082499   -0.862497   -1.160575
     13          1           0       -3.662992   -1.236357   -0.766511
     14          1           0       -3.581017   -1.184624    0.978831
     15          1           0        2.603275    1.205727   -1.122753
     16          1           0        2.721293    1.246627    0.628130
     17          1           0       -2.482102    0.968002   -0.889247
     18          1           0       -2.402836    1.023095    0.857279
     19          1           0        1.452629   -1.017103   -0.999926
     20          1           0        1.532776   -0.955399    0.746703
     21          1           0       -1.106759   -1.128904   -0.884359
     22          1           0       -1.026517   -1.070974    0.862031
     23          1           0        0.074720    1.076852   -1.013503
     24          1           0        0.150888    1.138809    0.733091
     25          1           0       -5.824377   -0.428184    0.188857
     26          1           0       -5.077618    0.848983   -0.768541
     27          1           0       -4.992428    0.902909    0.989943
 ---------------------------------------------------------------------

 SCF Done:  E(RHF) =  -351.431355423     A.U. after    2 cycles

 The electronic state is 1-A.
 Alpha  occ. eigenvalues --  -11.23972 -11.23159 -11.22695 -11.22673 -11.22456
 Alpha  occ. eigenvalues --  -11.22448 -11.22322 -11.22238 -11.21971  -1.08824
 Alpha  occ. eigenvalues --   -1.06569  -1.02765  -0.97632  -0.91332  -0.84379
 Alpha  occ. eigenvalues --   -0.79333  -0.78785  -0.75542  -0.66232  -0.64350
 Alpha  occ. eigenvalues --   -0.61838  -0.60056  -0.59022  -0.57073  -0.56578
 Alpha  occ. eigenvalues --   -0.53719  -0.52170  -0.51673  -0.49101  -0.48585
 Alpha  occ. eigenvalues --   -0.47764  -0.46653  -0.46163  -0.46091  -0.44226
 Alpha  occ. eigenvalues --   -0.36048
 Alpha virt. eigenvalues --    0.03579   0.03777   0.04271   0.04404   0.05009
 Alpha virt. eigenvalues --    0.05436   0.05821   0.06508   0.06854   0.07227
 Alpha virt. eigenvalues --    0.08073   0.08167   0.08803   0.09709   0.10314

 Mulliken charges:
               1
     1  C    0.571832
     2  C    0.975137
     3  C    0.466849
     4  C    0.511905
     5  C    0.162676
     6  C   -0.017700
     7  C    0.090536
     8  C    0.142136
     9  C    0.653263
    10  H   -0.327413
    11  H   -0.315444
    12  H   -0.484301
    13  H   -0.166953
    14  H   -0.166341
    15  H   -0.062373
    16  H   -0.220228
    17  H   -0.209770
    18  H   -0.193505
    19  H   -0.189430
    20  H   -0.164721
    21  H   -0.207936
    22  H   -0.196218
    23  H   -0.180079
    24  H   -0.211797
    25  H   -0.070711
    26  H   -0.092523
    27  H   -0.096892
 Sum of Mulliken charges =  -0.00000

 Dipole moment (field-independent basis, Debye):
    X=             -0.4632    Y=              0.0090    Z=             -0.1353  Tot=              0.4827

 Test job not archived.
 1\1\GINC-SE014\SP\RHF\Aug-CC-pVDZ\C9H18\OHZDE\05-Apr-2025\0\\#t hf aug
 -cc-pvdz iop(5/13=1,5/36=2,99/5=2) pseudo=read geom=check guess=(read,
 tcheck) scf=(maxcycle=1)\\title\\0,1\C,0,4.970457,-0.12962,0.57334\C,0
 ,3.98047,-0.194879,-0.308575\C,0,-3.651956,-0.553136,0.088042\C,0,2.69
 5911,0.573157,-0.232484\C,0,-2.411683,0.337221,0.003428\C,0,1.456682,-
 0.330273,-0.147562\C,0,-1.096612,-0.441957,-0.031602\C,0,0.14234,0.449
 97,-0.118069\C,0,-4.960299,0.234816,0.12674\H,0,5.870978,-0.718575,0.4
 61701\H,0,4.915733,0.519817,1.439288\H,0,4.082499,-0.862497,-1.160575\

 Normal termination of Gaussian 16 at Sat Apr  5 23:09:03 2025.
