 Gaussian 16, Revision C.01,

 ----------------------------------------------------------------------
 #t hf aug-cc-pvdz symm=none int=(grid=ultrafine) guess=(read,tcheck) s
 table=(opt,rrhf)
 ----------------------------------------------------------------------
 -----
 title
 -----
 Symbolic Z-matrix:
 Charge =  0 Multiplicity = 1

 SCF Done:  E(RHF) =  -427.377137982     A.U. after   12 cycles

 1\1\GINC-SE036\Stability\RHF\Aug-CC-pVDZ\C9H20O1\OHZDE\05-Apr-2025\0\\
 #t hf aug-cc-pvdz symm=none int=(grid=ultrafine) guess=(read,tcheck) s
 table=(opt,rrhf)\\title\\0,1\C,0,5.737654,0.300711,0.011156\C,0,4.4481
 92,-0.518362,-0.011562\C,0,3.184431,0.342309,0.009963\C,0,1.888085,-0.
 468013,-0.011393\C,0,0.625303,0.394075,0.008474\C,0,-0.671025,-0.41650
 6,-0.012685\C,0,-1.93292,0.447391,0.006322\C,0,-3.22854,-0.365266,-0.0
 19608\C,0,-4.476648,0.508022,0.005687\O,0,-5.690067,-0.238804,-0.07533
 2\H,0,6.619389,-0.341382,-0.00638\H,0,5.796144,0.967682,-0.851502\H,0,

 Normal termination of Gaussian 16 at Sat Apr  5 23:10:34 2025.
 Gaussian 16:  ES64L-G16RevC.01  3-Jul-2019

 ----------------------------------------------------------------------
 #t hf aug-cc-pvdz iop(5/13=1,5/36=2,99/5=2) pseudo=read geom=check gue
 ss=(read,tcheck) scf=(maxcycle=1)
 ----------------------------------------------------------------------
 -----
 title
 -----
 Structure from the checkpoint file:  "nonan-1-ol.chk"
 Charge =  0 Multiplicity = 1

                         Standard orientation:
 ---------------------------------------------------------------------
 Center     Atomic      Atomic             Coordinates (Angstroms)
 Number     Number       Type             X           Y           Z
 ---------------------------------------------------------------------
      1          6           0        5.737654    0.300711    0.011156
      2          6           0        4.448192   -0.518362   -0.011562
      3          6           0        3.184431    0.342309    0.009963
      4          6           0        1.888085   -0.468013   -0.011393
      5          6           0        0.625303    0.394075    0.008474
      6          6           0       -0.671025   -0.416506   -0.012685
      7          6           0       -1.932920    0.447391    0.006322
      8          6           0       -3.228540   -0.365266   -0.019608
      9          6           0       -4.476648    0.508022    0.005687
     10          8           0       -5.690067   -0.238804   -0.075332
     11          1           0        6.619389   -0.341382   -0.006380
     12          1           0        5.796144    0.967682   -0.851502
     13          1           0        5.795907    0.919276    0.909188
     14          1           0        4.433983   -1.199317    0.844790
     15          1           0        4.435354   -1.153265   -0.902627
     16          1           0        3.198187    0.979052    0.901047
     17          1           0        3.198984    1.023585   -0.847491
     18          1           0        1.874006   -1.148349    0.846661
     19          1           0        1.875740   -1.105201   -0.901950
     20          1           0        0.637718    1.031678    0.898752
     21          1           0        0.639314    1.073915   -0.849865
     22          1           0       -0.686189   -1.095875    0.845940
     23          1           0       -0.684331   -1.053895   -0.902720
     24          1           0       -1.919452    1.084161    0.897002
     25          1           0       -1.916317    1.126849   -0.852022
     26          1           0       -3.259860   -0.993407   -0.913658
     27          1           0       -3.249682   -1.044442    0.840338
     28          1           0       -4.476569    1.142168    0.900551
     29          1           0       -4.490512    1.170814   -0.860513
     30          1           0       -5.748466   -0.819778    0.688990
 ---------------------------------------------------------------------

 SCF Done:  E(RHF) =  -427.512949133     A.U. after    2 cycles

 The electronic state is 1-A.
 Alpha  occ. eigenvalues --  -20.56728 -11.28179 -11.23036 -11.22899 -11.22705
 Alpha  occ. eigenvalues --  -11.22531 -11.22511 -11.22404 -11.22316 -11.22036
 Alpha  occ. eigenvalues --   -1.31434  -1.08726  -1.06296  -1.02293  -0.97008
 Alpha  occ. eigenvalues --   -0.90933  -0.85129  -0.80953  -0.79147  -0.78703
 Alpha  occ. eigenvalues --   -0.69813  -0.66290  -0.64265  -0.61907  -0.61281
 Alpha  occ. eigenvalues --   -0.59433  -0.58583  -0.57197  -0.55291  -0.53943
 Alpha  occ. eigenvalues --   -0.52599  -0.51163  -0.49676  -0.48791  -0.47698
 Alpha  occ. eigenvalues --   -0.47271  -0.46574  -0.46184  -0.46173  -0.45787
 Alpha  occ. eigenvalues --   -0.42971
 Alpha virt. eigenvalues --    0.03432   0.03522   0.04083   0.04345   0.04849
 Alpha virt. eigenvalues --    0.05242   0.05584   0.06360   0.06603   0.06955
 Alpha virt. eigenvalues --    0.07441   0.07728   0.09046   0.09244   0.09885

 Mulliken charges:
               1
     1  C    0.671733
     2  C    0.536281
     3  C    0.231977
     4  C    0.172455
     5  C    0.099423
     6  C    0.077640
     7  C    0.329363
     8  C    0.452822
     9  C    1.250805
    10  O   -0.594292
    11  H   -0.070823
    12  H   -0.095639
    13  H   -0.095615
    14  H   -0.172881
    15  H   -0.172192
    16  H   -0.206903
    17  H   -0.205152
    18  H   -0.213571
    19  H   -0.216907
    20  H   -0.200100
    21  H   -0.202349
    22  H   -0.213883
    23  H   -0.209520
    24  H   -0.199661
    25  H   -0.199848
    26  H   -0.127868
    27  H   -0.200645
    28  H   -0.153651
    29  H   -0.212610
    30  H    0.141612
 Sum of Mulliken charges =  -0.00000

 Dipole moment (field-independent basis, Debye):
    X=              1.6096    Y=             -0.1665    Z=              1.2442  Tot=              2.0412

 Test job not archived.
 1\1\GINC-SE036\SP\RHF\Aug-CC-pVDZ\C9H20O1\OHZDE\05-Apr-2025\0\\#t hf a
 ug-cc-pvdz iop(5/13=1,5/36=2,99/5=2) pseudo=read geom=check guess=(rea
 d,tcheck) scf=(maxcycle=1)\\title\\0,1\C,0,5.737654,0.300711,0.011156\
 C,0,4.448192,-0.518362,-0.011562\C,0,3.184431,0.342309,0.009963\C,0,1.
 888085,-0.468013,-0.011393\C,0,0.625303,0.394075,0.008474\C,0,-0.67102
 5,-0.416506,-0.012685\C,0,-1.93292,0.447391,0.006322\C,0,-3.22854,-0.3
 65266,-0.019608\C,0,-4.476648,0.508022,0.005687\O,0,-5.690067,-0.23880
 4,-0.075332\H,0,6.619389,-0.341382,-0.00638\H,0,5.796144,0.967682,-0.8

 Normal termination of Gaussian 16 at Sat Apr  5 23:10:55 2025.
