 Gaussian 16, Revision C.01,

 ----------------------------------------------------------------------
 #t hf aug-cc-pvdz symm=none int=(grid=ultrafine) guess=(read,tcheck) s
 table=(opt,rrhf)
 ----------------------------------------------------------------------
 -----
 title
 -----
 Symbolic Z-matrix:
 Charge =  0 Multiplicity = 1

 SCF Done:  E(RHF) =  -272.088437544     A.U. after   11 cycles
 Normal termination of Gaussian 16 at Sat Apr  5 23:07:02 2025.
 Gaussian 16:  ES64L-G16RevC.01  3-Jul-2019

 ----------------------------------------------------------------------
 #t hf aug-cc-pvdz iop(5/13=1,5/36=2,99/5=2) pseudo=read geom=check gue
 ss=(read,tcheck) scf=(maxcycle=1)
 ----------------------------------------------------------------------
 -----
 title
 -----
 Structure from the checkpoint file:  "norborane.chk"
 Charge =  0 Multiplicity = 1

                         Standard orientation:
 ---------------------------------------------------------------------
 Center     Atomic      Atomic             Coordinates (Angstroms)
 Number     Number       Type             X           Y           Z
 ---------------------------------------------------------------------
      1          6           0        0.000000    0.000000    1.385266
      2          6           0        0.000000    1.130265    0.339297
      3          6           0       -0.000000   -1.130265    0.339297
      4          6           0        1.252143    0.780951   -0.492266
      5          6           0       -1.252143    0.780951   -0.492266
      6          6           0       -1.252143   -0.780951   -0.492266
      7          6           0        1.252143   -0.780951   -0.492266
      8          1           0       -0.887352    0.000000    2.020515
      9          1           0        0.887352   -0.000000    2.020515
     10          1           0        0.000000    2.146851    0.729171
     11          1           0       -0.000000   -2.146851    0.729171
     12          1           0        2.153759    1.172887   -0.019845
     13          1           0       -2.153759   -1.172887   -0.019845
     14          1           0        2.153759   -1.172887   -0.019845
     15          1           0       -2.153759    1.172887   -0.019845
     16          1           0        1.204295   -1.201509   -1.497189
     17          1           0       -1.204295    1.201509   -1.497189
     18          1           0        1.204295    1.201509   -1.497189
     19          1           0       -1.204295   -1.201509   -1.497189
 ---------------------------------------------------------------------

 SCF Done:  E(RHF) =  -272.168607927     A.U. after    2 cycles

 The electronic state is 1-A1.
 Alpha  occ. eigenvalues --  -11.22515 -11.22505 -11.22002 -11.21994 -11.21962
 Alpha  occ. eigenvalues --  -11.21951 -11.21795  -1.14821  -0.98885  -0.97012
 Alpha  occ. eigenvalues --   -0.93436  -0.82025  -0.75447  -0.72760  -0.67941
 Alpha  occ. eigenvalues --   -0.63767  -0.62865  -0.54797  -0.54458  -0.50474
 Alpha  occ. eigenvalues --   -0.49482  -0.48492  -0.46737  -0.46462  -0.44491
 Alpha  occ. eigenvalues --   -0.43136  -0.41911
 Alpha virt. eigenvalues --    0.03444   0.04284   0.04611   0.04665   0.06153
 Alpha virt. eigenvalues --    0.06441   0.06674   0.06766   0.06849   0.08858
 Alpha virt. eigenvalues --    0.08966   0.09386   0.12287   0.13046   0.14009

 Mulliken charges:
               1
     1  C    0.894100
     2  C   -0.176783
     3  C   -0.176783
     4  C    0.458358
     5  C    0.458358
     6  C    0.458358
     7  C    0.458358
     8  H   -0.196699
     9  H   -0.196699
    10  H   -0.266484
    11  H   -0.266484
    12  H   -0.168975
    13  H   -0.168975
    14  H   -0.168975
    15  H   -0.168975
    16  H   -0.192925
    17  H   -0.192925
    18  H   -0.192925
    19  H   -0.192925
 Sum of Mulliken charges =  -0.00000

 Dipole moment (field-independent basis, Debye):
    X=              0.0000    Y=              0.0000    Z=              0.0798  Tot=              0.0798

 Test job not archived.
 1\1\GINC-SE173\SP\RHF\Aug-CC-pVDZ\C7H12\OHZDE\05-Apr-2025\0\\#t hf aug
 -cc-pvdz iop(5/13=1,5/36=2,99/5=2) pseudo=read geom=check guess=(read,
 tcheck) scf=(maxcycle=1)\\title\\0,1\C,0,0.,0.,1.385266\C,0,0.,1.13026
 5,0.339297\C,0,0.,-1.130265,0.339297\C,0,1.252143,0.780951,-0.492266\C
 ,0,-1.252143,0.780951,-0.492266\C,0,-1.252143,-0.780951,-0.492266\C,0,
 1.252143,-0.780951,-0.492266\H,0,-0.887352,0.,2.020515\H,0,0.887352,0.
 ,2.020515\H,0,0.,2.146851,0.729171\H,0,0.,-2.146851,0.729171\H,0,2.153
 759,1.172887,-0.019845\H,0,-2.153759,-1.172887,-0.019845\H,0,2.153759,

 Normal termination of Gaussian 16 at Sat Apr  5 23:07:29 2025.
