 Gaussian 16, Revision C.01,

 ----------------------------------------------------------------------
 #t hf aug-cc-pvdz symm=none int=(grid=ultrafine) guess=(read,tcheck) s
 table=(opt,rrhf)
 ----------------------------------------------------------------------
 -----
 title
 -----
 Symbolic Z-matrix:
 Charge =  0 Multiplicity = 1

 SCF Done:  E(RHF) =  -269.682847108     A.U. after   12 cycles
 Normal termination of Gaussian 16 at Sat Apr  5 23:06:57 2025.
 Gaussian 16:  ES64L-G16RevC.01  3-Jul-2019

 ----------------------------------------------------------------------
 #t hf aug-cc-pvdz iop(5/13=1,5/36=2,99/5=2) pseudo=read geom=check gue
 ss=(read,tcheck) scf=(maxcycle=1)
 ----------------------------------------------------------------------
 -----
 title
 -----
 Structure from the checkpoint file:  "norbornadiene.chk"
 Charge =  0 Multiplicity = 1

                         Standard orientation:
 ---------------------------------------------------------------------
 Center     Atomic      Atomic             Coordinates (Angstroms)
 Number     Number       Type             X           Y           Z
 ---------------------------------------------------------------------
      1          6           0        0.000000    0.000000    1.353978
      2          6           0        0.000000    1.120429    0.272438
      3          6           0       -0.000000   -1.120429    0.272438
      4          6           0        1.240122    0.664758   -0.520057
      5          6           0        1.240122   -0.664758   -0.520057
      6          6           0       -1.240122    0.664758   -0.520057
      7          6           0       -1.240122   -0.664758   -0.520057
      8          1           0       -0.896605    0.000000    1.972745
      9          1           0        0.896605   -0.000000    1.972745
     10          1           0        0.000000    2.152954    0.608976
     11          1           0       -0.000000   -2.152954    0.608976
     12          1           0        1.927551    1.330663   -1.018798
     13          1           0        1.927551   -1.330663   -1.018798
     14          1           0       -1.927551    1.330663   -1.018798
     15          1           0       -1.927551   -1.330663   -1.018798
 ---------------------------------------------------------------------

 SCF Done:  E(RHF) =  -269.760880221     A.U. after    2 cycles

 The electronic state is 1-A1.
 Alpha  occ. eigenvalues --  -11.24451 -11.24441 -11.23301 -11.23065 -11.23059
 Alpha  occ. eigenvalues --  -11.22898 -11.22889  -1.17469  -1.01140  -0.95291
 Alpha  occ. eigenvalues --   -0.94048  -0.77525  -0.76133  -0.70730  -0.68984
 Alpha  occ. eigenvalues --   -0.65394  -0.58385  -0.53285  -0.52529  -0.51731
 Alpha  occ. eigenvalues --   -0.49399  -0.46404  -0.46327  -0.36424  -0.32320
 Alpha virt. eigenvalues --    0.03446   0.04025   0.04452   0.04699   0.06047
 Alpha virt. eigenvalues --    0.06269   0.06633   0.06887   0.10482   0.11943
 Alpha virt. eigenvalues --    0.11983   0.13506   0.13844   0.14544   0.14591

 Mulliken charges:
               1
     1  C    0.635351
     2  C    0.282023
     3  C    0.282023
     4  C    0.391385
     5  C    0.391385
     6  C    0.391385
     7  C    0.391385
     8  H   -0.261579
     9  H   -0.261579
    10  H   -0.397393
    11  H   -0.397393
    12  H   -0.361749
    13  H   -0.361749
    14  H   -0.361749
    15  H   -0.361749
 Sum of Mulliken charges =  -0.00000

 Dipole moment (field-independent basis, Debye):
    X=             -0.0000    Y=              0.0000    Z=              0.0549  Tot=              0.0549

 Test job not archived.
 1\1\GINC-SE115\SP\RHF\Aug-CC-pVDZ\C7H8\OHZDE\05-Apr-2025\0\\#t hf aug-
 cc-pvdz iop(5/13=1,5/36=2,99/5=2) pseudo=read geom=check guess=(read,t
 check) scf=(maxcycle=1)\\title\\0,1\C,0,0.,0.,1.353978\C,0,0.,1.120429
 ,0.272438\C,0,0.,-1.120429,0.272438\C,0,1.240122,0.664758,-0.520057\C,
 0,1.240122,-0.664758,-0.520057\C,0,-1.240122,0.664758,-0.520057\C,0,-1
 .240122,-0.664758,-0.520057\H,0,-0.896605,0.,1.972745\H,0,0.896605,0.,
 1.972745\H,0,0.,2.152954,0.608976\H,0,0.,-2.152954,0.608976\H,0,1.9275
 51,1.330663,-1.018798\H,0,1.927551,-1.330663,-1.018798\H,0,-1.927551,1

 Normal termination of Gaussian 16 at Sat Apr  5 23:07:28 2025.
