 Gaussian 16, Revision C.01,

 ----------------------------------------------------------------------
 #t hf aug-cc-pvdz symm=none int=(grid=ultrafine) guess=(read,tcheck) s
 table=(opt,rrhf)
 ----------------------------------------------------------------------
 -----
 title
 -----
 Symbolic Z-matrix:
 Charge =  0 Multiplicity = 1

 SCF Done:  E(RHF) =  -272.063922666     A.U. after   12 cycles
 Normal termination of Gaussian 16 at Sat Apr  5 23:07:15 2025.
 Gaussian 16:  ES64L-G16RevC.01  3-Jul-2019

 ----------------------------------------------------------------------
 #t hf aug-cc-pvdz iop(5/13=1,5/36=2,99/5=2) pseudo=read geom=check gue
 ss=(read,tcheck) scf=(maxcycle=1)
 ----------------------------------------------------------------------
 -----
 title
 -----
 Structure from the checkpoint file:  "norcarane.chk"
 Charge =  0 Multiplicity = 1

                         Standard orientation:
 ---------------------------------------------------------------------
 Center     Atomic      Atomic             Coordinates (Angstroms)
 Number     Number       Type             X           Y           Z
 ---------------------------------------------------------------------
      1          6           0        0.975299    0.827111   -0.352809
      2          6           0        1.037330   -0.681581   -0.465009
      3          6           0        1.707835    0.013482    0.686561
      4          6           0       -0.339639    1.518890    0.000186
      5          6           0       -0.218086   -1.511099   -0.270848
      6          6           0       -1.568408    0.613209   -0.153427
      7          6           0       -1.336768   -0.765176    0.466692
      8          1           0        1.606840    1.375880   -1.039268
      9          1           0        1.707047   -1.069245   -1.223026
     10          1           0        2.788502    0.048694    0.705499
     11          1           0        1.251515   -0.062096    1.665475
     12          1           0       -0.295481    1.889223    1.028594
     13          1           0       -0.460026    2.400340   -0.631932
     14          1           0       -0.593963   -1.797410   -1.258217
     15          1           0        0.025275   -2.442322    0.248361
     16          1           0       -2.438162    1.095924    0.297128
     17          1           0       -1.797265    0.485618   -1.216378
     18          1           0       -2.251524   -1.359759    0.428994
     19          1           0       -1.088138   -0.653867    1.526702
 ---------------------------------------------------------------------

 SCF Done:  E(RHF) =  -272.146908453     A.U. after    2 cycles

 The electronic state is 1-A.
 Alpha  occ. eigenvalues --  -11.22983 -11.22891 -11.22450 -11.22381 -11.22265
 Alpha  occ. eigenvalues --  -11.22162 -11.22154  -1.14412  -1.04497  -0.99315
 Alpha  occ. eigenvalues --   -0.88026  -0.82259  -0.78819  -0.71637  -0.67909
 Alpha  occ. eigenvalues --   -0.61736  -0.60109  -0.59181  -0.57553  -0.52846
 Alpha  occ. eigenvalues --   -0.51424  -0.49374  -0.47125  -0.46775  -0.44061
 Alpha  occ. eigenvalues --   -0.39470  -0.38549
 Alpha virt. eigenvalues --    0.03516   0.04280   0.04468   0.04576   0.06236
 Alpha virt. eigenvalues --    0.06287   0.06581   0.06757   0.07021   0.08956
 Alpha virt. eigenvalues --    0.09156   0.09421   0.12586   0.13583   0.13881

 Mulliken charges:
               1
     1  C    0.418492
     2  C    0.291088
     3  C    0.609390
     4  C    0.084733
     5  C    0.217166
     6  C    0.415398
     7  C    0.304151
     8  H   -0.405998
     9  H   -0.411522
    10  H   -0.363560
    11  H   -0.402515
    12  H   -0.064639
    13  H   -0.111039
    14  H   -0.061723
    15  H   -0.072906
    16  H   -0.103772
    17  H   -0.116264
    18  H   -0.109432
    19  H   -0.117047
 Sum of Mulliken charges =  -0.00000

 Dipole moment (field-independent basis, Debye):
    X=             -0.1294    Y=              0.0040    Z=             -0.1310  Tot=              0.1842

 Test job not archived.
 1\1\GINC-SE115\SP\RHF\Aug-CC-pVDZ\C7H12\OHZDE\05-Apr-2025\0\\#t hf aug
 -cc-pvdz iop(5/13=1,5/36=2,99/5=2) pseudo=read geom=check guess=(read,
 tcheck) scf=(maxcycle=1)\\title\\0,1\C,0,0.975299,0.827111,-0.352809\C
 ,0,1.03733,-0.681581,-0.465009\C,0,1.707835,0.013482,0.686561\C,0,-0.3
 39639,1.51889,0.000186\C,0,-0.218086,-1.511099,-0.270848\C,0,-1.568408
 ,0.613209,-0.153427\C,0,-1.336768,-0.765176,0.466692\H,0,1.60684,1.375
 88,-1.039268\H,0,1.707047,-1.069245,-1.223026\H,0,2.788502,0.048694,0.
 705499\H,0,1.251515,-0.062096,1.665475\H,0,-0.295481,1.889223,1.028594

 Normal termination of Gaussian 16 at Sat Apr  5 23:07:33 2025.
