 Gaussian 16, Revision C.01,

 ----------------------------------------------------------------------
 #t hf aug-cc-pvdz symm=none int=(grid=ultrafine) guess=(read,tcheck) s
 table=(opt,rrhf)
 ----------------------------------------------------------------------
 -----
 title
 -----
 Symbolic Z-matrix:
 Charge =  0 Multiplicity = 1

 SCF Done:  E(RHF) =  -344.642693108     A.U. after   15 cycles
 Normal termination of Gaussian 16 at Sat Apr  5 23:07:15 2025.
 Gaussian 16:  ES64L-G16RevC.01  3-Jul-2019

 ----------------------------------------------------------------------
 #t hf aug-cc-pvdz iop(5/13=1,5/36=2,99/5=2) pseudo=read geom=check gue
 ss=(read,tcheck) scf=(maxcycle=1)
 ----------------------------------------------------------------------
 -----
 title
 -----
 Structure from the checkpoint file:  "o-cresol.chk"
 Charge =  0 Multiplicity = 1

                         Standard orientation:
 ---------------------------------------------------------------------
 Center     Atomic      Atomic             Coordinates (Angstroms)
 Number     Number       Type             X           Y           Z
 ---------------------------------------------------------------------
      1          6           0        1.183630   -1.657236    0.000000
      2          6           0        1.978197   -0.519415    0.000000
      3          6           0       -0.201692   -1.524488    0.000000
      4          6           0        1.385481    0.737927    0.000000
      5          6           0       -0.822901   -0.278622    0.000000
      6          6           0        0.000000    0.854617    0.000000
      7          6           0       -2.318300   -0.130060    0.000000
      8          8           0       -0.625320    2.075643    0.000000
      9          1           0        1.634666   -2.639701    0.000000
     10          1           0        3.056498   -0.602769    0.000000
     11          1           0       -0.822640   -2.411682    0.000000
     12          1           0        1.999453    1.631427    0.000000
     13          1           0       -2.661652    0.425255    0.874779
     14          1           0       -2.661652    0.425255   -0.874779
     15          1           0       -2.803146   -1.104999    0.000000
     16          1           0        0.034538    2.775735    0.000000
 ---------------------------------------------------------------------

 SCF Done:  E(RHF) =  -344.747785537     A.U. after    2 cycles

 The electronic state is 1-A'.
 Alpha  occ. eigenvalues --  -20.60382 -11.30818 -11.24570 -11.24411 -11.24221
 Alpha  occ. eigenvalues --  -11.24137 -11.23408 -11.22798  -1.36560  -1.14178
 Alpha  occ. eigenvalues --   -1.04176  -1.00165  -0.92989  -0.85120  -0.80517
 Alpha  occ. eigenvalues --   -0.74041  -0.68291  -0.65887  -0.61241  -0.60926
 Alpha  occ. eigenvalues --   -0.59162  -0.57104  -0.55798  -0.54601  -0.50708
 Alpha  occ. eigenvalues --   -0.49163  -0.48307  -0.33818  -0.31519
 Alpha virt. eigenvalues --    0.03181   0.03969   0.04136   0.05470   0.05915
 Alpha virt. eigenvalues --    0.06479   0.07781   0.08149   0.10745   0.10974
 Alpha virt. eigenvalues --    0.12087   0.13014   0.13343   0.13850   0.13968

 Mulliken charges:
               1
     1  C    0.265817
     2  C    0.289856
     3  C    0.891143
     4  C    0.813052
     5  C   -0.360371
     6  C    0.199151
     7  C    0.495508
     8  O   -0.628072
     9  H   -0.459439
    10  H   -0.431420
    11  H   -0.548088
    12  H   -0.617200
    13  H    0.068563
    14  H    0.068563
    15  H   -0.203164
    16  H    0.156101
 Sum of Mulliken charges =  -0.00000

 Dipole moment (field-independent basis, Debye):
    X=              0.9910    Y=              0.4346    Z=              0.0000  Tot=              1.0821

 Test job not archived.
 1\1\GINC-SE165\SP\RHF\Aug-CC-pVDZ\C7H8O1\OHZDE\05-Apr-2025\0\\#t hf au
 g-cc-pvdz iop(5/13=1,5/36=2,99/5=2) pseudo=read geom=check guess=(read
 ,tcheck) scf=(maxcycle=1)\\title\\0,1\C,0,1.18363,-1.657236,0.\C,0,1.9
 78197,-0.519415,0.\C,0,-0.201692,-1.524488,0.\C,0,1.385481,0.737927,0.
 \C,0,-0.822901,-0.278622,0.\C,0,0.,0.854617,0.\C,0,-2.3183,-0.13006,0.
 \O,0,-0.62532,2.075643,0.\H,0,1.634666,-2.639701,0.\H,0,3.056498,-0.60
 2769,0.\H,0,-0.82264,-2.411682,0.\H,0,1.999453,1.631427,0.\H,0,-2.6616
 52,0.425255,0.874779\H,0,-2.661652,0.425255,-0.874779\H,0,-2.803146,-1

 Normal termination of Gaussian 16 at Sat Apr  5 23:07:31 2025.
