 Gaussian 16, Revision C.01,

 ----------------------------------------------------------------------
 #t hf aug-cc-pvdz symm=none int=(grid=ultrafine) guess=(read,tcheck) s
 table=(opt,rrhf)
 ----------------------------------------------------------------------
 -----
 title
 -----
 Symbolic Z-matrix:
 Charge =  0 Multiplicity = 1

 SCF Done:  E(RHF) =  -428.449720642     A.U. after   14 cycles
 Normal termination of Gaussian 16 at Sat Apr  5 23:06:41 2025.
 Gaussian 16:  ES64L-G16RevC.01  3-Jul-2019

 ----------------------------------------------------------------------
 #t hf aug-cc-pvdz iop(5/13=1,5/36=2,99/5=2) pseudo=read geom=check gue
 ss=(read,tcheck) scf=(maxcycle=1)
 ----------------------------------------------------------------------
 -----
 title
 -----
 Structure from the checkpoint file:  "o-difluorobenzene.chk"
 Charge =  0 Multiplicity = 1

                         Standard orientation:
 ---------------------------------------------------------------------
 Center     Atomic      Atomic             Coordinates (Angstroms)
 Number     Number       Type             X           Y           Z
 ---------------------------------------------------------------------
      1          6           0        0.000000    0.694295   -0.532279
      2          6           0        0.000000    1.395728    0.658951
      3          6           0        0.000000    0.694955    1.860549
      4          6           0       -0.000000   -0.694955    1.860549
      5          6           0       -0.000000   -1.395728    0.658951
      6          6           0       -0.000000   -0.694295   -0.532279
      7          9           0        0.000000   -1.349838   -1.705237
      8          9           0        0.000000    1.349838   -1.705237
      9          1           0        0.000000    2.476041    0.629411
     10          1           0        0.000000    1.238774    2.794390
     11          1           0       -0.000000   -1.238774    2.794390
     12          1           0       -0.000000   -2.476041    0.629411
 ---------------------------------------------------------------------

 SCF Done:  E(RHF) =  -428.590481637     A.U. after    2 cycles

 The electronic state is 1-A1.
 Alpha  occ. eigenvalues --  -26.14754 -26.14749 -11.35446 -11.35332 -11.27007
 Alpha  occ. eigenvalues --  -11.27003 -11.26704 -11.26593  -1.69169  -1.68212
 Alpha  occ. eigenvalues --   -1.17757  -1.04741  -1.04363  -0.89599  -0.89123
 Alpha  occ. eigenvalues --   -0.81747  -0.77771  -0.77227  -0.76408  -0.75187
 Alpha  occ. eigenvalues --   -0.72126  -0.67435  -0.63701  -0.62570  -0.55900
 Alpha  occ. eigenvalues --   -0.53926  -0.52893  -0.36797  -0.35892
 Alpha virt. eigenvalues --    0.03086   0.03855   0.04684   0.05994   0.08626
 Alpha virt. eigenvalues --    0.08934   0.10350   0.10872   0.11391   0.13695
 Alpha virt. eigenvalues --    0.13751   0.13827   0.13885   0.14243   0.14999

 Mulliken charges:
               1
     1  C    0.222180
     2  C    0.422365
     3  C    0.483379
     4  C    0.483379
     5  C    0.422365
     6  C    0.222180
     7  F   -0.291511
     8  F   -0.291511
     9  H   -0.419943
    10  H   -0.416469
    11  H   -0.416469
    12  H   -0.419943
 Sum of Mulliken charges =   0.00000

 Dipole moment (field-independent basis, Debye):
    X=             -0.0000    Y=             -0.0000    Z=              3.5416  Tot=              3.5416

 Test job not archived.
 1\1\GINC-SE190\SP\RHF\Aug-CC-pVDZ\C6H4F2\OHZDE\05-Apr-2025\0\\#t hf au
 g-cc-pvdz iop(5/13=1,5/36=2,99/5=2) pseudo=read geom=check guess=(read
 ,tcheck) scf=(maxcycle=1)\\title\\0,1\C,0,0.,0.694295,-0.532279\C,0,0.
 ,1.395728,0.658951\C,0,0.,0.694955,1.860549\C,0,0.,-0.694955,1.860549\
 C,0,0.,-1.395728,0.658951\C,0,0.,-0.694295,-0.532279\F,0,0.,-1.349838,
 -1.705237\F,0,0.,1.349838,-1.705237\H,0,0.,2.476041,0.629411\H,0,0.,1.
 238774,2.79439\H,0,0.,-1.238774,2.79439\H,0,0.,-2.476041,0.629411\\Ver
 sion=ES64L-G16RevC.01\State=1-A1\HF=-428.5904816\RMSD=1.720e-02\Dipole

 Normal termination of Gaussian 16 at Sat Apr  5 23:07:28 2025.
