 Gaussian 16, Revision C.01,

 ----------------------------------------------------------------------
 #t hf aug-cc-pvdz symm=none int=(grid=ultrafine) guess=(read,tcheck) s
 table=(opt,rrhf)
 ----------------------------------------------------------------------
 -----
 title
 -----
 Symbolic Z-matrix:
 Charge =  0 Multiplicity = 1

 SCF Done:  E(RHF) =  -1148.56655675     A.U. after   15 cycles

 1\1\GINC-SE185\Stability\RHF\Aug-CC-pVDZ\C6H4Cl2\OHZDE\05-Apr-2025\0\\
 #t hf aug-cc-pvdz symm=none int=(grid=ultrafine) guess=(read,tcheck) s
 table=(opt,rrhf)\\title\\0,1\C,0,0.,0.694844,2.382562\C,0,0.,-0.694844
 ,2.382562\C,0,0.,1.388047,1.181404\C,0,0.,-1.388047,1.181404\C,0,0.,0.
 697332,-0.025757\C,0,0.,-0.697332,-0.025757\Cl,0,0.,1.60509,-1.512263\
 Cl,0,0.,-1.60509,-1.512263\H,0,0.,1.242555,3.314599\H,0,0.,-1.242555,3
 .314599\H,0,0.,2.468014,1.164618\H,0,0.,-2.468014,1.164618\\Version=ES
 64L-G16RevC.01\HF=-1148.5665568\RMSD=2.599e-09\Dipole=0.,0.,1.166877\Q

 Normal termination of Gaussian 16 at Sat Apr  5 23:06:46 2025.
 Gaussian 16:  ES64L-G16RevC.01  3-Jul-2019

 ----------------------------------------------------------------------
 #t hf aug-cc-pvdz iop(5/13=1,5/36=2,99/5=2) pseudo=read geom=check gue
 ss=(read,tcheck) scf=(maxcycle=1)
 ----------------------------------------------------------------------
 -----
 title
 -----
 Structure from the checkpoint file:  "o-dichlorobenzene.chk"
 Charge =  0 Multiplicity = 1

                         Standard orientation:
 ---------------------------------------------------------------------
 Center     Atomic      Atomic             Coordinates (Angstroms)
 Number     Number       Type             X           Y           Z
 ---------------------------------------------------------------------
      1          6           0        0.000000    0.694844    2.382562
      2          6           0       -0.000000   -0.694844    2.382562
      3          6           0        0.000000    1.388047    1.181404
      4          6           0       -0.000000   -1.388047    1.181404
      5          6           0        0.000000    0.697332   -0.025757
      6          6           0       -0.000000   -0.697332   -0.025757
      7         17           0        0.000000    1.605090   -1.512263
      8         17           0       -0.000000   -1.605090   -1.512263
      9          1           0        0.000000    1.242555    3.314599
     10          1           0       -0.000000   -1.242555    3.314599
     11          1           0        0.000000    2.468014    1.164618
     12          1           0       -0.000000   -2.468014    1.164618
 ---------------------------------------------------------------------

 SCF Done:  E(RHF) =  -1148.67182669     A.U. after    2 cycles

 The electronic state is 1-A1.
 Alpha  occ. eigenvalues -- -103.67506-103.67505 -11.32980 -11.32866 -11.27290
 Alpha  occ. eigenvalues --  -11.27284 -11.26930 -11.26818 -10.70799 -10.70796
 Alpha  occ. eigenvalues --   -8.36540  -8.36532  -8.36220  -8.36213  -8.36204
 Alpha  occ. eigenvalues --   -8.36202  -1.23096  -1.17618  -1.14210  -1.03055
 Alpha  occ. eigenvalues --   -1.00946  -0.86108  -0.83604  -0.72073  -0.68270
 Alpha  occ. eigenvalues --   -0.65843  -0.61633  -0.60874  -0.58238  -0.53963
 Alpha  occ. eigenvalues --   -0.53830  -0.50401  -0.48716  -0.48344  -0.46472
 Alpha  occ. eigenvalues --   -0.36211  -0.35173
 Alpha virt. eigenvalues --    0.03059   0.03943   0.04931   0.06180   0.07889
 Alpha virt. eigenvalues --    0.08200   0.08745   0.10320   0.11298   0.11534
 Alpha virt. eigenvalues --    0.13192   0.13477   0.13511   0.13880   0.14528

 Mulliken charges:
               1
     1  C    0.524397
     2  C    0.524397
     3  C    0.656824
     4  C    0.656824
     5  C   -0.008500
     6  C   -0.008500
     7  Cl  -0.324596
     8  Cl  -0.324596
     9  H   -0.425144
    10  H   -0.425144
    11  H   -0.422979
    12  H   -0.422979
 Sum of Mulliken charges =  -0.00000

 Dipole moment (field-independent basis, Debye):
    X=              0.0000    Y=              0.0000    Z=              3.1044  Tot=              3.1044

 Test job not archived.
 1\1\GINC-SE185\SP\RHF\Aug-CC-pVDZ\C6H4Cl2\OHZDE\05-Apr-2025\0\\#t hf a
 ug-cc-pvdz iop(5/13=1,5/36=2,99/5=2) pseudo=read geom=check guess=(rea
 d,tcheck) scf=(maxcycle=1)\\title\\0,1\C,0,0.,0.694844,2.382562\C,0,0.
 ,-0.694844,2.382562\C,0,0.,1.388047,1.181404\C,0,0.,-1.388047,1.181404
 \C,0,0.,0.697332,-0.025757\C,0,0.,-0.697332,-0.025757\Cl,0,0.,1.60509,
 -1.512263\Cl,0,0.,-1.60509,-1.512263\H,0,0.,1.242555,3.314599\H,0,0.,-
 1.242555,3.314599\H,0,0.,2.468014,1.164618\H,0,0.,-2.468014,1.164618\\
 Version=ES64L-G16RevC.01\State=1-A1\HF=-1148.6718267\RMSD=1.446e-02\Di

 Normal termination of Gaussian 16 at Sat Apr  5 23:07:29 2025.
