 Gaussian 16, Revision C.01,

 ----------------------------------------------------------------------
 #t hf aug-cc-pvdz symm=none int=(grid=ultrafine) guess=(read,tcheck) s
 table=(opt,rrhf)
 ----------------------------------------------------------------------
 -----
 title
 -----
 Symbolic Z-matrix:
 Charge =  0 Multiplicity = 1

 SCF Done:  E(RHF) =  -206.660609626     A.U. after   14 cycles
 Normal termination of Gaussian 16 at Sat Apr  5 22:48:35 2025.
 Gaussian 16:  ES64L-G16RevC.01  3-Jul-2019

 ----------------------------------------------------------------------
 #t hf aug-cc-pvdz iop(5/13=1,5/36=2,99/5=2) pseudo=read geom=check gue
 ss=(read,tcheck) scf=(maxcycle=1)
 ----------------------------------------------------------------------
 -----
 title
 -----
 Structure from the checkpoint file:  "O-ethynylhydroxylamine.chk"
 Charge =  0 Multiplicity = 1

                         Standard orientation:
 ---------------------------------------------------------------------
 Center     Atomic      Atomic             Coordinates (Angstroms)
 Number     Number       Type             X           Y           Z
 ---------------------------------------------------------------------
      1          8           0       -0.485466    0.609325    0.000033
      2          7           0       -1.490658   -0.472251   -0.000012
      3          6           0        0.723672    0.132472    0.000000
      4          6           0        1.867234   -0.225589   -0.000026
      5          1           0       -2.052385   -0.232984   -0.814329
      6          1           0       -2.052359   -0.233078    0.814350
      7          1           0        2.877638   -0.544080   -0.000049
 ---------------------------------------------------------------------

 SCF Done:  E(RHF) =  -206.728251297     A.U. after    2 cycles

 The electronic state is 1-A.
 Alpha  occ. eigenvalues --  -20.66458 -15.71509 -11.30280 -11.22983  -1.42327
 Alpha  occ. eigenvalues --   -1.12998  -1.00305  -0.76946  -0.73646  -0.69545
 Alpha  occ. eigenvalues --   -0.69166  -0.59414  -0.47421  -0.39199  -0.37539
 Alpha virt. eigenvalues --    0.03071   0.04315   0.05148   0.08518   0.11691
 Alpha virt. eigenvalues --    0.12325   0.12625   0.15160   0.15536   0.15866
 Alpha virt. eigenvalues --    0.16512   0.17386   0.19530   0.21976   0.23966

 Mulliken charges:
               1
     1  O   -0.536688
     2  N    0.031368
     3  C   -0.191320
     4  C    0.831799
     5  H    0.124038
     6  H    0.124038
     7  H   -0.383235
 Sum of Mulliken charges =  -0.00000

 Dipole moment (field-independent basis, Debye):
    X=             -2.1870    Y=             -0.2181    Z=              0.0000  Tot=              2.1979

 Test job not archived.
 1\1\GINC-SE187\SP\RHF\Aug-CC-pVDZ\C2H3N1O1\OHZDE\05-Apr-2025\0\\#t hf
 aug-cc-pvdz iop(5/13=1,5/36=2,99/5=2) pseudo=read geom=check guess=(re
 ad,tcheck) scf=(maxcycle=1)\\title\\0,1\O,0,-0.485466,0.609325,0.00003
 3\N,0,-1.490658,-0.472251,-0.000012\C,0,0.723672,0.132472,0.\C,0,1.867
 234,-0.225589,-0.000026\H,0,-2.052385,-0.232984,-0.814329\H,0,-2.05235
 9,-0.233078,0.81435\H,0,2.877638,-0.54408,-0.000049\\Version=ES64L-G16
 RevC.01\State=1-A\HF=-206.7282513\RMSD=5.707e-03\Dipole=-0.8604412,-0.
 0858061,0.0000104\Quadrupole=5.6593805,-4.2052269,-1.4541536,-0.841834

 Normal termination of Gaussian 16 at Sat Apr  5 22:48:37 2025.
