 Gaussian 16, Revision C.01,

 ----------------------------------------------------------------------
 #t hf aug-cc-pvdz symm=none int=(grid=ultrafine) guess=(read,tcheck) s
 table=(opt,rrhf)
 ----------------------------------------------------------------------
 -----
 title
 -----
 Symbolic Z-matrix:
 Charge =  0 Multiplicity = 1

 SCF Done:  E(RHF) =  -324.810578270     A.U. after   15 cycles
 Normal termination of Gaussian 16 at Sat Apr  5 23:08:20 2025.
 Gaussian 16:  ES64L-G16RevC.01  3-Jul-2019

 ----------------------------------------------------------------------
 #t hf aug-cc-pvdz iop(5/13=1,5/36=2,99/5=2) pseudo=read geom=check gue
 ss=(read,tcheck) scf=(maxcycle=1)
 ----------------------------------------------------------------------
 -----
 title
 -----
 Structure from the checkpoint file:  "o-toluidine.chk"
 Charge =  0 Multiplicity = 1

                         Standard orientation:
 ---------------------------------------------------------------------
 Center     Atomic      Atomic             Coordinates (Angstroms)
 Number     Number       Type             X           Y           Z
 ---------------------------------------------------------------------
      1          6           0       -1.885447   -0.818105    0.007501
      2          6           0       -1.975051    0.568351   -0.000697
      3          6           0       -0.628774   -1.412605    0.008802
      4          6           0       -0.822932    1.340246   -0.004708
      5          6           0        0.543272   -0.661462    0.000704
      6          6           0        0.440882    0.742403   -0.003804
      7          6           0        1.892339   -1.326343   -0.010307
      8          7           0        1.590034    1.533681   -0.069114
      9          1           0       -2.777857   -1.428092    0.012258
     10          1           0       -2.942118    1.053385   -0.001815
     11          1           0       -0.550202   -2.492945    0.013468
     12          1           0       -0.896227    2.421222   -0.012731
     13          1           0        2.483420   -1.022759   -0.878512
     14          1           0        2.479480   -1.078546    0.880504
     15          1           0        1.791170   -2.409860   -0.037583
     16          1           0        2.429428    1.133050    0.315391
     17          1           0        1.466927    2.493869    0.207873
 ---------------------------------------------------------------------

 SCF Done:  E(RHF) =  -324.908264773     A.U. after    2 cycles

 The electronic state is 1-A.
 Alpha  occ. eigenvalues --  -15.62859 -11.28234 -11.23788 -11.23764 -11.23636
 Alpha  occ. eigenvalues --  -11.23462 -11.22943 -11.22470  -1.19732  -1.11427
 Alpha  occ. eigenvalues --   -1.03531  -0.98159  -0.92763  -0.82503  -0.79822
 Alpha  occ. eigenvalues --   -0.69993  -0.69230  -0.64516  -0.60596  -0.59435
 Alpha  occ. eigenvalues --   -0.58348  -0.57061  -0.54631  -0.51615  -0.49806
 Alpha  occ. eigenvalues --   -0.48529  -0.44501  -0.33080  -0.29014
 Alpha virt. eigenvalues --    0.03234   0.03760   0.04015   0.05556   0.05655
 Alpha virt. eigenvalues --    0.06071   0.07564   0.08030   0.09704   0.11228
 Alpha virt. eigenvalues --    0.11719   0.12541   0.13443   0.13777   0.13831

 Mulliken charges:
               1
     1  C    0.273666
     2  C    0.329724
     3  C    0.870930
     4  C    0.840255
     5  C   -0.034899
     6  C   -0.143076
     7  C    0.441304
     8  N   -0.335019
     9  H   -0.470957
    10  H   -0.440622
    11  H   -0.560785
    12  H   -0.601353
    13  H    0.092470
    14  H    0.073138
    15  H   -0.247870
    16  H   -0.044505
    17  H   -0.042398
 Sum of Mulliken charges =  -0.00000

 Dipole moment (field-independent basis, Debye):
    X=              1.1684    Y=              0.5109    Z=              0.9026  Tot=              1.5624

 Test job not archived.
 1\1\GINC-SE050\SP\RHF\Aug-CC-pVDZ\C7H9N1\OHZDE\05-Apr-2025\0\\#t hf au
 g-cc-pvdz iop(5/13=1,5/36=2,99/5=2) pseudo=read geom=check guess=(read
 ,tcheck) scf=(maxcycle=1)\\title\\0,1\C,0,-1.885447,-0.818106,0.007501
 \C,0,-1.975051,0.56835,-0.000697\C,0,-0.628773,-1.412605,0.008802\C,0,
 -0.822932,1.340246,-0.004708\C,0,0.543272,-0.661462,0.000704\C,0,0.440
 882,0.742403,-0.003804\C,0,1.89234,-1.326342,-0.010307\N,0,1.590034,1.
 533681,-0.069114\H,0,-2.777856,-1.428093,0.012258\H,0,-2.942118,1.0533
 84,-0.001815\H,0,-0.550201,-2.492945,0.013468\H,0,-0.896228,2.421222,-

 Normal termination of Gaussian 16 at Sat Apr  5 23:08:28 2025.
