 Gaussian 16, Revision C.01,

 ----------------------------------------------------------------------
 #t hf aug-cc-pvdz symm=none int=(grid=ultrafine) guess=(read,tcheck) s
 table=(opt,rrhf)
 ----------------------------------------------------------------------
 -----
 title
 -----
 Symbolic Z-matrix:
 Charge =  0 Multiplicity = 1

 SCF Done:  E(RHF) =  -308.808365752     A.U. after   14 cycles
 Normal termination of Gaussian 16 at Sat Apr  5 23:09:15 2025.
 Gaussian 16:  ES64L-G16RevC.01  3-Jul-2019

 ----------------------------------------------------------------------
 #t hf aug-cc-pvdz iop(5/13=1,5/36=2,99/5=2) pseudo=read geom=check gue
 ss=(read,tcheck) scf=(maxcycle=1)
 ----------------------------------------------------------------------
 -----
 title
 -----
 Structure from the checkpoint file:  "o-xylene.chk"
 Charge =  0 Multiplicity = 1

                         Standard orientation:
 ---------------------------------------------------------------------
 Center     Atomic      Atomic             Coordinates (Angstroms)
 Number     Number       Type             X           Y           Z
 ---------------------------------------------------------------------
      1          6           0        0.000000    0.693498    1.952555
      2          6           0       -0.000000   -0.693498    1.952555
      3          6           0        0.000000    1.377876    0.743109
      4          6           0       -0.000000   -1.377876    0.743109
      5          6           0        0.000000    0.703110   -0.476273
      6          6           0       -0.000000   -0.703110   -0.476273
      7          6           0        0.000000    1.477433   -1.768050
      8          6           0       -0.000000   -1.477433   -1.768050
      9          1           0        0.000000    1.241957    2.885153
     10          1           0       -0.000000   -1.241957    2.885153
     11          1           0        0.000000    2.461031    0.743277
     12          1           0       -0.000000   -2.461031    0.743277
     13          1           0        0.876446    1.245249   -2.378000
     14          1           0       -0.876446    1.245249   -2.378000
     15          1           0        0.000000    2.550074   -1.580471
     16          1           0        0.876446   -1.245249   -2.378000
     17          1           0       -0.000000   -2.550074   -1.580471
     18          1           0       -0.876446   -1.245249   -2.378000
 ---------------------------------------------------------------------

 SCF Done:  E(RHF) =  -308.902152244     A.U. after    2 cycles

 The electronic state is 1-A1.
 Alpha  occ. eigenvalues --  -11.24405 -11.24302 -11.23599 -11.23517 -11.23428
 Alpha  occ. eigenvalues --  -11.23404 -11.23206 -11.23203  -1.14573  -1.04355
 Alpha  occ. eigenvalues --   -1.02613  -0.94525  -0.91456  -0.81434  -0.78686
 Alpha  occ. eigenvalues --   -0.68301  -0.65113  -0.62259  -0.59460  -0.57715
 Alpha  occ. eigenvalues --   -0.56374  -0.55344  -0.54243  -0.54181  -0.48372
 Alpha  occ. eigenvalues --   -0.48278  -0.48111  -0.33113  -0.32020
 Alpha virt. eigenvalues --    0.03514   0.03968   0.04029   0.05352   0.05791
 Alpha virt. eigenvalues --    0.05871   0.07476   0.07777   0.07981   0.10102
 Alpha virt. eigenvalues --    0.10240   0.11100   0.11795   0.13059   0.13483

 Mulliken charges:
               1
     1  C    0.269660
     2  C    0.269660
     3  C    0.618857
     4  C    0.618857
     5  C   -0.435293
     6  C   -0.435293
     7  C    0.533790
     8  C    0.533790
     9  H   -0.455654
    10  H   -0.455654
    11  H   -0.585917
    12  H   -0.585917
    13  H    0.161402
    14  H    0.161402
    15  H   -0.268246
    16  H    0.161402
    17  H   -0.268246
    18  H    0.161402
 Sum of Mulliken charges =  -0.00000

 Dipole moment (field-independent basis, Debye):
    X=              0.0000    Y=              0.0000    Z=             -0.6650  Tot=              0.6650

 Test job not archived.
 1\1\GINC-SE158\SP\RHF\Aug-CC-pVDZ\C8H10\OHZDE\05-Apr-2025\0\\#t hf aug
 -cc-pvdz iop(5/13=1,5/36=2,99/5=2) pseudo=read geom=check guess=(read,
 tcheck) scf=(maxcycle=1)\\title\\0,1\C,0,0.,0.693498,1.952555\C,0,0.,-
 0.693498,1.952555\C,0,0.,1.377876,0.743109\C,0,0.,-1.377876,0.743109\C
 ,0,0.,0.70311,-0.476273\C,0,0.,-0.70311,-0.476273\C,0,0.,1.477433,-1.7
 6805\C,0,0.,-1.477433,-1.76805\H,0,0.,1.241957,2.885153\H,0,0.,-1.2419
 57,2.885153\H,0,0.,2.461031,0.743277\H,0,0.,-2.461031,0.743277\H,0,0.8
 76446,1.245249,-2.378\H,0,-0.876446,1.245249,-2.378\H,0,0.,2.550074,-1

 Normal termination of Gaussian 16 at Sat Apr  5 23:10:25 2025.
