 Gaussian 16, Revision C.01,

 ----------------------------------------------------------------------
 #t hf aug-cc-pvdz symm=none int=(grid=ultrafine) guess=(read,tcheck) s
 table=(opt,rrhf)
 ----------------------------------------------------------------------
 -----
 title
 -----
 Symbolic Z-matrix:
 Charge =  0 Multiplicity = 1

 SCF Done:  E(RHF) =  -387.172529376     A.U. after   13 cycles

 1\1\GINC-SE194\Stability\RHF\Aug-CC-pVDZ\C8H16O1\OHZDE\05-Apr-2025\0\\
 #t hf aug-cc-pvdz symm=none int=(grid=ultrafine) guess=(read,tcheck) s
 table=(opt,rrhf)\\title\\0,1\C,0,3.802531,1.530625,0.\C,0,-4.637584,-1
 .541445,0.\C,0,2.306092,1.687856,0.\C,0,-3.126767,-1.767415,0.\C,0,1.5
 12129,0.387412,0.\C,0,-2.319569,-0.468725,0.\C,0,0.,0.612534,0.\C,0,-0
 .806536,-0.686509,0.\O,0,4.392118,0.479692,0.\H,0,4.367576,2.486731,0.
 \H,0,-4.952565,-0.978042,0.880795\H,0,-5.181814,-2.486837,0.\H,0,-4.95
 2565,-0.978042,-0.880795\H,0,2.054742,2.311831,-0.867367\H,0,2.054742,

 Normal termination of Gaussian 16 at Sat Apr  5 23:10:19 2025.
 Gaussian 16:  ES64L-G16RevC.01  3-Jul-2019

 ----------------------------------------------------------------------
 #t hf aug-cc-pvdz iop(5/13=1,5/36=2,99/5=2) pseudo=read geom=check gue
 ss=(read,tcheck) scf=(maxcycle=1)
 ----------------------------------------------------------------------
 -----
 title
 -----
 Structure from the checkpoint file:  "octanal.chk"
 Charge =  0 Multiplicity = 1

                         Standard orientation:
 ---------------------------------------------------------------------
 Center     Atomic      Atomic             Coordinates (Angstroms)
 Number     Number       Type             X           Y           Z
 ---------------------------------------------------------------------
      1          6           0        3.802531    1.530625    0.000000
      2          6           0       -4.637584   -1.541445    0.000000
      3          6           0        2.306092    1.687856    0.000000
      4          6           0       -3.126767   -1.767415    0.000000
      5          6           0        1.512129    0.387412    0.000000
      6          6           0       -2.319569   -0.468725    0.000000
      7          6           0        0.000000    0.612534    0.000000
      8          6           0       -0.806536   -0.686509    0.000000
      9          8           0        4.392118    0.479693    0.000000
     10          1           0        4.367576    2.486732    0.000000
     11          1           0       -4.952565   -0.978042    0.880795
     12          1           0       -5.181814   -2.486837    0.000000
     13          1           0       -4.952565   -0.978042   -0.880795
     14          1           0        2.054742    2.311831   -0.867367
     15          1           0        2.054742    2.311831    0.867367
     16          1           0       -2.848014   -2.363887   -0.873950
     17          1           0       -2.848014   -2.363887    0.873950
     18          1           0        1.799348   -0.206318    0.870716
     19          1           0        1.799348   -0.206318   -0.870716
     20          1           0       -2.599270    0.128270   -0.874711
     21          1           0       -2.599270    0.128270    0.874711
     22          1           0       -0.279114    1.209821    0.874730
     23          1           0       -0.279114    1.209821   -0.874730
     24          1           0       -0.527370   -1.283394   -0.874398
     25          1           0       -0.527370   -1.283394    0.874398
 ---------------------------------------------------------------------

 SCF Done:  E(RHF) =  -387.295133531     A.U. after    2 cycles

 The electronic state is 1-A'.
 Alpha  occ. eigenvalues --  -20.57183 -11.34354 -11.25122 -11.23322 -11.23118
 Alpha  occ. eigenvalues --  -11.22664 -11.22650 -11.22527 -11.22134  -1.35971
 Alpha  occ. eigenvalues --   -1.08998  -1.05963  -1.00952  -0.94341  -0.86979
 Alpha  occ. eigenvalues --   -0.80827  -0.79102  -0.77151  -0.68334  -0.66674
 Alpha  occ. eigenvalues --   -0.64094  -0.63957  -0.59807  -0.59437  -0.56908
 Alpha  occ. eigenvalues --   -0.55127  -0.53527  -0.52200  -0.51740  -0.49185
 Alpha  occ. eigenvalues --   -0.48565  -0.47181  -0.46587  -0.46396  -0.45876
 Alpha  occ. eigenvalues --   -0.42554
 Alpha virt. eigenvalues --    0.03160   0.03525   0.04311   0.04460   0.04923
 Alpha virt. eigenvalues --    0.05658   0.06040   0.06690   0.07075   0.07827
 Alpha virt. eigenvalues --    0.08167   0.08739   0.09776   0.10417   0.10670

 Mulliken charges:
               1
     1  C    0.829336
     2  C    0.647343
     3  C    0.091241
     4  C    0.474674
     5  C    0.369196
     6  C    0.193019
     7  C    0.202545
     8  C    0.126077
     9  O   -0.475882
    10  H   -0.140767
    11  H   -0.093272
    12  H   -0.068944
    13  H   -0.093272
    14  H   -0.080790
    15  H   -0.080790
    16  H   -0.166739
    17  H   -0.166739
    18  H   -0.181580
    19  H   -0.181580
    20  H   -0.200160
    21  H   -0.200160
    22  H   -0.201931
    23  H   -0.201931
    24  H   -0.199446
    25  H   -0.199446
 Sum of Mulliken charges =   0.00000

 Dipole moment (field-independent basis, Debye):
    X=             -2.2139    Y=              2.3567    Z=              0.0000  Tot=              3.2335

 Test job not archived.
 1\1\GINC-SE194\SP\RHF\Aug-CC-pVDZ\C8H16O1\OHZDE\05-Apr-2025\0\\#t hf a
 ug-cc-pvdz iop(5/13=1,5/36=2,99/5=2) pseudo=read geom=check guess=(rea
 d,tcheck) scf=(maxcycle=1)\\title\\0,1\C,0,3.802531,1.530625,0.\C,0,-4
 .637584,-1.541445,0.\C,0,2.306092,1.687856,0.\C,0,-3.126767,-1.767415,
 0.\C,0,1.512129,0.387412,0.\C,0,-2.319569,-0.468725,0.\C,0,0.,0.612534
 ,0.\C,0,-0.806536,-0.686509,0.\O,0,4.392118,0.479692,0.\H,0,4.367576,2
 .486731,0.\H,0,-4.952565,-0.978042,0.880795\H,0,-5.181814,-2.486837,0.
 \H,0,-4.952565,-0.978042,-0.880795\H,0,2.054742,2.311831,-0.867367\H,0

 Normal termination of Gaussian 16 at Sat Apr  5 23:10:29 2025.
