 Gaussian 16, Revision C.01,

 ----------------------------------------------------------------------
 #t hf aug-cc-pvdz symm=none int=(grid=ultrafine) guess=(read,tcheck) s
 table=(opt,rrhf)
 ----------------------------------------------------------------------
 -----
 title
 -----
 Symbolic Z-matrix:
 Charge =  0 Multiplicity = 1

 SCF Done:  E(RHF) =  -311.135771626     A.U. after   12 cycles
 Normal termination of Gaussian 16 at Sat Apr  5 23:09:17 2025.
 Gaussian 16:  ES64L-G16RevC.01  3-Jul-2019

 ----------------------------------------------------------------------
 #t hf aug-cc-pvdz iop(5/13=1,5/36=2,99/5=2) pseudo=read geom=check gue
 ss=(read,tcheck) scf=(maxcycle=1)
 ----------------------------------------------------------------------
 -----
 title
 -----
 Structure from the checkpoint file:  "octahydropentalene.chk"
 Charge =  0 Multiplicity = 1

                         Standard orientation:
 ---------------------------------------------------------------------
 Center     Atomic      Atomic             Coordinates (Angstroms)
 Number     Number       Type             X           Y           Z
 ---------------------------------------------------------------------
      1          6           0        0.107535   -2.168802    0.000000
      2          6           0       -0.072713   -1.229601    1.197282
      3          6           0       -0.072713   -1.229601   -1.197282
      4          6           0        0.643552    0.075590    0.785834
      5          6           0       -0.072713    1.375568    1.203592
      6          6           0       -0.955423    1.735879   -0.000000
      7          6           0       -0.072713    1.375568   -1.203592
      8          6           0        0.643552    0.075590   -0.785834
      9          1           0       -0.591384   -3.006411    0.000000
     10          1           0       -0.635977    1.262705   -2.131346
     11          1           0       -0.635977    1.262705    2.131346
     12          1           0        0.312527   -1.639812   -2.131505
     13          1           0       -1.275571    2.778231   -0.000000
     14          1           0        0.312527   -1.639812    2.131505
     15          1           0        1.117840   -2.587719    0.000000
     16          1           0       -1.860267    1.122424    0.000000
     17          1           0        1.664077    0.059193   -1.169844
     18          1           0        0.658197    2.171586   -1.366919
     19          1           0        1.664077    0.059193    1.169844
     20          1           0       -1.139228   -1.037507    1.348434
     21          1           0        0.658197    2.171586    1.366919
     22          1           0       -1.139228   -1.037507   -1.348434
 ---------------------------------------------------------------------

 SCF Done:  E(RHF) =  -311.228128391     A.U. after    2 cycles

 The electronic state is 1-A'.
 Alpha  occ. eigenvalues --  -11.22151 -11.22112 -11.21969 -11.21939 -11.21827
 Alpha  occ. eigenvalues --  -11.21811 -11.21799 -11.21783  -1.12996  -1.04592
 Alpha  occ. eigenvalues --   -0.98164  -0.92546  -0.89295  -0.79159  -0.76599
 Alpha  occ. eigenvalues --   -0.72467  -0.67177  -0.62546  -0.62275  -0.59511
 Alpha  occ. eigenvalues --   -0.58231  -0.53405  -0.50969  -0.47954  -0.47783
 Alpha  occ. eigenvalues --   -0.46460  -0.44969  -0.44873  -0.43932  -0.43896
 Alpha  occ. eigenvalues --   -0.43828
 Alpha virt. eigenvalues --    0.03524   0.04324   0.04367   0.04381   0.06088
 Alpha virt. eigenvalues --    0.06123   0.06334   0.06509   0.06551   0.08710
 Alpha virt. eigenvalues --    0.08833   0.08877   0.09208   0.09780   0.12952

 Mulliken charges:
               1
     1  C    0.536807
     2  C    0.469381
     3  C    0.469381
     4  C   -0.436928
     5  C    0.691640
     6  C    0.255918
     7  C    0.691640
     8  C   -0.436928
     9  H   -0.093896
    10  H   -0.173303
    11  H   -0.173303
    12  H   -0.096355
    13  H   -0.121879
    14  H   -0.096355
    15  H   -0.190155
    16  H   -0.192089
    17  H   -0.207230
    18  H   -0.134776
    19  H   -0.207230
    20  H   -0.209784
    21  H   -0.134776
    22  H   -0.209784
 Sum of Mulliken charges =  -0.00000

 Dipole moment (field-independent basis, Debye):
    X=              0.1115    Y=              0.0081    Z=              0.0000  Tot=              0.1118

 Test job not archived.
 1\1\GINC-SE183\SP\RHF\Aug-CC-pVDZ\C8H14\OHZDE\05-Apr-2025\0\\#t hf aug
 -cc-pvdz iop(5/13=1,5/36=2,99/5=2) pseudo=read geom=check guess=(read,
 tcheck) scf=(maxcycle=1)\\title\\0,1\C,0,0.107535,-2.168802,0.\C,0,-0.
 072713,-1.229601,1.197282\C,0,-0.072713,-1.229601,-1.197282\C,0,0.6435
 52,0.07559,0.785834\C,0,-0.072713,1.375568,1.203592\C,0,-0.955423,1.73
 5879,0.\C,0,-0.072713,1.375568,-1.203592\C,0,0.643552,0.07559,-0.78583
 4\H,0,-0.591384,-3.006411,0.\H,0,-0.635977,1.262705,-2.131346\H,0,-0.6
 35977,1.262705,2.131346\H,0,0.312527,-1.639812,-2.131505\H,0,-1.275571

 Normal termination of Gaussian 16 at Sat Apr  5 23:10:25 2025.
