 Gaussian 16, Revision C.01,

 ----------------------------------------------------------------------
 #t hf aug-cc-pvdz symm=none int=(grid=ultrafine) guess=(read,tcheck) s
 table=(opt,rrhf)
 ----------------------------------------------------------------------
 -----
 title
 -----
 Symbolic Z-matrix:
 Charge =  0 Multiplicity = 1

 SCF Done:  E(RHF) =  -387.183186490     A.U. after   13 cycles

 1\1\GINC-SE196\Stability\RHF\Aug-CC-pVDZ\C8H16O1\OHZDE\05-Apr-2025\0\\
 #t hf aug-cc-pvdz symm=none int=(grid=ultrafine) guess=(read,tcheck) s
 table=(opt,rrhf)\\title\\0,1\C,0,2.934682,0.194779,-0.004319\C,0,4.206
 745,-0.627668,0.015541\C,0,-4.735634,0.345804,0.007764\C,0,1.629987,-0
 .583788,-0.011871\C,0,-3.474297,-0.516071,-0.008273\C,0,0.371967,0.276
 168,0.007321\C,0,-2.183074,0.302813,0.008272\C,0,-0.914399,-0.550257,-
 0.008442\O,0,2.963972,1.405012,-0.011805\H,0,5.073473,0.025936,-0.0348
 23\H,0,4.252724,-1.223691,0.92974\H,0,4.223317,-1.329172,-0.820869\H,0

 Normal termination of Gaussian 16 at Sat Apr  5 23:10:20 2025.
 Gaussian 16:  ES64L-G16RevC.01  3-Jul-2019

 ----------------------------------------------------------------------
 #t hf aug-cc-pvdz iop(5/13=1,5/36=2,99/5=2) pseudo=read geom=check gue
 ss=(read,tcheck) scf=(maxcycle=1)
 ----------------------------------------------------------------------
 -----
 title
 -----
 Structure from the checkpoint file:  "octan-2-one.chk"
 Charge =  0 Multiplicity = 1

                         Standard orientation:
 ---------------------------------------------------------------------
 Center     Atomic      Atomic             Coordinates (Angstroms)
 Number     Number       Type             X           Y           Z
 ---------------------------------------------------------------------
      1          6           0        2.934682    0.194779   -0.004319
      2          6           0        4.206745   -0.627668    0.015541
      3          6           0       -4.735634    0.345804    0.007764
      4          6           0        1.629987   -0.583788   -0.011871
      5          6           0       -3.474297   -0.516071   -0.008273
      6          6           0        0.371967    0.276168    0.007321
      7          6           0       -2.183074    0.302813    0.008272
      8          6           0       -0.914399   -0.550257   -0.008442
      9          8           0        2.963972    1.405012   -0.011805
     10          1           0        5.073473    0.025936   -0.034823
     11          1           0        4.252724   -1.223691    0.929740
     12          1           0        4.223317   -1.329172   -0.820869
     13          1           0       -4.771299    1.007919   -0.859773
     14          1           0       -4.773151    0.972598    0.901088
     15          1           0       -5.638271   -0.266633   -0.005463
     16          1           0        1.647676   -1.270090    0.842461
     17          1           0        1.642249   -1.235279   -0.893437
     18          1           0       -3.483287   -1.191182    0.852863
     19          1           0       -3.482233   -1.157183   -0.895044
     20          1           0        0.388911    0.953592   -0.849010
     21          1           0        0.390148    0.917782    0.891046
     22          1           0       -2.174223    0.979058   -0.852885
     23          1           0       -2.174641    0.944692    0.895375
     24          1           0       -0.924559   -1.192399   -0.895918
     25          1           0       -0.924462   -1.226723    0.853135
 ---------------------------------------------------------------------

 SCF Done:  E(RHF) =  -387.305851588     A.U. after    2 cycles

 The electronic state is 1-A.
 Alpha  occ. eigenvalues --  -20.55817 -11.33978 -11.24500 -11.24318 -11.22808
 Alpha  occ. eigenvalues --  -11.22754 -11.22612 -11.22405 -11.22046  -1.35041
 Alpha  occ. eigenvalues --   -1.08488  -1.04955  -1.01010  -0.96547  -0.88877
 Alpha  occ. eigenvalues --   -0.81336  -0.79009  -0.73753  -0.66356  -0.65975
 Alpha  occ. eigenvalues --   -0.63450  -0.63375  -0.59831  -0.58790  -0.57125
 Alpha  occ. eigenvalues --   -0.56089  -0.54542  -0.53108  -0.51514  -0.49740
 Alpha  occ. eigenvalues --   -0.49307  -0.47416  -0.46688  -0.46329  -0.45975
 Alpha  occ. eigenvalues --   -0.41727
 Alpha virt. eigenvalues --    0.03086   0.03598   0.04348   0.04555   0.05123
 Alpha virt. eigenvalues --    0.05533   0.06105   0.06937   0.07186   0.07650
 Alpha virt. eigenvalues --    0.07692   0.09387   0.09850   0.10346   0.10561

 Mulliken charges:
               1
     1  C   -0.049302
     2  C    0.546870
     3  C    0.637854
     4  C    0.088076
     5  C    0.484637
     6  C    0.271657
     7  C    0.177554
     8  C    0.248958
     9  O   -0.533975
    10  H   -0.083362
    11  H    0.037745
    12  H    0.026463
    13  H   -0.091177
    14  H   -0.091988
    15  H   -0.070878
    16  H   -0.056739
    17  H   -0.047392
    18  H   -0.170003
    19  H   -0.171777
    20  H   -0.173334
    21  H   -0.178373
    22  H   -0.195176
    23  H   -0.193394
    24  H   -0.204193
    25  H   -0.208751
 Sum of Mulliken charges =  -0.00000

 Dipole moment (field-independent basis, Debye):
    X=             -0.2697    Y=             -3.3710    Z=              0.0252  Tot=              3.3819

 Test job not archived.
 1\1\GINC-SE196\SP\RHF\Aug-CC-pVDZ\C8H16O1\OHZDE\05-Apr-2025\0\\#t hf a
 ug-cc-pvdz iop(5/13=1,5/36=2,99/5=2) pseudo=read geom=check guess=(rea
 d,tcheck) scf=(maxcycle=1)\\title\\0,1\C,0,2.934682,0.194779,-0.004319
 \C,0,4.206745,-0.627668,0.015541\C,0,-4.735634,0.345804,0.007764\C,0,1
 .629987,-0.583788,-0.011871\C,0,-3.474297,-0.516071,-0.008273\C,0,0.37
 1967,0.276168,0.007321\C,0,-2.183074,0.302813,0.008272\C,0,-0.914399,-
 0.550257,-0.008442\O,0,2.963972,1.405012,-0.011805\H,0,5.073473,0.0259
 36,-0.034823\H,0,4.252724,-1.223691,0.92974\H,0,4.223317,-1.329172,-0.

 Normal termination of Gaussian 16 at Sat Apr  5 23:10:35 2025.
