 Gaussian 16, Revision C.01,

 ----------------------------------------------------------------------
 #t hf aug-cc-pvdz symm=none int=(grid=ultrafine) guess=(read,tcheck) s
 table=(opt,rrhf)
 ----------------------------------------------------------------------
 -----
 title
 -----
 Symbolic Z-matrix:
 Charge =  0 Multiplicity = 1

 SCF Done:  E(RHF) =  -313.463855133     A.U. after   11 cycles
 Normal termination of Gaussian 16 at Sat Apr  5 23:10:19 2025.
 Gaussian 16:  ES64L-G16RevC.01  3-Jul-2019

 ----------------------------------------------------------------------
 #t hf aug-cc-pvdz iop(5/13=1,5/36=2,99/5=2) pseudo=read geom=check gue
 ss=(read,tcheck) scf=(maxcycle=1)
 ----------------------------------------------------------------------
 -----
 title
 -----
 Structure from the checkpoint file:  "octane.chk"
 Charge =  0 Multiplicity = 1

                         Standard orientation:
 ---------------------------------------------------------------------
 Center     Atomic      Atomic             Coordinates (Angstroms)
 Number     Number       Type             X           Y           Z
 ---------------------------------------------------------------------
      1          6           0       -2.743376   -0.386487    0.533004
      2          6           0       -3.403443    0.769047   -0.220309
      3          6           0       -1.628643   -1.096455   -0.247194
      4          6           0       -0.402478   -0.244625   -0.603456
      5          6           0        0.402478    0.244624    0.603457
      6          6           0        1.628643    1.096455    0.247194
      7          6           0        2.743376    0.386487   -0.533004
      8          6           0        3.403443   -0.769047    0.220308
      9          1           0       -3.803237    0.434641   -1.180362
     10          1           0       -4.230374    1.189255    0.353881
     11          1           0        3.507182    1.127157   -0.783972
     12          1           0        4.230374   -1.189255   -0.353882
     13          1           0        2.701500   -1.579527    0.420693
     14          1           0        3.803238   -0.434642    1.180362
     15          1           0       -2.701500    1.579527   -0.420694
     16          1           0        0.242366   -0.842416   -1.252097
     17          1           0       -2.055029   -1.496389   -1.172579
     18          1           0       -3.507182   -1.127157    0.783972
     19          1           0       -2.356936   -0.024239    1.488923
     20          1           0        1.295689    1.964325   -0.330509
     21          1           0        2.356936    0.024240   -1.488923
     22          1           0       -0.709119    0.617126   -1.204218
     23          1           0       -1.295689   -1.964325    0.330509
     24          1           0       -0.242366    0.842416    1.252098
     25          1           0        0.709119   -0.617127    1.204218
     26          1           0        2.055029    1.496389    1.172580
 ---------------------------------------------------------------------

 SCF Done:  E(RHF) =  -313.564915469     A.U. after    2 cycles

 The electronic state is 1-A.
 Alpha  occ. eigenvalues --  -11.22278 -11.22278 -11.22159 -11.22159 -11.21995
 Alpha  occ. eigenvalues --  -11.21941 -11.21811 -11.21811  -1.08114  -1.04933
 Alpha  occ. eigenvalues --   -0.99814  -0.94433  -0.88445  -0.84156  -0.78146
 Alpha  occ. eigenvalues --   -0.74890  -0.64728  -0.62942  -0.61335  -0.60640
 Alpha  occ. eigenvalues --   -0.57269  -0.55682  -0.54820  -0.54095  -0.51841
 Alpha  occ. eigenvalues --   -0.50561  -0.49284  -0.47312  -0.46704  -0.46132
 Alpha  occ. eigenvalues --   -0.45148  -0.44046  -0.43533
 Alpha virt. eigenvalues --    0.03525   0.04076   0.04176   0.04368   0.05576
 Alpha virt. eigenvalues --    0.05727   0.06038   0.06571   0.06938   0.07711
 Alpha virt. eigenvalues --    0.07926   0.08396   0.08724   0.09411   0.10438

 Mulliken charges:
               1
     1  C    0.257300
     2  C    0.421641
     3  C    0.361438
     4  C    0.151783
     5  C    0.151785
     6  C    0.361436
     7  C    0.257302
     8  C    0.421639
     9  H   -0.089789
    10  H   -0.106499
    11  H   -0.110430
    12  H   -0.106499
    13  H   -0.136789
    14  H   -0.089787
    15  H   -0.136788
    16  H   -0.186309
    17  H   -0.106544
    18  H   -0.110430
    19  H   -0.131700
    20  H   -0.121975
    21  H   -0.131700
    22  H   -0.202131
    23  H   -0.121975
    24  H   -0.186306
    25  H   -0.202132
    26  H   -0.106542
 Sum of Mulliken charges =  -0.00000

 Dipole moment (field-independent basis, Debye):
    X=              0.0000    Y=             -0.0000    Z=             -0.0000  Tot=              0.0000

 Test job not archived.
 1\1\GINC-SE052\SP\RHF\Aug-CC-pVDZ\C8H18\OHZDE\05-Apr-2025\0\\#t hf aug
 -cc-pvdz iop(5/13=1,5/36=2,99/5=2) pseudo=read geom=check guess=(read,
 tcheck) scf=(maxcycle=1)\\title\\0,1\C,0,2.743376,0.386487,0.533004\C,
 0,3.403443,-0.769047,-0.220309\C,0,1.628643,1.096455,-0.247194\C,0,0.4
 02478,0.244625,-0.603456\C,0,-0.402478,-0.244624,0.603457\C,0,-1.62864
 3,-1.096455,0.247194\C,0,-2.743376,-0.386487,-0.533004\C,0,-3.403443,0
 .769047,0.220308\H,0,3.803237,-0.434641,-1.180362\H,0,4.230374,-1.1892
 55,0.353881\H,0,-3.507182,-1.127157,-0.783972\H,0,-4.230374,1.189255,-

 Normal termination of Gaussian 16 at Sat Apr  5 23:10:35 2025.
