 Gaussian 16, Revision C.01,

 ----------------------------------------------------------------------
 #t hf aug-cc-pvdz symm=none int=(grid=ultrafine) guess=(read,tcheck) s
 table=(opt,rrhf)
 ----------------------------------------------------------------------
 -----
 title
 -----
 Symbolic Z-matrix:
 Charge =  0 Multiplicity = 1

 SCF Done:  E(RHF) =  -312.280769704     A.U. after   13 cycles
 Normal termination of Gaussian 16 at Sat Apr  5 23:09:34 2025.
 Gaussian 16:  ES64L-G16RevC.01  3-Jul-2019

 ----------------------------------------------------------------------
 #t hf aug-cc-pvdz iop(5/13=1,5/36=2,99/5=2) pseudo=read geom=check gue
 ss=(read,tcheck) scf=(maxcycle=1)
 ----------------------------------------------------------------------
 -----
 title
 -----
 Structure from the checkpoint file:  "octene.chk"
 Charge =  0 Multiplicity = 1

                         Standard orientation:
 ---------------------------------------------------------------------
 Center     Atomic      Atomic             Coordinates (Angstroms)
 Number     Number       Type             X           Y           Z
 ---------------------------------------------------------------------
      1          6           0        4.339193   -0.239943    0.516430
      2          6           0        3.327634   -0.231568   -0.343062
      3          6           0       -4.298854   -0.403949    0.124866
      4          6           0        2.068612    0.568357   -0.199112
      5          6           0       -3.042666    0.464354    0.079878
      6          6           0        0.803711   -0.301438   -0.153528
      7          6           0       -1.749886   -0.346967   -0.014527
      8          6           0       -0.486737    0.513029   -0.061371
      9          1           0        5.218634   -0.848262    0.352660
     10          1           0        4.324601    0.365016    1.415596
     11          1           0        3.390219   -0.857805   -1.229651
     12          1           0       -4.383423   -1.021698   -0.771594
     13          1           0       -4.283461   -1.075093    0.986132
     14          1           0       -5.202181    0.203631    0.194727
     15          1           0        1.984175    1.258703   -1.046285
     16          1           0        2.125947    1.184941    0.701645
     17          1           0       -3.101914    1.147047   -0.773197
     18          1           0       -3.005278    1.097541    0.971468
     19          1           0        0.770340   -0.934721   -1.045813
     20          1           0        0.870178   -0.981984    0.700136
     21          1           0       -1.788071   -0.982079   -0.905996
     22          1           0       -1.691063   -1.029675    0.839789
     23          1           0       -0.544961    1.194564   -0.916651
     24          1           0       -0.449783    1.148628    0.829586
 ---------------------------------------------------------------------

 SCF Done:  E(RHF) =  -312.380558397     A.U. after    2 cycles

 The electronic state is 1-A.
 Alpha  occ. eigenvalues --  -11.23978 -11.23170 -11.22710 -11.22679 -11.22517
 Alpha  occ. eigenvalues --  -11.22463 -11.22321 -11.22009  -1.08731  -1.05930
 Alpha  occ. eigenvalues --   -1.01283  -0.95092  -0.87595  -0.80610  -0.78848
 Alpha  occ. eigenvalues --   -0.75550  -0.66090  -0.63925  -0.61128  -0.59490
 Alpha  occ. eigenvalues --   -0.58844  -0.56102  -0.54531  -0.53266  -0.50580
 Alpha  occ. eigenvalues --   -0.49874  -0.48232  -0.47154  -0.46447  -0.46205
 Alpha  occ. eigenvalues --   -0.44820  -0.36058
 Alpha virt. eigenvalues --    0.03595   0.03882   0.04337   0.04493   0.05206
 Alpha virt. eigenvalues --    0.05613   0.06331   0.06616   0.07068   0.07841
 Alpha virt. eigenvalues --    0.08456   0.08963   0.09077   0.10376   0.10984

 Mulliken charges:
               1
     1  C    0.544339
     2  C    0.980859
     3  C    0.615049
     4  C    0.445995
     5  C    0.395835
     6  C   -0.067290
     7  C    0.113724
     8  C    0.049456
     9  H   -0.325585
    10  H   -0.312063
    11  H   -0.482795
    12  H   -0.091282
    13  H   -0.092582
    14  H   -0.068149
    15  H   -0.055669
    16  H   -0.210052
    17  H   -0.171877
    18  H   -0.160746
    19  H   -0.181119
    20  H   -0.153407
    21  H   -0.196052
    22  H   -0.184874
    23  H   -0.178569
    24  H   -0.213143
 Sum of Mulliken charges =  -0.00000

 Dipole moment (field-independent basis, Debye):
    X=             -0.4629    Y=              0.1145    Z=             -0.1239  Tot=              0.4927

 Test job not archived.
 1\1\GINC-SE179\SP\RHF\Aug-CC-pVDZ\C8H16\OHZDE\05-Apr-2025\0\\#t hf aug
 -cc-pvdz iop(5/13=1,5/36=2,99/5=2) pseudo=read geom=check guess=(read,
 tcheck) scf=(maxcycle=1)\\title\\0,1\C,0,4.339193,-0.239943,0.51643\C,
 0,3.327634,-0.231568,-0.343062\C,0,-4.298854,-0.403949,0.124866\C,0,2.
 068612,0.568357,-0.199112\C,0,-3.042666,0.464354,0.079878\C,0,0.803711
 ,-0.301438,-0.153528\C,0,-1.749886,-0.346967,-0.014527\C,0,-0.486737,0
 .513029,-0.061371\H,0,5.218634,-0.848262,0.35266\H,0,4.324601,0.365016
 ,1.415596\H,0,3.390219,-0.857805,-1.229651\H,0,-4.383423,-1.021698,-0.

 Normal termination of Gaussian 16 at Sat Apr  5 23:10:30 2025.
