 Gaussian 16, Revision C.01,

 ----------------------------------------------------------------------
 #t hf aug-cc-pvdz symm=none int=(grid=ultrafine) guess=(read,tcheck) s
 table=(opt,rrhf)
 ----------------------------------------------------------------------
 -----
 title
 -----
 Symbolic Z-matrix:
 Charge =  0 Multiplicity = 1

 SCF Done:  E(RHF) =  -311.072797207     A.U. after   13 cycles
 Normal termination of Gaussian 16 at Sat Apr  5 23:09:29 2025.
 Gaussian 16:  ES64L-G16RevC.01  3-Jul-2019

 ----------------------------------------------------------------------
 #t hf aug-cc-pvdz iop(5/13=1,5/36=2,99/5=2) pseudo=read geom=check gue
 ss=(read,tcheck) scf=(maxcycle=1)
 ----------------------------------------------------------------------
 -----
 title
 -----
 Structure from the checkpoint file:  "octyne.chk"
 Charge =  0 Multiplicity = 1

                         Standard orientation:
 ---------------------------------------------------------------------
 Center     Atomic      Atomic             Coordinates (Angstroms)
 Number     Number       Type             X           Y           Z
 ---------------------------------------------------------------------
      1          6           0       -3.346877   -3.031775    0.000000
      2          6           0       -2.834619   -1.946702    0.000000
      3          6           0        3.714400    1.932692    0.000000
      4          6           0       -2.190041   -0.639220    0.000000
      5          6           0        2.187929    1.995002    0.000000
      6          6           0       -0.653223   -0.713523    0.000000
      7          6           0        1.528109    0.615773    0.000000
      8          6           0       -0.000000    0.667374    0.000000
      9          1           0       -3.805160   -3.988782    0.000000
     10          1           0        4.087265    1.405598    0.880672
     11          1           0        4.155073    2.930520    0.000000
     12          1           0        4.087265    1.405598   -0.880672
     13          1           0       -2.527896   -0.075379   -0.874546
     14          1           0       -2.527896   -0.075379    0.874546
     15          1           0        1.845994    2.557334    0.874089
     16          1           0        1.845994    2.557334   -0.874089
     17          1           0       -0.326053   -1.280282   -0.874781
     18          1           0       -0.326053   -1.280282    0.874781
     19          1           0        1.870789    0.052846    0.874570
     20          1           0        1.870789    0.052846   -0.874570
     21          1           0       -0.342088    1.230153   -0.875038
     22          1           0       -0.342088    1.230153    0.875038
 ---------------------------------------------------------------------

 SCF Done:  E(RHF) =  -311.172660494     A.U. after    2 cycles

 The electronic state is 1-A'.
 Alpha  occ. eigenvalues --  -11.25844 -11.24227 -11.23621 -11.23048 -11.22854
 Alpha  occ. eigenvalues --  -11.22804 -11.22708 -11.22215  -1.09282  -1.05885
 Alpha  occ. eigenvalues --   -1.01201  -0.96189  -0.88824  -0.81388  -0.79288
 Alpha  occ. eigenvalues --   -0.71728  -0.66441  -0.63814  -0.62770  -0.59540
 Alpha  occ. eigenvalues --   -0.57387  -0.55753  -0.54669  -0.51818  -0.49765
 Alpha  occ. eigenvalues --   -0.48012  -0.47022  -0.46624  -0.46202  -0.38529
 Alpha  occ. eigenvalues --   -0.38405
 Alpha virt. eigenvalues --    0.03515   0.03839   0.04239   0.04563   0.04896
 Alpha virt. eigenvalues --    0.06246   0.06344   0.06864   0.07038   0.08525
 Alpha virt. eigenvalues --    0.08945   0.09521   0.09881   0.10440   0.11753

 Mulliken charges:
               1
     1  C    0.902098
     2  C   -0.309271
     3  C    0.608968
     4  C    0.217035
     5  C    0.390719
     6  C    0.282780
     7  C    0.061820
     8  C    0.184699
     9  H   -0.557328
    10  H   -0.088889
    11  H   -0.067988
    12  H   -0.088889
    13  H   -0.025563
    14  H   -0.025563
    15  H   -0.166967
    16  H   -0.166967
    17  H   -0.195417
    18  H   -0.195417
    19  H   -0.185173
    20  H   -0.185173
    21  H   -0.194757
    22  H   -0.194757
 Sum of Mulliken charges =   0.00000

 Dipole moment (field-independent basis, Debye):
    X=              0.6155    Y=              0.7806    Z=              0.0000  Tot=              0.9941

 Test job not archived.
 1\1\GINC-SE041\SP\RHF\Aug-CC-pVDZ\C8H14\OHZDE\05-Apr-2025\0\\#t hf aug
 -cc-pvdz iop(5/13=1,5/36=2,99/5=2) pseudo=read geom=check guess=(read,
 tcheck) scf=(maxcycle=1)\\title\\0,1\C,0,-3.346877,-3.031775,0.\C,0,-2
 .834619,-1.946702,0.\C,0,3.7144,1.932692,0.\C,0,-2.190041,-0.63922,0.\
 C,0,2.187929,1.995002,0.\C,0,-0.653223,-0.713523,0.\C,0,1.528109,0.615
 773,0.\C,0,0.,0.667374,0.\H,0,-3.80516,-3.988782,0.\H,0,4.087265,1.405
 598,0.880672\H,0,4.155073,2.93052,0.\H,0,4.087265,1.405598,-0.880672\H
 ,0,-2.527896,-0.075379,-0.874546\H,0,-2.527896,-0.075379,0.874546\H,0,

 Normal termination of Gaussian 16 at Sat Apr  5 23:10:26 2025.
