 Gaussian 16, Revision C.01,

 ----------------------------------------------------------------------
 #t hf aug-cc-pvdz symm=none int=(grid=ultrafine) guess=(read,tcheck) s
 table=(opt,rrhf)
 ----------------------------------------------------------------------
 -----
 title
 -----
 Symbolic Z-matrix:
 Charge =  0 Multiplicity = 1

 SCF Done:  E(RHF) =  -336.645040888     A.U. after   15 cycles
 Normal termination of Gaussian 16 at Sat Apr  5 23:08:08 2025.
 Gaussian 16:  ES64L-G16RevC.01  3-Jul-2019

 ----------------------------------------------------------------------
 #t hf aug-cc-pvdz iop(5/13=1,5/36=2,99/5=2) pseudo=read geom=check gue
 ss=(read,tcheck) scf=(maxcycle=1)
 ----------------------------------------------------------------------
 -----
 title
 -----
 Structure from the checkpoint file:  "oxadiazolidin-5-one.chk"
 Charge =  0 Multiplicity = 1

                         Standard orientation:
 ---------------------------------------------------------------------
 Center     Atomic      Atomic             Coordinates (Angstroms)
 Number     Number       Type             X           Y           Z
 ---------------------------------------------------------------------
      1          8           0       -0.105885   -1.140297   -0.063377
      2          8           0       -2.056550   -0.017889   -0.074554
      3          7           0        1.295288   -0.679344    0.308891
      4          7           0        1.383531    0.622036   -0.219008
      5          6           0       -0.862295   -0.019042    0.010796
      6          6           0        0.089800    1.168812    0.183518
      7          1           0        1.867042   -1.302225   -0.257604
      8          1           0        1.412350    0.590975   -1.239324
      9          1           0       -0.209208    2.014166   -0.427950
     10          1           0        0.112541    1.465110    1.233260
 ---------------------------------------------------------------------

 SCF Done:  E(RHF) =  -336.746523440     A.U. after    2 cycles

 The electronic state is 1-A.
 Alpha  occ. eigenvalues --  -20.65075 -20.57179 -15.75410 -15.69619 -11.40570
 Alpha  occ. eigenvalues --  -11.31014  -1.44897  -1.36080  -1.25557  -1.08468
 Alpha  occ. eigenvalues --   -0.93423  -0.81932  -0.77223  -0.72987  -0.67964
 Alpha  occ. eigenvalues --   -0.65975  -0.63014  -0.59907  -0.58123  -0.53999
 Alpha  occ. eigenvalues --   -0.50197  -0.45890  -0.41830
 Alpha virt. eigenvalues --    0.02555   0.03646   0.04406   0.06647   0.08076
 Alpha virt. eigenvalues --    0.10937   0.11639   0.11978   0.12505   0.14207
 Alpha virt. eigenvalues --    0.15327   0.15811   0.16482   0.17171   0.18149

 Mulliken charges:
               1
     1  O   -0.597414
     2  O   -0.443236
     3  N    0.030497
     4  N   -0.291183
     5  C    0.476058
     6  C    0.710495
     7  H    0.127858
     8  H    0.090844
     9  H   -0.061085
    10  H   -0.042834
 Sum of Mulliken charges =  -0.00000

 Dipole moment (field-independent basis, Debye):
    X=              3.8201    Y=              1.5621    Z=             -1.4961  Tot=              4.3899

 Test job not archived.
 1\1\GINC-SE040\SP\RHF\Aug-CC-pVDZ\C2H4N2O2\OHZDE\05-Apr-2025\0\\#t hf
 aug-cc-pvdz iop(5/13=1,5/36=2,99/5=2) pseudo=read geom=check guess=(re
 ad,tcheck) scf=(maxcycle=1)\\title\\0,1\O,0,-0.105885,-1.140297,-0.063
 377\O,0,-2.05655,-0.017889,-0.074554\N,0,1.295288,-0.679344,0.308891\N
 ,0,1.383531,0.622036,-0.219008\C,0,-0.862295,-0.019042,0.010796\C,0,0.
 0898,1.168812,0.183518\H,0,1.867042,-1.302225,-0.257604\H,0,1.41235,0.
 590975,-1.239324\H,0,-0.209208,2.014166,-0.42795\H,0,0.112541,1.46511,
 1.23326\\Version=ES64L-G16RevC.01\State=1-A\HF=-336.7465234\RMSD=3.377

 Normal termination of Gaussian 16 at Sat Apr  5 23:08:11 2025.
