 Gaussian 16, Revision C.01,

 ----------------------------------------------------------------------
 #t hf aug-cc-pvdz symm=none int=(grid=ultrafine) guess=(read,tcheck) s
 table=(opt,rrhf)
 ----------------------------------------------------------------------
 -----
 title
 -----
 Symbolic Z-matrix:
 Charge =  0 Multiplicity = 1

 SCF Done:  E(RHF) =  -947.966703080     A.U. after   15 cycles
 Normal termination of Gaussian 16 at Sat Apr  5 23:07:32 2025.
 Gaussian 16:  ES64L-G16RevC.01  3-Jul-2019

 ----------------------------------------------------------------------
 #t hf aug-cc-pvdz iop(5/13=1,5/36=2,99/5=2) pseudo=read geom=check gue
 ss=(read,tcheck) scf=(maxcycle=1)
 ----------------------------------------------------------------------
 -----
 title
 -----
 Structure from the checkpoint file:  "oxadithiolane.chk"
 Charge =  0 Multiplicity = 1

                         Standard orientation:
 ---------------------------------------------------------------------
 Center     Atomic      Atomic             Coordinates (Angstroms)
 Number     Number       Type             X           Y           Z
 ---------------------------------------------------------------------
      1         16           0        0.050453   -1.283028    0.254896
      2         16           0        1.318485    0.295905   -0.230152
      3          8           0       -1.268669   -0.524942   -0.458383
      4          6           0        0.011028    1.451390    0.341037
      5          6           0       -1.372946    0.839492   -0.008592
      6          1           0        0.172362    2.395956   -0.175996
      7          1           0        0.109782    1.603307    1.412522
      8          1           0       -1.847818    1.369371   -0.831999
      9          1           0       -2.016476    0.879578    0.871964
 ---------------------------------------------------------------------

 SCF Done:  E(RHF) =  -948.059596787     A.U. after    2 cycles

 The electronic state is 1-A.
 Alpha  occ. eigenvalues --  -93.60843 -93.56522 -20.61555 -11.31769 -11.29293
 Alpha  occ. eigenvalues --   -8.89871  -8.86179  -6.23994  -6.23745  -6.23266
 Alpha  occ. eigenvalues --   -6.20228  -6.20093  -6.19668  -1.35662  -1.07009
 Alpha  occ. eigenvalues --   -1.01377  -0.84096  -0.82537  -0.69047  -0.67126
 Alpha  occ. eigenvalues --   -0.61656  -0.60566  -0.53059  -0.51806  -0.48079
 Alpha  occ. eigenvalues --   -0.45289  -0.40620  -0.33680
 Alpha virt. eigenvalues --    0.03402   0.04724   0.05000   0.06740   0.07349
 Alpha virt. eigenvalues --    0.07566   0.08733   0.11372   0.12325   0.12778
 Alpha virt. eigenvalues --    0.13785   0.15043   0.15704   0.15958   0.16726

 Mulliken charges:
               1
     1  S    0.412864
     2  S    0.181393
     3  O   -0.802404
     4  C   -0.239663
     5  C    0.782024
     6  H    0.014437
     7  H   -0.041383
     8  H   -0.189259
     9  H   -0.118009
 Sum of Mulliken charges =  -0.00000

 Dipole moment (field-independent basis, Debye):
    X=             -0.5461    Y=              2.5849    Z=              1.1073  Tot=              2.8646

 Test job not archived.
 1\1\GINC-SE145\SP\RHF\Aug-CC-pVDZ\C2H4O1S2\OHZDE\05-Apr-2025\0\\#t hf
 aug-cc-pvdz iop(5/13=1,5/36=2,99/5=2) pseudo=read geom=check guess=(re
 ad,tcheck) scf=(maxcycle=1)\\title\\0,1\S,0,0.050457,-1.283028,0.25489
 6\S,0,1.318484,0.295909,-0.230152\O,0,-1.268667,-0.524946,-0.458383\C,
 0,0.011024,1.45139,0.341037\C,0,-1.372949,0.839488,-0.008592\H,0,0.172
 355,2.395956,-0.175996\H,0,0.109777,1.603307,1.412522\H,0,-1.847822,1.
 369365,-0.831999\H,0,-2.016479,0.879572,0.871964\\Version=ES64L-G16Rev
 C.01\State=1-A\HF=-948.0595968\RMSD=5.036e-03\Dipole=-0.2148479,1.0169

 Normal termination of Gaussian 16 at Sat Apr  5 23:08:00 2025.
