 Gaussian 16, Revision C.01,

 ----------------------------------------------------------------------
 #t hf aug-cc-pvdz symm=none int=(grid=ultrafine) guess=(read,tcheck) s
 table=(opt,rrhf)
 ----------------------------------------------------------------------
 -----
 title
 -----
 Symbolic Z-matrix:
 Charge =  0 Multiplicity = 1

 SCF Done:  E(RHF) =  -336.786106719     A.U. after   12 cycles
 Normal termination of Gaussian 16 at Sat Apr  5 23:08:06 2025.
 Gaussian 16:  ES64L-G16RevC.01  3-Jul-2019

 ----------------------------------------------------------------------
 #t hf aug-cc-pvdz iop(5/13=1,5/36=2,99/5=2) pseudo=read geom=check gue
 ss=(read,tcheck) scf=(maxcycle=1)
 ----------------------------------------------------------------------
 -----
 title
 -----
 Structure from the checkpoint file:  "oxalamide.chk"
 Charge =  0 Multiplicity = 1

                         Standard orientation:
 ---------------------------------------------------------------------
 Center     Atomic      Atomic             Coordinates (Angstroms)
 Number     Number       Type             X           Y           Z
 ---------------------------------------------------------------------
      1          6           0        0.331694    0.699305   -0.000060
      2          6           0       -0.331694   -0.699305   -0.000060
      3          8           0       -0.331694    1.722137   -0.000002
      4          8           0        0.331694   -1.722137   -0.000002
      5          7           0        1.672475    0.623238   -0.000051
      6          7           0       -1.672475   -0.623238   -0.000051
      7          1           0        2.224941    1.462119    0.000258
      8          1           0        2.104637   -0.286302    0.000475
      9          1           0       -2.224941   -1.462119    0.000258
     10          1           0       -2.104637    0.286302    0.000475
 ---------------------------------------------------------------------

 SCF Done:  E(RHF) =  -336.891796978     A.U. after    2 cycles

 The electronic state is 1-A.
 Alpha  occ. eigenvalues --  -20.56438 -20.56438 -15.66669 -15.66669 -11.39120
 Alpha  occ. eigenvalues --  -11.39072  -1.38705  -1.35841  -1.20786  -1.19525
 Alpha  occ. eigenvalues --   -0.92160  -0.80554  -0.78007  -0.73316  -0.67968
 Alpha  occ. eigenvalues --   -0.67737  -0.63387  -0.61870  -0.56711  -0.53280
 Alpha  occ. eigenvalues --   -0.44581  -0.44158  -0.42807
 Alpha virt. eigenvalues --    0.03336   0.03462   0.05472   0.06871   0.09175
 Alpha virt. eigenvalues --    0.10132   0.10816   0.12064   0.12650   0.13216
 Alpha virt. eigenvalues --    0.14444   0.16401   0.16854   0.16986   0.19086

 Mulliken charges:
               1
     1  C    0.597100
     2  C    0.597100
     3  O   -0.526247
     4  O   -0.526247
     5  N   -0.103905
     6  N   -0.103905
     7  H   -0.002546
     8  H    0.035598
     9  H   -0.002546
    10  H    0.035598
 Sum of Mulliken charges =  -0.00000

 Dipole moment (field-independent basis, Debye):
    X=              0.0000    Y=              0.0000    Z=              0.0023  Tot=              0.0023

 Test job not archived.
 1\1\GINC-SE146\SP\RHF\Aug-CC-pVDZ\C2H4N2O2\OHZDE\05-Apr-2025\0\\#t hf
 aug-cc-pvdz iop(5/13=1,5/36=2,99/5=2) pseudo=read geom=check guess=(re
 ad,tcheck) scf=(maxcycle=1)\\title\\0,1\C,0,0.331694,0.699305,-0.00006
 \C,0,-0.331694,-0.699305,-0.00006\O,0,-0.331694,1.722137,-0.000002\O,0
 ,0.331694,-1.722137,-0.000002\N,0,1.672475,0.623238,-0.000051\N,0,-1.6
 72475,-0.623238,-0.000051\H,0,2.224941,1.462119,0.000258\H,0,2.104637,
 -0.286302,0.000475\H,0,-2.224941,-1.462119,0.000258\H,0,-2.104637,0.28
 6302,0.000475\\Version=ES64L-G16RevC.01\State=1-A\HF=-336.891797\RMSD=

 Normal termination of Gaussian 16 at Sat Apr  5 23:08:08 2025.
