 Gaussian 16, Revision C.01,

 ----------------------------------------------------------------------
 #t hf aug-cc-pvdz symm=none int=(grid=ultrafine) guess=(read,tcheck) s
 table=(opt,rrhf)
 ----------------------------------------------------------------------
 -----
 title
 -----
 Symbolic Z-matrix:
 Charge =  0 Multiplicity = 1

 SCF Done:  E(RHF) =  -376.438551576     A.U. after   12 cycles
 Normal termination of Gaussian 16 at Sat Apr  5 23:08:07 2025.
 Gaussian 16:  ES64L-G16RevC.01  3-Jul-2019

 ----------------------------------------------------------------------
 #t hf aug-cc-pvdz iop(5/13=1,5/36=2,99/5=2) pseudo=read geom=check gue
 ss=(read,tcheck) scf=(maxcycle=1)
 ----------------------------------------------------------------------
 -----
 title
 -----
 Structure from the checkpoint file:  "oxalic_acid.chk"
 Charge =  0 Multiplicity = 1

                         Standard orientation:
 ---------------------------------------------------------------------
 Center     Atomic      Atomic             Coordinates (Angstroms)
 Number     Number       Type             X           Y           Z
 ---------------------------------------------------------------------
      1          6           0       -0.054169    0.770269    0.000000
      2          6           0        0.054169   -0.770269    0.000000
      3          8           0       -1.121261    1.323096    0.000000
      4          8           0        1.121261   -1.323096    0.000000
      5          8           0        1.121261    1.380321    0.000000
      6          8           0       -1.121261   -1.380321    0.000000
      7          1           0        1.811137    0.691631    0.000000
      8          1           0       -1.811137   -0.691631    0.000000
 ---------------------------------------------------------------------

 SCF Done:  E(RHF) =  -376.559278489     A.U. after    2 cycles

 The electronic state is 1-AG.
 Alpha  occ. eigenvalues --  -20.66692 -20.66692 -20.61949 -20.61949 -11.45191
 Alpha  occ. eigenvalues --  -11.45143  -1.48989  -1.45329  -1.39951  -1.37310
 Alpha  occ. eigenvalues --   -0.96518  -0.87718  -0.87121  -0.74394  -0.71592
 Alpha  occ. eigenvalues --   -0.71388  -0.70440  -0.66302  -0.62004  -0.59049
 Alpha  occ. eigenvalues --   -0.54705  -0.54243  -0.49759
 Alpha virt. eigenvalues --    0.03620   0.04613   0.04699   0.07656   0.08951
 Alpha virt. eigenvalues --    0.10545   0.11534   0.11767   0.12310   0.14597
 Alpha virt. eigenvalues --    0.18287   0.19156   0.19315   0.21221   0.23366

 Mulliken charges:
               1
     1  C    0.585642
     2  C    0.585642
     3  O   -0.391425
     4  O   -0.391425
     5  O   -0.432870
     6  O   -0.432870
     7  H    0.238653
     8  H    0.238653
 Sum of Mulliken charges =  -0.00000

 Dipole moment (field-independent basis, Debye):
    X=              0.0000    Y=              0.0000    Z=              0.0000  Tot=              0.0000

 Test job not archived.
 1\1\GINC-SE177\SP\RHF\Aug-CC-pVDZ\C2H2O4\OHZDE\05-Apr-2025\0\\#t hf au
 g-cc-pvdz iop(5/13=1,5/36=2,99/5=2) pseudo=read geom=check guess=(read
 ,tcheck) scf=(maxcycle=1)\\title\\0,1\C,0,-0.054169,0.770269,0.\C,0,0.
 054169,-0.770269,0.\O,0,-1.121261,1.323096,0.\O,0,1.121261,-1.323096,0
 .\O,0,1.121261,1.380321,0.\O,0,-1.121261,-1.380321,0.\H,0,1.811137,0.6
 91631,0.\H,0,-1.811137,-0.691631,0.\\Version=ES64L-G16RevC.01\State=1-
 AG\HF=-376.5592785\RMSD=3.957e-03\Dipole=0.,0.,0.\Quadrupole=3.2317281
 ,-6.1111382,2.8794101,3.1235769,0.,0.\PG=C02H [SGH(C2H2O4)]\\@

 Normal termination of Gaussian 16 at Sat Apr  5 23:08:10 2025.
