 Gaussian 16, Revision C.01,

 ----------------------------------------------------------------------
 #t hf aug-cc-pvdz symm=none int=(grid=ultrafine) guess=(read,tcheck) s
 table=(opt,rrhf)
 ----------------------------------------------------------------------
 -----
 title
 -----
 Symbolic Z-matrix:
 Charge =  0 Multiplicity = 1

 SCF Done:  E(RHF) =  -356.608498753     A.U. after   14 cycles
 Normal termination of Gaussian 16 at Sat Apr  5 23:08:06 2025.
 Gaussian 16:  ES64L-G16RevC.01  3-Jul-2019

 ----------------------------------------------------------------------
 #t hf aug-cc-pvdz iop(5/13=1,5/36=2,99/5=2) pseudo=read geom=check gue
 ss=(read,tcheck) scf=(maxcycle=1)
 ----------------------------------------------------------------------
 -----
 title
 -----
 Structure from the checkpoint file:  "oxamic_acid.chk"
 Charge =  0 Multiplicity = 1

                         Standard orientation:
 ---------------------------------------------------------------------
 Center     Atomic      Atomic             Coordinates (Angstroms)
 Number     Number       Type             X           Y           Z
 ---------------------------------------------------------------------
      1          7           0       -1.545213    0.875723    0.000075
      2          1           0       -2.543731    0.764447    0.000029
      3          1           0       -1.130575    1.791761    0.000310
      4          8           0        1.533181   -0.905281    0.000099
      5          1           0        2.449443   -0.589401    0.000108
      6          8           0       -1.138032   -1.371045   -0.000085
      7          8           0        1.125098    1.307222   -0.000114
      8          6           0        0.739014    0.164691   -0.000013
      9          6           0       -0.759117   -0.222031   -0.000015
 ---------------------------------------------------------------------

 SCF Done:  E(RHF) =  -356.721859391     A.U. after    2 cycles

 The electronic state is 1-A.
 Alpha  occ. eigenvalues --  -20.65152 -20.60147 -20.56830 -15.67092 -11.43310
 Alpha  occ. eigenvalues --  -11.39971  -1.46003  -1.37563  -1.36252  -1.20526
 Alpha  occ. eigenvalues --   -0.95816  -0.83601  -0.77803  -0.74603  -0.70168
 Alpha  occ. eigenvalues --   -0.68208  -0.67621  -0.62333  -0.59627  -0.55068
 Alpha  occ. eigenvalues --   -0.52998  -0.46063  -0.43810
 Alpha virt. eigenvalues --    0.03120   0.03629   0.05738   0.07440   0.09719
 Alpha virt. eigenvalues --    0.09809   0.10825   0.11956   0.13030   0.13639
 Alpha virt. eigenvalues --    0.15510   0.16751   0.17974   0.18618   0.20061

 Mulliken charges:
               1
     1  N   -0.120176
     2  H    0.014723
     3  H    0.037649
     4  O   -0.428784
     5  H    0.199268
     6  O   -0.440943
     7  O   -0.461056
     8  C    0.607920
     9  C    0.591400
 Sum of Mulliken charges =   0.00000

 Dipole moment (field-independent basis, Debye):
    X=              0.1680    Y=              2.5350    Z=              0.0007  Tot=              2.5405

 Test job not archived.
 1\1\GINC-SE198\SP\RHF\Aug-CC-pVDZ\C2H3N1O3\OHZDE\05-Apr-2025\0\\#t hf
 aug-cc-pvdz iop(5/13=1,5/36=2,99/5=2) pseudo=read geom=check guess=(re
 ad,tcheck) scf=(maxcycle=1)\\title\\0,1\N,0,-1.545214,0.875722,0.00007
 5\H,0,-2.543731,0.764446,0.000029\H,0,-1.130576,1.791761,0.00031\O,0,1
 .533181,-0.90528,0.000099\H,0,2.449443,-0.5894,0.000108\O,0,-1.138031,
 -1.371045,-0.000085\O,0,1.125097,1.307223,-0.000114\C,0,0.739014,0.164
 691,-0.000013\C,0,-0.759117,-0.222031,-0.000015\\Version=ES64L-G16RevC
 .01\State=1-A\HF=-356.7218594\RMSD=3.874e-03\Dipole=0.0660848,0.997336

 Normal termination of Gaussian 16 at Sat Apr  5 23:08:09 2025.
