 Gaussian 16, Revision C.01,

 ----------------------------------------------------------------------
 #t hf aug-cc-pvdz symm=none int=(grid=ultrafine) guess=(read,tcheck) s
 table=(opt,rrhf)
 ----------------------------------------------------------------------
 -----
 title
 -----
 Symbolic Z-matrix:
 Charge =  0 Multiplicity = 1

 SCF Done:  E(RHF) =  -717.041996904     A.U. after   16 cycles
 Normal termination of Gaussian 16 at Sat Apr  5 23:08:11 2025.
 Gaussian 16:  ES64L-G16RevC.01  3-Jul-2019

 ----------------------------------------------------------------------
 #t hf aug-cc-pvdz iop(5/13=1,5/36=2,99/5=2) pseudo=read geom=check gue
 ss=(read,tcheck) scf=(maxcycle=1)
 ----------------------------------------------------------------------
 -----
 title
 -----
 Structure from the checkpoint file:  "oxathiazin-4-one.chk"
 Charge =  0 Multiplicity = 1

                         Standard orientation:
 ---------------------------------------------------------------------
 Center     Atomic      Atomic             Coordinates (Angstroms)
 Number     Number       Type             X           Y           Z
 ---------------------------------------------------------------------
      1         16           0        1.225174   -0.898935   -0.254228
      2          8           0        1.535098    0.658588    0.407850
      3          8           0       -2.480973   -0.262291    0.091047
      4          7           0       -0.366881   -1.120825    0.191149
      5          6           0       -1.293951   -0.078457   -0.057482
      6          6           0       -0.684163    1.233340   -0.309598
      7          6           0        0.572566    1.541966    0.062753
      8          1           0       -1.361545    2.031989   -0.568230
      9          1           0       -0.591464   -1.718951    0.976121
     10          1           0        0.918677    2.564229    0.156502
 ---------------------------------------------------------------------

 SCF Done:  E(RHF) =  -717.168514735     A.U. after    2 cycles

 The electronic state is 1-A.
 Alpha  occ. eigenvalues --  -93.64928 -20.65517 -20.56595 -15.68961 -11.39417
 Alpha  occ. eigenvalues --  -11.36061 -11.26266  -8.93681  -6.27877  -6.27582
 Alpha  occ. eigenvalues --   -6.27063  -1.41224  -1.37374  -1.22331  -1.08044
 Alpha  occ. eigenvalues --   -0.95771  -0.89169  -0.78222  -0.74504  -0.72790
 Alpha  occ. eigenvalues --   -0.68057  -0.66327  -0.62843  -0.58800  -0.57014
 Alpha  occ. eigenvalues --   -0.55847  -0.48328  -0.45273  -0.39193  -0.38337
 Alpha virt. eigenvalues --    0.03161   0.04165   0.05242   0.05550   0.07058
 Alpha virt. eigenvalues --    0.08624   0.09745   0.10924   0.11736   0.12216
 Alpha virt. eigenvalues --    0.13619   0.13986   0.14552   0.14849   0.15662

 Mulliken charges:
               1
     1  S    0.939540
     2  O   -0.780190
     3  O   -0.468377
     4  N   -0.651693
     5  C    0.485988
     6  C    0.458092
     7  C    0.652358
     8  H   -0.348232
     9  H   -0.030866
    10  H   -0.256620
 Sum of Mulliken charges =  -0.00000

 Dipole moment (field-independent basis, Debye):
    X=              2.5749    Y=              0.8172    Z=              0.3096  Tot=              2.7192

 Test job not archived.
 1\1\GINC-SE183\SP\RHF\Aug-CC-pVDZ\C3H3N1O2S1\OHZDE\05-Apr-2025\0\\#t h
 f aug-cc-pvdz iop(5/13=1,5/36=2,99/5=2) pseudo=read geom=check guess=(
 read,tcheck) scf=(maxcycle=1)\\title\\0,1\S,0,1.225174,-0.898935,-0.25
 4228\O,0,1.535098,0.658588,0.40785\O,0,-2.480973,-0.262291,0.091047\N,
 0,-0.366881,-1.120825,0.191149\C,0,-1.293951,-0.078457,-0.057482\C,0,-
 0.684163,1.23334,-0.309598\C,0,0.572566,1.541966,0.062753\H,0,-1.36154
 5,2.031989,-0.56823\H,0,-0.591464,-1.718951,0.976121\H,0,0.918677,2.56
 4229,0.156502\\Version=ES64L-G16RevC.01\State=1-A\HF=-717.1685147\RMSD

 Normal termination of Gaussian 16 at Sat Apr  5 23:08:16 2025.
