 Gaussian 16, Revision C.01,

 ----------------------------------------------------------------------
 #t hf aug-cc-pvdz symm=none int=(grid=ultrafine) guess=(read,tcheck) s
 table=(opt,rrhf)
 ----------------------------------------------------------------------
 -----
 title
 -----
 Symbolic Z-matrix:
 Charge =  0 Multiplicity = 1

 SCF Done:  E(RHF) =  -244.665712262     A.U. after   14 cycles
 Normal termination of Gaussian 16 at Sat Apr  5 23:08:15 2025.
 Gaussian 16:  ES64L-G16RevC.01  3-Jul-2019

 ----------------------------------------------------------------------
 #t hf aug-cc-pvdz iop(5/13=1,5/36=2,99/5=2) pseudo=read geom=check gue
 ss=(read,tcheck) scf=(maxcycle=1)
 ----------------------------------------------------------------------
 -----
 title
 -----
 Structure from the checkpoint file:  "oxazole.chk"
 Charge =  0 Multiplicity = 1

                         Standard orientation:
 ---------------------------------------------------------------------
 Center     Atomic      Atomic             Coordinates (Angstroms)
 Number     Number       Type             X           Y           Z
 ---------------------------------------------------------------------
      1          6           0        0.752140   -0.876732    0.000000
      2          6           0       -0.594330   -0.964738    0.000000
      3          6           0        0.000000    1.101527    0.000000
      4          7           0        1.118628    0.463667    0.000000
      5          8           0       -1.098400    0.308078    0.000000
      6          1           0        1.482368   -1.666223    0.000000
      7          1           0       -1.305329   -1.768953    0.000000
      8          1           0       -0.167090    2.164537    0.000000
 ---------------------------------------------------------------------

 SCF Done:  E(RHF) =  -244.741800002     A.U. after    2 cycles

 The electronic state is 1-A'.
 Alpha  occ. eigenvalues --  -20.65813 -15.63688 -11.35125 -11.31035 -11.27735
 Alpha  occ. eigenvalues --   -1.45297  -1.20916  -1.03863  -0.85194  -0.82404
 Alpha  occ. eigenvalues --   -0.76322  -0.67637  -0.64028  -0.60234  -0.59573
 Alpha  occ. eigenvalues --   -0.46306  -0.46223  -0.35279
 Alpha virt. eigenvalues --    0.03398   0.04048   0.04914   0.08173   0.09571
 Alpha virt. eigenvalues --    0.10245   0.11240   0.12631   0.13447   0.13473
 Alpha virt. eigenvalues --    0.15367   0.15786   0.16766   0.16879   0.20679

 Mulliken charges:
               1
     1  C    0.505387
     2  C    0.614336
     3  C    0.610756
     4  N   -0.562896
     5  O   -0.515943
     6  H   -0.193939
     7  H   -0.263301
     8  H   -0.194400
 Sum of Mulliken charges =  -0.00000

 Dipole moment (field-independent basis, Debye):
    X=             -1.0851    Y=             -0.7505    Z=              0.0000  Tot=              1.3193

 Test job not archived.
 1\1\GINC-SE028\SP\RHF\Aug-CC-pVDZ\C3H3N1O1\OHZDE\05-Apr-2025\0\\#t hf
 aug-cc-pvdz iop(5/13=1,5/36=2,99/5=2) pseudo=read geom=check guess=(re
 ad,tcheck) scf=(maxcycle=1)\\title\\0,1\C,0,0.75214,-0.876732,0.\C,0,-
 0.59433,-0.964738,0.\C,0,0.,1.101527,0.\N,0,1.118628,0.463667,0.\O,0,-
 1.0984,0.308078,0.\H,0,1.482368,-1.666223,0.\H,0,-1.305329,-1.768953,0
 .\H,0,-0.16709,2.164537,0.\\Version=ES64L-G16RevC.01\State=1-A'\HF=-24
 4.7418\RMSD=5.074e-03\Dipole=-0.426892,-0.2952735,0.\Quadrupole=-2.684
 5212,4.3861931,-1.7016719,-0.9968101,0.,0.\PG=CS [SG(C3H3N1O1)]\\@

 Normal termination of Gaussian 16 at Sat Apr  5 23:08:18 2025.
