 Gaussian 16, Revision C.01,

 ----------------------------------------------------------------------
 #t hf aug-cc-pvdz symm=none int=(grid=ultrafine) guess=(read,tcheck) s
 table=(opt,rrhf)
 ----------------------------------------------------------------------
 -----
 title
 -----
 Symbolic Z-matrix:
 Charge =  0 Multiplicity = 1

 SCF Done:  E(RHF) =  -320.756070421     A.U. after   13 cycles
 Normal termination of Gaussian 16 at Sat Apr  5 23:08:20 2025.
 Gaussian 16:  ES64L-G16RevC.01  3-Jul-2019

 ----------------------------------------------------------------------
 #t hf aug-cc-pvdz iop(5/13=1,5/36=2,99/5=2) pseudo=read geom=check gue
 ss=(read,tcheck) scf=(maxcycle=1)
 ----------------------------------------------------------------------
 -----
 title
 -----
 Structure from the checkpoint file:  "oxazolidin-2-one.chk"
 Charge =  0 Multiplicity = 1

                         Standard orientation:
 ---------------------------------------------------------------------
 Center     Atomic      Atomic             Coordinates (Angstroms)
 Number     Number       Type             X           Y           Z
 ---------------------------------------------------------------------
      1          6           0        0.863078   -0.004934   -0.012038
      2          6           0       -1.345484    0.742595    0.139382
      3          6           0       -1.296433   -0.772693   -0.105039
      4          7           0        0.032123    1.081398   -0.166734
      5          8           0        2.061521   -0.022202    0.030559
      6          8           0        0.084494   -1.127510    0.081246
      7          1           0       -2.049443    1.241627   -0.524845
      8          1           0       -1.609416    0.978619    1.174750
      9          1           0       -1.897195   -1.346525    0.595247
     10          1           0       -1.584158   -1.025162   -1.126673
     11          1           0        0.420261    1.989541    0.020394
 ---------------------------------------------------------------------

 SCF Done:  E(RHF) =  -320.857777085     A.U. after    2 cycles

 The electronic state is 1-A.
 Alpha  occ. eigenvalues --  -20.61944 -20.54476 -15.66288 -11.41868 -11.32221
 Alpha  occ. eigenvalues --  -11.30510  -1.43002  -1.33275  -1.21421  -1.03024
 Alpha  occ. eigenvalues --   -0.89376  -0.83432  -0.73108  -0.72728  -0.67773
 Alpha  occ. eigenvalues --   -0.63226  -0.61357  -0.60441  -0.58934  -0.54153
 Alpha  occ. eigenvalues --   -0.47795  -0.47283  -0.41695
 Alpha virt. eigenvalues --    0.02469   0.03808   0.04075   0.05276   0.06594
 Alpha virt. eigenvalues --    0.09221   0.10547   0.11326   0.11581   0.13473
 Alpha virt. eigenvalues --    0.14036   0.14397   0.14957   0.16082   0.17084

 Mulliken charges:
               1
     1  C    0.700513
     2  C    0.639328
     3  C    0.804594
     4  N   -0.389461
     5  O   -0.422923
     6  O   -0.622564
     7  H   -0.118901
     8  H   -0.181753
     9  H   -0.153436
    10  H   -0.173100
    11  H   -0.082297
 Sum of Mulliken charges =  -0.00000

 Dipole moment (field-independent basis, Debye):
    X=             -5.5914    Y=              2.2517    Z=              0.2198  Tot=              6.0318

 Test job not archived.
 1\1\GINC-SE042\SP\RHF\Aug-CC-pVDZ\C3H5N1O2\OHZDE\05-Apr-2025\0\\#t hf
 aug-cc-pvdz iop(5/13=1,5/36=2,99/5=2) pseudo=read geom=check guess=(re
 ad,tcheck) scf=(maxcycle=1)\\title\\0,1\C,0,0.863078,-0.004934,-0.0120
 38\C,0,-1.345484,0.742595,0.139382\C,0,-1.296433,-0.772693,-0.105039\N
 ,0,0.032123,1.081398,-0.166734\O,0,2.061521,-0.022202,0.030559\O,0,0.0
 84494,-1.12751,0.081246\H,0,-2.049443,1.241627,-0.524845\H,0,-1.609416
 ,0.978619,1.17475\H,0,-1.897195,-1.346525,0.595247\H,0,-1.584158,-1.02
 5162,-1.126673\H,0,0.420261,1.989541,0.020394\\Version=ES64L-G16RevC.0

 Normal termination of Gaussian 16 at Sat Apr  5 23:08:25 2025.
