 Gaussian 16, Revision C.01,

 ----------------------------------------------------------------------
 #t hf aug-cc-pvdz symm=none int=(grid=ultrafine) guess=(read,tcheck) s
 table=(opt,rrhf)
 ----------------------------------------------------------------------
 -----
 title
 -----
 Symbolic Z-matrix:
 Charge =  0 Multiplicity = 1

 SCF Done:  E(RHF) =  -191.934934231     A.U. after   11 cycles
 Normal termination of Gaussian 16 at Sat Apr  5 23:08:15 2025.
 Gaussian 16:  ES64L-G16RevC.01  3-Jul-2019

 ----------------------------------------------------------------------
 #t hf aug-cc-pvdz iop(5/13=1,5/36=2,99/5=2) pseudo=read geom=check gue
 ss=(read,tcheck) scf=(maxcycle=1)
 ----------------------------------------------------------------------
 -----
 title
 -----
 Structure from the checkpoint file:  "oxetane.chk"
 Charge =  0 Multiplicity = 1

                         Standard orientation:
 ---------------------------------------------------------------------
 Center     Atomic      Atomic             Coordinates (Angstroms)
 Number     Number       Type             X           Y           Z
 ---------------------------------------------------------------------
      1          6           0       -0.000362   -0.062016    1.039066
      2          6           0       -0.000362   -0.062016   -1.039066
      3          1           0       -0.886662    1.703368    0.000000
      4          1           0        0.886384    1.702690    0.000000
      5          6           0       -0.000362    1.073690    0.000000
      6          1           0       -0.890999   -0.134448    1.666799
      7          1           0        0.889472   -0.133116    1.668112
      8          1           0       -0.890999   -0.134448   -1.666799
      9          1           0        0.889472   -0.133116   -1.668112
     10          8           0        0.001231   -1.071110   -0.000000
 ---------------------------------------------------------------------

 SCF Done:  E(RHF) =  -191.996819759     A.U. after    2 cycles

 The electronic state is 1-A'.
 Alpha  occ. eigenvalues --  -20.55909 -11.28789 -11.28788 -11.23973  -1.33345
 Alpha  occ. eigenvalues --   -1.00514  -0.93319  -0.77398  -0.69179  -0.67553
 Alpha  occ. eigenvalues --   -0.60207  -0.56597  -0.54478  -0.47420  -0.47214
 Alpha  occ. eigenvalues --   -0.42365
 Alpha virt. eigenvalues --    0.03575   0.04821   0.04874   0.05312   0.06821
 Alpha virt. eigenvalues --    0.07516   0.10350   0.11011   0.12282   0.14377
 Alpha virt. eigenvalues --    0.14763   0.15645   0.16766   0.17527   0.19245

 Mulliken charges:
               1
     1  C    0.897148
     2  C    0.897148
     3  H   -0.159331
     4  H   -0.159380
     5  C    0.202706
     6  H   -0.214111
     7  H   -0.213728
     8  H   -0.214111
     9  H   -0.213728
    10  O   -0.822613
 Sum of Mulliken charges =  -0.00000

 Dipole moment (field-independent basis, Debye):
    X=             -0.0033    Y=              2.3194    Z=              0.0000  Tot=              2.3194

 Test job not archived.
 1\1\GINC-SE085\SP\RHF\Aug-CC-pVDZ\C3H6O1\OHZDE\05-Apr-2025\0\\#t hf au
 g-cc-pvdz iop(5/13=1,5/36=2,99/5=2) pseudo=read geom=check guess=(read
 ,tcheck) scf=(maxcycle=1)\\title\\0,1\C,0,-0.000362,-0.062016,1.039066
 \C,0,-0.000362,-0.062016,-1.039066\H,0,-0.886662,1.703368,0.\H,0,0.886
 384,1.70269,0.\C,0,-0.000362,1.07369,0.\H,0,-0.890999,-0.134448,1.6667
 99\H,0,0.889472,-0.133116,1.668112\H,0,-0.890999,-0.134448,-1.666799\H
 ,0,0.889472,-0.133116,-1.668112\O,0,0.001231,-1.07111,0.\\Version=ES64
 L-G16RevC.01\State=1-A'\HF=-191.9968198\RMSD=4.374e-03\Dipole=-0.00128

 Normal termination of Gaussian 16 at Sat Apr  5 23:08:18 2025.
