 Gaussian 16, Revision C.01,

 ----------------------------------------------------------------------
 #t hf aug-cc-pvdz symm=none int=(grid=ultrafine) guess=(read,tcheck) s
 table=(opt,rrhf)
 ----------------------------------------------------------------------
 -----
 title
 -----
 Symbolic Z-matrix:
 Charge =  0 Multiplicity = 1

 SCF Done:  E(RHF) =  -151.607843117     A.U. after   13 cycles
 Normal termination of Gaussian 16 at Sat Apr  5 23:08:11 2025.
 Gaussian 16:  ES64L-G16RevC.01  3-Jul-2019

 ----------------------------------------------------------------------
 #t hf aug-cc-pvdz iop(5/13=1,5/36=2,99/5=2) pseudo=read geom=check gue
 ss=(read,tcheck) scf=(maxcycle=1)
 ----------------------------------------------------------------------
 -----
 title
 -----
 Structure from the checkpoint file:  "oxirene.chk"
 Charge =  0 Multiplicity = 1

                         Standard orientation:
 ---------------------------------------------------------------------
 Center     Atomic      Atomic             Coordinates (Angstroms)
 Number     Number       Type             X           Y           Z
 ---------------------------------------------------------------------
      1          8           0       -0.749026   -0.493037    0.000000
      2          6           0        0.778446   -0.240644    0.000000
      3          6           0        0.000000    0.750804    0.000000
      4          1           0        1.619799   -0.896150    0.000000
      5          1           0       -0.298263    1.779489    0.000000
 ---------------------------------------------------------------------

 SCF Done:  E(RHF) =  -151.657657841     A.U. after    2 cycles

 The electronic state is 1-A'.
 Alpha  occ. eigenvalues --  -20.58466 -11.32883 -11.31933  -1.34722  -0.96632
 Alpha  occ. eigenvalues --   -0.82315  -0.72952  -0.59903  -0.55316  -0.51400
 Alpha  occ. eigenvalues --   -0.35491
 Alpha virt. eigenvalues --    0.03331   0.03763   0.08344   0.09142   0.10589
 Alpha virt. eigenvalues --    0.11344   0.12786   0.13499   0.16920   0.19267
 Alpha virt. eigenvalues --    0.22605   0.24304   0.26250   0.26433   0.28230

 Mulliken charges:
               1
     1  O   -0.676808
     2  C    0.562907
     3  C    0.515672
     4  H   -0.229814
     5  H   -0.171956
 Sum of Mulliken charges =  -0.00000

 Dipole moment (field-independent basis, Debye):
    X=              2.3359    Y=              1.6648    Z=              0.0000  Tot=              2.8685

 Test job not archived.
 1\1\GINC-SE176\SP\RHF\Aug-CC-pVDZ\C2H2O1\OHZDE\05-Apr-2025\0\\#t hf au
 g-cc-pvdz iop(5/13=1,5/36=2,99/5=2) pseudo=read geom=check guess=(read
 ,tcheck) scf=(maxcycle=1)\\title\\0,1\O,0,-0.749026,-0.493037,0.\C,0,0
 .778446,-0.240644,0.\C,0,0.,0.750804,0.\H,0,1.619799,-0.896149,0.\H,0,
 -0.298263,1.779489,0.\\Version=ES64L-G16RevC.01\State=1-A'\HF=-151.657
 6578\RMSD=7.453e-03\Dipole=0.9190251,0.6549993,0.\Quadrupole=-0.071982
 9,1.8640889,-1.792106,-2.846833,0.,0.\PG=CS [SG(C2H2O1)]\\@

 Normal termination of Gaussian 16 at Sat Apr  5 23:08:13 2025.
