 Gaussian 16, Revision C.01,

 ----------------------------------------------------------------------
 #t hf aug-cc-pvdz symm=none int=(grid=ultrafine) guess=(read,tcheck) s
 table=(opt,rrhf)
 ----------------------------------------------------------------------
 -----
 title
 -----
 Symbolic Z-matrix:
 Charge =  0 Multiplicity = 1

 SCF Done:  E(RHF) =  -152.889036098     A.U. after   11 cycles
 Normal termination of Gaussian 16 at Sat Apr  5 23:08:12 2025.
 Gaussian 16:  ES64L-G16RevC.01  3-Jul-2019

 ----------------------------------------------------------------------
 #t hf aug-cc-pvdz iop(5/13=1,5/36=2,99/5=2) pseudo=read geom=check gue
 ss=(read,tcheck) scf=(maxcycle=1)
 ----------------------------------------------------------------------
 -----
 title
 -----
 Structure from the checkpoint file:  "oxirane.chk"
 Charge =  0 Multiplicity = 1

                         Standard orientation:
 ---------------------------------------------------------------------
 Center     Atomic      Atomic             Coordinates (Angstroms)
 Number     Number       Type             X           Y           Z
 ---------------------------------------------------------------------
      1          8           0        0.000000   -0.000000    0.854896
      2          6           0        0.000000    0.731605   -0.373327
      3          6           0       -0.000000   -0.731605   -0.373327
      4          1           0        0.917863    1.266951   -0.589809
      5          1           0       -0.917863    1.266951   -0.589809
      6          1           0       -0.917863   -1.266951   -0.589809
      7          1           0        0.917863   -1.266951   -0.589809
 ---------------------------------------------------------------------

 SCF Done:  E(RHF) =  -152.940047577     A.U. after    2 cycles

 The electronic state is 1-A1.
 Alpha  occ. eigenvalues --  -20.58646 -11.29775 -11.29659  -1.37497  -0.93120
 Alpha  occ. eigenvalues --   -0.86559  -0.71371  -0.67145  -0.56361  -0.54617
 Alpha  occ. eigenvalues --   -0.46846  -0.46093
 Alpha virt. eigenvalues --    0.03622   0.04838   0.04876   0.06968   0.08660
 Alpha virt. eigenvalues --    0.11416   0.12252   0.14232   0.16655   0.17443
 Alpha virt. eigenvalues --    0.20090   0.20192   0.20836   0.24404   0.26960

 Mulliken charges:
               1
     1  O   -0.667840
     2  C    0.765387
     3  C    0.765387
     4  H   -0.215733
     5  H   -0.215733
     6  H   -0.215733
     7  H   -0.215733
 Sum of Mulliken charges =  -0.00000

 Dipole moment (field-independent basis, Debye):
    X=              0.0000    Y=              0.0000    Z=             -2.3902  Tot=              2.3902

 Test job not archived.
 1\1\GINC-SE165\SP\RHF\Aug-CC-pVDZ\C2H4O1\OHZDE\05-Apr-2025\0\\#t hf au
 g-cc-pvdz iop(5/13=1,5/36=2,99/5=2) pseudo=read geom=check guess=(read
 ,tcheck) scf=(maxcycle=1)\\title\\0,1\O,0,0.,0.,0.854896\C,0,0.,0.7316
 05,-0.373327\C,0,0.,-0.731605,-0.373327\H,0,0.917863,1.266951,-0.58980
 9\H,0,-0.917863,1.266951,-0.589809\H,0,-0.917863,-1.266951,-0.589809\H
 ,0,0.917863,-1.266951,-0.589809\\Version=ES64L-G16RevC.01\State=1-A1\H
 F=-152.9400476\RMSD=5.069e-03\Dipole=0.,0.,-0.9403759\Quadrupole=0.696
 9641,1.5266494,-2.2236135,0.,0.,0.\PG=C02V [C2(O1),SGV(C2),X(H4)]\\@

 Normal termination of Gaussian 16 at Sat Apr  5 23:08:13 2025.
