 Gaussian 16, Revision C.01,

 ----------------------------------------------------------------------
 #t hf aug-cc-pvdz symm=none int=(grid=ultrafine) guess=(read,tcheck) s
 table=(opt,rrhf)
 ----------------------------------------------------------------------
 -----
 title
 -----
 Symbolic Z-matrix:
 Charge =  0 Multiplicity = 1

 SCF Done:  E(RHF) =  -301.530989226     A.U. after   14 cycles
 Normal termination of Gaussian 16 at Sat Apr  5 23:08:13 2025.
 Gaussian 16:  ES64L-G16RevC.01  3-Jul-2019

 ----------------------------------------------------------------------
 #t hf aug-cc-pvdz iop(5/13=1,5/36=2,99/5=2) pseudo=read geom=check gue
 ss=(read,tcheck) scf=(maxcycle=1)
 ----------------------------------------------------------------------
 -----
 title
 -----
 Structure from the checkpoint file:  "oxoacetic_acid.chk"
 Charge =  0 Multiplicity = 1

                         Standard orientation:
 ---------------------------------------------------------------------
 Center     Atomic      Atomic             Coordinates (Angstroms)
 Number     Number       Type             X           Y           Z
 ---------------------------------------------------------------------
      1          6           0       -0.718651   -0.816155    0.000000
      2          6           0        0.000000    0.539124    0.000000
      3          8           0        1.331696    0.432025    0.000000
      4          8           0       -0.618671    1.571383    0.000000
      5          8           0       -0.159963   -1.873970    0.000000
      6          1           0       -1.815745   -0.700767    0.000000
      7          1           0        1.703152    1.327452    0.000000
 ---------------------------------------------------------------------

 SCF Done:  E(RHF) =  -301.627732491     A.U. after    2 cycles

 The electronic state is 1-A'.
 Alpha  occ. eigenvalues --  -20.65560 -20.62373 -20.60625 -11.43316 -11.38419
 Alpha  occ. eigenvalues --   -1.46222  -1.40567  -1.36563  -0.97735  -0.85371
 Alpha  occ. eigenvalues --   -0.75442  -0.74103  -0.70397  -0.68258  -0.64692
 Alpha  occ. eigenvalues --   -0.57888  -0.55017  -0.53185  -0.47091
 Alpha virt. eigenvalues --    0.03162   0.03829   0.04488   0.08544   0.09726
 Alpha virt. eigenvalues --    0.10669   0.11700   0.12004   0.13441   0.15441
 Alpha virt. eigenvalues --    0.18943   0.19565   0.19965   0.21704   0.23325

 Mulliken charges:
               1
     1  C    0.605599
     2  C    0.459768
     3  O   -0.427482
     4  O   -0.417225
     5  O   -0.358201
     6  H   -0.055247
     7  H    0.192788
 Sum of Mulliken charges =  -0.00000

 Dipole moment (field-independent basis, Debye):
    X=              0.1275    Y=              1.2904    Z=              0.0000  Tot=              1.2966

 Test job not archived.
 1\1\GINC-SE115\SP\RHF\Aug-CC-pVDZ\C2H2O3\OHZDE\05-Apr-2025\0\\#t hf au
 g-cc-pvdz iop(5/13=1,5/36=2,99/5=2) pseudo=read geom=check guess=(read
 ,tcheck) scf=(maxcycle=1)\\title\\0,1\C,0,-0.718651,-0.816155,0.\C,0,0
 .,0.539124,0.\O,0,1.331696,0.432025,0.\O,0,-0.618671,1.571383,0.\O,0,-
 0.159963,-1.87397,0.\H,0,-1.815745,-0.700767,0.\H,0,1.703152,1.327452,
 0.\\Version=ES64L-G16RevC.01\State=1-A'\HF=-301.6277325\RMSD=3.897e-03
 \Dipole=0.0501517,0.5076646,0.\Quadrupole=3.0776657,-4.7981132,1.72044
 75,5.1378278,0.,0.\PG=CS [SG(C2H2O3)]\\@

 Normal termination of Gaussian 16 at Sat Apr  5 23:08:16 2025.
