 Gaussian 16, Revision C.01,

 ----------------------------------------------------------------------
 #t hf aug-cc-pvdz symm=none int=(grid=ultrafine) guess=(read,tcheck) s
 table=(opt,rrhf)
 ----------------------------------------------------------------------
 -----
 title
 -----
 Symbolic Z-matrix:
 Charge =  0 Multiplicity = 1

 SCF Done:  E(RHF) =  -473.427731009     A.U. after   16 cycles
 Normal termination of Gaussian 16 at Sat Apr  5 23:09:26 2025.
 Gaussian 16:  ES64L-G16RevC.01  3-Jul-2019

 ----------------------------------------------------------------------
 #t hf aug-cc-pvdz iop(5/13=1,5/36=2,99/5=2) pseudo=read geom=check gue
 ss=(read,tcheck) scf=(maxcycle=1)
 ----------------------------------------------------------------------
 -----
 title
 -----
 Structure from the checkpoint file:  "p-aminobenzoic_acid.chk"
 Charge =  0 Multiplicity = 1

                         Standard orientation:
 ---------------------------------------------------------------------
 Center     Atomic      Atomic             Coordinates (Angstroms)
 Number     Number       Type             X           Y           Z
 ---------------------------------------------------------------------
      1          8           0        2.762394   -1.105018    0.003022
      2          6           0        2.156561    0.114744    0.002536
      3          8           0        2.803915    1.137760    0.005269
      4          6           0        0.686414    0.034495   -0.001330
      5          6           0       -0.049953    1.223608   -0.002784
      6          6           0       -1.429416    1.203832   -0.004972
      7          6           0       -2.123979   -0.016126   -0.004799
      8          7           0       -3.503279   -0.040515   -0.054095
      9          6           0       -1.386039   -1.209122   -0.004321
     10          6           0       -0.004739   -1.181360   -0.002372
     11          1           0        3.714017   -0.931351    0.005078
     12          1           0        0.483823    2.163304   -0.001130
     13          1           0       -1.984440    2.133422   -0.009930
     14          1           0       -3.992208    0.795011    0.217353
     15          1           0       -3.962914   -0.892079    0.218605
     16          1           0       -1.907089   -2.158183   -0.008827
     17          1           0        0.548189   -2.108876   -0.000570
 ---------------------------------------------------------------------

 SCF Done:  E(RHF) =  -473.571348237     A.U. after    2 cycles

 The electronic state is 1-A.
 Alpha  occ. eigenvalues --  -20.61654 -20.55153 -15.64924 -11.39380 -11.31368
 Alpha  occ. eigenvalues --  -11.26471 -11.26181 -11.24559 -11.24430 -11.24390
 Alpha  occ. eigenvalues --   -1.41499  -1.31456  -1.21882  -1.13831  -1.02582
 Alpha  occ. eigenvalues --   -1.01810  -0.88986  -0.85436  -0.80662  -0.73688
 Alpha  occ. eigenvalues --   -0.72189  -0.70068  -0.69611  -0.63990  -0.63957
 Alpha  occ. eigenvalues --   -0.61293  -0.60728  -0.59911  -0.56009  -0.54803
 Alpha  occ. eigenvalues --   -0.50539  -0.50135  -0.46612  -0.45943  -0.35681
 Alpha  occ. eigenvalues --   -0.31240
 Alpha virt. eigenvalues --    0.02519   0.03514   0.04046   0.05213   0.06177
 Alpha virt. eigenvalues --    0.07374   0.08054   0.08962   0.10167   0.10372
 Alpha virt. eigenvalues --    0.10819   0.11767   0.12057   0.13237   0.13730

 Mulliken charges:
               1
     1  O   -0.621648
     2  C    0.130001
     3  O   -0.490201
     4  C    1.163459
     5  C    0.123244
     6  C    0.889201
     7  C    0.113279
     8  N   -0.239541
     9  C    0.681049
    10  C    0.449096
    11  H    0.259149
    12  H   -0.639448
    13  H   -0.572508
    14  H   -0.039522
    15  H   -0.041091
    16  H   -0.592567
    17  H   -0.571953
 Sum of Mulliken charges =  -0.00000

 Dipole moment (field-independent basis, Debye):
    X=             -3.9090    Y=             -1.6193    Z=              0.7843  Tot=              4.3032

 Test job not archived.
 1\1\GINC-SE115\SP\RHF\Aug-CC-pVDZ\C7H7N1O2\OHZDE\05-Apr-2025\0\\#t hf
 aug-cc-pvdz iop(5/13=1,5/36=2,99/5=2) pseudo=read geom=check guess=(re
 ad,tcheck) scf=(maxcycle=1)\\title\\0,1\O,0,2.762394,-1.105018,0.00302
 2\C,0,2.156561,0.114744,0.002536\O,0,2.803915,1.13776,0.005269\C,0,0.6
 86414,0.034495,-0.00133\C,0,-0.049953,1.223608,-0.002784\C,0,-1.429416
 ,1.203832,-0.004972\C,0,-2.123979,-0.016126,-0.004799\N,0,-3.503279,-0
 .040515,-0.054095\C,0,-1.386039,-1.209122,-0.004321\C,0,-0.004739,-1.1
 8136,-0.002372\H,0,3.714017,-0.931351,0.005078\H,0,0.483823,2.163304,-

 Normal termination of Gaussian 16 at Sat Apr  5 23:10:27 2025.
