 Gaussian 16, Revision C.01,

 ----------------------------------------------------------------------
 #t hf aug-cc-pvdz symm=none int=(grid=ultrafine) guess=(read,tcheck) s
 table=(opt,rrhf)
 ----------------------------------------------------------------------
 -----
 title
 -----
 Symbolic Z-matrix:
 Charge =  0 Multiplicity = 1

 SCF Done:  E(RHF) =  -744.692908897     A.U. after   14 cycles
 Normal termination of Gaussian 16 at Sat Apr  5 23:09:17 2025.
 Gaussian 16:  ES64L-G16RevC.01  3-Jul-2019

 ----------------------------------------------------------------------
 #t hf aug-cc-pvdz iop(5/13=1,5/36=2,99/5=2) pseudo=read geom=check gue
 ss=(read,tcheck) scf=(maxcycle=1)
 ----------------------------------------------------------------------
 -----
 title
 -----
 Structure from the checkpoint file:  "p-chloroaniline.chk"
 Charge =  0 Multiplicity = 1

                         Standard orientation:
 ---------------------------------------------------------------------
 Center     Atomic      Atomic             Coordinates (Angstroms)
 Number     Number       Type             X           Y           Z
 ---------------------------------------------------------------------
      1          6           0        0.002824    1.104180    1.201145
      2          6           0        0.002824    1.104180   -1.201145
      3          6           0        0.002824   -0.282935    1.203368
      4          6           0        0.002824   -0.282935   -1.203368
      5          6           0        0.001749    1.821531   -0.000000
      6          6           0        0.002775   -0.973267    0.000000
      7          7           0        0.059244    3.213615   -0.000000
      8         17           0        0.000656   -2.729245    0.000000
      9          1           0        0.008179    1.636737    2.143798
     10          1           0        0.008179    1.636737   -2.143798
     11          1           0        0.002153   -0.824965    2.137851
     12          1           0        0.002153   -0.824965   -2.137851
     13          1           0       -0.270719    3.666897    0.836100
     14          1           0       -0.270719    3.666897   -0.836100
 ---------------------------------------------------------------------

 SCF Done:  E(RHF) =  -744.796183119     A.U. after    2 cycles

 The electronic state is 1-A'.
 Alpha  occ. eigenvalues -- -103.65763 -15.64003 -11.30100 -11.29665 -11.26042
 Alpha  occ. eigenvalues --  -11.26036 -11.24797 -11.24797 -10.69031  -8.34769
 Alpha  occ. eigenvalues --   -8.34470  -8.34447  -1.21213  -1.18219  -1.10927
 Alpha  occ. eigenvalues --   -1.02658  -0.97677  -0.85687  -0.81881  -0.71909
 Alpha  occ. eigenvalues --   -0.70711  -0.65628  -0.62231  -0.61376  -0.60408
 Alpha  occ. eigenvalues --   -0.55854  -0.53090  -0.51592  -0.50750  -0.46033
 Alpha  occ. eigenvalues --   -0.43804  -0.35681  -0.30232
 Alpha virt. eigenvalues --    0.02797   0.03577   0.04461   0.05727   0.06368
 Alpha virt. eigenvalues --    0.08786   0.09604   0.09670   0.10042   0.11429
 Alpha virt. eigenvalues --    0.12820   0.13438   0.13659   0.14180   0.14341

 Mulliken charges:
               1
     1  C    1.054427
     2  C    1.054427
     3  C    0.525400
     4  C    0.525400
     5  C   -0.031490
     6  C   -0.369625
     7  N   -0.274815
     8  Cl  -0.383559
     9  H   -0.577972
    10  H   -0.577972
    11  H   -0.428123
    12  H   -0.428123
    13  H   -0.043988
    14  H   -0.043988
 Sum of Mulliken charges =   0.00000

 Dipole moment (field-independent basis, Debye):
    X=             -0.9474    Y=              3.4303    Z=              0.0000  Tot=              3.5587

 Test job not archived.
 1\1\GINC-SE180\SP\RHF\Aug-CC-pVDZ\C6H6Cl1N1\OHZDE\05-Apr-2025\0\\#t hf
  aug-cc-pvdz iop(5/13=1,5/36=2,99/5=2) pseudo=read geom=check guess=(r
 ead,tcheck) scf=(maxcycle=1)\\title\\0,1\C,0,0.002824,1.10418,1.201145
 \C,0,0.002824,1.10418,-1.201145\C,0,0.002824,-0.282935,1.203368\C,0,0.
 002824,-0.282935,-1.203368\C,0,0.001749,1.821531,0.\C,0,0.002775,-0.97
 3267,0.\N,0,0.059244,3.213615,0.\Cl,0,0.000656,-2.729245,0.\H,0,0.0081
 79,1.636737,2.143798\H,0,0.008179,1.636737,-2.143798\H,0,0.002153,-0.8
 24965,2.137851\H,0,0.002153,-0.824965,-2.137851\H,0,-0.270719,3.666897

 Normal termination of Gaussian 16 at Sat Apr  5 23:10:23 2025.
