 Gaussian 16, Revision C.01,

 ----------------------------------------------------------------------
 #t hf aug-cc-pvdz symm=none int=(grid=ultrafine) guess=(read,tcheck) s
 table=(opt,rrhf)
 ----------------------------------------------------------------------
 -----
 title
 -----
 Symbolic Z-matrix:
 Charge =  0 Multiplicity = 1

 SCF Done:  E(RHF) =  -344.641440604     A.U. after   15 cycles
 Normal termination of Gaussian 16 at Sat Apr  5 23:09:18 2025.
 Gaussian 16:  ES64L-G16RevC.01  3-Jul-2019

 ----------------------------------------------------------------------
 #t hf aug-cc-pvdz iop(5/13=1,5/36=2,99/5=2) pseudo=read geom=check gue
 ss=(read,tcheck) scf=(maxcycle=1)
 ----------------------------------------------------------------------
 -----
 title
 -----
 Structure from the checkpoint file:  "p-cresol.chk"
 Charge =  0 Multiplicity = 1

                         Standard orientation:
 ---------------------------------------------------------------------
 Center     Atomic      Atomic             Coordinates (Angstroms)
 Number     Number       Type             X           Y           Z
 ---------------------------------------------------------------------
      1          6           0        0.644121    1.194052   -0.006494
      2          6           0        0.662041   -1.191017   -0.006314
      3          6           0       -0.747351    1.189109   -0.001233
      4          6           0       -0.724096   -1.215100   -0.001196
      5          6           0        1.376677    0.009928   -0.007134
      6          6           0       -1.435402   -0.018408    0.002343
      7          6           0        2.883482    0.016860    0.008658
      8          8           0       -2.803606   -0.093184    0.005561
      9          1           0        1.164240    2.143785   -0.011774
     10          1           0        1.201078   -2.130513   -0.011627
     11          1           0       -1.293225    2.125496   -0.002769
     12          1           0       -1.266997   -2.150003   -0.002681
     13          1           0        3.293415   -0.687622   -0.716746
     14          1           0        3.277225    1.005159   -0.226732
     15          1           0        3.273067   -0.266943    0.989489
     16          1           0       -3.176785    0.793560    0.006570
 ---------------------------------------------------------------------

 SCF Done:  E(RHF) =  -344.746706876     A.U. after    2 cycles

 The electronic state is 1-A.
 Alpha  occ. eigenvalues --  -20.60181 -11.30843 -11.24521 -11.24378 -11.24169
 Alpha  occ. eigenvalues --  -11.24127 -11.23654 -11.23240  -1.36323  -1.14338
 Alpha  occ. eigenvalues --   -1.03338  -1.01389  -0.92826  -0.84957  -0.80921
 Alpha  occ. eigenvalues --   -0.74316  -0.68053  -0.64824  -0.61282  -0.60395
 Alpha  occ. eigenvalues --   -0.59260  -0.58649  -0.57519  -0.53722  -0.50969
 Alpha  occ. eigenvalues --   -0.49136  -0.47736  -0.34477  -0.31105
 Alpha virt. eigenvalues --    0.03212   0.03835   0.04322   0.05418   0.05937
 Alpha virt. eigenvalues --    0.06080   0.07650   0.08693   0.10167   0.10557
 Alpha virt. eigenvalues --    0.11771   0.12982   0.13528   0.13799   0.14187

 Mulliken charges:
               1
     1  C    0.539380
     2  C    0.755705
     3  C    0.363855
     4  C    0.434666
     5  C   -0.141640
     6  C    0.355473
     7  C    0.457243
     8  O   -0.582956
     9  H   -0.551109
    10  H   -0.582095
    11  H   -0.575417
    12  H   -0.495129
    13  H   -0.011680
    14  H   -0.165621
    15  H    0.071782
    16  H    0.127542
 Sum of Mulliken charges =   0.00000

 Dipole moment (field-independent basis, Debye):
    X=              0.6948    Y=              1.3738    Z=              0.0153  Tot=              1.5396

 Test job not archived.
 1\1\GINC-SE199\SP\RHF\Aug-CC-pVDZ\C7H8O1\OHZDE\05-Apr-2025\0\\#t hf au
 g-cc-pvdz iop(5/13=1,5/36=2,99/5=2) pseudo=read geom=check guess=(read
 ,tcheck) scf=(maxcycle=1)\\title\\0,1\C,0,0.644121,1.194052,-0.006494\
 C,0,0.662041,-1.191017,-0.006314\C,0,-0.747351,1.189109,-0.001233\C,0,
 -0.724096,-1.2151,-0.001196\C,0,1.376677,0.009928,-0.007134\C,0,-1.435
 402,-0.018408,0.002343\C,0,2.883482,0.01686,0.008658\O,0,-2.803606,-0.
 093184,0.005561\H,0,1.16424,2.143785,-0.011774\H,0,1.201078,-2.130513,
 -0.011627\H,0,-1.293225,2.125496,-0.002769\H,0,-1.266997,-2.150003,-0.

 Normal termination of Gaussian 16 at Sat Apr  5 23:10:25 2025.
