 Gaussian 16, Revision C.01,

 ----------------------------------------------------------------------
 #t hf aug-cc-pvdz symm=none int=(grid=ultrafine) guess=(read,tcheck) s
 table=(opt,rrhf)
 ----------------------------------------------------------------------
 -----
 title
 -----
 Symbolic Z-matrix:
 Charge =  0 Multiplicity = 1

 SCF Done:  E(RHF) =  -525.971535005     A.U. after   17 cycles
 Normal termination of Gaussian 16 at Sat Apr  5 23:09:55 2025.
 Gaussian 16:  ES64L-G16RevC.01  3-Jul-2019

 ----------------------------------------------------------------------
 #t hf aug-cc-pvdz iop(5/13=1,5/36=2,99/5=2) pseudo=read geom=check gue
 ss=(read,tcheck) scf=(maxcycle=1)
 ----------------------------------------------------------------------
 -----
 title
 -----
 Structure from the checkpoint file:  "p-cyanonitrobenzene.chk"
 Charge =  0 Multiplicity = 1

                         Standard orientation:
 ---------------------------------------------------------------------
 Center     Atomic      Atomic             Coordinates (Angstroms)
 Number     Number       Type             X           Y           Z
 ---------------------------------------------------------------------
      1          8           0        0.000000    1.083262   -3.015657
      2          7           0        0.000000   -0.000000   -2.452829
      3          8           0       -0.000000   -1.083262   -3.015657
      4          6           0        0.000000   -0.000000   -0.973083
      5          6           0        0.000000   -1.215143   -0.304010
      6          6           0        0.000000   -1.213700    1.080544
      7          6           0        0.000000    0.000000    1.777046
      8          6           0        0.000000    0.000000    3.207339
      9          7           0        0.000000    0.000000    4.359138
     10          6           0        0.000000    1.213700    1.080544
     11          6           0        0.000000    1.215143   -0.304010
     12          1           0        0.000000   -2.135421   -0.866311
     13          1           0        0.000000   -2.145531    1.626371
     14          1           0        0.000000    2.145531    1.626371
     15          1           0        0.000000    2.135421   -0.866311
 ---------------------------------------------------------------------

 SCF Done:  E(RHF) =  -526.125910855     A.U. after    2 cycles

 The electronic state is 1-A1.
 Alpha  occ. eigenvalues --  -20.63856 -20.63846 -15.94130 -15.66737 -11.35033
 Alpha  occ. eigenvalues --  -11.33599 -11.31312 -11.30976 -11.30967 -11.30859
 Alpha  occ. eigenvalues --  -11.30851  -1.57323  -1.38863  -1.23446  -1.21050
 Alpha  occ. eigenvalues --   -1.12241  -1.07963  -0.99963  -0.90184  -0.87620
 Alpha  occ. eigenvalues --   -0.81421  -0.79384  -0.76203  -0.74905  -0.70374
 Alpha  occ. eigenvalues --   -0.68437  -0.65942  -0.62938  -0.58799  -0.56934
 Alpha  occ. eigenvalues --   -0.56919  -0.53676  -0.53292  -0.51277  -0.49409
 Alpha  occ. eigenvalues --   -0.49242  -0.40091  -0.39810
 Alpha virt. eigenvalues --   -0.00096   0.02578   0.03072   0.04945   0.05652
 Alpha virt. eigenvalues --    0.06298   0.07699   0.08356   0.08919   0.09460
 Alpha virt. eigenvalues --    0.11447   0.11777   0.12196   0.12288   0.12821

 Mulliken charges:
               1
     1  O   -0.546676
     2  N    0.115399
     3  O   -0.546676
     4  C    0.788211
     5  C    0.611623
     6  C    0.014754
     7  C    2.274792
     8  C   -1.263562
     9  N   -0.084021
    10  C    0.014754
    11  C    0.611623
    12  H   -0.446510
    13  H   -0.548601
    14  H   -0.548601
    15  H   -0.446510
 Sum of Mulliken charges =  -0.00000

 Dipole moment (field-independent basis, Debye):
    X=             -0.0000    Y=              0.0000    Z=              0.6283  Tot=              0.6283

 Test job not archived.
 1\1\GINC-SE010\SP\RHF\Aug-CC-pVDZ\C7H4N2O2\OHZDE\05-Apr-2025\0\\#t hf
 aug-cc-pvdz iop(5/13=1,5/36=2,99/5=2) pseudo=read geom=check guess=(re
 ad,tcheck) scf=(maxcycle=1)\\title\\0,1\O,0,0.,1.083262,-3.015657\N,0,
 0.,0.,-2.452829\O,0,0.,-1.083262,-3.015657\C,0,0.,0.,-0.973083\C,0,0.,
 -1.215143,-0.30401\C,0,0.,-1.2137,1.080544\C,0,0.,0.,1.777046\C,0,0.,0
 .,3.207339\N,0,0.,0.,4.359138\C,0,0.,1.2137,1.080544\C,0,0.,1.215143,-
 0.30401\H,0,0.,-2.135421,-0.866311\H,0,0.,-2.145531,1.626371\H,0,0.,2.
 145531,1.626371\H,0,0.,2.135421,-0.866311\\Version=ES64L-G16RevC.01\St

 Normal termination of Gaussian 16 at Sat Apr  5 23:10:24 2025.
