 Gaussian 16, Revision C.01,

 ----------------------------------------------------------------------
 #t hf aug-cc-pvdz symm=none int=(grid=ultrafine) guess=(read,tcheck) s
 table=(opt,rrhf)
 ----------------------------------------------------------------------
 -----
 title
 -----
 Symbolic Z-matrix:
 Charge =  0 Multiplicity = 1

 SCF Done:  E(RHF) =  -1148.57154517     A.U. after   12 cycles

 1\1\GINC-SE040\Stability\RHF\Aug-CC-pVDZ\C6H4Cl2\OHZDE\05-Apr-2025\0\\
 #t hf aug-cc-pvdz symm=none int=(grid=ultrafine) guess=(read,tcheck) s
 table=(opt,rrhf)\\title\\0,1\C,0,0.,1.207774,0.694419\C,0,0.,1.207774,
 -0.694419\C,0,0.,-1.207774,0.694419\C,0,0.,-1.207774,-0.694419\C,0,0.,
 0.,1.378331\C,0,0.,0.,-1.378331\Cl,0,0.,0.,3.12867\Cl,0,0.,0.,-3.12867
 \H,0,0.,2.139873,1.239951\H,0,0.,2.139873,-1.239951\H,0,0.,-2.139873,1
 .239951\H,0,0.,-2.139873,-1.239951\\Version=ES64L-G16RevC.01\HF=-1148.
 5715452\RMSD=4.430e-09\Dipole=0.,0.,0.\Quadrupole=-1.9314447,6.4662557

 Normal termination of Gaussian 16 at Sat Apr  5 23:08:43 2025.
 Gaussian 16:  ES64L-G16RevC.01  3-Jul-2019

 ----------------------------------------------------------------------
 #t hf aug-cc-pvdz iop(5/13=1,5/36=2,99/5=2) pseudo=read geom=check gue
 ss=(read,tcheck) scf=(maxcycle=1)
 ----------------------------------------------------------------------
 -----
 title
 -----
 Structure from the checkpoint file:  "p-dichlorobenzene.chk"
 Charge =  0 Multiplicity = 1

                         Standard orientation:
 ---------------------------------------------------------------------
 Center     Atomic      Atomic             Coordinates (Angstroms)
 Number     Number       Type             X           Y           Z
 ---------------------------------------------------------------------
      1          6           0        0.000000    1.207774    0.694419
      2          6           0        0.000000    1.207774   -0.694419
      3          6           0       -0.000000   -1.207774    0.694419
      4          6           0       -0.000000   -1.207774   -0.694419
      5          6           0        0.000000    0.000000    1.378331
      6          6           0        0.000000    0.000000   -1.378331
      7         17           0        0.000000    0.000000    3.128670
      8         17           0        0.000000    0.000000   -3.128670
      9          1           0        0.000000    2.139873    1.239951
     10          1           0        0.000000    2.139873   -1.239951
     11          1           0       -0.000000   -2.139873    1.239951
     12          1           0       -0.000000   -2.139873   -1.239951
 ---------------------------------------------------------------------

 SCF Done:  E(RHF) =  -1148.67647206     A.U. after    2 cycles

 The electronic state is 1-AG.
 Alpha  occ. eigenvalues -- -103.67578-103.67577 -11.32553 -11.32549 -11.27664
 Alpha  occ. eigenvalues --  -11.27652 -11.27545 -11.27543 -10.70859 -10.70857
 Alpha  occ. eigenvalues --   -8.36597  -8.36594  -8.36287  -8.36286  -8.36269
 Alpha  occ. eigenvalues --   -8.36268  -1.22141  -1.19518  -1.13011  -1.04838
 Alpha  occ. eigenvalues --   -0.99952  -0.87402  -0.83114  -0.71695  -0.68571
 Alpha  occ. eigenvalues --   -0.66557  -0.62743  -0.60324  -0.57604  -0.54700
 Alpha  occ. eigenvalues --   -0.53644  -0.52683  -0.48013  -0.47559  -0.46898
 Alpha  occ. eigenvalues --   -0.37343  -0.34832
 Alpha virt. eigenvalues --    0.03557   0.03869   0.04982   0.05957   0.07755
 Alpha virt. eigenvalues --    0.08177   0.08298   0.09828   0.10876   0.12561
 Alpha virt. eigenvalues --    0.12873   0.12970   0.13302   0.13690   0.14117

 Mulliken charges:
               1
     1  C    0.853860
     2  C    0.853860
     3  C    0.853860
     4  C    0.853860
     5  C   -0.502600
     6  C   -0.502600
     7  Cl  -0.344499
     8  Cl  -0.344499
     9  H   -0.430310
    10  H   -0.430310
    11  H   -0.430310
    12  H   -0.430310
 Sum of Mulliken charges =  -0.00000

 Dipole moment (field-independent basis, Debye):
    X=             -0.0000    Y=             -0.0000    Z=             -0.0000  Tot=              0.0000

 Test job not archived.
 1\1\GINC-SE040\SP\RHF\Aug-CC-pVDZ\C6H4Cl2\OHZDE\05-Apr-2025\0\\#t hf a
 ug-cc-pvdz iop(5/13=1,5/36=2,99/5=2) pseudo=read geom=check guess=(rea
 d,tcheck) scf=(maxcycle=1)\\title\\0,1\C,0,0.,1.207774,0.694419\C,0,0.
 ,1.207774,-0.694419\C,0,0.,-1.207774,0.694419\C,0,0.,-1.207774,-0.6944
 19\C,0,0.,0.,1.378331\C,0,0.,0.,-1.378331\Cl,0,0.,0.,3.12867\Cl,0,0.,0
 .,-3.12867\H,0,0.,2.139873,1.239951\H,0,0.,2.139873,-1.239951\H,0,0.,-
 2.139873,1.239951\H,0,0.,-2.139873,-1.239951\\Version=ES64L-G16RevC.01
 \State=1-AG\HF=-1148.6764721\RMSD=1.510e-02\Dipole=0.,0.,0.\Quadrupole

 Normal termination of Gaussian 16 at Sat Apr  5 23:08:50 2025.
