 Gaussian 16, Revision C.01,

 ----------------------------------------------------------------------
 #t hf aug-cc-pvdz symm=none int=(grid=ultrafine) guess=(read,tcheck) s
 table=(opt,rrhf)
 ----------------------------------------------------------------------
 -----
 title
 -----
 Symbolic Z-matrix:
 Charge =  0 Multiplicity = 1

 SCF Done:  E(RHF) =  -428.454656907     A.U. after   12 cycles
 Normal termination of Gaussian 16 at Sat Apr  5 23:08:38 2025.
 Gaussian 16:  ES64L-G16RevC.01  3-Jul-2019

 ----------------------------------------------------------------------
 #t hf aug-cc-pvdz iop(5/13=1,5/36=2,99/5=2) pseudo=read geom=check gue
 ss=(read,tcheck) scf=(maxcycle=1)
 ----------------------------------------------------------------------
 -----
 title
 -----
 Structure from the checkpoint file:  "p-difluorobenzene.chk"
 Charge =  0 Multiplicity = 1

                         Standard orientation:
 ---------------------------------------------------------------------
 Center     Atomic      Atomic             Coordinates (Angstroms)
 Number     Number       Type             X           Y           Z
 ---------------------------------------------------------------------
      1          6           0        0.000000    0.000000    1.363040
      2          6           0        0.000000    0.000000   -1.363040
      3          6           0        0.000000    1.211776    0.695210
      4          6           0       -0.000000   -1.211776    0.695210
      5          6           0       -0.000000   -1.211776   -0.695210
      6          6           0        0.000000    1.211776   -0.695210
      7          9           0        0.000000    0.000000    2.715276
      8          9           0        0.000000    0.000000   -2.715276
      9          1           0        0.000000    2.134857    1.256229
     10          1           0       -0.000000   -2.134857    1.256229
     11          1           0       -0.000000   -2.134857   -1.256229
     12          1           0        0.000000    2.134857   -1.256229
 ---------------------------------------------------------------------

 SCF Done:  E(RHF) =  -428.595040688     A.U. after    2 cycles

 The electronic state is 1-AG.
 Alpha  occ. eigenvalues --  -26.14093 -26.14092 -11.34794 -11.34787 -11.27205
 Alpha  occ. eigenvalues --  -11.27196 -11.27090 -11.27084  -1.67921  -1.67913
 Alpha  occ. eigenvalues --   -1.17864  -1.04932  -1.04335  -0.89446  -0.89081
 Alpha  occ. eigenvalues --   -0.79410  -0.78117  -0.77810  -0.75752  -0.75502
 Alpha  occ. eigenvalues --   -0.72029  -0.65047  -0.63266  -0.61421  -0.61122
 Alpha  occ. eigenvalues --   -0.53193  -0.52998  -0.37256  -0.35646
 Alpha virt. eigenvalues --    0.03467   0.03776   0.04647   0.05778   0.08411
 Alpha virt. eigenvalues --    0.08580   0.09968   0.11098   0.12592   0.13369
 Alpha virt. eigenvalues --    0.13642   0.13705   0.14203   0.14459   0.14502

 Mulliken charges:
               1
     1  C    0.236441
     2  C    0.236441
     3  C    0.450738
     4  C    0.450738
     5  C    0.450738
     6  C    0.450738
     7  F   -0.334526
     8  F   -0.334526
     9  H   -0.401695
    10  H   -0.401695
    11  H   -0.401695
    12  H   -0.401695
 Sum of Mulliken charges =   0.00000

 Dipole moment (field-independent basis, Debye):
    X=             -0.0000    Y=             -0.0000    Z=             -0.0000  Tot=              0.0000

 Test job not archived.
 1\1\GINC-SE085\SP\RHF\Aug-CC-pVDZ\C6H4F2\OHZDE\05-Apr-2025\0\\#t hf au
 g-cc-pvdz iop(5/13=1,5/36=2,99/5=2) pseudo=read geom=check guess=(read
 ,tcheck) scf=(maxcycle=1)\\title\\0,1\C,0,0.,0.,1.36304\C,0,0.,0.,-1.3
 6304\C,0,0.,1.211776,0.69521\C,0,0.,-1.211776,0.69521\C,0,0.,-1.211776
 ,-0.69521\C,0,0.,1.211776,-0.69521\F,0,0.,0.,2.715276\F,0,0.,0.,-2.715
 276\H,0,0.,2.134857,1.256229\H,0,0.,-2.134857,1.256229\H,0,0.,-2.13485
 7,-1.256229\H,0,0.,2.134857,-1.256229\\Version=ES64L-G16RevC.01\State=
 1-AG\HF=-428.5950407\RMSD=1.879e-02\Dipole=0.,0.,0.\Quadrupole=-0.8202

 Normal termination of Gaussian 16 at Sat Apr  5 23:08:41 2025.
