 Gaussian 16, Revision C.01,

 ----------------------------------------------------------------------
 #t hf aug-cc-pvdz symm=none int=(grid=ultrafine) guess=(read,tcheck) s
 table=(opt,rrhf)
 ----------------------------------------------------------------------
 -----
 title
 -----
 Symbolic Z-matrix:
 Charge =  0 Multiplicity = 1

 SCF Done:  E(RHF) =  -418.349327511     A.U. after   16 cycles
 Normal termination of Gaussian 16 at Sat Apr  5 23:09:33 2025.
 Gaussian 16:  ES64L-G16RevC.01  3-Jul-2019

 ----------------------------------------------------------------------
 #t hf aug-cc-pvdz iop(5/13=1,5/36=2,99/5=2) pseudo=read geom=check gue
 ss=(read,tcheck) scf=(maxcycle=1)
 ----------------------------------------------------------------------
 -----
 title
 -----
 Structure from the checkpoint file:  "p-formylphenol.chk"
 Charge =  0 Multiplicity = 1

                         Standard orientation:
 ---------------------------------------------------------------------
 Center     Atomic      Atomic             Coordinates (Angstroms)
 Number     Number       Type             X           Y           Z
 ---------------------------------------------------------------------
      1          6           0        1.264505    0.437243    0.000000
      2          6           0       -1.134314    0.204052    0.000000
      3          6           0        1.405404   -0.941236    0.000000
      4          6           0       -1.007552   -1.169144    0.000000
      5          6           0       -0.000000    1.026568    0.000000
      6          6           0        0.266706   -1.745847    0.000000
      7          6           0       -0.123034    2.491555    0.000000
      8          8           0       -1.167015    3.105905    0.000000
      9          8           0        0.332247   -3.103791    0.000000
     10          1           0        2.146215    1.066352    0.000000
     11          1           0       -2.110754    0.668386    0.000000
     12          1           0        2.389487   -1.394063    0.000000
     13          1           0       -1.872992   -1.816544    0.000000
     14          1           0        0.845206    3.032775    0.000000
     15          1           0        1.250697   -3.392963    0.000000
 ---------------------------------------------------------------------

 SCF Done:  E(RHF) =  -418.476226339     A.U. after    2 cycles

 The electronic state is 1-A'.
 Alpha  occ. eigenvalues --  -20.62693 -20.56493 -11.34416 -11.34184 -11.27900
 Alpha  occ. eigenvalues --  -11.26991 -11.26119 -11.25467 -11.25394  -1.39174
 Alpha  occ. eigenvalues --   -1.35197  -1.16573  -1.04358  -1.03722  -0.90215
 Alpha  occ. eigenvalues --   -0.86554  -0.81028  -0.76738  -0.70472  -0.70075
 Alpha  occ. eigenvalues --   -0.65084  -0.63636  -0.62795  -0.61907  -0.59895
 Alpha  occ. eigenvalues --   -0.57256  -0.56165  -0.51677  -0.49790  -0.43989
 Alpha  occ. eigenvalues --   -0.36780  -0.34161
 Alpha virt. eigenvalues --    0.02351   0.03734   0.04300   0.05529   0.06391
 Alpha virt. eigenvalues --    0.06512   0.07823   0.08514   0.09392   0.10198
 Alpha virt. eigenvalues --    0.11422   0.12686   0.12783   0.13206   0.13484

 Mulliken charges:
               1
     1  C    0.277351
     2  C    0.303976
     3  C    0.374073
     4  C    0.629764
     5  C    0.880474
     6  C    0.245855
     7  C    0.667754
     8  O   -0.509378
     9  O   -0.561446
    10  H   -0.559910
    11  H   -0.574075
    12  H   -0.568091
    13  H   -0.478010
    14  H   -0.274451
    15  H    0.146112
 Sum of Mulliken charges =  -0.00000

 Dipole moment (field-independent basis, Debye):
    X=              3.9729    Y=             -2.9780    Z=              0.0000  Tot=              4.9651

 Test job not archived.
 1\1\GINC-SE165\SP\RHF\Aug-CC-pVDZ\C7H6O2\OHZDE\05-Apr-2025\0\\#t hf au
 g-cc-pvdz iop(5/13=1,5/36=2,99/5=2) pseudo=read geom=check guess=(read
 ,tcheck) scf=(maxcycle=1)\\title\\0,1\C,0,1.264505,0.437243,0.\C,0,-1.
 134314,0.204052,0.\C,0,1.405404,-0.941236,0.\C,0,-1.007552,-1.169144,0
 .\C,0,0.,1.026568,0.\C,0,0.266706,-1.745847,0.\C,0,-0.123034,2.491555,
 0.\O,0,-1.167015,3.105905,0.\O,0,0.332247,-3.103791,0.\H,0,2.146215,1.
 066352,0.\H,0,-2.110754,0.668386,0.\H,0,2.389487,-1.394063,0.\H,0,-1.8
 72992,-1.816544,0.\H,0,0.845206,3.032775,0.\H,0,1.250697,-3.392963,0.\

 Normal termination of Gaussian 16 at Sat Apr  5 23:10:25 2025.
