 Gaussian 16, Revision C.01,

 ----------------------------------------------------------------------
 #t hf aug-cc-pvdz symm=none int=(grid=ultrafine) guess=(read,tcheck) s
 table=(opt,rrhf)
 ----------------------------------------------------------------------
 -----
 title
 -----
 Symbolic Z-matrix:
 Charge =  0 Multiplicity = 1

 SCF Done:  E(RHF) =  -399.662524824     A.U. after   15 cycles
 Normal termination of Gaussian 16 at Sat Apr  5 23:09:38 2025.
 Gaussian 16:  ES64L-G16RevC.01  3-Jul-2019

 ----------------------------------------------------------------------
 #t hf aug-cc-pvdz iop(5/13=1,5/36=2,99/5=2) pseudo=read geom=check gue
 ss=(read,tcheck) scf=(maxcycle=1)
 ----------------------------------------------------------------------
 -----
 title
 -----
 Structure from the checkpoint file:  "p-methoxyaniline.chk"
 Charge =  0 Multiplicity = 1

                         Standard orientation:
 ---------------------------------------------------------------------
 Center     Atomic      Atomic             Coordinates (Angstroms)
 Number     Number       Type             X           Y           Z
 ---------------------------------------------------------------------
      1          6           0        0.968305   -1.191866   -0.005659
      2          6           0        1.297498    1.177941   -0.005925
      3          6           0       -0.412677   -1.004932   -0.001215
      4          6           0       -0.072135    1.370804   -0.000176
      5          6           0        1.845461   -0.110566   -0.007083
      6          6           0       -0.943492    0.281050    0.001739
      7          6           0       -3.203619   -0.496341    0.002648
      8          7           0        3.234655   -0.299516   -0.075261
      9          8           0       -2.281512    0.577362    0.007741
     10          1           0        1.361714   -2.200914   -0.013324
     11          1           0        1.955088    2.038508   -0.014741
     12          1           0       -1.054456   -1.872710    0.000780
     13          1           0       -0.487426    2.369078    0.002544
     14          1           0       -3.093299   -1.125308    0.890843
     15          1           0       -3.093184   -1.116539   -0.891616
     16          1           0       -4.192458   -0.045145    0.004971
     17          1           0        3.556642   -1.185853    0.280103
     18          1           0        3.780840    0.460055    0.299362
 ---------------------------------------------------------------------

 SCF Done:  E(RHF) =  -399.785585550     A.U. after    2 cycles

 The electronic state is 1-A.
 Alpha  occ. eigenvalues --  -20.58894 -15.62474 -11.29458 -11.29033 -11.27819
 Alpha  occ. eigenvalues --  -11.23972 -11.23751 -11.23621 -11.23599  -1.35819
 Alpha  occ. eigenvalues --   -1.19106  -1.11290  -1.01290  -0.99256  -0.92800
 Alpha  occ. eigenvalues --   -0.84116  -0.80347  -0.72335  -0.69897  -0.68060
 Alpha  occ. eigenvalues --   -0.65889  -0.63556  -0.62043  -0.59096  -0.57211
 Alpha  occ. eigenvalues --   -0.55571  -0.53497  -0.52078  -0.50128  -0.48373
 Alpha  occ. eigenvalues --   -0.42773  -0.34291  -0.28062
 Alpha virt. eigenvalues --    0.03256   0.03700   0.04008   0.05374   0.05668
 Alpha virt. eigenvalues --    0.06056   0.07358   0.08336   0.09740   0.10497
 Alpha virt. eigenvalues --    0.10904   0.11562   0.12767   0.13634   0.13976

 Mulliken charges:
               1
     1  C    0.700689
     2  C    0.874378
     3  C    0.485795
     4  C    0.657533
     5  C    0.077463
     6  C    0.437179
     7  C    0.834531
     8  N   -0.313430
     9  O   -0.696753
    10  H   -0.573396
    11  H   -0.579344
    12  H   -0.733899
    13  H   -0.567152
    14  H   -0.099930
    15  H   -0.099111
    16  H   -0.312593
    17  H   -0.047777
    18  H   -0.044184
 Sum of Mulliken charges =  -0.00000

 Dipole moment (field-independent basis, Debye):
    X=              0.5526    Y=             -1.3806    Z=              1.0271  Tot=              1.8073

 Test job not archived.
 1\1\GINC-SE052\SP\RHF\Aug-CC-pVDZ\C7H9N1O1\OHZDE\05-Apr-2025\0\\#t hf
 aug-cc-pvdz iop(5/13=1,5/36=2,99/5=2) pseudo=read geom=check guess=(re
 ad,tcheck) scf=(maxcycle=1)\\title\\0,1\C,0,0.968305,-1.191866,-0.0056
 59\C,0,1.297498,1.177941,-0.005925\C,0,-0.412677,-1.004932,-0.001215\C
 ,0,-0.072135,1.370804,-0.000176\C,0,1.845461,-0.110566,-0.007083\C,0,-
 0.943492,0.28105,0.001739\C,0,-3.203619,-0.496341,0.002648\N,0,3.23465
 5,-0.299516,-0.075261\O,0,-2.281512,0.577362,0.007741\H,0,1.361714,-2.
 200914,-0.013324\H,0,1.955088,2.038508,-0.014741\H,0,-1.054456,-1.8727

 Normal termination of Gaussian 16 at Sat Apr  5 23:10:27 2025.
