 Gaussian 16, Revision C.01,

 ----------------------------------------------------------------------
 #t hf aug-cc-pvdz symm=none int=(grid=ultrafine) guess=(read,tcheck) s
 table=(opt,rrhf)
 ----------------------------------------------------------------------
 -----
 title
 -----
 Symbolic Z-matrix:
 Charge =  0 Multiplicity = 1

 SCF Done:  E(RHF) =  -457.371437396     A.U. after   16 cycles
 Normal termination of Gaussian 16 at Sat Apr  5 23:10:20 2025.
 Gaussian 16:  ES64L-G16RevC.01  3-Jul-2019

 ----------------------------------------------------------------------
 #t hf aug-cc-pvdz iop(5/13=1,5/36=2,99/5=2) pseudo=read geom=check gue
 ss=(read,tcheck) scf=(maxcycle=1)
 ----------------------------------------------------------------------
 -----
 title
 -----
 Structure from the checkpoint file:  "p-methoxybenzaldehyde.chk"
 Charge =  0 Multiplicity = 1

                         Standard orientation:
 ---------------------------------------------------------------------
 Center     Atomic      Atomic             Coordinates (Angstroms)
 Number     Number       Type             X           Y           Z
 ---------------------------------------------------------------------
      1          6           0        2.356270   -1.777173    0.000000
      2          8           0        3.482232   -1.329055    0.000000
      3          6           0        1.122819   -0.978189    0.000000
      4          6           0       -0.122816   -1.616318    0.000000
      5          6           0       -1.293641   -0.885835    0.000000
      6          6           0       -1.239473    0.512535    0.000000
      7          6           0        0.000000    1.164562    0.000000
      8          6           0        1.165300    0.417042    0.000000
      9          8           0       -2.435229    1.147852    0.000000
     10          6           0       -2.463378    2.570550    0.000000
     11          1           0        2.191197   -2.874062    0.000000
     12          1           0       -0.165916   -2.698728    0.000000
     13          1           0       -2.261088   -1.367425    0.000000
     14          1           0        0.057823    2.241984    0.000000
     15          1           0        2.129488    0.906789    0.000000
     16          1           0       -1.981978    2.976345    0.892234
     17          1           0       -1.981978    2.976345   -0.892234
     18          1           0       -3.514049    2.845335    0.000000
 ---------------------------------------------------------------------

 SCF Done:  E(RHF) =  -457.512253573     A.U. after    2 cycles

 The electronic state is 1-A'.
 Alpha  occ. eigenvalues --  -20.61760 -20.56208 -11.34137 -11.33612 -11.30993
 Alpha  occ. eigenvalues --  -11.27162 -11.26825 -11.25506 -11.25078 -11.24968
 Alpha  occ. eigenvalues --   -1.38963  -1.34890  -1.16224  -1.04807  -1.03615
 Alpha  occ. eigenvalues --   -0.96858  -0.88238  -0.84939  -0.79548  -0.74602
 Alpha  occ. eigenvalues --   -0.70898  -0.68519  -0.68221  -0.64727  -0.64299
 Alpha  occ. eigenvalues --   -0.61405  -0.59717  -0.57402  -0.56436  -0.54540
 Alpha  occ. eigenvalues --   -0.54042  -0.50339  -0.48517  -0.43705  -0.36394
 Alpha  occ. eigenvalues --   -0.33496
 Alpha virt. eigenvalues --    0.02841   0.03647   0.04269   0.05196   0.05330
 Alpha virt. eigenvalues --    0.06110   0.06635   0.07405   0.08749   0.09076
 Alpha virt. eigenvalues --    0.09124   0.10089   0.11583   0.12696   0.12817

 Mulliken charges:
               1
     1  C    0.756851
     2  O   -0.526659
     3  C    0.746901
     4  C    0.582087
     5  C    0.513504
     6  C    0.328402
     7  C    0.680798
     8  C   -0.034982
     9  O   -0.666572
    10  C    0.847619
    11  H   -0.279046
    12  H   -0.593012
    13  H   -0.573071
    14  H   -0.728240
    15  H   -0.580434
    16  H   -0.082185
    17  H   -0.082185
    18  H   -0.309776
 Sum of Mulliken charges =  -0.00000

 Dipole moment (field-independent basis, Debye):
    X=             -3.9049    Y=              1.5576    Z=              0.0000  Tot=              4.2041

 Test job not archived.
 1\1\GINC-SE042\SP\RHF\Aug-CC-pVDZ\C8H8O2\OHZDE\05-Apr-2025\0\\#t hf au
 g-cc-pvdz iop(5/13=1,5/36=2,99/5=2) pseudo=read geom=check guess=(read
 ,tcheck) scf=(maxcycle=1)\\title\\0,1\C,0,2.35627,-1.777173,0.\O,0,3.4
 82232,-1.329055,0.\C,0,1.122819,-0.978189,0.\C,0,-0.122816,-1.616318,0
 .\C,0,-1.293641,-0.885835,0.\C,0,-1.239473,0.512535,0.\C,0,0.,1.164562
 ,0.\C,0,1.1653,0.417042,0.\O,0,-2.435229,1.147852,0.\C,0,-2.463378,2.5
 7055,0.\H,0,2.191197,-2.874062,0.\H,0,-0.165916,-2.698728,0.\H,0,-2.26
 1088,-1.367425,0.\H,0,0.057823,2.241984,0.\H,0,2.129488,0.906789,0.\H,

 Normal termination of Gaussian 16 at Sat Apr  5 23:10:29 2025.
