 Gaussian 16, Revision C.01,

 ----------------------------------------------------------------------
 #t hf aug-cc-pvdz symm=none int=(grid=ultrafine) guess=(read,tcheck) s
 table=(opt,rrhf)
 ----------------------------------------------------------------------
 -----
 title
 -----
 Symbolic Z-matrix:
 Charge =  0 Multiplicity = 1

 SCF Done:  E(RHF) =  -489.280346284     A.U. after   15 cycles
 Normal termination of Gaussian 16 at Sat Apr  5 23:09:49 2025.
 Gaussian 16:  ES64L-G16RevC.01  3-Jul-2019

 ----------------------------------------------------------------------
 #t hf aug-cc-pvdz iop(5/13=1,5/36=2,99/5=2) pseudo=read geom=check gue
 ss=(read,tcheck) scf=(maxcycle=1)
 ----------------------------------------------------------------------
 -----
 title
 -----
 Structure from the checkpoint file:  "p-nitroaniline.chk"
 Charge =  0 Multiplicity = 1

                         Standard orientation:
 ---------------------------------------------------------------------
 Center     Atomic      Atomic             Coordinates (Angstroms)
 Number     Number       Type             X           Y           Z
 ---------------------------------------------------------------------
      1          6           0       -0.002527   -1.360148    1.209015
      2          6           0       -0.002527   -1.360148   -1.209015
      3          6           0       -0.002527    0.019496    1.209747
      4          6           0       -0.002527    0.019496   -1.209747
      5          6           0       -0.001512   -2.076412    0.000000
      6          6           0       -0.002390    0.706727   -0.000000
      7          7           0       -0.043718   -3.450313    0.000000
      8          7           0       -0.000096    2.164119   -0.000000
      9          8           0        0.000905    2.738949    1.083563
     10          8           0        0.000905    2.738949   -1.083563
     11          1           0       -0.005983   -1.897716    2.148203
     12          1           0       -0.005983   -1.897716   -2.148203
     13          1           0       -0.001593    0.575824    2.134036
     14          1           0       -0.001593    0.575824   -2.134036
     15          1           0        0.195712   -3.935056    0.846913
     16          1           0        0.195712   -3.935056   -0.846913
 ---------------------------------------------------------------------

 SCF Done:  E(RHF) =  -489.426242010     A.U. after    2 cycles

 The electronic state is 1-A'.
 Alpha  occ. eigenvalues --  -20.60400 -20.60391 -15.90918 -15.66299 -11.33143
 Alpha  occ. eigenvalues --  -11.29867 -11.28333 -11.28330 -11.26141 -11.26140
 Alpha  occ. eigenvalues --   -1.53677  -1.35070  -1.23553  -1.16694  -1.05891
 Alpha  occ. eigenvalues --   -1.04572  -0.93544  -0.87405  -0.82535  -0.77990
 Alpha  occ. eigenvalues --   -0.74089  -0.73151  -0.71583  -0.71433  -0.64971
 Alpha  occ. eigenvalues --   -0.63507  -0.62422  -0.59575  -0.56688  -0.52746
 Alpha  occ. eigenvalues --   -0.50386  -0.50204  -0.48180  -0.46480  -0.37497
 Alpha  occ. eigenvalues --   -0.32897
 Alpha virt. eigenvalues --    0.01963   0.02997   0.04212   0.04624   0.05609
 Alpha virt. eigenvalues --    0.06417   0.08509   0.09040   0.10153   0.10383
 Alpha virt. eigenvalues --    0.12252   0.12765   0.12830   0.13198   0.13572

 Mulliken charges:
               1
     1  C    0.703513
     2  C    0.703513
     3  C    0.298156
     4  C    0.298156
     5  C    0.246888
     6  C    1.152165
     7  N   -0.202992
     8  N    0.149106
     9  O   -0.588632
    10  O   -0.588632
    11  H   -0.576050
    12  H   -0.576050
    13  H   -0.466680
    14  H   -0.466680
    15  H   -0.042890
    16  H   -0.042890
 Sum of Mulliken charges =  -0.00000

 Dipole moment (field-independent basis, Debye):
    X=              0.6971    Y=             -7.5806    Z=              0.0000  Tot=              7.6126

 Test job not archived.
 1\1\GINC-SE085\SP\RHF\Aug-CC-pVDZ\C6H6N2O2\OHZDE\05-Apr-2025\0\\#t hf
 aug-cc-pvdz iop(5/13=1,5/36=2,99/5=2) pseudo=read geom=check guess=(re
 ad,tcheck) scf=(maxcycle=1)\\title\\0,1\C,0,-0.002527,-1.360148,1.2090
 15\C,0,-0.002527,-1.360148,-1.209015\C,0,-0.002527,0.019496,1.209747\C
 ,0,-0.002527,0.019496,-1.209747\C,0,-0.001512,-2.076412,0.\C,0,-0.0023
 9,0.706727,0.\N,0,-0.043718,-3.450313,0.\N,0,-0.000096,2.164119,0.\O,0
 ,0.000905,2.738949,1.083563\O,0,0.000905,2.738949,-1.083563\H,0,-0.005
 983,-1.897716,2.148203\H,0,-0.005983,-1.897716,-2.148203\H,0,-0.001593

 Normal termination of Gaussian 16 at Sat Apr  5 23:10:24 2025.
