 Gaussian 16, Revision C.01,

 ----------------------------------------------------------------------
 #t hf aug-cc-pvdz symm=none int=(grid=ultrafine) guess=(read,tcheck) s
 table=(opt,rrhf)
 ----------------------------------------------------------------------
 -----
 title
 -----
 Symbolic Z-matrix:
 Charge =  0 Multiplicity = 1

 SCF Done:  E(RHF) =  -324.810139067     A.U. after   15 cycles
 Normal termination of Gaussian 16 at Sat Apr  5 23:09:35 2025.
 Gaussian 16:  ES64L-G16RevC.01  3-Jul-2019

 ----------------------------------------------------------------------
 #t hf aug-cc-pvdz iop(5/13=1,5/36=2,99/5=2) pseudo=read geom=check gue
 ss=(read,tcheck) scf=(maxcycle=1)
 ----------------------------------------------------------------------
 -----
 title
 -----
 Structure from the checkpoint file:  "p-toluidine.chk"
 Charge =  0 Multiplicity = 1

                         Standard orientation:
 ---------------------------------------------------------------------
 Center     Atomic      Atomic             Coordinates (Angstroms)
 Number     Number       Type             X           Y           Z
 ---------------------------------------------------------------------
      1          6           0        0.669588    1.190338   -0.009937
      2          6           0        0.669666   -1.190178   -0.009924
      3          6           0       -0.718186    1.198300    0.003054
      4          6           0       -0.717909   -1.198256    0.003081
      5          6           0        1.396835    0.000223   -0.013482
      6          6           0       -1.437175    0.000049    0.010600
      7          6           0        2.903547   -0.000073    0.006732
      8          7           0       -2.833422   -0.000219    0.080437
      9          1           0        1.197270    2.136416   -0.020466
     10          1           0        1.197417   -2.136238   -0.020449
     11          1           0       -1.250749    2.141644    0.007895
     12          1           0       -1.250429   -2.141628    0.007947
     13          1           0        3.308495   -0.870548   -0.510365
     14          1           0        3.307829    0.891793   -0.472804
     15          1           0        3.289746   -0.021962    1.029503
     16          1           0       -3.281770   -0.834223   -0.262806
     17          1           0       -3.282044    0.833864   -0.262259
 ---------------------------------------------------------------------

 SCF Done:  E(RHF) =  -324.907924910     A.U. after    2 cycles

 The electronic state is 1-A.
 Alpha  occ. eigenvalues --  -15.62648 -11.28190 -11.23716 -11.23704 -11.23242
 Alpha  occ. eigenvalues --  -11.23011 -11.23002 -11.22694  -1.19306  -1.11889
 Alpha  occ. eigenvalues --   -1.01333  -1.00408  -0.91375  -0.83407  -0.79388
 Alpha  occ. eigenvalues --   -0.69863  -0.68919  -0.63703  -0.60752  -0.59073
 Alpha  occ. eigenvalues --   -0.58289  -0.57163  -0.53412  -0.52548  -0.49910
 Alpha  occ. eigenvalues --   -0.48338  -0.43578  -0.33756  -0.28605
 Alpha virt. eigenvalues --    0.03238   0.03930   0.03964   0.05394   0.05649
 Alpha virt. eigenvalues --    0.06082   0.07607   0.08351   0.09932   0.10532
 Alpha virt. eigenvalues --    0.11359   0.11462   0.13656   0.13676   0.13960

 Mulliken charges:
               1
     1  C    0.660857
     2  C    0.659156
     3  C    0.572328
     4  C    0.574482
     5  C   -0.159679
     6  C    0.084166
     7  C    0.439628
     8  N   -0.302087
     9  H   -0.574663
    10  H   -0.575222
    11  H   -0.592055
    12  H   -0.592377
    13  H   -0.084371
    14  H   -0.096802
    15  H    0.074381
    16  H   -0.043958
    17  H   -0.043782
 Sum of Mulliken charges =   0.00000

 Dipole moment (field-independent basis, Debye):
    X=             -0.7304    Y=             -0.0027    Z=             -0.9563  Tot=              1.2033

 Test job not archived.
 1\1\GINC-SE164\SP\RHF\Aug-CC-pVDZ\C7H9N1\OHZDE\05-Apr-2025\0\\#t hf au
 g-cc-pvdz iop(5/13=1,5/36=2,99/5=2) pseudo=read geom=check guess=(read
 ,tcheck) scf=(maxcycle=1)\\title\\0,1\C,0,0.669588,1.190338,-0.009937\
 C,0,0.669666,-1.190178,-0.009924\C,0,-0.718186,1.1983,0.003054\C,0,-0.
 717909,-1.198256,0.003081\C,0,1.396835,0.000223,-0.013482\C,0,-1.43717
 5,0.000049,0.0106\C,0,2.903547,-0.000073,0.006732\N,0,-2.833422,-0.000
 219,0.080437\H,0,1.19727,2.136416,-0.020466\H,0,1.197417,-2.136238,-0.
 020449\H,0,-1.250749,2.141644,0.007895\H,0,-1.250429,-2.141628,0.00794

 Normal termination of Gaussian 16 at Sat Apr  5 23:10:25 2025.
