 Gaussian 16, Revision C.01,

 ----------------------------------------------------------------------
 #t hf aug-cc-pvdz symm=none int=(grid=ultrafine) guess=(read,tcheck) s
 table=(opt,rrhf)
 ----------------------------------------------------------------------
 -----
 title
 -----
 Symbolic Z-matrix:
 Charge =  0 Multiplicity = 1

 SCF Done:  E(RHF) =  -308.809040618     A.U. after   14 cycles
 Normal termination of Gaussian 16 at Sat Apr  5 23:09:40 2025.
 Gaussian 16:  ES64L-G16RevC.01  3-Jul-2019

 ----------------------------------------------------------------------
 #t hf aug-cc-pvdz iop(5/13=1,5/36=2,99/5=2) pseudo=read geom=check gue
 ss=(read,tcheck) scf=(maxcycle=1)
 ----------------------------------------------------------------------
 -----
 title
 -----
 Structure from the checkpoint file:  "p-xylene.chk"
 Charge =  0 Multiplicity = 1

                         Standard orientation:
 ---------------------------------------------------------------------
 Center     Atomic      Atomic             Coordinates (Angstroms)
 Number     Number       Type             X           Y           Z
 ---------------------------------------------------------------------
      1          6           0       -0.006126    0.695514    1.193928
      2          6           0        0.006126   -0.695514    1.193928
      3          6           0       -0.005956    0.693932   -1.191741
      4          6           0        0.005956   -0.693932   -1.191741
      5          6           0       -0.010665    1.417282    0.002438
      6          6           0        0.010665   -1.417282    0.002438
      7          6           0        0.005956    2.923660   -0.002240
      8          6           0       -0.005956   -2.923660   -0.002240
      9          1           0       -0.011287    1.226083    2.138293
     10          1           0        0.011287   -1.226083    2.138293
     11          1           0       -0.010880    1.224834   -2.136140
     12          1           0        0.010880   -1.224834   -2.136140
     13          1           0       -0.642816    3.326662   -0.780885
     14          1           0       -0.324391    3.327444    0.954402
     15          1           0        1.012311    3.306699   -0.189982
     16          1           0        0.642816   -3.326662   -0.780885
     17          1           0        0.324391   -3.327444    0.954402
     18          1           0       -1.012311   -3.306699   -0.189982
 ---------------------------------------------------------------------

 SCF Done:  E(RHF) =  -308.902891149     A.U. after    2 cycles

 The electronic state is 1-A.
 Alpha  occ. eigenvalues --  -11.24290 -11.24281 -11.23547 -11.23505 -11.23431
 Alpha  occ. eigenvalues --  -11.23395 -11.23086 -11.23085  -1.14437  -1.05348
 Alpha  occ. eigenvalues --   -1.00327  -0.96920  -0.89333  -0.82745  -0.78426
 Alpha  occ. eigenvalues --   -0.67204  -0.64949  -0.62764  -0.58217  -0.58007
 Alpha  occ. eigenvalues --   -0.57038  -0.55692  -0.55293  -0.52610  -0.48535
 Alpha  occ. eigenvalues --   -0.48123  -0.47811  -0.33554  -0.31555
 Alpha virt. eigenvalues --    0.03571   0.03764   0.04224   0.05400   0.05617
 Alpha virt. eigenvalues --    0.05856   0.06405   0.07463   0.08086   0.09861
 Alpha virt. eigenvalues --    0.10177   0.10627   0.11946   0.12347   0.13827

 Mulliken charges:
               1
     1  C    0.317002
     2  C    0.317002
     3  C    0.305176
     4  C    0.305176
     5  C    0.062965
     6  C    0.062965
     7  C    0.552650
     8  C    0.552650
     9  H   -0.592969
    10  H   -0.592969
    11  H   -0.603147
    12  H   -0.603147
    13  H   -0.015528
    14  H   -0.130873
    15  H    0.104725
    16  H   -0.015528
    17  H   -0.130873
    18  H    0.104725
 Sum of Mulliken charges =  -0.00000

 Dipole moment (field-independent basis, Debye):
    X=             -0.0000    Y=             -0.0000    Z=             -0.0372  Tot=              0.0372

 Test job not archived.
 1\1\GINC-SE180\SP\RHF\Aug-CC-pVDZ\C8H10\OHZDE\05-Apr-2025\0\\#t hf aug
 -cc-pvdz iop(5/13=1,5/36=2,99/5=2) pseudo=read geom=check guess=(read,
 tcheck) scf=(maxcycle=1)\\title\\0,1\C,0,-0.006126,0.695514,1.193928\C
 ,0,0.006126,-0.695514,1.193928\C,0,-0.005956,0.693932,-1.191741\C,0,0.
 005956,-0.693932,-1.191741\C,0,-0.010665,1.417282,0.002438\C,0,0.01066
 5,-1.417282,0.002438\C,0,0.005956,2.92366,-0.00224\C,0,-0.005956,-2.92
 366,-0.00224\H,0,-0.011287,1.226083,2.138293\H,0,0.011287,-1.226083,2.
 138293\H,0,-0.01088,1.224834,-2.13614\H,0,0.01088,-1.224834,-2.13614\H

 Normal termination of Gaussian 16 at Sat Apr  5 23:10:24 2025.
