 Gaussian 16, Revision C.01,

 ----------------------------------------------------------------------
 #t hf aug-cc-pvdz symm=none int=(grid=ultrafine) guess=(read,tcheck) s
 table=(opt,rrhf)
 ----------------------------------------------------------------------
 -----
 title
 -----
 Symbolic Z-matrix:
 Charge =  0 Multiplicity = 1

 SCF Done:  E(RHF) =  -725.013539886     A.U. after   14 cycles
 Normal termination of Gaussian 16 at Sat Apr  5 23:09:16 2025.
 Gaussian 16:  ES64L-G16RevC.01  3-Jul-2019

 ----------------------------------------------------------------------
 #t hf aug-cc-pvdz iop(5/13=1,5/36=2,99/5=2) pseudo=read geom=check gue
 ss=(read,tcheck) scf=(maxcycle=1)
 ----------------------------------------------------------------------
 -----
 title
 -----
 Structure from the checkpoint file:  "pentafluorobenzene.chk"
 Charge =  0 Multiplicity = 1

                         Standard orientation:
 ---------------------------------------------------------------------
 Center     Atomic      Atomic             Coordinates (Angstroms)
 Number     Number       Type             X           Y           Z
 ---------------------------------------------------------------------
      1          6           0        0.000000   -0.000000    1.114207
      2          6           0        0.000000    1.205172    0.423331
      3          6           0        0.000000    1.190132   -0.964430
      4          6           0       -0.000000    0.000000   -1.669598
      5          6           0       -0.000000   -1.190132   -0.964430
      6          6           0       -0.000000   -1.205172    0.423331
      7          9           0        0.000000   -0.000000    2.445370
      8          9           0        0.000000    2.356848    1.095325
      9          9           0        0.000000    2.356407   -1.619428
     10          1           0       -0.000000    0.000000   -2.748927
     11          9           0       -0.000000   -2.356407   -1.619428
     12          9           0       -0.000000   -2.356848    1.095325
 ---------------------------------------------------------------------

 SCF Done:  E(RHF) =  -725.261811811     A.U. after    2 cycles

 The electronic state is 1-A1.
 Alpha  occ. eigenvalues --  -26.18336 -26.17814 -26.17811 -26.17714 -26.17712
 Alpha  occ. eigenvalues --  -11.39767 -11.39194 -11.39191 -11.38725 -11.38718
 Alpha  occ. eigenvalues --  -11.30119  -1.72993  -1.72295  -1.72000  -1.71353
 Alpha  occ. eigenvalues --   -1.71192  -1.22408  -1.09366  -1.09138  -0.96100
 Alpha  occ. eigenvalues --   -0.95746  -0.87949  -0.87433  -0.86193  -0.81929
 Alpha  occ. eigenvalues --   -0.81523  -0.81503  -0.79927  -0.79783  -0.79220
 Alpha  occ. eigenvalues --   -0.78051  -0.77769  -0.76225  -0.75930  -0.72741
 Alpha  occ. eigenvalues --   -0.67598  -0.63396  -0.62259  -0.55807  -0.39921
 Alpha  occ. eigenvalues --   -0.39076
 Alpha virt. eigenvalues --    0.03193   0.06141   0.07025   0.07553   0.08846
 Alpha virt. eigenvalues --    0.08961   0.09624   0.10005   0.10860   0.12727
 Alpha virt. eigenvalues --    0.12821   0.13120   0.14177   0.14495   0.15501

 Mulliken charges:
               1
     1  C    0.465642
     2  C    0.186633
     3  C    0.328885
     4  C    0.137484
     5  C    0.328885
     6  C    0.186633
     7  F   -0.267967
     8  F   -0.207327
     9  F   -0.296551
    10  H   -0.358439
    11  F   -0.296551
    12  F   -0.207327
 Sum of Mulliken charges =  -0.00000

 Dipole moment (field-independent basis, Debye):
    X=              0.0000    Y=             -0.0000    Z=             -1.9732  Tot=              1.9732

 Test job not archived.
 1\1\GINC-SE198\SP\RHF\Aug-CC-pVDZ\C6H1F5\OHZDE\05-Apr-2025\0\\#t hf au
 g-cc-pvdz iop(5/13=1,5/36=2,99/5=2) pseudo=read geom=check guess=(read
 ,tcheck) scf=(maxcycle=1)\\title\\0,1\C,0,0.,0.,1.114207\C,0,0.,1.2051
 72,0.423331\C,0,0.,1.190132,-0.96443\C,0,0.,0.,-1.669598\C,0,0.,-1.190
 132,-0.96443\C,0,0.,-1.205172,0.423331\F,0,0.,0.,2.44537\F,0,0.,2.3568
 48,1.095325\F,0,0.,2.356407,-1.619428\H,0,0.,0.,-2.748927\F,0,0.,-2.35
 6407,-1.619428\F,0,0.,-2.356848,1.095325\\Version=ES64L-G16RevC.01\Sta
 te=1-A1\HF=-725.2618118\RMSD=3.009e-02\Dipole=0.,0.,-0.776315\Quadrupo

 Normal termination of Gaussian 16 at Sat Apr  5 23:10:25 2025.
