 Gaussian 16, Revision C.01,

 ----------------------------------------------------------------------
 #t hf aug-cc-pvdz symm=none int=(grid=ultrafine) guess=(read,tcheck) s
 table=(opt,rrhf)
 ----------------------------------------------------------------------
 -----
 title
 -----
 Symbolic Z-matrix:
 Charge =  0 Multiplicity = 1

 SCF Done:  E(RHF) =  -246.662552288     A.U. after   13 cycles
 Normal termination of Gaussian 16 at Sat Apr  5 23:09:16 2025.
 Gaussian 16:  ES64L-G16RevC.01  3-Jul-2019

 ----------------------------------------------------------------------
 #t hf aug-cc-pvdz iop(5/13=1,5/36=2,99/5=2) pseudo=read geom=check gue
 ss=(read,tcheck) scf=(maxcycle=1)
 ----------------------------------------------------------------------
 -----
 title
 -----
 Structure from the checkpoint file:  "pent-3-ynenitrile.chk"
 Charge =  0 Multiplicity = 1

                         Standard orientation:
 ---------------------------------------------------------------------
 Center     Atomic      Atomic             Coordinates (Angstroms)
 Number     Number       Type             X           Y           Z
 ---------------------------------------------------------------------
      1          6           0        1.101422    1.086436    0.000000
      2          6           0        0.000000    0.612760    0.000000
      3          6           0       -1.353510   -1.424068    0.000000
      4          6           0        2.441080    1.653556    0.000000
      5          6           0       -1.345349    0.043042    0.000000
      6          7           0       -1.379143   -2.572655    0.000000
      7          1           0        2.603677    2.273574    0.882742
      8          1           0        3.194285    0.864356    0.000000
      9          1           0        2.603677    2.273574   -0.882742
     10          1           0       -1.904748    0.383361   -0.875875
     11          1           0       -1.904748    0.383361    0.875875
 ---------------------------------------------------------------------

 SCF Done:  E(RHF) =  -246.739609341     A.U. after    2 cycles

 The electronic state is 1-A'.
 Alpha  occ. eigenvalues --  -15.64231 -11.32480 -11.29404 -11.27029 -11.26156
 Alpha  occ. eigenvalues --  -11.25473  -1.20112  -1.09887  -1.04412  -0.95660
 Alpha  occ. eigenvalues --   -0.73657  -0.69009  -0.65711  -0.63911  -0.60400
 Alpha  occ. eigenvalues --   -0.60359  -0.55068  -0.47208  -0.46907  -0.40054
 Alpha  occ. eigenvalues --   -0.39548
 Alpha virt. eigenvalues --    0.02741   0.03424   0.04610   0.05747   0.06251
 Alpha virt. eigenvalues --    0.08019   0.08581   0.11736   0.11931   0.12104
 Alpha virt. eigenvalues --    0.13082   0.13165   0.14931   0.15265   0.15343

 Mulliken charges:
               1
     1  C   -0.819104
     2  C   -0.287605
     3  C   -0.159661
     4  C    0.198229
     5  C    0.276487
     6  N   -0.207564
     7  H    0.154095
     8  H    0.157849
     9  H    0.154095
    10  H    0.266589
    11  H    0.266589
 Sum of Mulliken charges =  -0.00000

 Dipole moment (field-independent basis, Debye):
    X=              0.8051    Y=              4.2753    Z=             -0.0000  Tot=              4.3505

 Test job not archived.
 1\1\GINC-SE194\SP\RHF\Aug-CC-pVDZ\C5H5N1\OHZDE\05-Apr-2025\0\\#t hf au
 g-cc-pvdz iop(5/13=1,5/36=2,99/5=2) pseudo=read geom=check guess=(read
 ,tcheck) scf=(maxcycle=1)\\title\\0,1\C,0,1.101422,1.086436,0.\C,0,0.,
 0.61276,0.\C,0,-1.35351,-1.424068,0.\C,0,2.44108,1.653556,0.\C,0,-1.34
 5349,0.043042,0.\N,0,-1.379143,-2.572655,0.\H,0,2.603677,2.273574,0.88
 2742\H,0,3.194285,0.864356,0.\H,0,2.603677,2.273574,-0.882742\H,0,-1.9
 04748,0.383361,-0.875875\H,0,-1.904748,0.383361,0.875875\\Version=ES64
 L-G16RevC.01\State=1-A'\HF=-246.7396093\RMSD=9.451e-03\Dipole=0.316746

 Normal termination of Gaussian 16 at Sat Apr  5 23:10:22 2025.
