 Gaussian 16, Revision C.01,

 ----------------------------------------------------------------------
 #t hf aug-cc-pvdz symm=none int=(grid=ultrafine) guess=(read,tcheck) s
 table=(opt,rrhf)
 ----------------------------------------------------------------------
 -----
 title
 -----
 Symbolic Z-matrix:
 Charge =  0 Multiplicity = 1

 SCF Done:  E(RHF) =  -425.924222364     A.U. after   14 cycles
 Normal termination of Gaussian 16 at Sat Apr  5 23:12:35 2025.
 Gaussian 16:  ES64L-G16RevC.01  3-Jul-2019

 ----------------------------------------------------------------------
 #t hf aug-cc-pvdz iop(5/13=1,5/36=2,99/5=2) pseudo=read geom=check gue
 ss=(read,tcheck) scf=(maxcycle=1)
 ----------------------------------------------------------------------
 -----
 title
 -----
 Structure from the checkpoint file:  "pentylbenzene.chk"
 Charge =  0 Multiplicity = 1

                         Standard orientation:
 ---------------------------------------------------------------------
 Center     Atomic      Atomic             Coordinates (Angstroms)
 Number     Number       Type             X           Y           Z
 ---------------------------------------------------------------------
      1          6           0        0.900306   -3.825697   -0.000000
      2          6           0        0.901539   -3.124972    1.200332
      3          6           0        0.901539   -3.124972   -1.200332
      4          6           0        0.901539   -1.735317    1.197099
      5          6           0        0.901539   -1.735317   -1.197099
      6          6           0        0.899114   -1.017757   -0.000000
      7          6           0       -2.041142    4.699080    0.000000
      8          6           0        0.860460    0.490669    0.000000
      9          6           0       -2.015889    3.171462    0.000000
     10          6           0       -0.566581    1.063132    0.000000
     11          6           0       -0.600850    2.591122    0.000000
     12          1           0        0.903787   -4.907472   -0.000000
     13          1           0        0.907522   -3.660707    2.140621
     14          1           0        0.907522   -3.660707   -2.140621
     15          1           0        0.909093   -1.198296    2.138067
     16          1           0        0.909093   -1.198296   -2.138067
     17          1           0       -1.536298    5.101628   -0.880619
     18          1           0       -3.062669    5.081774    0.000000
     19          1           0       -1.536298    5.101628    0.880619
     20          1           0        1.394032    0.869083    0.875785
     21          1           0        1.394032    0.869083   -0.875785
     22          1           0       -2.557854    2.797729    0.873851
     23          1           0       -2.557854    2.797729   -0.873851
     24          1           0       -1.103777    0.683533    0.873971
     25          1           0       -1.103777    0.683533   -0.873971
     26          1           0       -0.058001    2.965583    0.874525
     27          1           0       -0.058001    2.965583   -0.874525
 ---------------------------------------------------------------------

 SCF Done:  E(RHF) =  -426.053872611     A.U. after    2 cycles

 The electronic state is 1-A'.
 Alpha  occ. eigenvalues --  -11.24497 -11.24065 -11.24048 -11.23680 -11.23598
 Alpha  occ. eigenvalues --  -11.23591 -11.23347 -11.22736 -11.22618 -11.22491
 Alpha  occ. eigenvalues --  -11.22088  -1.14457  -1.07833  -1.04003  -1.00612
 Alpha  occ. eigenvalues --   -0.98727  -0.91671  -0.83790  -0.82653  -0.79250
 Alpha  occ. eigenvalues --   -0.78739  -0.69687  -0.65867  -0.63517  -0.63313
 Alpha  occ. eigenvalues --   -0.59704  -0.59083  -0.58410  -0.56970  -0.56466
 Alpha  occ. eigenvalues --   -0.52923  -0.51361  -0.50601  -0.49361  -0.48669
 Alpha  occ. eigenvalues --   -0.47662  -0.46726  -0.46388  -0.45297  -0.33709
 Alpha  occ. eigenvalues --   -0.32629
 Alpha virt. eigenvalues --    0.03402   0.03801   0.03978   0.04401   0.04953
 Alpha virt. eigenvalues --    0.05190   0.06291   0.06428   0.06660   0.07108
 Alpha virt. eigenvalues --    0.07737   0.08219   0.09318   0.09347   0.09486

 Mulliken charges:
               1
     1  C    0.683695
     2  C    0.120238
     3  C    0.120238
     4  C    0.483655
     5  C    0.483655
     6  C    0.794027
     7  C    0.551823
     8  C    0.736891
     9  C    0.344132
    10  C   -0.048174
    11  C    0.141005
    12  H   -0.444008
    13  H   -0.452844
    14  H   -0.452844
    15  H   -0.649863
    16  H   -0.649863
    17  H   -0.089340
    18  H   -0.066889
    19  H   -0.089340
    20  H   -0.213439
    21  H   -0.213439
    22  H   -0.150622
    23  H   -0.150622
    24  H   -0.228196
    25  H   -0.228196
    26  H   -0.165840
    27  H   -0.165840
 Sum of Mulliken charges =  -0.00000

 Dipole moment (field-independent basis, Debye):
    X=             -0.1721    Y=              0.4397    Z=             -0.0000  Tot=              0.4722

 Test job not archived.
 1\1\GINC-SE045\SP\RHF\Aug-CC-pVDZ\C11H16\OHZDE\05-Apr-2025\0\\#t hf au
 g-cc-pvdz iop(5/13=1,5/36=2,99/5=2) pseudo=read geom=check guess=(read
 ,tcheck) scf=(maxcycle=1)\\title\\0,1\C,0,0.900306,-3.825697,0.\C,0,0.
 901539,-3.124972,1.200332\C,0,0.901539,-3.124972,-1.200332\C,0,0.90153
 9,-1.735317,1.197099\C,0,0.901539,-1.735317,-1.197099\C,0,0.899114,-1.
 017757,0.\C,0,-2.041142,4.69908,0.\C,0,0.86046,0.490669,0.\C,0,-2.0158
 89,3.171462,0.\C,0,-0.566581,1.063132,0.\C,0,-0.60085,2.591122,0.\H,0,
 0.903787,-4.907472,0.\H,0,0.907522,-3.660707,2.140621\H,0,0.907522,-3.

 Normal termination of Gaussian 16 at Sat Apr  5 23:12:48 2025.
