 Gaussian 16, Revision C.01,

 ----------------------------------------------------------------------
 #t hf aug-cc-pvdz symm=none int=(grid=ultrafine) guess=(read,tcheck) s
 table=(opt,rrhf)
 ----------------------------------------------------------------------
 -----
 title
 -----
 Symbolic Z-matrix:
 Charge =  0 Multiplicity = 1

 SCF Done:  E(RHF) =  -249.061077228     A.U. after   14 cycles
 Normal termination of Gaussian 16 at Sat Apr  5 23:09:18 2025.
 Gaussian 16:  ES64L-G16RevC.01  3-Jul-2019

 ----------------------------------------------------------------------
 #t hf aug-cc-pvdz iop(5/13=1,5/36=2,99/5=2) pseudo=read geom=check gue
 ss=(read,tcheck) scf=(maxcycle=1)
 ----------------------------------------------------------------------
 -----
 title
 -----
 Structure from the checkpoint file:  "pentanenitrile.chk"
 Charge =  0 Multiplicity = 1

                         Standard orientation:
 ---------------------------------------------------------------------
 Center     Atomic      Atomic             Coordinates (Angstroms)
 Number     Number       Type             X           Y           Z
 ---------------------------------------------------------------------
      1          6           0       -1.381391   -1.674027    0.000000
      2          6           0        1.469740    2.485294    0.000000
      3          6           0       -0.027455   -1.130038    0.000000
      4          6           0        1.425482    0.958648    0.000000
      5          6           0        0.000000    0.407830    0.000000
      6          7           0       -2.455764   -2.084510    0.000000
      7          1           0        0.971625    2.894129    0.880933
      8          1           0        2.497069    2.850311    0.000000
      9          1           0        0.971625    2.894129   -0.880933
     10          1           0        0.496473   -1.517892   -0.876678
     11          1           0        0.496473   -1.517892    0.876678
     12          1           0        1.960400    0.577288   -0.874787
     13          1           0        1.960400    0.577288    0.874787
     14          1           0       -0.540986    0.773987   -0.875086
     15          1           0       -0.540986    0.773987    0.875086
 ---------------------------------------------------------------------

 SCF Done:  E(RHF) =  -249.138866888     A.U. after    2 cycles

 The electronic state is 1-A'.
 Alpha  occ. eigenvalues --  -15.63330 -11.29055 -11.28366 -11.25841 -11.24897
 Alpha  occ. eigenvalues --  -11.23696  -1.19239  -1.09998  -1.02467  -0.91111
 Alpha  occ. eigenvalues --   -0.82128  -0.69679  -0.68007  -0.61831  -0.61576
 Alpha  occ. eigenvalues --   -0.56490  -0.54463  -0.53918  -0.51472  -0.49786
 Alpha  occ. eigenvalues --   -0.49180  -0.45488  -0.45074
 Alpha virt. eigenvalues --    0.02832   0.03981   0.04183   0.04646   0.06365
 Alpha virt. eigenvalues --    0.06490   0.07088   0.07549   0.09705   0.10177
 Alpha virt. eigenvalues --    0.10530   0.12573   0.13604   0.14498   0.14637

 Mulliken charges:
               1
     1  C   -0.404578
     2  C    0.476118
     3  C    0.705394
     4  C    0.283034
     5  C    0.052203
     6  N   -0.172671
     7  H   -0.066844
     8  H   -0.060806
     9  H   -0.066844
    10  H   -0.029547
    11  H   -0.029547
    12  H   -0.145424
    13  H   -0.145424
    14  H   -0.197531
    15  H   -0.197531
 Sum of Mulliken charges =   0.00000

 Dipole moment (field-independent basis, Debye):
    X=              4.0359    Y=              2.0131    Z=              0.0000  Tot=              4.5101

 Test job not archived.
 1\1\GINC-SE225\SP\RHF\Aug-CC-pVDZ\C5H9N1\OHZDE\05-Apr-2025\0\\#t hf au
 g-cc-pvdz iop(5/13=1,5/36=2,99/5=2) pseudo=read geom=check guess=(read
 ,tcheck) scf=(maxcycle=1)\\title\\0,1\C,0,-1.381391,-1.674027,0.\C,0,1
 .46974,2.485294,0.\C,0,-0.027455,-1.130038,0.\C,0,1.425482,0.958648,0.
 \C,0,0.,0.40783,0.\N,0,-2.455764,-2.08451,0.\H,0,0.971625,2.894129,0.8
 80933\H,0,2.497069,2.850311,0.\H,0,0.971625,2.894129,-0.880933\H,0,0.4
 96473,-1.517892,-0.876678\H,0,0.496473,-1.517892,0.876678\H,0,1.9604,0
 .577288,-0.874787\H,0,1.9604,0.577288,0.874787\H,0,-0.540986,0.773987,

 Normal termination of Gaussian 16 at Sat Apr  5 23:10:22 2025.
