 Gaussian 16, Revision C.01,

 ----------------------------------------------------------------------
 #t hf aug-cc-pvdz symm=none int=(grid=ultrafine) guess=(read,tcheck) s
 table=(opt,rrhf)
 ----------------------------------------------------------------------
 -----
 title
 -----
 Symbolic Z-matrix:
 Charge =  0 Multiplicity = 1

 SCF Done:  E(RHF) =  -265.242065469     A.U. after   14 cycles
 Normal termination of Gaussian 16 at Sat Apr  5 23:08:46 2025.
 Gaussian 16:  ES64L-G16RevC.01  3-Jul-2019

 ----------------------------------------------------------------------
 #t hf aug-cc-pvdz iop(5/13=1,5/36=2,99/5=2) pseudo=read geom=check gue
 ss=(read,tcheck) scf=(maxcycle=1)
 ----------------------------------------------------------------------
 -----
 title
 -----
 Structure from the checkpoint file:  "penta-1-4-diyn-3-one.chk"
 Charge =  0 Multiplicity = 1

                         Standard orientation:
 ---------------------------------------------------------------------
 Center     Atomic      Atomic             Coordinates (Angstroms)
 Number     Number       Type             X           Y           Z
 ---------------------------------------------------------------------
      1          8           0       -0.000002    1.727755    0.000063
      2          6           0       -0.000000    0.513409   -0.000056
      3          6           0       -1.221816   -0.263144   -0.000092
      4          6           0        1.221818   -0.263140   -0.000093
      5          6           0       -2.237923   -0.902147    0.000052
      6          6           0        2.237924   -0.902146    0.000041
      7          1           0       -3.142391   -1.459515    0.000203
      8          1           0        3.142392   -1.459515    0.000184
 ---------------------------------------------------------------------

 SCF Done:  E(RHF) =  -265.326538669     A.U. after    2 cycles

 The electronic state is 1-A.
 Alpha  occ. eigenvalues --  -20.60132 -11.41009 -11.28837 -11.28835 -11.27793
 Alpha  occ. eigenvalues --  -11.27791  -1.38929  -1.08959  -1.05686  -0.94588
 Alpha  occ. eigenvalues --   -0.81241  -0.74747  -0.73026  -0.69364  -0.60117
 Alpha  occ. eigenvalues --   -0.50458  -0.45717  -0.43652  -0.43507  -0.42454
 Alpha virt. eigenvalues --    0.03035   0.03054   0.03179   0.08173   0.08465
 Alpha virt. eigenvalues --    0.09306   0.09842   0.10303   0.10992   0.11452
 Alpha virt. eigenvalues --    0.13267   0.13737   0.14808   0.15953   0.16706

 Mulliken charges:
               1
     1  O   -0.494589
     2  C    0.135201
     3  C   -0.254444
     4  C   -0.254448
     5  C    0.904835
     6  C    0.904833
     7  H   -0.470695
     8  H   -0.470693
 Sum of Mulliken charges =  -0.00000

 Dipole moment (field-independent basis, Debye):
    X=              0.0000    Y=             -3.8350    Z=              0.0002  Tot=              3.8350

 Test job not archived.
 1\1\GINC-SE146\SP\RHF\Aug-CC-pVDZ\C5H2O1\OHZDE\05-Apr-2025\0\\#t hf au
 g-cc-pvdz iop(5/13=1,5/36=2,99/5=2) pseudo=read geom=check guess=(read
 ,tcheck) scf=(maxcycle=1)\\title\\0,1\O,0,-0.000002,1.727755,0.000063\
 C,0,0.,0.513409,-0.000056\C,0,-1.221816,-0.263144,-0.000092\C,0,1.2218
 18,-0.26314,-0.000093\C,0,-2.237923,-0.902147,0.000052\C,0,2.237924,-0
 .902146,0.000041\H,0,-3.142391,-1.459515,0.000203\H,0,3.142392,-1.4595
 15,0.000184\\Version=ES64L-G16RevC.01\State=1-A\HF=-265.3265387\RMSD=1
 .065e-02\Dipole=0.000002,-1.5087891,0.0000793\Quadrupole=7.5317496,-4.

 Normal termination of Gaussian 16 at Sat Apr  5 23:08:48 2025.
