 Gaussian 16, Revision C.01,

 ----------------------------------------------------------------------
 #t hf aug-cc-pvdz symm=none int=(grid=ultrafine) guess=(read,tcheck) s
 table=(opt,rrhf)
 ----------------------------------------------------------------------
 -----
 title
 -----
 Symbolic Z-matrix:
 Charge =  0 Multiplicity = 1

 SCF Done:  E(RHF) =  -423.033234318     A.U. after   13 cycles

 1\1\GINC-SE232\Stability\RHF\Aug-CC-pVDZ\C7H14O2\OHZDE\05-Apr-2025\0\\
 #t hf aug-cc-pvdz symm=none int=(grid=ultrafine) guess=(read,tcheck) s
 table=(opt,rrhf)\\title\\0,1\C,0,-1.760775,2.179912,0.\C,0,-3.257433,2
 .344694,0.\C,0,3.30906,-3.268875,0.\C,0,1.838693,-2.855555,0.\C,0,1.63
 9526,-1.339018,0.\C,0,0.167821,-0.92339,0.\C,0,0.,0.582801,0.\O,0,-0.9
 59601,3.081295,0.\O,0,-1.416146,0.876019,0.\H,0,-3.685781,1.861519,0.8
 7805\H,0,-3.685781,1.861519,-0.87805\H,0,-3.506083,3.401176,0.\H,0,3.8
 27078,-2.884132,-0.88081\H,0,3.827078,-2.884132,0.88081\H,0,3.417166,-

 Normal termination of Gaussian 16 at Sat Apr  5 23:10:21 2025.
 Gaussian 16:  ES64L-G16RevC.01  3-Jul-2019

 ----------------------------------------------------------------------
 #t hf aug-cc-pvdz iop(5/13=1,5/36=2,99/5=2) pseudo=read geom=check gue
 ss=(read,tcheck) scf=(maxcycle=1)
 ----------------------------------------------------------------------
 -----
 title
 -----
 Structure from the checkpoint file:  "pentyl_acetate.chk"
 Charge =  0 Multiplicity = 1

                         Standard orientation:
 ---------------------------------------------------------------------
 Center     Atomic      Atomic             Coordinates (Angstroms)
 Number     Number       Type             X           Y           Z
 ---------------------------------------------------------------------
      1          6           0       -1.760775    2.179913    0.000000
      2          6           0       -3.257433    2.344695    0.000000
      3          6           0        3.309059   -3.268876    0.000000
      4          6           0        1.838692   -2.855555    0.000000
      5          6           0        1.639525   -1.339018    0.000000
      6          6           0        0.167821   -0.923390    0.000000
      7          6           0        0.000000    0.582801    0.000000
      8          8           0       -0.959600    3.081295    0.000000
      9          8           0       -1.416146    0.876019    0.000000
     10          1           0       -3.685781    1.861520    0.878050
     11          1           0       -3.685781    1.861520   -0.878050
     12          1           0       -3.506082    3.401177    0.000000
     13          1           0        3.827077   -2.884133   -0.880810
     14          1           0        3.827077   -2.884133    0.880810
     15          1           0        3.417165   -4.354195    0.000000
     16          1           0        1.339036   -3.283396    0.874078
     17          1           0        1.339036   -3.283396   -0.874078
     18          1           0        2.140097   -0.911420    0.874802
     19          1           0        2.140097   -0.911420   -0.874802
     20          1           0       -0.335677   -1.338585    0.876781
     21          1           0       -0.335677   -1.338585   -0.876781
     22          1           0        0.452021    1.041556   -0.880361
     23          1           0        0.452021    1.041556    0.880361
 ---------------------------------------------------------------------

 SCF Done:  E(RHF) =  -423.169913206     A.U. after    2 cycles

 The electronic state is 1-A'.
 Alpha  occ. eigenvalues --  -20.61078 -20.55613 -11.39095 -11.29459 -11.24878
 Alpha  occ. eigenvalues --  -11.23516 -11.23374 -11.23191 -11.22479  -1.41434
 Alpha  occ. eigenvalues --   -1.31994  -1.08522  -1.03746  -0.99945  -0.92639
 Alpha  occ. eigenvalues --   -0.83942  -0.80211  -0.78024  -0.69870  -0.69651
 Alpha  occ. eigenvalues --   -0.67681  -0.64978  -0.60817  -0.59285  -0.58936
 Alpha  occ. eigenvalues --   -0.56801  -0.56358  -0.54866  -0.52839  -0.51170
 Alpha  occ. eigenvalues --   -0.49674  -0.48291  -0.47241  -0.47223  -0.46921
 Alpha  occ. eigenvalues --   -0.45767
 Alpha virt. eigenvalues --    0.03359   0.03703   0.04520   0.04521   0.05312
 Alpha virt. eigenvalues --    0.05870   0.06234   0.06821   0.07158   0.07765
 Alpha virt. eigenvalues --    0.08117   0.09708   0.10035   0.10619   0.11165

 Mulliken charges:
               1
     1  C    0.204630
     2  C    0.309573
     3  C    0.603898
     4  C    0.291599
     5  C    0.188935
     6  C    0.271084
     7  C    0.768311
     8  O   -0.458010
     9  O   -0.519385
    10  H    0.026051
    11  H    0.026051
    12  H   -0.024273
    13  H   -0.087874
    14  H   -0.087874
    15  H   -0.064976
    16  H   -0.158901
    17  H   -0.158901
    18  H   -0.188290
    19  H   -0.188290
    20  H   -0.178453
    21  H   -0.178453
    22  H   -0.198226
    23  H   -0.198226
 Sum of Mulliken charges =   0.00000

 Dipole moment (field-independent basis, Debye):
    X=             -0.8437    Y=             -2.2917    Z=              0.0000  Tot=              2.4421

 Test job not archived.
 1\1\GINC-SE232\SP\RHF\Aug-CC-pVDZ\C7H14O2\OHZDE\05-Apr-2025\0\\#t hf a
 ug-cc-pvdz iop(5/13=1,5/36=2,99/5=2) pseudo=read geom=check guess=(rea
 d,tcheck) scf=(maxcycle=1)\\title\\0,1\C,0,-1.760775,2.179912,0.\C,0,-
 3.257433,2.344694,0.\C,0,3.30906,-3.268875,0.\C,0,1.838693,-2.855555,0
 .\C,0,1.639526,-1.339018,0.\C,0,0.167821,-0.92339,0.\C,0,0.,0.582801,0
 .\O,0,-0.959601,3.081295,0.\O,0,-1.416146,0.876019,0.\H,0,-3.685781,1.
 861519,0.87805\H,0,-3.685781,1.861519,-0.87805\H,0,-3.506083,3.401176,
 0.\H,0,3.827078,-2.884132,-0.88081\H,0,3.827078,-2.884132,0.88081\H,0,

 Normal termination of Gaussian 16 at Sat Apr  5 23:10:31 2025.
