 Gaussian 16, Revision C.01,

 ----------------------------------------------------------------------
 #t hf aug-cc-pvdz symm=none int=(grid=ultrafine) guess=(read,tcheck) s
 table=(opt,rrhf)
 ----------------------------------------------------------------------
 -----
 title
 -----
 Symbolic Z-matrix:
 Charge =  0 Multiplicity = 1

 SCF Done:  E(RHF) =  -306.379497318     A.U. after   14 cycles
 Normal termination of Gaussian 16 at Sat Apr  5 23:09:18 2025.
 Gaussian 16:  ES64L-G16RevC.01  3-Jul-2019

 ----------------------------------------------------------------------
 #t hf aug-cc-pvdz iop(5/13=1,5/36=2,99/5=2) pseudo=read geom=check gue
 ss=(read,tcheck) scf=(maxcycle=1)
 ----------------------------------------------------------------------
 -----
 title
 -----
 Structure from the checkpoint file:  "pentalene.chk"
 Charge =  0 Multiplicity = 1

                         Standard orientation:
 ---------------------------------------------------------------------
 Center     Atomic      Atomic             Coordinates (Angstroms)
 Number     Number       Type             X           Y           Z
 ---------------------------------------------------------------------
      1          6           0        1.340358    1.082599    0.000000
      2          6           0        2.159435   -0.166489    0.000000
      3          6           0        1.340358   -1.239684    0.000000
      4          6           0       -1.340358   -1.082599    0.000000
      5          6           0       -2.159435    0.166489    0.000000
      6          6           0       -1.340358    1.239684    0.000000
      7          6           0        0.038329    0.726381    0.000000
      8          6           0       -0.038329   -0.726381    0.000000
      9          1           0        1.756064    2.079976    0.000000
     10          1           0        3.238150   -0.182744    0.000000
     11          1           0        1.637830   -2.276002    0.000000
     12          1           0       -1.756064   -2.079976    0.000000
     13          1           0       -3.238150    0.182744    0.000000
     14          1           0       -1.637830    2.276002    0.000000
 ---------------------------------------------------------------------

 SCF Done:  E(RHF) =  -306.467831653     A.U. after    2 cycles

 The electronic state is 1-AG.
 Alpha  occ. eigenvalues --  -11.26205 -11.26204 -11.24910 -11.24910 -11.24584
 Alpha  occ. eigenvalues --  -11.24583 -11.23371 -11.23287  -1.18153  -1.09346
 Alpha  occ. eigenvalues --   -0.98907  -0.94270  -0.88331  -0.77650  -0.75331
 Alpha  occ. eigenvalues --   -0.70796  -0.68953  -0.61793  -0.57342  -0.56718
 Alpha  occ. eigenvalues --   -0.54094  -0.53430  -0.51056  -0.48590  -0.41634
 Alpha  occ. eigenvalues --   -0.33741  -0.28051
 Alpha virt. eigenvalues --    0.02165   0.03574   0.03751   0.04086   0.05434
 Alpha virt. eigenvalues --    0.05567   0.07386   0.10171   0.11177   0.11403
 Alpha virt. eigenvalues --    0.12248   0.13216   0.13313   0.13891   0.14301

 Mulliken charges:
               1
     1  C    0.766055
     2  C    0.331813
     3  C    0.751419
     4  C    0.766055
     5  C    0.331813
     6  C    0.751419
     7  C   -0.712957
     8  C   -0.712957
     9  H   -0.365837
    10  H   -0.378119
    11  H   -0.392373
    12  H   -0.365837
    13  H   -0.378119
    14  H   -0.392373
 Sum of Mulliken charges =   0.00000

 Dipole moment (field-independent basis, Debye):
    X=              0.0000    Y=             -0.0000    Z=              0.0000  Tot=              0.0000

 Test job not archived.
 1\1\GINC-SE187\SP\RHF\Aug-CC-pVDZ\C8H6\OHZDE\05-Apr-2025\0\\#t hf aug-
 cc-pvdz iop(5/13=1,5/36=2,99/5=2) pseudo=read geom=check guess=(read,t
 check) scf=(maxcycle=1)\\title\\0,1\C,0,1.340358,1.082599,0.\C,0,2.159
 435,-0.166489,0.\C,0,1.340358,-1.239684,0.\C,0,-1.340358,-1.082599,0.\
 C,0,-2.159435,0.166489,0.\C,0,-1.340358,1.239684,0.\C,0,0.038329,0.726
 381,0.\C,0,-0.038329,-0.726381,0.\H,0,1.756064,2.079976,0.\H,0,3.23815
 ,-0.182744,0.\H,0,1.63783,-2.276002,0.\H,0,-1.756064,-2.079976,0.\H,0,
 -3.23815,0.182744,0.\H,0,-1.63783,2.276002,0.\\Version=ES64L-G16RevC.0

 Normal termination of Gaussian 16 at Sat Apr  5 23:10:22 2025.
