 Gaussian 16, Revision C.01,

 ----------------------------------------------------------------------
 #t hf aug-cc-pvdz symm=none int=(grid=ultrafine) guess=(read,tcheck) s
 table=(opt,rrhf)
 ----------------------------------------------------------------------
 -----
 title
 -----
 Symbolic Z-matrix:
 Charge =  0 Multiplicity = 1

 SCF Done:  E(RHF) =  -301.762836723     A.U. after   13 cycles
 Normal termination of Gaussian 16 at Sat Apr  5 23:09:16 2025.
 Gaussian 16:  ES64L-G16RevC.01  3-Jul-2019

 ----------------------------------------------------------------------
 #t hf aug-cc-pvdz iop(5/13=1,5/36=2,99/5=2) pseudo=read geom=check gue
 ss=(read,tcheck) scf=(maxcycle=1)
 ----------------------------------------------------------------------
 -----
 title
 -----
 Structure from the checkpoint file:  "pentanedinitrile.chk"
 Charge =  0 Multiplicity = 1

                         Standard orientation:
 ---------------------------------------------------------------------
 Center     Atomic      Atomic             Coordinates (Angstroms)
 Number     Number       Type             X           Y           Z
 ---------------------------------------------------------------------
      1          6           0        0.000000    2.488837    0.088743
      2          6           0       -0.000000   -2.488837    0.088743
      3          6           0        0.000000    1.264960   -0.705030
      4          6           0       -0.000000   -1.264960   -0.705030
      5          6           0       -0.000000   -0.000000    0.168023
      6          7           0        0.000000    3.444883    0.727024
      7          7           0       -0.000000   -3.444883    0.727024
      8          1           0       -0.877475    1.279493   -1.355740
      9          1           0        0.877475    1.279493   -1.355740
     10          1           0        0.877475   -1.279493   -1.355740
     11          1           0       -0.877475   -1.279493   -1.355740
     12          1           0       -0.875721    0.000000    0.815966
     13          1           0        0.875721   -0.000000    0.815966
 ---------------------------------------------------------------------

 SCF Done:  E(RHF) =  -301.853022672     A.U. after    2 cycles

 The electronic state is 1-A1.
 Alpha  occ. eigenvalues --  -15.65153 -15.65153 -11.31644 -11.31639 -11.30074
 Alpha  occ. eigenvalues --  -11.30073 -11.29558  -1.21208  -1.20868  -1.13018
 Alpha  occ. eigenvalues --   -1.04061  -0.90110  -0.75166  -0.71255  -0.68869
 Alpha  occ. eigenvalues --   -0.63925  -0.62042  -0.57617  -0.55792  -0.55389
 Alpha  occ. eigenvalues --   -0.55299  -0.48198  -0.47468  -0.47137  -0.46528
 Alpha virt. eigenvalues --    0.01870   0.03439   0.04373   0.04611   0.06622
 Alpha virt. eigenvalues --    0.06754   0.08471   0.08831   0.09293   0.11906
 Alpha virt. eigenvalues --    0.12558   0.12988   0.13524   0.13844   0.14031

 Mulliken charges:
               1
     1  C   -0.419803
     2  C   -0.419803
     3  C    0.771954
     4  C    0.771954
     5  C    0.066125
     6  N   -0.154877
     7  N   -0.154877
     8  H   -0.019745
     9  H   -0.019745
    10  H   -0.019745
    11  H   -0.019745
    12  H   -0.190846
    13  H   -0.190846
 Sum of Mulliken charges =  -0.00000

 Dipole moment (field-independent basis, Debye):
    X=              0.0000    Y=              0.0000    Z=             -4.1258  Tot=              4.1258

 Test job not archived.
 1\1\GINC-SE214\SP\RHF\Aug-CC-pVDZ\C5H6N2\OHZDE\05-Apr-2025\0\\#t hf au
 g-cc-pvdz iop(5/13=1,5/36=2,99/5=2) pseudo=read geom=check guess=(read
 ,tcheck) scf=(maxcycle=1)\\title\\0,1\C,0,0.,2.488837,0.088743\C,0,0.,
 -2.488837,0.088743\C,0,0.,1.26496,-0.70503\C,0,0.,-1.26496,-0.70503\C,
 0,0.,0.,0.168023\N,0,0.,3.444883,0.727024\N,0,0.,-3.444883,0.727024\H,
 0,-0.877475,1.279493,-1.35574\H,0,0.877475,1.279493,-1.35574\H,0,0.877
 475,-1.279493,-1.35574\H,0,-0.877475,-1.279493,-1.35574\H,0,-0.875721,
 0.,0.815966\H,0,0.875721,0.,0.815966\\Version=ES64L-G16RevC.01\State=1

 Normal termination of Gaussian 16 at Sat Apr  5 23:10:22 2025.
