 Gaussian 16, Revision C.01,

 ----------------------------------------------------------------------
 #t hf aug-cc-pvdz symm=none int=(grid=ultrafine) guess=(read,tcheck) s
 table=(opt,rrhf)
 ----------------------------------------------------------------------
 -----
 title
 -----
 Symbolic Z-matrix:
 Charge =  0 Multiplicity = 1

 SCF Done:  E(RHF) =  -1032.50153482     A.U. after   12 cycles

 1\1\GINC-SE199\Stability\RHF\Aug-CC-pVDZ\C2Cl1F5\OHZDE\05-Apr-2025\0\\
 #t hf aug-cc-pvdz symm=none int=(grid=ultrafine) guess=(read,tcheck) s
 table=(opt,rrhf)\\title\\0,1\C,0,0.088227,-0.640097,0.\C,0,-0.628654,0
 .743753,0.\Cl,0,1.853861,-0.454917,0.\F,0,-0.297556,-1.321635,1.086547
 \F,0,-0.297556,-1.321635,-1.086547\F,0,-1.951228,0.550467,0.\F,0,-0.29
 7556,1.441493,1.086607\F,0,-0.297556,1.441493,-1.086607\\Version=ES64L
 -G16RevC.01\HF=-1032.5015348\RMSD=6.730e-09\Dipole=0.2445383,0.0022199
 ,0.\Quadrupole=1.1829474,-0.5035742,-0.6793732,-0.2114454,0.,0.\PG=Unk

 Normal termination of Gaussian 16 at Sat Apr  5 23:09:17 2025.
 Gaussian 16:  ES64L-G16RevC.01  3-Jul-2019

 ----------------------------------------------------------------------
 #t hf aug-cc-pvdz iop(5/13=1,5/36=2,99/5=2) pseudo=read geom=check gue
 ss=(read,tcheck) scf=(maxcycle=1)
 ----------------------------------------------------------------------
 -----
 title
 -----
 Structure from the checkpoint file:  "pentafluorochloroethane.chk"
 Charge =  0 Multiplicity = 1

                         Standard orientation:
 ---------------------------------------------------------------------
 Center     Atomic      Atomic             Coordinates (Angstroms)
 Number     Number       Type             X           Y           Z
 ---------------------------------------------------------------------
      1          6           0        0.088227   -0.640097    0.000000
      2          6           0       -0.628654    0.743753    0.000000
      3         17           0        1.853861   -0.454917    0.000000
      4          9           0       -0.297556   -1.321635    1.086547
      5          9           0       -0.297556   -1.321635   -1.086547
      6          9           0       -1.951228    0.550467    0.000000
      7          9           0       -0.297556    1.441493    1.086607
      8          9           0       -0.297556    1.441493   -1.086607
 ---------------------------------------------------------------------

 SCF Done:  E(RHF) =  -1032.72808257     A.U. after    2 cycles

 The electronic state is 1-A'.
 Alpha  occ. eigenvalues -- -103.71467 -26.20237 -26.20227 -26.20181 -26.20170
 Alpha  occ. eigenvalues --  -26.20039 -11.57338 -11.54528 -10.74820  -8.40544
 Alpha  occ. eigenvalues --   -8.40199  -8.40191  -1.80345  -1.77407  -1.73273
 Alpha  occ. eigenvalues --   -1.72818  -1.72420  -1.23484  -1.10733  -1.01091
 Alpha  occ. eigenvalues --   -0.93415  -0.92651  -0.91968  -0.88205  -0.85498
 Alpha  occ. eigenvalues --   -0.81792  -0.80534  -0.80134  -0.79247  -0.76645
 Alpha  occ. eigenvalues --   -0.76335  -0.75502  -0.75054  -0.69282  -0.60226
 Alpha  occ. eigenvalues --   -0.52553  -0.52315
 Alpha virt. eigenvalues --    0.06660   0.07679   0.08227   0.09297   0.10512
 Alpha virt. eigenvalues --    0.11973   0.12160   0.12737   0.14543   0.16454
 Alpha virt. eigenvalues --    0.18465   0.19956   0.21629   0.25155   0.25721

 Mulliken charges:
               1
     1  C    0.441369
     2  C    1.028877
     3  Cl  -0.091448
     4  F   -0.293384
     5  F   -0.293384
     6  F   -0.272690
     7  F   -0.259670
     8  F   -0.259670
 Sum of Mulliken charges =   0.00000

 Dipole moment (field-independent basis, Debye):
    X=              0.8836    Y=              0.0402    Z=              0.0000  Tot=              0.8845

 Test job not archived.
 1\1\GINC-SE199\SP\RHF\Aug-CC-pVDZ\C2Cl1F5\OHZDE\05-Apr-2025\0\\#t hf a
 ug-cc-pvdz iop(5/13=1,5/36=2,99/5=2) pseudo=read geom=check guess=(rea
 d,tcheck) scf=(maxcycle=1)\\title\\0,1\C,0,0.088227,-0.640097,0.\C,0,-
 0.628654,0.743753,0.\Cl,0,1.853861,-0.454917,0.\F,0,-0.297556,-1.32163
 5,1.086547\F,0,-0.297556,-1.321635,-1.086547\F,0,-1.951228,0.550467,0.
 \F,0,-0.297556,1.441493,1.086607\F,0,-0.297556,1.441493,-1.086607\\Ver
 sion=ES64L-G16RevC.01\State=1-A'\HF=-1032.7280826\RMSD=6.286e-03\Dipol
 e=0.3476456,0.0158292,0.\Quadrupole=1.434445,-0.6608856,-0.7735594,-0.

 Normal termination of Gaussian 16 at Sat Apr  5 23:10:22 2025.
