 Gaussian 16, Revision C.01,

 ----------------------------------------------------------------------
 #t hf aug-cc-pvdz symm=none int=(grid=ultrafine) guess=(read,tcheck) s
 table=(opt,rrhf)
 ----------------------------------------------------------------------
 -----
 title
 -----
 Symbolic Z-matrix:
 Charge =  0 Multiplicity = 1

 SCF Done:  E(RHF) =  -251.389026392     A.U. after   12 cycles

 1\1\GINC-SE176\Stability\RHF\Aug-CC-pVDZ\C5H13N1\OHZDE\05-Apr-2025\0\\
 #t hf aug-cc-pvdz symm=none int=(grid=ultrafine) guess=(read,tcheck) s
 table=(opt,rrhf)\\title\\0,1\C,0,-3.193395,0.219196,0.022962\C,0,-1.87
 0687,-0.543222,-0.031096\C,0,-0.644306,0.369108,0.017163\C,0,0.681934,
 -0.388325,-0.039089\C,0,1.902025,0.52473,0.012238\N,0,3.142821,-0.2522
 96,-0.075802\H,0,-4.046943,-0.459069,-0.014935\H,0,-3.274969,0.803363,
 0.942009\H,0,-3.283672,0.912302,-0.81605\H,0,-1.834066,-1.145994,-0.94
 3292\H,0,-1.824205,-1.251686,0.801403\H,0,-0.682799,0.973279,0.929858\

 Normal termination of Gaussian 16 at Sat Apr  5 23:09:22 2025.
 Gaussian 16:  ES64L-G16RevC.01  3-Jul-2019

 ----------------------------------------------------------------------
 #t hf aug-cc-pvdz iop(5/13=1,5/36=2,99/5=2) pseudo=read geom=check gue
 ss=(read,tcheck) scf=(maxcycle=1)
 ----------------------------------------------------------------------
 -----
 title
 -----
 Structure from the checkpoint file:  "pentanamine.chk"
 Charge =  0 Multiplicity = 1

                         Standard orientation:
 ---------------------------------------------------------------------
 Center     Atomic      Atomic             Coordinates (Angstroms)
 Number     Number       Type             X           Y           Z
 ---------------------------------------------------------------------
      1          6           0       -3.193395    0.219196    0.022962
      2          6           0       -1.870687   -0.543222   -0.031096
      3          6           0       -0.644306    0.369108    0.017163
      4          6           0        0.681934   -0.388325   -0.039089
      5          6           0        1.902025    0.524730    0.012238
      6          7           0        3.142821   -0.252296   -0.075802
      7          1           0       -4.046943   -0.459069   -0.014935
      8          1           0       -3.274969    0.803363    0.942009
      9          1           0       -3.283672    0.912302   -0.816050
     10          1           0       -1.834066   -1.145994   -0.943292
     11          1           0       -1.824205   -1.251686    0.801403
     12          1           0       -0.682799    0.973279    0.929858
     13          1           0       -0.692022    1.077721   -0.816618
     14          1           0        0.733834   -0.987957   -0.951398
     15          1           0        0.730562   -1.095733    0.796545
     16          1           0        1.844936    1.150237    0.914816
     17          1           0        1.879005    1.205826   -0.842025
     18          1           0        3.244316   -0.859616    0.728902
     19          1           0        3.952849    0.354475   -0.091672
 ---------------------------------------------------------------------

 SCF Done:  E(RHF) =  -251.469486596     A.U. after    2 cycles

 The electronic state is 1-A.
 Alpha  occ. eigenvalues --  -15.60108 -11.25347 -11.22466 -11.22331 -11.22118
 Alpha  occ. eigenvalues --  -11.21964  -1.14424  -1.06326  -0.99120  -0.89590
 Alpha  occ. eigenvalues --   -0.81066  -0.78844  -0.66384  -0.64190  -0.61751
 Alpha  occ. eigenvalues --   -0.59036  -0.56533  -0.55155  -0.53144  -0.50041
 Alpha  occ. eigenvalues --   -0.48149  -0.46804  -0.46212  -0.45517  -0.38065
 Alpha virt. eigenvalues --    0.03516   0.03987   0.04343   0.04836   0.05799
 Alpha virt. eigenvalues --    0.06165   0.06656   0.07138   0.08486   0.09024
 Alpha virt. eigenvalues --    0.09750   0.10111   0.11077   0.11632   0.13540

 Mulliken charges:
               1
     1  C    0.491354
     2  C    0.223538
     3  C    0.036719
     4  C    0.166272
     5  C    1.009891
     6  N   -0.352247
     7  H   -0.063475
     8  H   -0.086462
     9  H   -0.086458
    10  H   -0.152787
    11  H   -0.153970
    12  H   -0.172855
    13  H   -0.176436
    14  H   -0.118638
    15  H   -0.177061
    16  H   -0.153751
    17  H   -0.207434
    18  H    0.005161
    19  H   -0.031360
 Sum of Mulliken charges =   0.00000

 Dipole moment (field-independent basis, Debye):
    X=              0.0384    Y=              0.6567    Z=              1.0598  Tot=              1.2474

 Test job not archived.
 1\1\GINC-SE176\SP\RHF\Aug-CC-pVDZ\C5H13N1\OHZDE\05-Apr-2025\0\\#t hf a
 ug-cc-pvdz iop(5/13=1,5/36=2,99/5=2) pseudo=read geom=check guess=(rea
 d,tcheck) scf=(maxcycle=1)\\title\\0,1\C,0,-3.193395,0.219196,0.022962
 \C,0,-1.870687,-0.543222,-0.031096\C,0,-0.644306,0.369108,0.017163\C,0
 ,0.681934,-0.388325,-0.039089\C,0,1.902025,0.52473,0.012238\N,0,3.1428
 21,-0.252296,-0.075802\H,0,-4.046943,-0.459069,-0.014935\H,0,-3.274969
 ,0.803363,0.942009\H,0,-3.283672,0.912302,-0.81605\H,0,-1.834066,-1.14
 5994,-0.943292\H,0,-1.824205,-1.251686,0.801403\H,0,-0.682799,0.973279

 Normal termination of Gaussian 16 at Sat Apr  5 23:10:25 2025.
