 Gaussian 16, Revision C.01,

 ----------------------------------------------------------------------
 #t hf aug-cc-pvdz symm=none int=(grid=ultrafine) guess=(read,tcheck) s
 table=(opt,rrhf)
 ----------------------------------------------------------------------
 -----
 title
 -----
 Symbolic Z-matrix:
 Charge =  0 Multiplicity = 1

 SCF Done:  E(RHF) =  -310.573573887     A.U. after   13 cycles
 Normal termination of Gaussian 16 at Sat Apr  5 23:08:47 2025.
 Gaussian 16:  ES64L-G16RevC.01  3-Jul-2019

 ----------------------------------------------------------------------
 #t hf aug-cc-pvdz iop(5/13=1,5/36=2,99/5=2) pseudo=read geom=check gue
 ss=(read,tcheck) scf=(maxcycle=1)
 ----------------------------------------------------------------------
 -----
 title
 -----
 Structure from the checkpoint file:  "pentazine.chk"
 Charge =  0 Multiplicity = 1

                         Standard orientation:
 ---------------------------------------------------------------------
 Center     Atomic      Atomic             Coordinates (Angstroms)
 Number     Number       Type             X           Y           Z
 ---------------------------------------------------------------------
      1          7           0        0.000000    1.175961   -0.636160
      2          7           0        0.000000    1.151724    0.677844
      3          7           0        0.000000    0.000000    1.324042
      4          7           0       -0.000000   -1.151724    0.677844
      5          7           0       -0.000000   -1.175961   -0.636160
      6          6           0        0.000000   -0.000000   -1.252774
      7          1           0        0.000000   -0.000000   -2.335236
 ---------------------------------------------------------------------

 SCF Done:  E(RHF) =  -310.657854091     A.U. after    2 cycles

 The electronic state is 1-A1.
 Alpha  occ. eigenvalues --  -15.78556 -15.78545 -15.76257 -15.74330 -15.74327
 Alpha  occ. eigenvalues --  -11.38838  -1.47054  -1.32486  -1.26017  -1.04072
 Alpha  occ. eigenvalues --   -1.01154  -0.83469  -0.76861  -0.68452  -0.65673
 Alpha  occ. eigenvalues --   -0.58165  -0.56329  -0.51381  -0.48278  -0.47261
 Alpha  occ. eigenvalues --   -0.43685
 Alpha virt. eigenvalues --    0.01973   0.02652   0.03732   0.07425   0.07659
 Alpha virt. eigenvalues --    0.08845   0.12963   0.12987   0.14108   0.16136
 Alpha virt. eigenvalues --    0.17431   0.18352   0.18679   0.20444   0.23618

 Mulliken charges:
               1
     1  N   -0.209606
     2  N   -0.080507
     3  N   -0.088084
     4  N   -0.080507
     5  N   -0.209606
     6  C    0.857683
     7  H   -0.189373
 Sum of Mulliken charges =  -0.00000

 Dipole moment (field-independent basis, Debye):
    X=              0.0000    Y=             -0.0000    Z=             -2.7414  Tot=              2.7414

 Test job not archived.
 1\1\GINC-SE231\SP\RHF\Aug-CC-pVDZ\C1H1N5\OHZDE\05-Apr-2025\0\\#t hf au
 g-cc-pvdz iop(5/13=1,5/36=2,99/5=2) pseudo=read geom=check guess=(read
 ,tcheck) scf=(maxcycle=1)\\title\\0,1\N,0,0.,1.175961,-0.63616\N,0,0.,
 1.151724,0.677844\N,0,0.,0.,1.324042\N,0,0.,-1.151724,0.677844\N,0,0.,
 -1.175961,-0.63616\C,0,0.,0.,-1.252774\H,0,0.,0.,-2.335236\\Version=ES
 64L-G16RevC.01\State=1-A1\HF=-310.6578541\RMSD=3.947e-03\Dipole=0.,0.,
 -1.0785599\Quadrupole=2.3928073,-4.2432593,1.8504521,0.,0.,0.\PG=C02V
 [C2(H1C1N1),SGV(N4)]\\@

 Normal termination of Gaussian 16 at Sat Apr  5 23:08:49 2025.
