 Gaussian 16, Revision C.01,

 ----------------------------------------------------------------------
 #t hf aug-cc-pvdz symm=none int=(grid=ultrafine) guess=(read,tcheck) s
 table=(opt,rrhf)
 ----------------------------------------------------------------------
 -----
 title
 -----
 Symbolic Z-matrix:
 Charge =  0 Multiplicity = 1

 SCF Done:  E(RHF) =  -270.056066716     A.U. after   13 cycles

 1\1\GINC-SE177\Stability\RHF\Aug-CC-pVDZ\C5H10O1\OHZDE\05-Apr-2025\0\\
 #t hf aug-cc-pvdz symm=none int=(grid=ultrafine) guess=(read,tcheck) s
 table=(opt,rrhf)\\title\\0,1\C,0,-0.854017,-2.053209,0.\C,0,0.913211,2
 .739799,0.\C,0,0.331799,-1.126885,0.\C,0,1.24447,1.248574,0.\C,0,0.,0.
 360098,0.\O,0,-2.008076,-1.706587,0.\H,0,-0.596414,-3.133487,0.\H,0,1.
 8182,3.348531,0.\H,0,0.328751,3.013404,0.880532\H,0,0.328751,3.013404,
 -0.880532\H,0,0.945985,-1.401209,0.867354\H,0,0.945985,-1.401209,-0.86
 7354\H,0,1.858867,1.01225,0.874251\H,0,1.858867,1.01225,-0.874251\H,0,

 Normal termination of Gaussian 16 at Sat Apr  5 23:09:18 2025.
 Gaussian 16:  ES64L-G16RevC.01  3-Jul-2019

 ----------------------------------------------------------------------
 #t hf aug-cc-pvdz iop(5/13=1,5/36=2,99/5=2) pseudo=read geom=check gue
 ss=(read,tcheck) scf=(maxcycle=1)
 ----------------------------------------------------------------------
 -----
 title
 -----
 Structure from the checkpoint file:  "pentanal.chk"
 Charge =  0 Multiplicity = 1

                         Standard orientation:
 ---------------------------------------------------------------------
 Center     Atomic      Atomic             Coordinates (Angstroms)
 Number     Number       Type             X           Y           Z
 ---------------------------------------------------------------------
      1          6           0       -0.854017   -2.053209    0.000000
      2          6           0        0.913211    2.739799    0.000000
      3          6           0        0.331799   -1.126885    0.000000
      4          6           0        1.244470    1.248574    0.000000
      5          6           0        0.000000    0.360098    0.000000
      6          8           0       -2.008076   -1.706587    0.000000
      7          1           0       -0.596414   -3.133487    0.000000
      8          1           0        1.818200    3.348531    0.000000
      9          1           0        0.328751    3.013404    0.880532
     10          1           0        0.328751    3.013404   -0.880532
     11          1           0        0.945985   -1.401209    0.867354
     12          1           0        0.945985   -1.401209   -0.867354
     13          1           0        1.858867    1.012250    0.874251
     14          1           0        1.858867    1.012250   -0.874251
     15          1           0       -0.618581    0.589247   -0.870767
     16          1           0       -0.618581    0.589247    0.870767
 ---------------------------------------------------------------------

 SCF Done:  E(RHF) =  -270.142723278     A.U. after    2 cycles

 The electronic state is 1-A'.
 Alpha  occ. eigenvalues --  -20.57218 -11.34394 -11.25170 -11.23442 -11.23364
 Alpha  occ. eigenvalues --  -11.22521  -1.36012  -1.08177  -1.01167  -0.90831
 Alpha  occ. eigenvalues --   -0.81436  -0.77371  -0.68360  -0.65946  -0.64099
 Alpha  occ. eigenvalues --   -0.60144  -0.59004  -0.53886  -0.53579  -0.50162
 Alpha  occ. eigenvalues --   -0.49449  -0.48169  -0.47379  -0.42948
 Alpha virt. eigenvalues --    0.03179   0.03915   0.04593   0.04962   0.05929
 Alpha virt. eigenvalues --    0.06483   0.07342   0.07531   0.08785   0.09866
 Alpha virt. eigenvalues --    0.10973   0.11563   0.11595   0.13808   0.15427

 Mulliken charges:
               1
     1  C    0.686685
     2  C    0.518777
     3  C   -0.091144
     4  C    0.299232
     5  C    0.154838
     6  O   -0.466940
     7  H   -0.131825
     8  H   -0.058850
     9  H   -0.078513
    10  H   -0.078513
    11  H   -0.058939
    12  H   -0.058939
    13  H   -0.157209
    14  H   -0.157209
    15  H   -0.160724
    16  H   -0.160724
 Sum of Mulliken charges =  -0.00000

 Dipole moment (field-independent basis, Debye):
    X=              3.3018    Y=             -0.2448    Z=              0.0000  Tot=              3.3109

 Test job not archived.
 1\1\GINC-SE177\SP\RHF\Aug-CC-pVDZ\C5H10O1\OHZDE\05-Apr-2025\0\\#t hf a
 ug-cc-pvdz iop(5/13=1,5/36=2,99/5=2) pseudo=read geom=check guess=(rea
 d,tcheck) scf=(maxcycle=1)\\title\\0,1\C,0,-0.854017,-2.053209,0.\C,0,
 0.913211,2.739799,0.\C,0,0.331799,-1.126885,0.\C,0,1.24447,1.248574,0.
 \C,0,0.,0.360098,0.\O,0,-2.008076,-1.706587,0.\H,0,-0.596414,-3.133487
 ,0.\H,0,1.8182,3.348531,0.\H,0,0.328751,3.013404,0.880532\H,0,0.328751
 ,3.013404,-0.880532\H,0,0.945985,-1.401209,0.867354\H,0,0.945985,-1.40
 1209,-0.867354\H,0,1.858867,1.01225,0.874251\H,0,1.858867,1.01225,-0.8

 Normal termination of Gaussian 16 at Sat Apr  5 23:10:23 2025.
