 Gaussian 16, Revision C.01,

 ----------------------------------------------------------------------
 #t hf aug-cc-pvdz symm=none int=(grid=ultrafine) guess=(read,tcheck) s
 table=(opt,rrhf)
 ----------------------------------------------------------------------
 -----
 title
 -----
 Symbolic Z-matrix:
 Charge =  0 Multiplicity = 1

 SCF Done:  E(RHF) =  -325.129306968     A.U. after   13 cycles
 Normal termination of Gaussian 16 at Sat Apr  5 23:09:26 2025.
 Gaussian 16:  ES64L-G16RevC.01  3-Jul-2019

 ----------------------------------------------------------------------
 #t hf aug-cc-pvdz iop(5/13=1,5/36=2,99/5=2) pseudo=read geom=check gue
 ss=(read,tcheck) scf=(maxcycle=1)
 ----------------------------------------------------------------------
 -----
 title
 -----
 Structure from the checkpoint file:  "pentanamide.chk"
 Charge =  0 Multiplicity = 1

                         Standard orientation:
 ---------------------------------------------------------------------
 Center     Atomic      Atomic             Coordinates (Angstroms)
 Number     Number       Type             X           Y           Z
 ---------------------------------------------------------------------
      1          6           0       -0.428305   -0.603318    0.292946
      2          6           0       -1.730980    0.145991    0.048752
      3          6           0        0.804689    0.186857   -0.143412
      4          7           0       -2.798137   -0.632363   -0.294446
      5          8           0       -1.831047    1.353253    0.169304
      6          6           0        2.116704   -0.509009    0.218058
      7          6           0        3.349645    0.278591   -0.221813
      8          1           0       -0.378232   -0.797219    1.369502
      9          1           0       -0.452804   -1.579947   -0.197097
     10          1           0        0.763288    0.351634   -1.223970
     11          1           0        0.764447    1.175441    0.315734
     12          1           0       -3.696408   -0.193737   -0.404160
     13          1           0       -2.730511   -1.629614   -0.375823
     14          1           0        2.153180   -0.667921    1.300253
     15          1           0        2.140943   -1.504976   -0.235220
     16          1           0        4.270724   -0.237101    0.052854
     17          1           0        3.359798    0.422536   -1.304049
     18          1           0        3.370399    1.266751    0.241480
 ---------------------------------------------------------------------

 SCF Done:  E(RHF) =  -325.232841792     A.U. after    2 cycles

 The electronic state is 1-A.
 Alpha  occ. eigenvalues --  -20.53092 -15.64867 -11.36283 -11.24854 -11.23096
 Alpha  occ. eigenvalues --  -11.22971 -11.22253  -1.34347  -1.17651  -1.07510
 Alpha  occ. eigenvalues --   -1.00126  -0.89431  -0.80733  -0.78179  -0.72173
 Alpha  occ. eigenvalues --   -0.67700  -0.65028  -0.60858  -0.60328  -0.58393
 Alpha  occ. eigenvalues --   -0.55562  -0.53352  -0.50295  -0.48251  -0.47850
 Alpha  occ. eigenvalues --   -0.47039  -0.43192  -0.41701
 Alpha virt. eigenvalues --    0.02746   0.03795   0.04649   0.04774   0.05762
 Alpha virt. eigenvalues --    0.06268   0.06887   0.07632   0.08700   0.09056
 Alpha virt. eigenvalues --    0.10465   0.11214   0.13261   0.13449   0.14121

 Mulliken charges:
               1
     1  C    0.292562
     2  C    0.572038
     3  C    0.024032
     4  N   -0.114009
     5  O   -0.543768
     6  C    0.324597
     7  C    0.528257
     8  H   -0.002727
     9  H   -0.195623
    10  H   -0.170735
    11  H   -0.142596
    12  H   -0.031273
    13  H   -0.022090
    14  H   -0.143088
    15  H   -0.158329
    16  H   -0.062434
    17  H   -0.077188
    18  H   -0.077624
 Sum of Mulliken charges =  -0.00000

 Dipole moment (field-independent basis, Debye):
    X=             -0.1246    Y=             -4.1440    Z=             -0.4283  Tot=              4.1680

 Test job not archived.
 1\1\GINC-SE176\SP\RHF\Aug-CC-pVDZ\C5H11N1O1\OHZDE\05-Apr-2025\0\\#t hf
  aug-cc-pvdz iop(5/13=1,5/36=2,99/5=2) pseudo=read geom=check guess=(r
 ead,tcheck) scf=(maxcycle=1)\\title\\0,1\C,0,-0.428305,-0.603318,0.292
 946\C,0,-1.73098,0.145991,0.048752\C,0,0.804689,0.186857,-0.143412\N,0
 ,-2.798137,-0.632363,-0.294446\O,0,-1.831047,1.353253,0.169304\C,0,2.1
 16704,-0.509009,0.218058\C,0,3.349645,0.278591,-0.221813\H,0,-0.378232
 ,-0.797219,1.369502\H,0,-0.452804,-1.579947,-0.197097\H,0,0.763288,0.3
 51634,-1.22397\H,0,0.764447,1.175441,0.315734\H,0,-3.696408,-0.193737,

 Normal termination of Gaussian 16 at Sat Apr  5 23:10:25 2025.
