 Gaussian 16, Revision C.01,

 ----------------------------------------------------------------------
 #t hf aug-cc-pvdz symm=none int=(grid=ultrafine) guess=(read,tcheck) s
 table=(opt,rrhf)
 ----------------------------------------------------------------------
 -----
 title
 -----
 Symbolic Z-matrix:
 Charge =  0 Multiplicity = 1

 SCF Done:  E(RHF) =  -265.249285574     A.U. after   16 cycles
 Normal termination of Gaussian 16 at Sat Apr  5 23:08:47 2025.
 Gaussian 16:  ES64L-G16RevC.01  3-Jul-2019

 ----------------------------------------------------------------------
 #t hf aug-cc-pvdz iop(5/13=1,5/36=2,99/5=2) pseudo=read geom=check gue
 ss=(read,tcheck) scf=(maxcycle=1)
 ----------------------------------------------------------------------
 -----
 title
 -----
 Structure from the checkpoint file:  "penta-2-4-diynal.chk"
 Charge =  0 Multiplicity = 1

                         Standard orientation:
 ---------------------------------------------------------------------
 Center     Atomic      Atomic             Coordinates (Angstroms)
 Number     Number       Type             X           Y           Z
 ---------------------------------------------------------------------
      1          8           0       -2.769216   -0.536264    0.000215
      2          6           0       -0.546543    0.198083   -0.000698
      3          6           0       -1.974175    0.375575    0.000309
      4          6           0        0.660285    0.101518   -0.000632
      5          6           0        2.012661   -0.024555   -0.000207
      6          6           0        3.212576   -0.134634    0.000498
      7          1           0       -2.304988    1.428398    0.001460
      8          1           0        4.269894   -0.234210    0.001198
 ---------------------------------------------------------------------

 SCF Done:  E(RHF) =  -265.334565405     A.U. after    2 cycles

 The electronic state is 1-A.
 Alpha  occ. eigenvalues --  -20.60105 -11.38600 -11.30957 -11.29590 -11.29144
 Alpha  occ. eigenvalues --  -11.28908  -1.38402  -1.11317  -1.05118  -0.93957
 Alpha  occ. eigenvalues --   -0.85054  -0.74846  -0.73481  -0.68672  -0.58426
 Alpha  occ. eigenvalues --   -0.51817  -0.50948  -0.48545  -0.39172  -0.39075
 Alpha virt. eigenvalues --    0.02838   0.02905   0.03617   0.07084   0.07704
 Alpha virt. eigenvalues --    0.09187   0.09763   0.09824   0.10949   0.11581
 Alpha virt. eigenvalues --    0.13454   0.14020   0.14246   0.15175   0.16470

 Mulliken charges:
               1
     1  O   -0.457857
     2  C   -1.393134
     3  C    0.645174
     4  C    1.338147
     5  C   -0.021262
     6  C    0.580469
     7  H   -0.055900
     8  H   -0.635637
 Sum of Mulliken charges =  -0.00000

 Dipole moment (field-independent basis, Debye):
    X=              3.2012    Y=              2.1369    Z=              0.0019  Tot=              3.8489

 Test job not archived.
 1\1\GINC-SE185\SP\RHF\Aug-CC-pVDZ\C5H2O1\OHZDE\05-Apr-2025\0\\#t hf au
 g-cc-pvdz iop(5/13=1,5/36=2,99/5=2) pseudo=read geom=check guess=(read
 ,tcheck) scf=(maxcycle=1)\\title\\0,1\O,0,-2.769216,-0.536264,0.000215
 \C,0,-0.546543,0.198083,-0.000698\C,0,-1.974175,0.375575,0.000309\C,0,
 0.660285,0.101518,-0.000632\C,0,2.012661,-0.024555,-0.000207\C,0,3.212
 576,-0.134634,0.000498\H,0,-2.304988,1.428398,0.00146\H,0,4.269894,-0.
 23421,0.001198\\Version=ES64L-G16RevC.01\State=1-A\HF=-265.3345654\RMS
 D=2.430e-02\Dipole=1.2594674,0.840723,0.0007425\Quadrupole=2.5277511,-

 Normal termination of Gaussian 16 at Sat Apr  5 23:08:50 2025.
