 Gaussian 16, Revision C.01,

 ----------------------------------------------------------------------
 #t hf aug-cc-pvdz symm=none int=(grid=ultrafine) guess=(read,tcheck) s
 table=(opt,rrhf)
 ----------------------------------------------------------------------
 -----
 title
 -----
 Symbolic Z-matrix:
 Charge =  0 Multiplicity = 1

 SCF Done:  E(RHF) =  -193.956294671     A.U. after   13 cycles
 Normal termination of Gaussian 16 at Sat Apr  5 23:09:14 2025.
 Gaussian 16:  ES64L-G16RevC.01  3-Jul-2019

 ----------------------------------------------------------------------
 #t hf aug-cc-pvdz iop(5/13=1,5/36=2,99/5=2) pseudo=read geom=check gue
 ss=(read,tcheck) scf=(maxcycle=1)
 ----------------------------------------------------------------------
 -----
 title
 -----
 Structure from the checkpoint file:  "pentyne.chk"
 Charge =  0 Multiplicity = 1

                         Standard orientation:
 ---------------------------------------------------------------------
 Center     Atomic      Atomic             Coordinates (Angstroms)
 Number     Number       Type             X           Y           Z
 ---------------------------------------------------------------------
      1          6           0       -2.632692    0.270492    0.000000
      2          6           0       -1.445615    0.445322    0.000000
      3          6           0        2.298303   -0.462071    0.000000
      4          6           0        0.000000    0.632435    0.000000
      5          6           0        0.789039   -0.688491    0.000000
      6          1           0       -3.683318    0.121999    0.000000
      7          1           0        2.615695    0.098825    0.881392
      8          1           0        2.836529   -1.410299    0.000000
      9          1           0        2.615695    0.098825   -0.881392
     10          1           0        0.283301    1.225765   -0.874581
     11          1           0        0.283301    1.225765    0.874581
     12          1           0        0.497294   -1.273503   -0.874226
     13          1           0        0.497294   -1.273503    0.874226
 ---------------------------------------------------------------------

 SCF Done:  E(RHF) =  -194.020195561     A.U. after    2 cycles

 The electronic state is 1-A'.
 Alpha  occ. eigenvalues --  -11.25921 -11.24284 -11.23961 -11.22948 -11.22939
 Alpha  occ. eigenvalues --   -1.08345  -1.01457  -0.94016  -0.82411  -0.71918
 Alpha  occ. eigenvalues --   -0.64866  -0.64412  -0.58204  -0.56192  -0.51762
 Alpha  occ. eigenvalues --   -0.49889  -0.48732  -0.38606  -0.38558
 Alpha virt. eigenvalues --    0.03556   0.04061   0.04816   0.05075   0.05964
 Alpha virt. eigenvalues --    0.07304   0.07591   0.08144   0.11179   0.11212
 Alpha virt. eigenvalues --    0.12344   0.12462   0.14281   0.15131   0.15962

 Mulliken charges:
               1
     1  C    0.980424
     2  C   -0.470141
     3  C    0.424674
     4  C   -0.133820
     5  C    0.236062
     6  H   -0.537231
     7  H   -0.068644
     8  H   -0.065471
     9  H   -0.068644
    10  H   -0.008375
    11  H   -0.008375
    12  H   -0.140229
    13  H   -0.140229
 Sum of Mulliken charges =  -0.00000

 Dipole moment (field-independent basis, Debye):
    X=              0.8814    Y=             -0.0967    Z=             -0.0000  Tot=              0.8867

 Test job not archived.
 1\1\GINC-SE046\SP\RHF\Aug-CC-pVDZ\C5H8\OHZDE\05-Apr-2025\0\\#t hf aug-
 cc-pvdz iop(5/13=1,5/36=2,99/5=2) pseudo=read geom=check guess=(read,t
 check) scf=(maxcycle=1)\\title\\0,1\C,0,-2.632692,0.270492,0.\C,0,-1.4
 45615,0.445322,0.\C,0,2.298303,-0.462071,0.\C,0,0.,0.632435,0.\C,0,0.7
 89039,-0.688491,0.\H,0,-3.683318,0.121999,0.\H,0,2.615695,0.098825,0.8
 81392\H,0,2.836529,-1.410299,0.\H,0,2.615695,0.098825,-0.881392\H,0,0.
 283301,1.225765,-0.874581\H,0,0.283301,1.225765,0.874581\H,0,0.497294,
 -1.273503,-0.874226\H,0,0.497294,-1.273503,0.874226\\Version=ES64L-G16

 Normal termination of Gaussian 16 at Sat Apr  5 23:10:21 2025.
