 Gaussian 16, Revision C.01,

 ----------------------------------------------------------------------
 #t hf aug-cc-pvdz symm=none int=(grid=ultrafine) guess=(read,tcheck) s
 table=(opt,rrhf)
 ----------------------------------------------------------------------
 -----
 title
 -----
 Symbolic Z-matrix:
 Charge =  0 Multiplicity = 1

 SCF Done:  E(RHF) =  -196.354001534     A.U. after   11 cycles
 Normal termination of Gaussian 16 at Sat Apr  5 23:09:16 2025.
 Gaussian 16:  ES64L-G16RevC.01  3-Jul-2019

 ----------------------------------------------------------------------
 #t hf aug-cc-pvdz iop(5/13=1,5/36=2,99/5=2) pseudo=read geom=check gue
 ss=(read,tcheck) scf=(maxcycle=1)
 ----------------------------------------------------------------------
 -----
 title
 -----
 Structure from the checkpoint file:  "pentane.chk"
 Charge =  0 Multiplicity = 1

                         Standard orientation:
 ---------------------------------------------------------------------
 Center     Atomic      Atomic             Coordinates (Angstroms)
 Number     Number       Type             X           Y           Z
 ---------------------------------------------------------------------
      1          6           0        0.000000    2.553552    0.323437
      2          6           0       -0.000000   -2.553552    0.323437
      3          6           0        0.000000    1.280666   -0.521619
      4          6           0       -0.000000   -1.280666   -0.521619
      5          6           0        0.000000   -0.000000    0.313781
      6          1           0        0.880619    2.598968    0.967590
      7          1           0       -0.880619    2.598968    0.967590
      8          1           0        0.000000    3.448219   -0.300839
      9          1           0        0.880619   -2.598968    0.967590
     10          1           0       -0.000000   -3.448219   -0.300839
     11          1           0       -0.880619   -2.598968    0.967590
     12          1           0       -0.873927    1.280219   -1.180074
     13          1           0        0.873927    1.280219   -1.180074
     14          1           0       -0.873927   -1.280219   -1.180074
     15          1           0        0.873927   -1.280219   -1.180074
     16          1           0       -0.874435    0.000000    0.973556
     17          1           0        0.874435   -0.000000    0.973556
 ---------------------------------------------------------------------

 SCF Done:  E(RHF) =  -196.419330555     A.U. after    2 cycles

 The electronic state is 1-A1.
 Alpha  occ. eigenvalues --  -11.22358 -11.22358 -11.22102 -11.21898 -11.21897
 Alpha  occ. eigenvalues --   -1.06954  -1.00777  -0.91597  -0.81968  -0.78522
 Alpha  occ. eigenvalues --   -0.64767  -0.60000  -0.59453  -0.55688  -0.54933
 Alpha  occ. eigenvalues --   -0.52818  -0.49699  -0.47788  -0.46315  -0.46004
 Alpha  occ. eigenvalues --   -0.45131
 Alpha virt. eigenvalues --    0.03689   0.04256   0.04686   0.04854   0.06344
 Alpha virt. eigenvalues --    0.06493   0.06840   0.07007   0.09047   0.09470
 Alpha virt. eigenvalues --    0.09933   0.10155   0.11203   0.13985   0.14271

 Mulliken charges:
               1
     1  C    0.493531
     2  C    0.493531
     3  C    0.212531
     4  C    0.212531
     5  C    0.008171
     6  H   -0.080624
     7  H   -0.080624
     8  H   -0.063049
     9  H   -0.080624
    10  H   -0.063049
    11  H   -0.080624
    12  H   -0.149929
    13  H   -0.149929
    14  H   -0.149929
    15  H   -0.149929
    16  H   -0.185993
    17  H   -0.185993
 Sum of Mulliken charges =   0.00000

 Dipole moment (field-independent basis, Debye):
    X=              0.0000    Y=              0.0000    Z=             -0.0837  Tot=              0.0837

 Test job not archived.
 1\1\GINC-SE214\SP\RHF\Aug-CC-pVDZ\C5H12\OHZDE\05-Apr-2025\0\\#t hf aug
 -cc-pvdz iop(5/13=1,5/36=2,99/5=2) pseudo=read geom=check guess=(read,
 tcheck) scf=(maxcycle=1)\\title\\0,1\C,0,0.,2.553552,0.323437\C,0,0.,-
 2.553552,0.323437\C,0,0.,1.280666,-0.521619\C,0,0.,-1.280666,-0.521619
 \C,0,0.,0.,0.313781\H,0,0.880619,2.598968,0.96759\H,0,-0.880619,2.5989
 68,0.96759\H,0,0.,3.448219,-0.300839\H,0,0.880619,-2.598968,0.96759\H,
 0,0.,-3.448219,-0.300839\H,0,-0.880619,-2.598968,0.96759\H,0,-0.873927
 ,1.280219,-1.180074\H,0,0.873927,1.280219,-1.180074\H,0,-0.873927,-1.2

 Normal termination of Gaussian 16 at Sat Apr  5 23:10:22 2025.
