 Gaussian 16, Revision C.01,

 ----------------------------------------------------------------------
 #t hf aug-cc-pvdz symm=none int=(grid=ultrafine) guess=(read,tcheck) s
 table=(opt,rrhf)
 ----------------------------------------------------------------------
 -----
 title
 -----
 Symbolic Z-matrix:
 Charge =  0 Multiplicity = 1

 SCF Done:  E(RHF) =  -748.089064533     A.U. after   13 cycles
 Normal termination of Gaussian 16 at Sat Apr  5 23:09:17 2025.
 Gaussian 16:  ES64L-G16RevC.01  3-Jul-2019

 ----------------------------------------------------------------------
 #t hf aug-cc-pvdz iop(5/13=1,5/36=2,99/5=2) pseudo=read geom=check gue
 ss=(read,tcheck) scf=(maxcycle=1)
 ----------------------------------------------------------------------
 -----
 title
 -----
 Structure from the checkpoint file:  "perfluorobutadiene.chk"
 Charge =  0 Multiplicity = 1

                         Standard orientation:
 ---------------------------------------------------------------------
 Center     Atomic      Atomic             Coordinates (Angstroms)
 Number     Number       Type             X           Y           Z
 ---------------------------------------------------------------------
      1          6           0       -0.188443    1.576098   -0.366092
      2          6           0        0.153555    0.706793    0.580006
      3          6           0       -0.153555   -0.706793    0.580006
      4          6           0        0.188443   -1.576098   -0.366092
      5          9           0        0.153555    2.842567   -0.356772
      6          9           0       -0.892260    1.266786   -1.433390
      7          9           0        0.843111    1.168575    1.647552
      8          9           0       -0.843111   -1.168575    1.647552
      9          9           0        0.892260   -1.266786   -1.433390
     10          9           0       -0.153555   -2.842567   -0.356772
 ---------------------------------------------------------------------

 SCF Done:  E(RHF) =  -748.357051535     A.U. after    2 cycles

 The electronic state is 1-A.
 Alpha  occ. eigenvalues --  -26.20929 -26.20929 -26.20683 -26.20683 -26.17044
 Alpha  occ. eigenvalues --  -26.17043 -11.48339 -11.48338 -11.38894 -11.38814
 Alpha  occ. eigenvalues --   -1.78075  -1.77970  -1.73369  -1.73308  -1.71045
 Alpha  occ. eigenvalues --   -1.70327  -1.17164  -1.10127  -0.99846  -0.95649
 Alpha  occ. eigenvalues --   -0.91002  -0.89959  -0.89357  -0.85811  -0.85450
 Alpha  occ. eigenvalues --   -0.84861  -0.80982  -0.79102  -0.79090  -0.78543
 Alpha  occ. eigenvalues --   -0.78484  -0.77358  -0.77325  -0.76545  -0.76302
 Alpha  occ. eigenvalues --   -0.73616  -0.66104  -0.47015  -0.40983
 Alpha virt. eigenvalues --    0.05813   0.06317   0.07296   0.08029   0.09186
 Alpha virt. eigenvalues --    0.10474   0.10717   0.10729   0.12653   0.12712
 Alpha virt. eigenvalues --    0.14929   0.15203   0.15606   0.15949   0.16129

 Mulliken charges:
               1
     1  C    0.662290
     2  C    0.171639
     3  C    0.171639
     4  C    0.662290
     5  F   -0.252797
     6  F   -0.247440
     7  F   -0.333691
     8  F   -0.333691
     9  F   -0.247440
    10  F   -0.252797
 Sum of Mulliken charges =  -0.00000

 Dipole moment (field-independent basis, Debye):
    X=             -0.0000    Y=             -0.0000    Z=             -0.9768  Tot=              0.9768

 Test job not archived.
 1\1\GINC-SE047\SP\RHF\Aug-CC-pVDZ\C4F6\OHZDE\05-Apr-2025\0\\#t hf aug-
 cc-pvdz iop(5/13=1,5/36=2,99/5=2) pseudo=read geom=check guess=(read,t
 check) scf=(maxcycle=1)\\title\\0,1\C,0,-0.188443,1.576098,-0.366092\C
 ,0,0.153555,0.706793,0.580006\C,0,-0.153555,-0.706793,0.580006\C,0,0.1
 88443,-1.576098,-0.366092\F,0,0.153555,2.842567,-0.356772\F,0,-0.89226
 ,1.266786,-1.43339\F,0,0.843111,1.168575,1.647552\F,0,-0.843111,-1.168
 575,1.647552\F,0,0.89226,-1.266786,-1.43339\F,0,-0.153555,-2.842567,-0
 .356772\\Version=ES64L-G16RevC.01\State=1-A\HF=-748.3570515\RMSD=9.550

 Normal termination of Gaussian 16 at Sat Apr  5 23:10:23 2025.
