 Gaussian 16, Revision C.01,

 ----------------------------------------------------------------------
 #t hf aug-cc-pvdz symm=none int=(grid=ultrafine) guess=(read,tcheck) s
 table=(opt,rrhf)
 ----------------------------------------------------------------------
 -----
 title
 -----
 Symbolic Z-matrix:
 Charge =  0 Multiplicity = 1

 SCF Done:  E(RHF) =  -1382.76932746     A.U. after   11 cycles
 Normal termination of Gaussian 16 at Sat Apr  5 23:12:29 2025.
 Gaussian 16:  ES64L-G16RevC.01  3-Jul-2019

 ----------------------------------------------------------------------
 #t hf aug-cc-pvdz iop(5/13=1,5/36=2,99/5=2) pseudo=read geom=check gue
 ss=(read,tcheck) scf=(maxcycle=1)
 ----------------------------------------------------------------------
 -----
 title
 -----
 Structure from the checkpoint file:  "perfluoropentane.chk"
 Charge =  0 Multiplicity = 1

                         Standard orientation:
 ---------------------------------------------------------------------
 Center     Atomic      Atomic             Coordinates (Angstroms)
 Number     Number       Type             X           Y           Z
 ---------------------------------------------------------------------
      1          6           0        0.000000   -0.000000    0.338951
      2          6           0       -0.058312    1.310999   -0.518663
      3          6           0        0.058312   -1.310999   -0.518663
      4          6           0        0.291389    2.615577    0.272146
      5          6           0       -0.291389   -2.615577    0.272146
      6          9           0        1.094395    0.038571    1.125903
      7          9           0       -1.094395   -0.038571    1.125903
      8          9           0        0.809009    1.215438   -1.547143
      9          9           0       -1.303708    1.452288   -1.008386
     10          9           0       -0.809009   -1.215438   -1.547143
     11          9           0        1.303708   -1.452288   -1.008386
     12          9           0       -0.000000    3.669670   -0.493082
     13          9           0       -0.000000   -3.669670   -0.493082
     14          9           0       -0.424553    2.689340    1.397413
     15          9           0        1.587918    2.657401    0.576655
     16          9           0        0.424553   -2.689340    1.397413
     17          9           0       -1.587918   -2.657401    0.576655
 ---------------------------------------------------------------------

 SCF Done:  E(RHF) =  -1383.25823591     A.U. after    2 cycles

 The electronic state is 1-A.
 Alpha  occ. eigenvalues --  -26.20947 -26.20936 -26.20796 -26.20796 -26.20785
 Alpha  occ. eigenvalues --  -26.20785 -26.20603 -26.20603 -26.20568 -26.20568
 Alpha  occ. eigenvalues --  -26.20461 -26.20460 -11.57876 -11.57874 -11.52217
 Alpha  occ. eigenvalues --  -11.51925 -11.51913  -1.80913  -1.80809  -1.78536
 Alpha  occ. eigenvalues --   -1.77245  -1.77237  -1.73976  -1.73669  -1.73343
 Alpha  occ. eigenvalues --   -1.73280  -1.73157  -1.72666  -1.72591  -1.17933
 Alpha  occ. eigenvalues --   -1.14117  -1.08463  -1.03205  -1.00353  -0.95150
 Alpha  occ. eigenvalues --   -0.94425  -0.93372  -0.92996  -0.92981  -0.92572
 Alpha  occ. eigenvalues --   -0.90769  -0.90552  -0.89715  -0.88209  -0.86333
 Alpha  occ. eigenvalues --   -0.83176  -0.82705  -0.82239  -0.81657  -0.81231
 Alpha  occ. eigenvalues --   -0.80930  -0.80666  -0.80560  -0.79896  -0.79582
 Alpha  occ. eigenvalues --   -0.78997  -0.77473  -0.76880  -0.76650  -0.76459
 Alpha  occ. eigenvalues --   -0.76210  -0.76005  -0.75765  -0.75372  -0.75302
 Alpha  occ. eigenvalues --   -0.70618  -0.68982  -0.64951  -0.58004
 Alpha virt. eigenvalues --    0.06380   0.06656   0.07025   0.07763   0.09124
 Alpha virt. eigenvalues --    0.09290   0.09781   0.10668   0.11810   0.12164
 Alpha virt. eigenvalues --    0.12883   0.13219   0.14794   0.15108   0.15919

 Mulliken charges:
               1
     1  C    0.388188
     2  C    0.691950
     3  C    0.691950
     4  C    1.064286
     5  C    1.064286
     6  F   -0.347128
     7  F   -0.347128
     8  F   -0.372217
     9  F   -0.370210
    10  F   -0.372217
    11  F   -0.370210
    12  F   -0.273165
    13  F   -0.273165
    14  F   -0.296414
    15  F   -0.291196
    16  F   -0.296414
    17  F   -0.291196
 Sum of Mulliken charges =   0.00000

 Dipole moment (field-independent basis, Debye):
    X=             -0.0000    Y=             -0.0000    Z=              0.1498  Tot=              0.1498

 Test job not archived.
 1\1\GINC-SE108\SP\RHF\Aug-CC-pVDZ\C5F12\OHZDE\05-Apr-2025\0\\#t hf aug
 -cc-pvdz iop(5/13=1,5/36=2,99/5=2) pseudo=read geom=check guess=(read,
 tcheck) scf=(maxcycle=1)\\title\\0,1\C,0,0.,0.,0.338951\C,0,-0.058312,
 1.310999,-0.518663\C,0,0.058312,-1.310999,-0.518663\C,0,0.291389,2.615
 577,0.272146\C,0,-0.291389,-2.615577,0.272146\F,0,1.094395,0.038571,1.
 125903\F,0,-1.094395,-0.038571,1.125903\F,0,0.809009,1.215438,-1.54714
 3\F,0,-1.303708,1.452288,-1.008386\F,0,-0.809009,-1.215438,-1.547143\F
 ,0,1.303708,-1.452288,-1.008386\F,0,0.,3.66967,-0.493082\F,0,0.,-3.669

 Normal termination of Gaussian 16 at Sat Apr  5 23:12:39 2025.
