 Gaussian 16, Revision C.01,

 ----------------------------------------------------------------------
 #t hf aug-cc-pvdz symm=none int=(grid=ultrafine) guess=(read,tcheck) s
 table=(opt,rrhf)
 ----------------------------------------------------------------------
 -----
 title
 -----
 Symbolic Z-matrix:
 Charge =  0 Multiplicity = 1

 SCF Done:  E(RHF) =  -909.232159214     A.U. after   11 cycles
 Normal termination of Gaussian 16 at Sat Apr  5 23:09:18 2025.
 Gaussian 16:  ES64L-G16RevC.01  3-Jul-2019

 ----------------------------------------------------------------------
 #t hf aug-cc-pvdz iop(5/13=1,5/36=2,99/5=2) pseudo=read geom=check gue
 ss=(read,tcheck) scf=(maxcycle=1)
 ----------------------------------------------------------------------
 -----
 title
 -----
 Structure from the checkpoint file:  "perfluoropropane.chk"
 Charge =  0 Multiplicity = 1

                         Standard orientation:
 ---------------------------------------------------------------------
 Center     Atomic      Atomic             Coordinates (Angstroms)
 Number     Number       Type             X           Y           Z
 ---------------------------------------------------------------------
      1          6           0        0.000000   -0.000000    0.590836
      2          6           0        0.000000    1.321706   -0.236848
      3          6           0       -0.000000   -1.321706   -0.236848
      4          9           0        1.097195   -0.000000    1.372804
      5          9           0       -1.097195    0.000000    1.372804
      6          9           0        0.000000    2.356688    0.605533
      7          9           0       -0.000000   -2.356688    0.605533
      8          9           0        1.086235    1.396250   -1.008692
      9          9           0       -1.086235    1.396250   -1.008692
     10          9           0       -1.086235   -1.396250   -1.008692
     11          9           0        1.086235   -1.396250   -1.008692
 ---------------------------------------------------------------------

 SCF Done:  E(RHF) =  -909.559180535     A.U. after    2 cycles

 The electronic state is 1-A1.
 Alpha  occ. eigenvalues --  -26.20733 -26.20732 -26.20722 -26.20722 -26.20507
 Alpha  occ. eigenvalues --  -26.20507 -26.20501 -26.20492 -11.57882 -11.57872
 Alpha  occ. eigenvalues --  -11.51569  -1.81153  -1.80451  -1.77166  -1.73882
 Alpha  occ. eigenvalues --   -1.73382  -1.73369  -1.73273  -1.72505  -1.16176
 Alpha  occ. eigenvalues --   -1.08181  -1.01909  -0.95219  -0.94155  -0.93539
 Alpha  occ. eigenvalues --   -0.92335  -0.91330  -0.91177  -0.87670  -0.82820
 Alpha  occ. eigenvalues --   -0.82148  -0.81654  -0.80632  -0.80399  -0.80143
 Alpha  occ. eigenvalues --   -0.79625  -0.77512  -0.77356  -0.76255  -0.76155
 Alpha  occ. eigenvalues --   -0.76134  -0.75379  -0.75279  -0.69127  -0.61240
 Alpha virt. eigenvalues --    0.07110   0.07289   0.07619   0.08331   0.10552
 Alpha virt. eigenvalues --    0.10903   0.10957   0.12523   0.13198   0.14760
 Alpha virt. eigenvalues --    0.18997   0.19736   0.19959   0.20615   0.23526

 Mulliken charges:
               1
     1  C    0.605974
     2  C    0.894478
     3  C    0.894478
     4  F   -0.367935
     5  F   -0.367935
     6  F   -0.263958
     7  F   -0.263958
     8  F   -0.282786
     9  F   -0.282786
    10  F   -0.282786
    11  F   -0.282786
 Sum of Mulliken charges =   0.00000

 Dipole moment (field-independent basis, Debye):
    X=              0.0000    Y=              0.0000    Z=             -0.1908  Tot=              0.1908

 Test job not archived.
 1\1\GINC-SE208\SP\RHF\Aug-CC-pVDZ\C3F8\OHZDE\05-Apr-2025\0\\#t hf aug-
 cc-pvdz iop(5/13=1,5/36=2,99/5=2) pseudo=read geom=check guess=(read,t
 check) scf=(maxcycle=1)\\title\\0,1\C,0,0.,0.,0.590836\C,0,0.,1.321706
 ,-0.236848\C,0,0.,-1.321706,-0.236848\F,0,1.097195,0.,1.372804\F,0,-1.
 097195,0.,1.372804\F,0,0.,2.356688,0.605533\F,0,0.,-2.356688,0.605533\
 F,0,1.086235,1.39625,-1.008692\F,0,-1.086235,1.39625,-1.008692\F,0,-1.
 086235,-1.39625,-1.008692\F,0,1.086235,-1.39625,-1.008692\\Version=ES6
 4L-G16RevC.01\State=1-A1\HF=-909.5591805\RMSD=6.968e-03\Dipole=0.,0.,-

 Normal termination of Gaussian 16 at Sat Apr  5 23:10:23 2025.
