 Gaussian 16, Revision C.01,

 ----------------------------------------------------------------------
 #t hf aug-cc-pvdz symm=none int=(grid=ultrafine) guess=(read,tcheck) s
 table=(opt,rrhf)
 ----------------------------------------------------------------------
 -----
 title
 -----
 Symbolic Z-matrix:
 Charge =  0 Multiplicity = 1

 SCF Done:  E(RHF) =  -1146.00062231     A.U. after   11 cycles
 Normal termination of Gaussian 16 at Sat Apr  5 23:10:18 2025.
 Gaussian 16:  ES64L-G16RevC.01  3-Jul-2019

 ----------------------------------------------------------------------
 #t hf aug-cc-pvdz iop(5/13=1,5/36=2,99/5=2) pseudo=read geom=check gue
 ss=(read,tcheck) scf=(maxcycle=1)
 ----------------------------------------------------------------------
 -----
 title
 -----
 Structure from the checkpoint file:  "perfluorobutane.chk"
 Charge =  0 Multiplicity = 1

                         Standard orientation:
 ---------------------------------------------------------------------
 Center     Atomic      Atomic             Coordinates (Angstroms)
 Number     Number       Type             X           Y           Z
 ---------------------------------------------------------------------
      1          6           0       -0.588673    0.514586   -0.092762
      2          6           0        0.588673   -0.514586   -0.092763
      3          6           0       -2.009338   -0.118245    0.074227
      4          6           0        2.009338    0.118245    0.074228
      5          9           0       -0.415550    1.394344    0.915469
      6          9           0       -0.572838    1.184057   -1.260942
      7          9           0        0.415550   -1.394345    0.915467
      8          9           0        0.572838   -1.184055   -1.260944
      9          9           0       -2.925528    0.830845   -0.129852
     10          9           0        2.925528   -0.830845   -0.129853
     11          9           0       -2.197432   -1.096346   -0.814973
     12          9           0       -2.171696   -0.609091    1.302656
     13          9           0        2.197432    1.096347   -0.814971
     14          9           0        2.171696    0.609089    1.302657
 ---------------------------------------------------------------------

 SCF Done:  E(RHF) =  -1146.40859250     A.U. after    2 cycles

 The electronic state is 1-A.
 Alpha  occ. eigenvalues --  -26.20816 -26.20814 -26.20774 -26.20774 -26.20615
 Alpha  occ. eigenvalues --  -26.20614 -26.20601 -26.20599 -26.20470 -26.20470
 Alpha  occ. eigenvalues --  -11.57890 -11.57889 -11.51919 -11.51872  -1.80990
 Alpha  occ. eigenvalues --   -1.80710  -1.77915  -1.77137  -1.73925  -1.73559
 Alpha  occ. eigenvalues --   -1.73341  -1.73245  -1.72886  -1.72536  -1.17327
 Alpha  occ. eigenvalues --   -1.11868  -1.05017  -1.00976  -0.94887  -0.94602
 Alpha  occ. eigenvalues --   -0.93381  -0.92785  -0.92090  -0.92076  -0.90142
 Alpha  occ. eigenvalues --   -0.89539  -0.86709  -0.82811  -0.82437  -0.81700
 Alpha  occ. eigenvalues --   -0.81464  -0.81276  -0.80685  -0.80316  -0.79533
 Alpha  occ. eigenvalues --   -0.79330  -0.77475  -0.76877  -0.76507  -0.76382
 Alpha  occ. eigenvalues --   -0.76114  -0.75766  -0.75513  -0.75241  -0.70247
 Alpha  occ. eigenvalues --   -0.66967  -0.59288
 Alpha virt. eigenvalues --    0.06513   0.07119   0.07289   0.08040   0.09317
 Alpha virt. eigenvalues --    0.10289   0.10320   0.11651   0.12649   0.13342
 Alpha virt. eigenvalues --    0.13956   0.14112   0.16759   0.18228   0.18734

 Mulliken charges:
               1
     1  C    0.529839
     2  C    0.529838
     3  C    1.042643
     4  C    1.042642
     5  F   -0.363495
     6  F   -0.357980
     7  F   -0.363495
     8  F   -0.357980
     9  F   -0.272637
    10  F   -0.272638
    11  F   -0.294182
    12  F   -0.284186
    13  F   -0.294182
    14  F   -0.284185
 Sum of Mulliken charges =  -0.00000

 Dipole moment (field-independent basis, Debye):
    X=              0.0000    Y=              0.0000    Z=              0.0525  Tot=              0.0525

 Test job not archived.
 1\1\GINC-SE106\SP\RHF\Aug-CC-pVDZ\C4F10\OHZDE\05-Apr-2025\0\\#t hf aug
 -cc-pvdz iop(5/13=1,5/36=2,99/5=2) pseudo=read geom=check guess=(read,
 tcheck) scf=(maxcycle=1)\\title\\0,1\C,0,-0.588673,0.514586,-0.092762\
 C,0,0.588673,-0.514586,-0.092763\C,0,-2.009338,-0.118245,0.074227\C,0,
 2.009338,0.118245,0.074228\F,0,-0.41555,1.394344,0.915469\F,0,-0.57283
 8,1.184057,-1.260942\F,0,0.41555,-1.394345,0.915467\F,0,0.572838,-1.18
 4055,-1.260944\F,0,-2.925528,0.830845,-0.129852\F,0,2.925528,-0.830845
 ,-0.129853\F,0,-2.197432,-1.096346,-0.814973\F,0,-2.171696,-0.609091,1

 Normal termination of Gaussian 16 at Sat Apr  5 23:10:29 2025.
