 Gaussian 16, Revision C.01,

 ----------------------------------------------------------------------
 #t hf aug-cc-pvdz symm=none int=(grid=ultrafine) guess=(read,tcheck) s
 table=(opt,rrhf)
 ----------------------------------------------------------------------
 -----
 title
 -----
 Symbolic Z-matrix:
 Charge =  0 Multiplicity = 1

 SCF Done:  E(RHF) =  -2093.07570818     A.U. after   12 cycles
 Normal termination of Gaussian 16 at Sat Apr  5 23:24:20 2025.
 Gaussian 16:  ES64L-G16RevC.01  3-Jul-2019

 ----------------------------------------------------------------------
 #t hf aug-cc-pvdz iop(5/13=1,5/36=2,99/5=2) pseudo=read geom=check gue
 ss=(read,tcheck) scf=(maxcycle=1)
 ----------------------------------------------------------------------
 -----
 title
 -----
 Structure from the checkpoint file:  "perfluorooctane.chk"
 Charge =  0 Multiplicity = 1

                         Standard orientation:
 ---------------------------------------------------------------------
 Center     Atomic      Atomic             Coordinates (Angstroms)
 Number     Number       Type             X           Y           Z
 ---------------------------------------------------------------------
      1          6           0       -0.643755    0.451811   -0.116063
      2          6           0        0.643754   -0.451811   -0.116065
      3          6           0       -1.971641   -0.359225    0.109674
      4          6           0        1.971641    0.359224    0.109675
      5          6           0       -3.260971    0.423128   -0.322117
      6          6           0        3.260972   -0.423127   -0.322118
      7          6           0       -4.593120   -0.161784    0.255224
      8          6           0        4.593120    0.161783    0.255225
      9          9           0       -0.717886    1.087551   -1.301534
     10          9           0       -0.534691    1.367522    0.866508
     11          9           0        0.717886   -1.087547   -1.301538
     12          9           0        0.534691   -1.367525    0.866504
     13          9           0       -2.067751   -0.666456    1.418445
     14          9           0       -1.915832   -1.502658   -0.602171
     15          9           0        2.067750    0.666452    1.418447
     16          9           0        1.915832    1.502659   -0.602167
     17          9           0       -3.354065    0.399093   -1.664116
     18          9           0       -3.170091    1.704673    0.088792
     19          9           0        3.170091   -1.704673    0.088788
     20          9           0        3.354066   -0.399089   -1.664117
     21          9           0       -5.619910    0.441189   -0.347993
     22          9           0       -4.668993   -1.475221    0.024297
     23          9           0       -4.683604    0.056486    1.566635
     24          9           0        4.668993    1.475221    0.024300
     25          9           0        5.619909   -0.441188   -0.347994
     26          9           0        4.683603   -0.056489    1.566635
 ---------------------------------------------------------------------

 SCF Done:  E(RHF) =  -2093.80729989     A.U. after    2 cycles

 The electronic state is 1-A.
 Alpha  occ. eigenvalues --  -26.20919 -26.20918 -26.20912 -26.20912 -26.20907
 Alpha  occ. eigenvalues --  -26.20907 -26.20897 -26.20894 -26.20786 -26.20786
 Alpha  occ. eigenvalues --  -26.20766 -26.20766 -26.20582 -26.20582 -26.20542
 Alpha  occ. eigenvalues --  -26.20542 -26.20438 -26.20438 -11.57853 -11.57853
 Alpha  occ. eigenvalues --  -11.52293 -11.52264 -11.52222 -11.52207 -11.51894
 Alpha  occ. eigenvalues --  -11.51892  -1.80844  -1.80840  -1.79329  -1.78408
 Alpha  occ. eigenvalues --   -1.77518  -1.77379  -1.77188  -1.77117  -1.74052
 Alpha  occ. eigenvalues --   -1.73848  -1.73603  -1.73334  -1.73275  -1.73209
 Alpha  occ. eigenvalues --   -1.72933  -1.72756  -1.72610  -1.72589  -1.18631
 Alpha  occ. eigenvalues --   -1.16979  -1.14285  -1.10718  -1.06645  -1.03051
 Alpha  occ. eigenvalues --   -1.00724  -0.99622  -0.95069  -0.94737  -0.94073
 Alpha  occ. eigenvalues --   -0.93733  -0.93210  -0.93109  -0.92349  -0.91955
 Alpha  occ. eigenvalues --   -0.91725  -0.90723  -0.90423  -0.90321  -0.89245
 Alpha  occ. eigenvalues --   -0.88481  -0.87779  -0.86650  -0.86001  -0.83450
 Alpha  occ. eigenvalues --   -0.83345  -0.82683  -0.82564  -0.81882  -0.81722
 Alpha  occ. eigenvalues --   -0.81287  -0.81116  -0.81014  -0.80816  -0.80461
 Alpha  occ. eigenvalues --   -0.80269  -0.80150  -0.79618  -0.79582  -0.79082
 Alpha  occ. eigenvalues --   -0.78721  -0.77386  -0.77009  -0.76792  -0.76679
 Alpha  occ. eigenvalues --   -0.76476  -0.76331  -0.76191  -0.76003  -0.75790
 Alpha  occ. eigenvalues --   -0.75566  -0.75329  -0.75268  -0.70872  -0.70312
 Alpha  occ. eigenvalues --   -0.69566  -0.68093  -0.65123  -0.60637  -0.56016
 Alpha virt. eigenvalues --    0.05895   0.06275   0.06643   0.06957   0.07953
 Alpha virt. eigenvalues --    0.08333   0.08484   0.09596   0.09949   0.10196
 Alpha virt. eigenvalues --    0.10564   0.10821   0.12014   0.12276   0.12681

 Mulliken charges:
               1
     1  C    0.626330
     2  C    0.626331
     3  C    0.619013
     4  C    0.619012
     5  C    0.791355
     6  C    0.791356
     7  C    1.103831
     8  C    1.103831
     9  F   -0.378220
    10  F   -0.374403
    11  F   -0.378221
    12  F   -0.374404
    13  F   -0.381874
    14  F   -0.367257
    15  F   -0.381874
    16  F   -0.367258
    17  F   -0.390855
    18  F   -0.381631
    19  F   -0.381631
    20  F   -0.390855
    21  F   -0.272241
    22  F   -0.298483
    23  F   -0.295564
    24  F   -0.298484
    25  F   -0.272240
    26  F   -0.295563
 Sum of Mulliken charges =  -0.00000

 Dipole moment (field-independent basis, Debye):
    X=              0.0000    Y=             -0.0000    Z=              0.1292  Tot=              0.1292

 Test job not archived.
 1\1\GINC-SE107\SP\RHF\Aug-CC-pVDZ\C8F18\OHZDE\05-Apr-2025\0\\#t hf aug
 -cc-pvdz iop(5/13=1,5/36=2,99/5=2) pseudo=read geom=check guess=(read,
 tcheck) scf=(maxcycle=1)\\title\\0,1\C,0,-0.643755,0.451811,-0.116063\
 C,0,0.643754,-0.451811,-0.116065\C,0,-1.971641,-0.359225,0.109674\C,0,
 1.971641,0.359224,0.109675\C,0,-3.260971,0.423128,-0.322117\C,0,3.2609
 72,-0.423127,-0.322118\C,0,-4.59312,-0.161784,0.255224\C,0,4.59312,0.1
 61783,0.255225\F,0,-0.717886,1.087551,-1.301534\F,0,-0.534691,1.367522
 ,0.866508\F,0,0.717886,-1.087547,-1.301538\F,0,0.534691,-1.367525,0.86

 Normal termination of Gaussian 16 at Sat Apr  5 23:25:09 2025.
