 Gaussian 16, Revision C.01,

 ----------------------------------------------------------------------
 #t hf aug-cc-pvdz symm=none int=(grid=ultrafine) guess=(read,tcheck) s
 table=(opt,rrhf)
 ----------------------------------------------------------------------
 -----
 title
 -----
 Symbolic Z-matrix:
 Charge =  0 Multiplicity = 1

 SCF Done:  E(RHF) =  -306.410158611     A.U. after   15 cycles
 Normal termination of Gaussian 16 at Sat Apr  5 23:11:19 2025.
 Gaussian 16:  ES64L-G16RevC.01  3-Jul-2019

 ----------------------------------------------------------------------
 #t hf aug-cc-pvdz iop(5/13=1,5/36=2,99/5=2) pseudo=read geom=check gue
 ss=(read,tcheck) scf=(maxcycle=1)
 ----------------------------------------------------------------------
 -----
 title
 -----
 Structure from the checkpoint file:  "phenylacetylene.chk"
 Charge =  0 Multiplicity = 1

                         Standard orientation:
 ---------------------------------------------------------------------
 Center     Atomic      Atomic             Coordinates (Angstroms)
 Number     Number       Type             X           Y           Z
 ---------------------------------------------------------------------
      1          6           0        0.000000   -0.000000    0.592096
      2          6           0        0.000000   -0.000000    2.018067
      3          6           0        0.000000    1.207433   -0.119647
      4          6           0       -0.000000   -1.207433   -0.119647
      5          6           0        0.000000    1.203152   -1.506425
      6          6           0       -0.000000   -1.203152   -1.506425
      7          6           0        0.000000    0.000000   -2.204188
      8          6           0        0.000000   -0.000000    3.219986
      9          1           0        0.000000   -0.000000    4.280998
     10          1           0        0.000000    2.140945    0.425266
     11          1           0       -0.000000   -2.140945    0.425266
     12          1           0        0.000000    2.141685   -2.044307
     13          1           0       -0.000000   -2.141685   -2.044307
     14          1           0        0.000000    0.000000   -3.285824
 ---------------------------------------------------------------------

 SCF Done:  E(RHF) =  -306.502779603     A.U. after    2 cycles

 The electronic state is 1-A1.
 Alpha  occ. eigenvalues --  -11.27468 -11.25650 -11.25645 -11.25488 -11.25217
 Alpha  occ. eigenvalues --  -11.25197 -11.25174 -11.24225  -1.16075  -1.06224
 Alpha  occ. eigenvalues --   -1.02235  -0.99642  -0.85845  -0.84028  -0.75266
 Alpha  occ. eigenvalues --   -0.70959  -0.67038  -0.64630  -0.61632  -0.60264
 Alpha  occ. eigenvalues --   -0.53057  -0.52419  -0.51094  -0.43501  -0.40307
 Alpha  occ. eigenvalues --   -0.35107  -0.32523
 Alpha virt. eigenvalues --    0.03361   0.03786   0.04139   0.05109   0.06048
 Alpha virt. eigenvalues --    0.06976   0.07483   0.10112   0.10743   0.10950
 Alpha virt. eigenvalues --    0.11080   0.12038   0.12283   0.14128   0.14360

 Mulliken charges:
               1
     1  C    0.580919
     2  C    0.234114
     3  C    0.360518
     4  C    0.360518
     5  C    0.304058
     6  C    0.304058
     7  C    0.200826
     8  C    0.544573
     9  H   -0.501373
    10  H   -0.539824
    11  H   -0.539824
    12  H   -0.437031
    13  H   -0.437031
    14  H   -0.434502
 Sum of Mulliken charges =  -0.00000

 Dipole moment (field-independent basis, Debye):
    X=              0.0000    Y=             -0.0000    Z=             -0.7678  Tot=              0.7678

 Test job not archived.
 1\1\GINC-SE085\SP\RHF\Aug-CC-pVDZ\C8H6\OHZDE\05-Apr-2025\0\\#t hf aug-
 cc-pvdz iop(5/13=1,5/36=2,99/5=2) pseudo=read geom=check guess=(read,t
 check) scf=(maxcycle=1)\\title\\0,1\C,0,0.,0.,0.592096\C,0,0.,0.,2.018
 067\C,0,0.,1.207433,-0.119647\C,0,0.,-1.207433,-0.119647\C,0,0.,1.2031
 52,-1.506425\C,0,0.,-1.203152,-1.506425\C,0,0.,0.,-2.204188\C,0,0.,0.,
 3.219986\H,0,0.,0.,4.280998\H,0,0.,2.140945,0.425266\H,0,0.,-2.140945,
 0.425266\H,0,0.,2.141685,-2.044307\H,0,0.,-2.141685,-2.044307\H,0,0.,0
 .,-3.285824\\Version=ES64L-G16RevC.01\State=1-A1\HF=-306.5027796\RMSD=

 Normal termination of Gaussian 16 at Sat Apr  5 23:12:24 2025.
