 Gaussian 16, Revision C.01,

 ----------------------------------------------------------------------
 #t hf aug-cc-pvdz symm=none int=(grid=ultrafine) guess=(read,tcheck) s
 table=(opt,rrhf)
 ----------------------------------------------------------------------
 -----
 title
 -----
 Symbolic Z-matrix:
 Charge =  0 Multiplicity = 1

 SCF Done:  E(RHF) =  -551.490690691     A.U. after   15 cycles
 Normal termination of Gaussian 16 at Sat Apr  5 23:13:51 2025.
 Gaussian 16:  ES64L-G16RevC.01  3-Jul-2019

 ----------------------------------------------------------------------
 #t hf aug-cc-pvdz iop(5/13=1,5/36=2,99/5=2) pseudo=read geom=check gue
 ss=(read,tcheck) scf=(maxcycle=1)
 ----------------------------------------------------------------------
 -----
 title
 -----
 Structure from the checkpoint file:  "phenylalanine.chk"
 Charge =  0 Multiplicity = 1

                         Standard orientation:
 ---------------------------------------------------------------------
 Center     Atomic      Atomic             Coordinates (Angstroms)
 Number     Number       Type             X           Y           Z
 ---------------------------------------------------------------------
      1          7           0       -1.339042    1.450654   -0.784825
      2          6           0       -1.389756    0.054525   -0.330039
      3          6           0       -2.841838   -0.324033    0.031390
      4          8           0       -3.133850   -1.336349    0.609477
      5          8           0       -3.754709    0.560078   -0.391499
      6          1           0       -3.240979    1.282550   -0.814313
      7          6           0       -0.428785   -0.303489    0.819231
      8          6           0        1.025254   -0.197841    0.432381
      9          6           0        1.621881   -1.185950   -0.355385
     10          6           0        2.953581   -1.088667   -0.737089
     11          6           0        3.718469    0.001996   -0.335343
     12          6           0        3.141002    0.988624    0.453392
     13          6           0        1.805840    0.886727    0.832293
     14          1           0       -1.147606   -0.573924   -1.190629
     15          1           0       -0.639640    0.355030    1.665991
     16          1           0       -0.667999   -1.315484    1.143917
     17          1           0        1.040607   -2.046855   -0.662923
     18          1           0        3.397501   -1.868361   -1.341580
     19          1           0        4.756749    0.076482   -0.628637
     20          1           0        3.729078    1.836137    0.779435
     21          1           0        1.370663    1.654866    1.459995
     22          1           0       -1.109294    2.078090   -0.023130
     23          1           0       -0.641205    1.585711   -1.503173
 ---------------------------------------------------------------------

 SCF Done:  E(RHF) =  -551.656668047     A.U. after    2 cycles

 The electronic state is 1-A.
 Alpha  occ. eigenvalues --  -20.61019 -20.55270 -15.64780 -11.39002 -11.30586
 Alpha  occ. eigenvalues --  -11.26393 -11.25680 -11.25675 -11.25648 -11.25443
 Alpha  occ. eigenvalues --  -11.25323 -11.25296  -1.41324  -1.32379  -1.19655
 Alpha  occ. eigenvalues --   -1.15842  -1.06248  -1.02293  -0.99302  -0.90732
 Alpha  occ. eigenvalues --   -0.84378  -0.82354  -0.80933  -0.74878  -0.71480
 Alpha  occ. eigenvalues --   -0.69524  -0.67575  -0.65696  -0.65053  -0.63570
 Alpha  occ. eigenvalues --   -0.62092  -0.60375  -0.59870  -0.58014  -0.56359
 Alpha  occ. eigenvalues --   -0.53368  -0.51197  -0.50555  -0.50325  -0.48475
 Alpha  occ. eigenvalues --   -0.47106  -0.42695  -0.35364  -0.34499
 Alpha virt. eigenvalues --    0.02442   0.03183   0.03745   0.04318   0.05082
 Alpha virt. eigenvalues --    0.05588   0.06392   0.06667   0.07238   0.08205
 Alpha virt. eigenvalues --    0.09113   0.09527   0.10114   0.10788   0.11667

 Mulliken charges:
               1
     1  N   -0.530349
     2  C   -0.074658
     3  C    0.678176
     4  O   -0.478412
     5  O   -0.477174
     6  H    0.262831
     7  C    0.434290
     8  C    0.909385
     9  C    0.569240
    10  C    0.055382
    11  C    0.719497
    12  C    0.207077
    13  C    0.526290
    14  H   -0.022230
    15  H   -0.175269
    16  H   -0.133792
    17  H   -0.643053
    18  H   -0.459343
    19  H   -0.441191
    20  H   -0.460970
    21  H   -0.624937
    22  H    0.082265
    23  H    0.076944
 Sum of Mulliken charges =   0.00000

 Dipole moment (field-independent basis, Debye):
    X=              4.8094    Y=              3.1108    Z=             -1.6111  Tot=              5.9501

 Test job not archived.
 1\1\GINC-SE115\SP\RHF\Aug-CC-pVDZ\C9H11N1O2\OHZDE\05-Apr-2025\0\\#t hf
  aug-cc-pvdz iop(5/13=1,5/36=2,99/5=2) pseudo=read geom=check guess=(r
 ead,tcheck) scf=(maxcycle=1)\\title\\0,1\N,0,-1.339042,1.450654,-0.784
 825\C,0,-1.389756,0.054525,-0.330039\C,0,-2.841838,-0.324033,0.03139\O
 ,0,-3.13385,-1.336349,0.609477\O,0,-3.754709,0.560078,-0.391499\H,0,-3
 .240979,1.28255,-0.814313\C,0,-0.428785,-0.303489,0.819231\C,0,1.02525
 4,-0.197841,0.432381\C,0,1.621881,-1.18595,-0.355385\C,0,2.953581,-1.0
 88667,-0.737089\C,0,3.718469,0.001996,-0.335343\C,0,3.141002,0.988624,

 Normal termination of Gaussian 16 at Sat Apr  5 23:14:08 2025.
