 Gaussian 16, Revision C.01,

 ----------------------------------------------------------------------
 #t hf aug-cc-pvdz symm=none int=(grid=ultrafine) guess=(read,tcheck) s
 table=(opt,rrhf)
 ----------------------------------------------------------------------
 -----
 title
 -----
 Symbolic Z-matrix:
 Charge =  0 Multiplicity = 1

 SCF Done:  E(RHF) =  -418.349399902     A.U. after   15 cycles
 Normal termination of Gaussian 16 at Sat Apr  5 23:11:17 2025.
 Gaussian 16:  ES64L-G16RevC.01  3-Jul-2019

 ----------------------------------------------------------------------
 #t hf aug-cc-pvdz iop(5/13=1,5/36=2,99/5=2) pseudo=read geom=check gue
 ss=(read,tcheck) scf=(maxcycle=1)
 ----------------------------------------------------------------------
 -----
 title
 -----
 Structure from the checkpoint file:  "phenyl_formate.chk"
 Charge =  0 Multiplicity = 1

                         Standard orientation:
 ---------------------------------------------------------------------
 Center     Atomic      Atomic             Coordinates (Angstroms)
 Number     Number       Type             X           Y           Z
 ---------------------------------------------------------------------
      1          6           0        2.487747    0.326580    0.218061
      2          6           0        2.045807   -0.986436    0.330087
      3          6           0        1.598711    1.325573   -0.163943
      4          6           0        0.718272   -1.302587    0.064989
      5          6           0        0.269988    1.021727   -0.434324
      6          6           0       -0.152532   -0.293089   -0.311684
      7          6           0       -2.512580   -0.121577    0.007190
      8          8           0       -2.466293    0.684083    0.887913
      9          8           0       -1.461326   -0.671192   -0.645444
     10          1           0        3.520254    0.570857    0.425766
     11          1           0        2.732232   -1.768633    0.623796
     12          1           0        1.937995    2.348421   -0.253363
     13          1           0        0.355162   -2.317509    0.142752
     14          1           0       -0.426389    1.792073   -0.729422
     15          1           0       -3.430787   -0.549489   -0.411541
 ---------------------------------------------------------------------

 SCF Done:  E(RHF) =  -418.479106988     A.U. after    2 cycles

 The electronic state is 1-A.
 Alpha  occ. eigenvalues --  -20.64068 -20.58228 -11.41081 -11.32079 -11.25636
 Alpha  occ. eigenvalues --  -11.25601 -11.25421 -11.25398 -11.25047  -1.43923
 Alpha  occ. eigenvalues --   -1.35304  -1.15671  -1.03208  -1.02650  -0.90996
 Alpha  occ. eigenvalues --   -0.85338  -0.80486  -0.74980  -0.72683  -0.69581
 Alpha  occ. eigenvalues --   -0.68551  -0.64209  -0.62013  -0.60761  -0.59871
 Alpha  occ. eigenvalues --   -0.53565  -0.53380  -0.51400  -0.49597  -0.48815
 Alpha  occ. eigenvalues --   -0.35261  -0.34595
 Alpha virt. eigenvalues --    0.03363   0.03842   0.04103   0.05287   0.05820
 Alpha virt. eigenvalues --    0.06977   0.08780   0.09958   0.10494   0.10764
 Alpha virt. eigenvalues --    0.11391   0.11784   0.13527   0.13779   0.14337

 Mulliken charges:
               1
     1  C    0.497806
     2  C    0.682309
     3  C    0.598533
     4  C    0.329661
     5  C    0.471042
     6  C    0.279245
     7  C    0.709492
     8  O   -0.373575
     9  O   -0.670534
    10  H   -0.446262
    11  H   -0.430342
    12  H   -0.443311
    13  H   -0.474901
    14  H   -0.543564
    15  H   -0.185599
 Sum of Mulliken charges =  -0.00000

 Dipole moment (field-independent basis, Debye):
    X=              0.8497    Y=             -1.0505    Z=             -1.2919  Tot=              1.8693

 Test job not archived.
 1\1\GINC-SE047\SP\RHF\Aug-CC-pVDZ\C7H6O2\OHZDE\05-Apr-2025\0\\#t hf au
 g-cc-pvdz iop(5/13=1,5/36=2,99/5=2) pseudo=read geom=check guess=(read
 ,tcheck) scf=(maxcycle=1)\\title\\0,1\C,0,2.487747,0.32658,0.218061\C,
 0,2.045807,-0.986436,0.330087\C,0,1.598711,1.325573,-0.163943\C,0,0.71
 8272,-1.302587,0.064989\C,0,0.269988,1.021727,-0.434324\C,0,-0.152532,
 -0.293089,-0.311684\C,0,-2.51258,-0.121577,0.00719\O,0,-2.466293,0.684
 083,0.887913\O,0,-1.461326,-0.671192,-0.645444\H,0,3.520254,0.570857,0
 .425766\H,0,2.732232,-1.768633,0.623796\H,0,1.937995,2.348421,-0.25336

 Normal termination of Gaussian 16 at Sat Apr  5 23:12:27 2025.
