 Gaussian 16, Revision C.01,

 ----------------------------------------------------------------------
 #t hf aug-cc-pvdz symm=none int=(grid=ultrafine) guess=(read,tcheck) s
 table=(opt,rrhf)
 ----------------------------------------------------------------------
 -----
 title
 -----
 Symbolic Z-matrix:
 Charge =  0 Multiplicity = 1

 SCF Done:  E(RHF) =  -1007.48738937     A.U. after   15 cycles
 Normal termination of Gaussian 16 at Sat Apr  5 23:17:08 2025.
 Gaussian 16:  ES64L-G16RevC.01  3-Jul-2019

 ----------------------------------------------------------------------
 #t hf aug-cc-pvdz iop(5/13=1,5/36=2,99/5=2) pseudo=read geom=check gue
 ss=(read,tcheck) scf=(maxcycle=1)
 ----------------------------------------------------------------------
 -----
 title
 -----
 Structure from the checkpoint file:  "phenylsulfonylbenzene.chk"
 Charge =  0 Multiplicity = 1

                         Standard orientation:
 ---------------------------------------------------------------------
 Center     Atomic      Atomic             Coordinates (Angstroms)
 Number     Number       Type             X           Y           Z
 ---------------------------------------------------------------------
      1          8           0        1.182952    0.463928    2.029051
      2         16           0        0.000000   -0.000000    1.311979
      3          8           0       -1.182952   -0.463928    2.029051
      4          6           0       -0.520392    1.327106    0.212950
      5          6           0        0.409097    2.277935   -0.192069
      6          6           0        0.000000    3.304743   -1.033775
      7          6           0       -1.322848    3.373603   -1.458638
      8          6           0       -2.245249    2.421077   -1.037808
      9          6           0       -1.847361    1.389895   -0.196106
     10          6           0        0.520392   -1.327106    0.212950
     11          6           0       -0.409097   -2.277935   -0.192069
     12          6           0       -0.000000   -3.304743   -1.033775
     13          6           0        1.322848   -3.373603   -1.458638
     14          6           0        2.245249   -2.421077   -1.037808
     15          6           0        1.847361   -1.389895   -0.196106
     16          1           0        1.426580    2.222201    0.166269
     17          1           0        0.711915    4.054300   -1.350886
     18          1           0       -1.637459    4.175977   -2.112088
     19          1           0       -3.276080    2.484727   -1.358041
     20          1           0       -2.555114    0.655284    0.159175
     21          1           0       -1.426580   -2.222201    0.166269
     22          1           0       -0.711915   -4.054300   -1.350886
     23          1           0        1.637459   -4.175977   -2.112088
     24          1           0        3.276080   -2.484727   -1.358041
     25          1           0        2.555114   -0.655284    0.159175
 ---------------------------------------------------------------------

 SCF Done:  E(RHF) =  -1007.73827098     A.U. after    2 cycles

 The electronic state is 1-A.
 Alpha  occ. eigenvalues --  -93.78335 -20.55506 -20.55504 -11.28707 -11.28695
 Alpha  occ. eigenvalues --  -11.27317 -11.27316 -11.27307 -11.27307 -11.27036
 Alpha  occ. eigenvalues --  -11.27035 -11.26491 -11.26491 -11.26481 -11.26479
 Alpha  occ. eigenvalues --   -9.04949  -6.39598  -6.39391  -6.39328  -1.41057
 Alpha  occ. eigenvalues --   -1.29838  -1.17453  -1.17148  -1.06021  -1.04006
 Alpha  occ. eigenvalues --   -1.03763  -1.03696  -0.92235  -0.85814  -0.85584
 Alpha  occ. eigenvalues --   -0.85467  -0.80365  -0.75124  -0.73118  -0.68522
 Alpha  occ. eigenvalues --   -0.67348  -0.67225  -0.65865  -0.64524  -0.64197
 Alpha  occ. eigenvalues --   -0.63153  -0.62023  -0.61757  -0.55368  -0.55092
 Alpha  occ. eigenvalues --   -0.54444  -0.52620  -0.52506  -0.52497  -0.51773
 Alpha  occ. eigenvalues --   -0.50383  -0.49058  -0.45029  -0.38767  -0.36571
 Alpha  occ. eigenvalues --   -0.36057  -0.35697
 Alpha virt. eigenvalues --    0.02767   0.03106   0.03515   0.04434   0.04576
 Alpha virt. eigenvalues --    0.05772   0.05773   0.06638   0.07231   0.07864
 Alpha virt. eigenvalues --    0.08328   0.08364   0.09287   0.09695   0.10091

 Mulliken charges:
               1
     1  O   -1.143112
     2  S    2.891448
     3  O   -1.143112
     4  C    0.364400
     5  C    0.174598
     6  C    0.491059
     7  C    0.550710
     8  C    0.491711
     9  C    0.174878
    10  C    0.364400
    11  C    0.174598
    12  C    0.491059
    13  C    0.550710
    14  C    0.491711
    15  C    0.174878
    16  H   -0.600289
    17  H   -0.453887
    18  H   -0.442035
    19  H   -0.453888
    20  H   -0.599869
    21  H   -0.600289
    22  H   -0.453887
    23  H   -0.442035
    24  H   -0.453888
    25  H   -0.599869
 Sum of Mulliken charges =  -0.00000

 Dipole moment (field-independent basis, Debye):
    X=              0.0000    Y=              0.0000    Z=             -6.1524  Tot=              6.1524

 Test job not archived.
 1\1\GINC-SE107\SP\RHF\Aug-CC-pVDZ\C12H10O2S1\OHZDE\05-Apr-2025\0\\#t h
 f aug-cc-pvdz iop(5/13=1,5/36=2,99/5=2) pseudo=read geom=check guess=(
 read,tcheck) scf=(maxcycle=1)\\title\\0,1\O,0,1.182952,0.463928,2.0290
 51\S,0,0.,0.,1.311979\O,0,-1.182952,-0.463928,2.029051\C,0,-0.520392,1
 .327106,0.21295\C,0,0.409097,2.277935,-0.192069\C,0,0.,3.304743,-1.033
 775\C,0,-1.322848,3.373603,-1.458638\C,0,-2.245249,2.421077,-1.037808\
 C,0,-1.847361,1.389895,-0.196106\C,0,0.520392,-1.327106,0.21295\C,0,-0
 .409097,-2.277935,-0.192069\C,0,0.,-3.304743,-1.033775\C,0,1.322848,-3

 Normal termination of Gaussian 16 at Sat Apr  5 23:17:24 2025.
