 Gaussian 16, Revision C.01,

 ----------------------------------------------------------------------
 #t hf aug-cc-pvdz symm=none int=(grid=ultrafine) guess=(read,tcheck) s
 table=(opt,rrhf)
 ----------------------------------------------------------------------
 -----
 title
 -----
 Symbolic Z-matrix:
 Charge =  0 Multiplicity = 1

 SCF Done:  E(RHF) =  -305.601885024     A.U. after   14 cycles
 Normal termination of Gaussian 16 at Sat Apr  5 23:10:45 2025.
 Gaussian 16:  ES64L-G16RevC.01  3-Jul-2019

 ----------------------------------------------------------------------
 #t hf aug-cc-pvdz iop(5/13=1,5/36=2,99/5=2) pseudo=read geom=check gue
 ss=(read,tcheck) scf=(maxcycle=1)
 ----------------------------------------------------------------------
 -----
 title
 -----
 Structure from the checkpoint file:  "phenol.chk"
 Charge =  0 Multiplicity = 1

                         Standard orientation:
 ---------------------------------------------------------------------
 Center     Atomic      Atomic             Coordinates (Angstroms)
 Number     Number       Type             X           Y           Z
 ---------------------------------------------------------------------
      1          6           0        0.021569   -1.850874    0.000000
      2          6           0       -1.183942   -1.160029    0.000000
      3          6           0        1.216077   -1.136120    0.000000
      4          6           0       -1.200429    0.230252    0.000000
      5          6           0        1.212740    0.251632    0.000000
      6          6           0        0.000000    0.935940    0.000000
      7          8           0        0.048212    2.303596    0.000000
      8          1           0        0.031441   -2.931667    0.000000
      9          1           0       -2.120454   -1.701426    0.000000
     10          1           0        2.160924   -1.662963    0.000000
     11          1           0       -2.142899    0.765406    0.000000
     12          1           0        2.134448    0.816335    0.000000
     13          1           0       -0.845249    2.660743    0.000000
 ---------------------------------------------------------------------

 SCF Done:  E(RHF) =  -305.695102721     A.U. after    2 cycles

 The electronic state is 1-A'.
 Alpha  occ. eigenvalues --  -20.60583 -11.31478 -11.25213 -11.25017 -11.24409
 Alpha  occ. eigenvalues --  -11.23825 -11.23694  -1.36798  -1.14214  -1.01789
 Alpha  occ. eigenvalues --   -1.00415  -0.85390  -0.82971  -0.74634  -0.69373
 Alpha  occ. eigenvalues --   -0.66193  -0.61781  -0.60694  -0.59846  -0.58181
 Alpha  occ. eigenvalues --   -0.52352  -0.50005  -0.49184  -0.34764  -0.32244
 Alpha virt. eigenvalues --    0.03197   0.03939   0.04338   0.05672   0.06084
 Alpha virt. eigenvalues --    0.07804   0.10198   0.11363   0.11913   0.12718
 Alpha virt. eigenvalues --    0.13512   0.14129   0.14400   0.14567   0.14693

 Mulliken charges:
               1
     1  C    0.343055
     2  C    0.488067
     3  C    0.645339
     4  C    0.412761
     5  C    0.375408
     6  C    0.528749
     7  O   -0.583029
     8  H   -0.443042
     9  H   -0.433448
    10  H   -0.437992
    11  H   -0.573620
    12  H   -0.449994
    13  H    0.127746
 Sum of Mulliken charges =  -0.00000

 Dipole moment (field-independent basis, Debye):
    X=             -1.4041    Y=             -0.3305    Z=              0.0000  Tot=              1.4425

 Test job not archived.
 1\1\GINC-SE009\SP\RHF\Aug-CC-pVDZ\C6H6O1\OHZDE\05-Apr-2025\0\\#t hf au
 g-cc-pvdz iop(5/13=1,5/36=2,99/5=2) pseudo=read geom=check guess=(read
 ,tcheck) scf=(maxcycle=1)\\title\\0,1\C,0,0.021569,-1.850874,0.\C,0,-1
 .183942,-1.160029,0.\C,0,1.216077,-1.13612,0.\C,0,-1.200429,0.230252,0
 .\C,0,1.21274,0.251632,0.\C,0,0.,0.93594,0.\O,0,0.048212,2.303596,0.\H
 ,0,0.031441,-2.931667,0.\H,0,-2.120454,-1.701426,0.\H,0,2.160924,-1.66
 2963,0.\H,0,-2.142899,0.765406,0.\H,0,2.134448,0.816335,0.\H,0,-0.8452
 49,2.660743,0.\\Version=ES64L-G16RevC.01\State=1-A'\HF=-305.6951027\RM

 Normal termination of Gaussian 16 at Sat Apr  5 23:10:50 2025.
