 Gaussian 16, Revision C.01,

 ----------------------------------------------------------------------
 #t hf aug-cc-pvdz symm=none int=(grid=ultrafine) guess=(read,tcheck) s
 table=(opt,rrhf)
 ----------------------------------------------------------------------
 -----
 title
 -----
 Symbolic Z-matrix:
 Charge =  0 Multiplicity = 1

 SCF Done:  E(RHF) =  -340.769210580     A.U. after   15 cycles
 Normal termination of Gaussian 16 at Sat Apr  5 23:11:18 2025.
 Gaussian 16:  ES64L-G16RevC.01  3-Jul-2019

 ----------------------------------------------------------------------
 #t hf aug-cc-pvdz iop(5/13=1,5/36=2,99/5=2) pseudo=read geom=check gue
 ss=(read,tcheck) scf=(maxcycle=1)
 ----------------------------------------------------------------------
 -----
 title
 -----
 Structure from the checkpoint file:  "phenylhydrazine.chk"
 Charge =  0 Multiplicity = 1

                         Standard orientation:
 ---------------------------------------------------------------------
 Center     Atomic      Atomic             Coordinates (Angstroms)
 Number     Number       Type             X           Y           Z
 ---------------------------------------------------------------------
      1          6           0       -2.302046    0.304648    0.048681
      2          6           0       -1.844743   -1.009740    0.055890
      3          6           0       -1.374107    1.337593   -0.016270
      4          6           0       -0.487064   -1.284841   -0.001073
      5          6           0       -0.010704    1.076510   -0.076066
      6          6           0        0.447055   -0.243648   -0.073095
      7          7           0        2.746630    0.431456    0.133713
      8          7           0        1.804819   -0.563693   -0.195804
      9          1           0       -3.360760    0.517610    0.095676
     10          1           0       -2.549315   -1.829261    0.110144
     11          1           0       -1.711935    2.365825   -0.020205
     12          1           0       -0.143401   -2.312664    0.003216
     13          1           0        0.705591    1.881657   -0.126272
     14          1           0        3.542157    0.355481   -0.484296
     15          1           0        3.057771    0.357060    1.097408
     16          1           0        2.029412   -1.493179    0.130559
 ---------------------------------------------------------------------

 SCF Done:  E(RHF) =  -340.870480230     A.U. after    2 cycles

 The electronic state is 1-A.
 Alpha  occ. eigenvalues --  -15.65718 -15.65122 -11.28172 -11.23966 -11.23749
 Alpha  occ. eigenvalues --  -11.23024 -11.22385 -11.22328  -1.25931  -1.13603
 Alpha  occ. eigenvalues --   -1.05365  -1.00224  -0.95348  -0.82957  -0.80342
 Alpha  occ. eigenvalues --   -0.71366  -0.69646  -0.68021  -0.64940  -0.60347
 Alpha  occ. eigenvalues --   -0.59767  -0.58205  -0.52221  -0.50616  -0.48882
 Alpha  occ. eigenvalues --   -0.43494  -0.42245  -0.33494  -0.29056
 Alpha virt. eigenvalues --    0.02936   0.03849   0.04140   0.05149   0.05614
 Alpha virt. eigenvalues --    0.05814   0.07734   0.08490   0.11279   0.11791
 Alpha virt. eigenvalues --    0.12845   0.13653   0.14004   0.14596   0.14804

 Mulliken charges:
               1
     1  C    0.442068
     2  C    0.530043
     3  C    0.542619
     4  C    0.298826
     5  C    0.319932
     6  C    0.897405
     7  N   -0.195383
     8  N   -0.481064
     9  H   -0.458629
    10  H   -0.435909
    11  H   -0.437669
    12  H   -0.576274
    13  H   -0.569020
    14  H    0.101506
    15  H    0.057341
    16  H   -0.035792
 Sum of Mulliken charges =  -0.00000

 Dipole moment (field-independent basis, Debye):
    X=              2.0632    Y=             -1.1527    Z=              0.9830  Tot=              2.5596

 Test job not archived.
 1\1\GINC-SE209\SP\RHF\Aug-CC-pVDZ\C6H8N2\OHZDE\05-Apr-2025\0\\#t hf au
 g-cc-pvdz iop(5/13=1,5/36=2,99/5=2) pseudo=read geom=check guess=(read
 ,tcheck) scf=(maxcycle=1)\\title\\0,1\C,0,-2.302046,0.304648,0.048681\
 C,0,-1.844743,-1.00974,0.05589\C,0,-1.374107,1.337593,-0.01627\C,0,-0.
 487064,-1.284841,-0.001073\C,0,-0.010704,1.07651,-0.076066\C,0,0.44705
 5,-0.243648,-0.073095\N,0,2.74663,0.431456,0.133713\N,0,1.804819,-0.56
 3693,-0.195804\H,0,-3.36076,0.51761,0.095676\H,0,-2.549315,-1.829261,0
 .110144\H,0,-1.711935,2.365825,-0.020205\H,0,-0.143401,-2.312664,0.003

 Normal termination of Gaussian 16 at Sat Apr  5 23:12:26 2025.
