 Gaussian 16, Revision C.01,

 ----------------------------------------------------------------------
 #t hf aug-cc-pvdz symm=none int=(grid=ultrafine) guess=(read,tcheck) s
 table=(opt,rrhf)
 ----------------------------------------------------------------------
 -----
 title
 -----
 Symbolic Z-matrix:
 Charge =  0 Multiplicity = 1

 SCF Done:  E(RHF) =  -568.046716114     A.U. after   14 cycles

 1\1\GINC-SE210\Stability\RHF\Aug-CC-pVDZ\C12H8N2\OHZDE\05-Apr-2025\0\\
 #t hf aug-cc-pvdz symm=none int=(grid=ultrafine) guess=(read,tcheck) s
 table=(opt,rrhf)\\title\\0,1\C,0,0.,1.14135,0.720815\C,0,0.,1.14135,-0
 .720815\N,0,0.,0.,1.415067\C,0,0.,2.387462,1.410508\N,0,0.,0.,-1.41506
 7\C,0,0.,2.387462,-1.410508\C,0,0.,-1.14135,0.720815\C,0,0.,3.557969,0
 .711879\C,0,0.,-1.14135,-0.720815\C,0,0.,3.557969,-0.711879\C,0,0.,-2.
 387462,1.410508\C,0,0.,-2.387462,-1.410508\C,0,0.,-3.557969,0.711879\C
 ,0,0.,-3.557969,-0.711879\H,0,0.,2.364656,2.491337\H,0,0.,2.364656,-2.

 Normal termination of Gaussian 16 at Sat Apr  5 23:13:28 2025.
 Gaussian 16:  ES64L-G16RevC.01  3-Jul-2019

 ----------------------------------------------------------------------
 #t hf aug-cc-pvdz iop(5/13=1,5/36=2,99/5=2) pseudo=read geom=check gue
 ss=(read,tcheck) scf=(maxcycle=1)
 ----------------------------------------------------------------------
 -----
 title
 -----
 Structure from the checkpoint file:  "phenazine.chk"
 Charge =  0 Multiplicity = 1

                         Standard orientation:
 ---------------------------------------------------------------------
 Center     Atomic      Atomic             Coordinates (Angstroms)
 Number     Number       Type             X           Y           Z
 ---------------------------------------------------------------------
      1          6           0        0.000000    1.141350    0.720815
      2          6           0        0.000000    1.141350   -0.720815
      3          7           0        0.000000    0.000000    1.415067
      4          6           0        0.000000    2.387462    1.410508
      5          7           0        0.000000    0.000000   -1.415067
      6          6           0        0.000000    2.387462   -1.410508
      7          6           0       -0.000000   -1.141350    0.720815
      8          6           0        0.000000    3.557969    0.711879
      9          6           0       -0.000000   -1.141350   -0.720815
     10          6           0        0.000000    3.557969   -0.711879
     11          6           0       -0.000000   -2.387462    1.410508
     12          6           0       -0.000000   -2.387462   -1.410508
     13          6           0       -0.000000   -3.557969    0.711879
     14          6           0       -0.000000   -3.557969   -0.711879
     15          1           0        0.000000    2.364656    2.491337
     16          1           0        0.000000    2.364656   -2.491337
     17          1           0        0.000000    4.502732    1.238686
     18          1           0        0.000000    4.502732   -1.238686
     19          1           0       -0.000000   -2.364656    2.491337
     20          1           0       -0.000000   -2.364656   -2.491337
     21          1           0       -0.000000   -4.502732    1.238686
     22          1           0       -0.000000   -4.502732   -1.238686
 ---------------------------------------------------------------------

 SCF Done:  E(RHF) =  -568.206359710     A.U. after    2 cycles

 The electronic state is 1-AG.
 Alpha  occ. eigenvalues --  -15.65181 -15.65179 -11.29645 -11.29631 -11.29561
 Alpha  occ. eigenvalues --  -11.29547 -11.26060 -11.26060 -11.25970 -11.25970
 Alpha  occ. eigenvalues --  -11.25423 -11.25423 -11.25415 -11.25413  -1.28156
 Alpha  occ. eigenvalues --   -1.19480  -1.16033  -1.11887  -1.03978  -1.02553
 Alpha  occ. eigenvalues --   -1.00334  -0.92382  -0.88294  -0.83985  -0.82576
 Alpha  occ. eigenvalues --   -0.77722  -0.75426  -0.69569  -0.68600  -0.66536
 Alpha  occ. eigenvalues --   -0.64974  -0.61949  -0.61218  -0.60940  -0.59832
 Alpha  occ. eigenvalues --   -0.56146  -0.54115  -0.52118  -0.51625  -0.50999
 Alpha  occ. eigenvalues --   -0.48603  -0.47122  -0.44477  -0.40074  -0.36281
 Alpha  occ. eigenvalues --   -0.32303  -0.30180
 Alpha virt. eigenvalues --    0.01919   0.03091   0.03406   0.03687   0.04917
 Alpha virt. eigenvalues --    0.05130   0.06253   0.06575   0.08279   0.08867
 Alpha virt. eigenvalues --    0.09931   0.10207   0.10414   0.11268   0.12347

 Mulliken charges:
               1
     1  C   -0.486388
     2  C   -0.486388
     3  N   -0.551993
     4  C    1.198928
     5  N   -0.551993
     6  C    1.198928
     7  C   -0.486388
     8  C    0.618769
     9  C   -0.486388
    10  C    0.618769
    11  C    1.198928
    12  C    1.198928
    13  C    0.618769
    14  C    0.618769
    15  H   -0.577980
    16  H   -0.577980
    17  H   -0.477333
    18  H   -0.477333
    19  H   -0.577980
    20  H   -0.577980
    21  H   -0.477333
    22  H   -0.477333
 Sum of Mulliken charges =  -0.00000

 Dipole moment (field-independent basis, Debye):
    X=             -0.0000    Y=             -0.0000    Z=             -0.0000  Tot=              0.0000

 Test job not archived.
 1\1\GINC-SE210\SP\RHF\Aug-CC-pVDZ\C12H8N2\OHZDE\05-Apr-2025\0\\#t hf a
 ug-cc-pvdz iop(5/13=1,5/36=2,99/5=2) pseudo=read geom=check guess=(rea
 d,tcheck) scf=(maxcycle=1)\\title\\0,1\C,0,0.,1.14135,0.720815\C,0,0.,
 1.14135,-0.720815\N,0,0.,0.,1.415067\C,0,0.,2.387462,1.410508\N,0,0.,0
 .,-1.415067\C,0,0.,2.387462,-1.410508\C,0,0.,-1.14135,0.720815\C,0,0.,
 3.557969,0.711879\C,0,0.,-1.14135,-0.720815\C,0,0.,3.557969,-0.711879\
 C,0,0.,-2.387462,1.410508\C,0,0.,-2.387462,-1.410508\C,0,0.,-3.557969,
 0.711879\C,0,0.,-3.557969,-0.711879\H,0,0.,2.364656,2.491337\H,0,0.,2.

 Normal termination of Gaussian 16 at Sat Apr  5 23:13:50 2025.
