 Gaussian 16, Revision C.01,

 ----------------------------------------------------------------------
 #t hf aug-cc-pvdz symm=none int=(grid=ultrafine) guess=(read,tcheck) s
 table=(opt,rrhf)
 ----------------------------------------------------------------------
 -----
 title
 -----
 Symbolic Z-matrix:
 Charge =  0 Multiplicity = 1

 SCF Done:  E(RHF) =  -1031.74610413     A.U. after   12 cycles

 1\1\GINC-SE146\Stability\RHF\Aug-CC-pVDZ\C1Cl2O1\OHZDE\05-Apr-2025\0\\
 #t hf aug-cc-pvdz symm=none int=(grid=ultrafine) guess=(read,tcheck) s
 table=(opt,rrhf)\\title\\0,1\O,0,0.,0.,1.676657\C,0,0.,0.,0.503213\Cl,
 0,0.,1.457697,-0.48331\Cl,0,0.,-1.457697,-0.48331\\Version=ES64L-G16Re
 vC.01\HF=-1031.7461041\RMSD=8.304e-09\Dipole=0.,0.,-0.556802\Quadrupol
 e=0.7624777,1.4599061,-2.2223839,0.,0.,0.\PG=Unknown\\@
 The archive entry for this job was punched.

 Normal termination of Gaussian 16 at Sat Apr  5 23:10:21 2025.
 Gaussian 16:  ES64L-G16RevC.01  3-Jul-2019

 ----------------------------------------------------------------------
 #t hf aug-cc-pvdz iop(5/13=1,5/36=2,99/5=2) pseudo=read geom=check gue
 ss=(read,tcheck) scf=(maxcycle=1)
 ----------------------------------------------------------------------
 -----
 title
 -----
 Structure from the checkpoint file:  "phosgene.chk"
 Charge =  0 Multiplicity = 1

                         Standard orientation:
 ---------------------------------------------------------------------
 Center     Atomic      Atomic             Coordinates (Angstroms)
 Number     Number       Type             X           Y           Z
 ---------------------------------------------------------------------
      1          8           0        0.000000   -0.000000    1.676657
      2          6           0        0.000000   -0.000000    0.503213
      3         17           0        0.000000    1.457697   -0.483310
      4         17           0       -0.000000   -1.457697   -0.483310
 ---------------------------------------------------------------------

 SCF Done:  E(RHF) =  -1031.82158242     A.U. after    2 cycles

 The electronic state is 1-A1.
 Alpha  occ. eigenvalues -- -103.71528-103.71527 -20.64547 -11.49173 -10.74861
 Alpha  occ. eigenvalues --  -10.74850  -8.40578  -8.40570  -8.40234  -8.40233
 Alpha  occ. eigenvalues --   -8.40217  -8.40215  -1.46167  -1.23441  -1.18590
 Alpha  occ. eigenvalues --   -0.83077  -0.72861  -0.72080  -0.66555  -0.54383
 Alpha  occ. eigenvalues --   -0.51647  -0.51497  -0.51286  -0.49340
 Alpha virt. eigenvalues --    0.05328   0.07950   0.07976   0.08866   0.10284
 Alpha virt. eigenvalues --    0.11003   0.12938   0.14584   0.15288   0.15633
 Alpha virt. eigenvalues --    0.17281   0.18156   0.25813   0.25983   0.28242

 Mulliken charges:
               1
     1  O   -0.216284
     2  C    0.058015
     3  Cl   0.079134
     4  Cl   0.079134
 Sum of Mulliken charges =  -0.00000

 Dipole moment (field-independent basis, Debye):
    X=              0.0000    Y=             -0.0000    Z=             -1.5748  Tot=              1.5748

 Test job not archived.
 1\1\GINC-SE146\SP\RHF\Aug-CC-pVDZ\C1Cl2O1\OHZDE\05-Apr-2025\0\\#t hf a
 ug-cc-pvdz iop(5/13=1,5/36=2,99/5=2) pseudo=read geom=check guess=(rea
 d,tcheck) scf=(maxcycle=1)\\title\\0,1\O,0,0.,0.,1.676657\C,0,0.,0.,0.
 503213\Cl,0,0.,1.457697,-0.48331\Cl,0,0.,-1.457697,-0.48331\\Version=E
 S64L-G16RevC.01\State=1-A1\HF=-1031.8215824\RMSD=2.947e-03\Dipole=0.,0
 .,-0.6195682\Quadrupole=0.8043121,1.593573,-2.397885,0.,0.,0.\PG=C02V
 [C2(C1O1),SGV(Cl2)]\\@

 Normal termination of Gaussian 16 at Sat Apr  5 23:10:23 2025.
