 Gaussian 16, Revision C.01,

 ----------------------------------------------------------------------
 #t hf aug-cc-pvdz symm=none int=(grid=ultrafine) guess=(read,tcheck) s
 table=(opt,rrhf)
 ----------------------------------------------------------------------
 -----
 title
 -----
 Symbolic Z-matrix:
 Charge =  0 Multiplicity = 1

 SCF Done:  E(RHF) =  -415.352407149     A.U. after   16 cycles
 Normal termination of Gaussian 16 at Sat Apr  5 23:11:36 2025.
 Gaussian 16:  ES64L-G16RevC.01  3-Jul-2019

 ----------------------------------------------------------------------
 #t hf aug-cc-pvdz iop(5/13=1,5/36=2,99/5=2) pseudo=read geom=check gue
 ss=(read,tcheck) scf=(maxcycle=1)
 ----------------------------------------------------------------------
 -----
 title
 -----
 Structure from the checkpoint file:  "phthalazine.chk"
 Charge =  0 Multiplicity = 1

                         Standard orientation:
 ---------------------------------------------------------------------
 Center     Atomic      Atomic             Coordinates (Angstroms)
 Number     Number       Type             X           Y           Z
 ---------------------------------------------------------------------
      1          6           0        0.000000    0.705485   -0.012772
      2          6           0        0.000000    1.324526   -1.289733
      3          6           0       -0.000000   -0.705485   -0.012772
      4          7           0        0.000000    0.681794   -2.426927
      5          6           0       -0.000000   -1.324526   -1.289733
      6          7           0       -0.000000   -0.681794   -2.426927
      7          6           0        0.000000    1.404939    1.211306
      8          6           0        0.000000    0.705423    2.392790
      9          6           0       -0.000000   -0.705423    2.392790
     10          6           0       -0.000000   -1.404939    1.211306
     11          1           0        0.000000   -2.407381   -1.364362
     12          1           0        0.000000    2.407381   -1.364362
     13          1           0        0.000000   -1.235415    3.335672
     14          1           0        0.000000    1.235415    3.335672
     15          1           0        0.000000   -2.487234    1.207629
     16          1           0        0.000000    2.487234    1.207629
 ---------------------------------------------------------------------

 SCF Done:  E(RHF) =  -415.469824926     A.U. after    2 cycles

 The electronic state is 1-A1.
 Alpha  occ. eigenvalues --  -15.66670 -15.66611 -11.29546 -11.29539 -11.27949
 Alpha  occ. eigenvalues --  -11.27847 -11.27481 -11.27426 -11.27334 -11.27296
 Alpha  occ. eigenvalues --   -1.29738  -1.17606  -1.11112  -1.06434  -1.03976
 Alpha  occ. eigenvalues --   -0.90298  -0.89132  -0.85203  -0.74550  -0.73747
 Alpha  occ. eigenvalues --   -0.70853  -0.65534  -0.64727  -0.61884  -0.61527
 Alpha  occ. eigenvalues --   -0.58652  -0.55731  -0.53029  -0.50748  -0.45875
 Alpha  occ. eigenvalues --   -0.42376  -0.39938  -0.36724  -0.33501
 Alpha virt. eigenvalues --    0.02480   0.03147   0.04246   0.04901   0.05699
 Alpha virt. eigenvalues --    0.06239   0.07099   0.07527   0.07963   0.09834
 Alpha virt. eigenvalues --    0.10491   0.11692   0.11976   0.12168   0.13063

 Mulliken charges:
               1
     1  C    0.151996
     2  C    0.967721
     3  C    0.151996
     4  N   -0.531002
     5  C    0.967721
     6  N   -0.531002
     7  C    0.531683
     8  C    0.265090
     9  C    0.265090
    10  C    0.531683
    11  H   -0.390681
    12  H   -0.390681
    13  H   -0.453927
    14  H   -0.453927
    15  H   -0.540881
    16  H   -0.540881
 Sum of Mulliken charges =  -0.00000

 Dipole moment (field-independent basis, Debye):
    X=             -0.0000    Y=              0.0000    Z=              5.2259  Tot=              5.2259

 Test job not archived.
 1\1\GINC-SE146\SP\RHF\Aug-CC-pVDZ\C8H6N2\OHZDE\05-Apr-2025\0\\#t hf au
 g-cc-pvdz iop(5/13=1,5/36=2,99/5=2) pseudo=read geom=check guess=(read
 ,tcheck) scf=(maxcycle=1)\\title\\0,1\C,0,0.,0.705485,-0.012772\C,0,0.
 ,1.324526,-1.289733\C,0,0.,-0.705485,-0.012772\N,0,0.,0.681794,-2.4269
 27\C,0,0.,-1.324526,-1.289733\N,0,0.,-0.681794,-2.426927\C,0,0.,1.4049
 39,1.211306\C,0,0.,0.705423,2.39279\C,0,0.,-0.705423,2.39279\C,0,0.,-1
 .404939,1.211306\H,0,0.,-2.407381,-1.364362\H,0,0.,2.407381,-1.364362\
 H,0,0.,-1.235415,3.335672\H,0,0.,1.235415,3.335672\H,0,0.,-2.487234,1.

 Normal termination of Gaussian 16 at Sat Apr  5 23:12:26 2025.
