 Gaussian 16, Revision C.01,

 ----------------------------------------------------------------------
 #t hf aug-cc-pvdz symm=none int=(grid=ultrafine) guess=(read,tcheck) s
 table=(opt,rrhf)
 ----------------------------------------------------------------------
 -----
 title
 -----
 Symbolic Z-matrix:
 Charge =  0 Multiplicity = 1

 SCF Done:  E(RHF) =  -321.216080289     A.U. after   12 cycles

 1\1\GINC-SE212\Stability\RHF\Aug-CC-pVDZ\C4H11N3\OHZDE\05-Apr-2025\0\\
 #t hf aug-cc-pvdz symm=none int=(grid=ultrafine) guess=(read,tcheck) s
 table=(opt,rrhf)\\title\\0,1\C,0,1.133555,1.224172,-0.194407\C,0,1.181
 841,-1.187001,-0.202712\C,0,-0.343283,1.191042,0.180257\C,0,-0.292244,
 -1.22436,0.177403\N,0,1.789141,0.030617,0.328985\N,0,-0.969018,-0.0308
 42,-0.3228\N,0,-2.357848,-0.114512,-0.018199\H,0,1.212514,1.304089,-1.
 289776\H,0,1.599464,2.108612,0.242171\H,0,1.688428,-2.052619,0.225623\
 H,0,1.26264,-1.252758,-1.298708\H,0,-0.442955,1.25993,1.277609\H,0,-0.

 Normal termination of Gaussian 16 at Sat Apr  5 23:11:22 2025.
 Gaussian 16:  ES64L-G16RevC.01  3-Jul-2019

 ----------------------------------------------------------------------
 #t hf aug-cc-pvdz iop(5/13=1,5/36=2,99/5=2) pseudo=read geom=check gue
 ss=(read,tcheck) scf=(maxcycle=1)
 ----------------------------------------------------------------------
 -----
 title
 -----
 Structure from the checkpoint file:  "piperazin-1-amine.chk"
 Charge =  0 Multiplicity = 1

                         Standard orientation:
 ---------------------------------------------------------------------
 Center     Atomic      Atomic             Coordinates (Angstroms)
 Number     Number       Type             X           Y           Z
 ---------------------------------------------------------------------
      1          6           0        1.133555    1.224172   -0.194407
      2          6           0        1.181841   -1.187001   -0.202712
      3          6           0       -0.343283    1.191042    0.180257
      4          6           0       -0.292244   -1.224360    0.177403
      5          7           0        1.789141    0.030617    0.328985
      6          7           0       -0.969018   -0.030842   -0.322800
      7          7           0       -2.357848   -0.114512   -0.018199
      8          1           0        1.212514    1.304089   -1.289776
      9          1           0        1.599464    2.108612    0.242171
     10          1           0        1.688428   -2.052619    0.225623
     11          1           0        1.262640   -1.252758   -1.298708
     12          1           0       -0.442955    1.259930    1.277609
     13          1           0       -0.857002    2.046876   -0.260956
     14          1           0       -0.780392   -2.092624   -0.261687
     15          1           0       -0.379815   -1.300473    1.273848
     16          1           0        2.781405    0.052277    0.136985
     17          1           0       -2.540805    0.215438    0.932435
     18          1           0       -2.858621    0.491293   -0.656692
 ---------------------------------------------------------------------

 SCF Done:  E(RHF) =  -321.312402914     A.U. after    2 cycles

 The electronic state is 1-A.
 Alpha  occ. eigenvalues --  -15.63566 -15.63165 -15.60577 -11.25796 -11.25608
 Alpha  occ. eigenvalues --  -11.25419 -11.24850  -1.25030  -1.17603  -1.04081
 Alpha  occ. eigenvalues --   -1.02003  -0.87546  -0.86023  -0.76165  -0.69787
 Alpha  occ. eigenvalues --   -0.66744  -0.63726  -0.62369  -0.60495  -0.58662
 Alpha  occ. eigenvalues --   -0.55782  -0.54246  -0.49634  -0.48359  -0.47246
 Alpha  occ. eigenvalues --   -0.39882  -0.36593  -0.35839
 Alpha virt. eigenvalues --    0.03413   0.03670   0.04139   0.04387   0.06543
 Alpha virt. eigenvalues --    0.06711   0.07062   0.07512   0.08358   0.09188
 Alpha virt. eigenvalues --    0.09505   0.12745   0.13210   0.13904   0.14829

 Mulliken charges:
               1
     1  C    0.627518
     2  C    0.628758
     3  C    0.794309
     4  C    0.805896
     5  N   -0.597682
     6  N   -0.916199
     7  N   -0.032727
     8  H   -0.102381
     9  H   -0.172991
    10  H   -0.176890
    11  H   -0.107091
    12  H   -0.153309
    13  H   -0.240367
    14  H   -0.256394
    15  H   -0.114820
    16  H   -0.073665
    17  H    0.051069
    18  H    0.036964
 Sum of Mulliken charges =  -0.00000

 Dipole moment (field-independent basis, Debye):
    X=              0.7123    Y=              1.2883    Z=             -0.0486  Tot=              1.4729

 Test job not archived.
 1\1\GINC-SE212\SP\RHF\Aug-CC-pVDZ\C4H11N3\OHZDE\05-Apr-2025\0\\#t hf a
 ug-cc-pvdz iop(5/13=1,5/36=2,99/5=2) pseudo=read geom=check guess=(rea
 d,tcheck) scf=(maxcycle=1)\\title\\0,1\C,0,1.133555,1.224172,-0.194407
 \C,0,1.181841,-1.187001,-0.202712\C,0,-0.343283,1.191042,0.180257\C,0,
 -0.292244,-1.22436,0.177403\N,0,1.789141,0.030617,0.328985\N,0,-0.9690
 18,-0.030842,-0.3228\N,0,-2.357848,-0.114512,-0.018199\H,0,1.212514,1.
 304089,-1.289776\H,0,1.599464,2.108612,0.242171\H,0,1.688428,-2.052619
 ,0.225623\H,0,1.26264,-1.252758,-1.298708\H,0,-0.442955,1.25993,1.2776

 Normal termination of Gaussian 16 at Sat Apr  5 23:12:28 2025.
