 Gaussian 16, Revision C.01,

 ----------------------------------------------------------------------
 #t hf aug-cc-pvdz symm=none int=(grid=ultrafine) guess=(read,tcheck) s
 table=(opt,rrhf)
 ----------------------------------------------------------------------
 -----
 title
 -----
 Symbolic Z-matrix:
 Charge =  0 Multiplicity = 1

 SCF Done:  E(RHF) =  -250.221295736     A.U. after   11 cycles

 1\1\GINC-SE220\Stability\RHF\Aug-CC-pVDZ\C5H11N1\OHZDE\05-Apr-2025\0\\
 #t hf aug-cc-pvdz symm=none int=(grid=ultrafine) guess=(read,tcheck) s
 table=(opt,rrhf)\\title\\0,1\C,0,0.627734,1.332116,0.\C,0,-0.015015,0.
 749126,1.262844\C,0,-0.015015,0.749126,-1.262844\C,0,-0.015015,-0.7778
 13,1.21628\C,0,-0.015015,-0.777813,-1.21628\N,0,-0.683238,-1.236622,0.
 \H,0,0.550093,2.421274,0.\H,0,1.697146,1.095686,0.\H,0,0.514966,1.0907
 53,2.154644\H,0,-1.048069,1.096853,1.34379\H,0,-1.048069,1.096853,-1.3
 4379\H,0,0.514966,1.090753,-2.154644\H,0,1.028243,-1.134962,1.27513\H,

 Normal termination of Gaussian 16 at Sat Apr  5 23:10:53 2025.
 Gaussian 16:  ES64L-G16RevC.01  3-Jul-2019

 ----------------------------------------------------------------------
 #t hf aug-cc-pvdz iop(5/13=1,5/36=2,99/5=2) pseudo=read geom=check gue
 ss=(read,tcheck) scf=(maxcycle=1)
 ----------------------------------------------------------------------
 -----
 title
 -----
 Structure from the checkpoint file:  "piperidine.chk"
 Charge =  0 Multiplicity = 1

                         Standard orientation:
 ---------------------------------------------------------------------
 Center     Atomic      Atomic             Coordinates (Angstroms)
 Number     Number       Type             X           Y           Z
 ---------------------------------------------------------------------
      1          6           0        0.627734    1.332116   -0.000000
      2          6           0       -0.015015    0.749126    1.262844
      3          6           0       -0.015015    0.749126   -1.262844
      4          6           0       -0.015015   -0.777813    1.216280
      5          6           0       -0.015015   -0.777813   -1.216280
      6          7           0       -0.683238   -1.236622    0.000000
      7          1           0        0.550093    2.421274    0.000000
      8          1           0        1.697146    1.095686   -0.000000
      9          1           0        0.514966    1.090753    2.154644
     10          1           0       -1.048069    1.096853    1.343790
     11          1           0       -1.048069    1.096853   -1.343790
     12          1           0        0.514966    1.090753   -2.154644
     13          1           0        1.028243   -1.134962    1.275130
     14          1           0       -0.545722   -1.185262    2.078063
     15          1           0       -0.545722   -1.185262   -2.078063
     16          1           0        1.028243   -1.134962   -1.275130
     17          1           0       -0.769444   -2.243821    0.000000
 ---------------------------------------------------------------------

 SCF Done:  E(RHF) =  -250.297937212     A.U. after    2 cycles

 The electronic state is 1-A'.
 Alpha  occ. eigenvalues --  -15.59918 -11.25087 -11.25083 -11.22280 -11.22072
 Alpha  occ. eigenvalues --  -11.22058  -1.17801  -1.04207  -1.00414  -0.85711
 Alpha  occ. eigenvalues --   -0.83776  -0.75146  -0.68324  -0.62061  -0.61127
 Alpha  occ. eigenvalues --   -0.58474  -0.55885  -0.54521  -0.53068  -0.48707
 Alpha  occ. eigenvalues --   -0.46576  -0.44421  -0.44279  -0.35692
 Alpha virt. eigenvalues --    0.03544   0.04259   0.04320   0.04639   0.06493
 Alpha virt. eigenvalues --    0.06655   0.07157   0.07245   0.07570   0.09254
 Alpha virt. eigenvalues --    0.09449   0.13597   0.13699   0.14188   0.14520

 Mulliken charges:
               1
     1  C    0.090615
     2  C    0.192786
     3  C    0.192786
     4  C    0.742900
     5  C    0.742900
     6  N   -0.620250
     7  H   -0.087534
     8  H   -0.118337
     9  H   -0.078296
    10  H   -0.106760
    11  H   -0.106760
    12  H   -0.078296
    13  H   -0.118516
    14  H   -0.224489
    15  H   -0.224489
    16  H   -0.118516
    17  H   -0.079745
 Sum of Mulliken charges =  -0.00000

 Dipole moment (field-independent basis, Debye):
    X=              0.8112    Y=             -0.4334    Z=             -0.0000  Tot=              0.9197

 Test job not archived.
 1\1\GINC-SE220\SP\RHF\Aug-CC-pVDZ\C5H11N1\OHZDE\05-Apr-2025\0\\#t hf a
 ug-cc-pvdz iop(5/13=1,5/36=2,99/5=2) pseudo=read geom=check guess=(rea
 d,tcheck) scf=(maxcycle=1)\\title\\0,1\C,0,0.627734,1.332116,0.\C,0,-0
 .015015,0.749126,1.262844\C,0,-0.015015,0.749126,-1.262844\C,0,-0.0150
 15,-0.777813,1.21628\C,0,-0.015015,-0.777813,-1.21628\N,0,-0.683238,-1
 .236622,0.\H,0,0.550093,2.421274,0.\H,0,1.697146,1.095686,0.\H,0,0.514
 966,1.090753,2.154644\H,0,-1.048069,1.096853,1.34379\H,0,-1.048069,1.0
 96853,-1.34379\H,0,0.514966,1.090753,-2.154644\H,0,1.028243,-1.134962,

 Normal termination of Gaussian 16 at Sat Apr  5 23:10:58 2025.
