 Gaussian 16, Revision C.01,

 ----------------------------------------------------------------------
 #t hf aug-cc-pvdz symm=none int=(grid=ultrafine) guess=(read,tcheck) s
 table=(opt,rrhf)
 ----------------------------------------------------------------------
 -----
 title
 -----
 Symbolic Z-matrix:
 Charge =  0 Multiplicity = 1

 SCF Done:  E(RHF) =  -266.209854888     A.U. after   11 cycles

 1\1\GINC-SE211\Stability\RHF\Aug-CC-pVDZ\C4H10N2\OHZDE\05-Apr-2025\0\\
 #t hf aug-cc-pvdz symm=none int=(grid=ultrafine) guess=(read,tcheck) s
 table=(opt,rrhf)\\title\\0,1\C,0,-0.834927,0.310226,-1.120699\C,0,-0.8
 63686,-1.052974,-0.441012\C,0,0.863686,1.052974,0.441012\C,0,0.834927,
 -0.310226,1.120699\N,0,-0.450116,1.325039,-0.140555\N,0,0.450116,-1.32
 5039,0.140555\H,0,-0.13626,0.260567,-1.970344\H,0,-1.825522,0.552488,-
 1.508068\H,0,-1.664933,-1.048703,0.31425\H,0,-1.091286,-1.828069,-1.17
 4163\H,0,1.091286,1.828069,1.174163\H,0,1.664933,1.048703,-0.31425\H,0

 Normal termination of Gaussian 16 at Sat Apr  5 23:10:47 2025.
 Gaussian 16:  ES64L-G16RevC.01  3-Jul-2019

 ----------------------------------------------------------------------
 #t hf aug-cc-pvdz iop(5/13=1,5/36=2,99/5=2) pseudo=read geom=check gue
 ss=(read,tcheck) scf=(maxcycle=1)
 ----------------------------------------------------------------------
 -----
 title
 -----
 Structure from the checkpoint file:  "piperazine.chk"
 Charge =  0 Multiplicity = 1

                         Standard orientation:
 ---------------------------------------------------------------------
 Center     Atomic      Atomic             Coordinates (Angstroms)
 Number     Number       Type             X           Y           Z
 ---------------------------------------------------------------------
      1          6           0       -0.834927    0.310226   -1.120699
      2          6           0       -0.863686   -1.052974   -0.441012
      3          6           0        0.863686    1.052974    0.441012
      4          6           0        0.834927   -0.310226    1.120699
      5          7           0       -0.450116    1.325039   -0.140555
      6          7           0        0.450116   -1.325039    0.140555
      7          1           0       -0.136260    0.260567   -1.970344
      8          1           0       -1.825522    0.552488   -1.508068
      9          1           0       -1.664933   -1.048703    0.314250
     10          1           0       -1.091286   -1.828069   -1.174163
     11          1           0        1.091286    1.828069    1.174163
     12          1           0        1.664933    1.048703   -0.314250
     13          1           0        1.825522   -0.552488    1.508068
     14          1           0        0.136260   -0.260567    1.970344
     15          1           0       -0.474735    2.247690   -0.552801
     16          1           0        0.474735   -2.247690    0.552801
 ---------------------------------------------------------------------

 SCF Done:  E(RHF) =  -266.290736713     A.U. after    2 cycles

 The electronic state is 1-AG.
 Alpha  occ. eigenvalues --  -15.60165 -15.60164 -11.25145 -11.25144 -11.25095
 Alpha  occ. eigenvalues --  -11.25088  -1.20397  -1.13300  -1.01503  -0.89823
 Alpha  occ. eigenvalues --   -0.85067  -0.75645  -0.70230  -0.64000  -0.61890
 Alpha  occ. eigenvalues --   -0.59745  -0.57443  -0.56933  -0.53729  -0.49084
 Alpha  occ. eigenvalues --   -0.47063  -0.46156  -0.36591  -0.35519
 Alpha virt. eigenvalues --    0.03574   0.03995   0.04131   0.04587   0.06568
 Alpha virt. eigenvalues --    0.06839   0.07364   0.07512   0.09329   0.09560
 Alpha virt. eigenvalues --    0.11859   0.12991   0.13557   0.14497   0.15394

 Mulliken charges:
               1
     1  C    0.655633
     2  C    0.656020
     3  C    0.656020
     4  C    0.655633
     5  N   -0.624771
     6  N   -0.624771
     7  H   -0.109049
     8  H   -0.194661
     9  H   -0.109443
    10  H   -0.194679
    11  H   -0.194679
    12  H   -0.109443
    13  H   -0.194661
    14  H   -0.109049
    15  H   -0.079050
    16  H   -0.079050
 Sum of Mulliken charges =  -0.00000

 Dipole moment (field-independent basis, Debye):
    X=             -0.0000    Y=              0.0000    Z=             -0.0000  Tot=              0.0000

 Test job not archived.
 1\1\GINC-SE211\SP\RHF\Aug-CC-pVDZ\C4H10N2\OHZDE\05-Apr-2025\0\\#t hf a
 ug-cc-pvdz iop(5/13=1,5/36=2,99/5=2) pseudo=read geom=check guess=(rea
 d,tcheck) scf=(maxcycle=1)\\title\\0,1\C,0,-0.834927,0.310226,-1.12069
 9\C,0,-0.863686,-1.052974,-0.441012\C,0,0.863686,1.052974,0.441012\C,0
 ,0.834927,-0.310226,1.120699\N,0,-0.450116,1.325039,-0.140555\N,0,0.45
 0116,-1.325039,0.140555\H,0,-0.13626,0.260567,-1.970344\H,0,-1.825522,
 0.552488,-1.508068\H,0,-1.664933,-1.048703,0.31425\H,0,-1.091286,-1.82
 8069,-1.174163\H,0,1.091286,1.828069,1.174163\H,0,1.664933,1.048703,-0

 Normal termination of Gaussian 16 at Sat Apr  5 23:10:51 2025.
