 Gaussian 16, Revision C.01,

 ----------------------------------------------------------------------
 #t hf aug-cc-pvdz symm=none int=(grid=ultrafine) guess=(read,tcheck) s
 table=(opt,rrhf)
 ----------------------------------------------------------------------
 -----
 title
 -----
 Symbolic Z-matrix:
 Charge =  0 Multiplicity = 1

 SCF Done:  E(RHF) =  -398.825181374     A.U. after   14 cycles
 Normal termination of Gaussian 16 at Sat Apr  5 23:11:18 2025.
 Gaussian 16:  ES64L-G16RevC.01  3-Jul-2019

 ----------------------------------------------------------------------
 #t hf aug-cc-pvdz iop(5/13=1,5/36=2,99/5=2) pseudo=read geom=check gue
 ss=(read,tcheck) scf=(maxcycle=1)
 ----------------------------------------------------------------------
 -----
 title
 -----
 Structure from the checkpoint file:  "proline.chk"
 Charge =  0 Multiplicity = 1

                         Standard orientation:
 ---------------------------------------------------------------------
 Center     Atomic      Atomic             Coordinates (Angstroms)
 Number     Number       Type             X           Y           Z
 ---------------------------------------------------------------------
      1          7           0        0.636602   -1.058123    0.492208
      2          6           0       -0.121601    0.212497    0.582235
      3          6           0       -1.541645    0.060070    0.027611
      4          8           0       -2.347827    0.951873    0.041962
      5          8           0       -1.796324   -1.151121   -0.486153
      6          6           0        0.698716    1.255847   -0.214727
      7          6           0        2.124667    0.698806   -0.171428
      8          6           0        1.890352   -0.811433   -0.258644
      9          1           0       -0.226886    0.531260    1.620367
     10          1           0        0.341413    1.305448   -1.244399
     11          1           0        0.600663    2.251274    0.210253
     12          1           0        2.751505    1.078563   -0.977576
     13          1           0        2.605897    0.951778    0.776149
     14          1           0        1.755051   -1.114676   -1.299508
     15          1           0        2.701458   -1.409225    0.154057
     16          1           0        0.836365   -1.421455    1.412453
     17          1           0       -0.971410   -1.666847   -0.334004
 ---------------------------------------------------------------------

 SCF Done:  E(RHF) =  -398.947647452     A.U. after    2 cycles

 The electronic state is 1-A.
 Alpha  occ. eigenvalues --  -20.60598 -20.54680 -15.64360 -11.38418 -11.29621
 Alpha  occ. eigenvalues --  -11.28343 -11.25427 -11.25136  -1.40779  -1.31807
 Alpha  occ. eigenvalues --   -1.22250  -1.04641  -1.01738  -0.86914  -0.82689
 Alpha  occ. eigenvalues --   -0.80778  -0.73516  -0.72665  -0.66453  -0.65183
 Alpha  occ. eigenvalues --   -0.63278  -0.60467  -0.58518  -0.57188  -0.53352
 Alpha  occ. eigenvalues --   -0.52137  -0.50957  -0.50147  -0.47811  -0.45513
 Alpha  occ. eigenvalues --   -0.40484
 Alpha virt. eigenvalues --    0.02296   0.03448   0.03838   0.04620   0.06271
 Alpha virt. eigenvalues --    0.06424   0.06998   0.07282   0.07961   0.11108
 Alpha virt. eigenvalues --    0.12106   0.12767   0.13108   0.13240   0.14089

 Mulliken charges:
               1
     1  N   -0.631300
     2  C    0.264398
     3  C    0.734049
     4  O   -0.512883
     5  O   -0.475070
     6  C    0.131860
     7  C    0.346105
     8  C    0.798157
     9  H   -0.098069
    10  H   -0.153703
    11  H   -0.067209
    12  H   -0.067276
    13  H   -0.156268
    14  H   -0.248639
    15  H   -0.151564
    16  H    0.016886
    17  H    0.270525
 Sum of Mulliken charges =   0.00000

 Dipole moment (field-independent basis, Debye):
    X=              6.1262    Y=             -1.2614    Z=              1.4605  Tot=              6.4230

 Test job not archived.
 1\1\GINC-SE221\SP\RHF\Aug-CC-pVDZ\C5H9N1O2\OHZDE\05-Apr-2025\0\\#t hf
 aug-cc-pvdz iop(5/13=1,5/36=2,99/5=2) pseudo=read geom=check guess=(re
 ad,tcheck) scf=(maxcycle=1)\\title\\0,1\N,0,0.636602,-1.058123,0.49220
 8\C,0,-0.121601,0.212497,0.582235\C,0,-1.541645,0.06007,0.027611\O,0,-
 2.347827,0.951873,0.041962\O,0,-1.796324,-1.151121,-0.486153\C,0,0.698
 716,1.255847,-0.214727\C,0,2.124667,0.698806,-0.171428\C,0,1.890352,-0
 .811433,-0.258644\H,0,-0.226886,0.53126,1.620367\H,0,0.341413,1.305448
 ,-1.244399\H,0,0.600663,2.251274,0.210253\H,0,2.751505,1.078563,-0.977

 Normal termination of Gaussian 16 at Sat Apr  5 23:12:27 2025.
