 Gaussian 16, Revision C.01,

 ----------------------------------------------------------------------
 #t hf aug-cc-pvdz symm=none int=(grid=ultrafine) guess=(read,tcheck) s
 table=(opt,rrhf)
 ----------------------------------------------------------------------
 -----
 title
 -----
 Symbolic Z-matrix:
 Charge =  0 Multiplicity = 1

 SCF Done:  E(RHF) =  -170.908990757     A.U. after   14 cycles
 Normal termination of Gaussian 16 at Sat Apr  5 23:10:25 2025.
 Gaussian 16:  ES64L-G16RevC.01  3-Jul-2019

 ----------------------------------------------------------------------
 #t hf aug-cc-pvdz iop(5/13=1,5/36=2,99/5=2) pseudo=read geom=check gue
 ss=(read,tcheck) scf=(maxcycle=1)
 ----------------------------------------------------------------------
 -----
 title
 -----
 Structure from the checkpoint file:  "propargylamine.chk"
 Charge =  0 Multiplicity = 1

                         Standard orientation:
 ---------------------------------------------------------------------
 Center     Atomic      Atomic             Coordinates (Angstroms)
 Number     Number       Type             X           Y           Z
 ---------------------------------------------------------------------
      1          7           0       -1.521190   -0.514806   -0.120022
      2          6           0       -0.579874    0.602125    0.038950
      3          6           0        0.805281    0.144140   -0.003594
      4          6           0        1.943561   -0.232193   -0.014649
      5          1           0       -1.375309   -1.207070    0.604410
      6          1           0       -2.473718   -0.181419   -0.036708
      7          1           0       -0.745639    1.300834   -0.784742
      8          1           0       -0.721665    1.172303    0.967186
      9          1           0        2.950856   -0.565445   -0.034238
 ---------------------------------------------------------------------

 SCF Done:  E(RHF) =  -170.963952465     A.U. after    2 cycles

 The electronic state is 1-A.
 Alpha  occ. eigenvalues --  -15.61848 -11.29389 -11.24617 -11.23610  -1.16402
 Alpha  occ. eigenvalues --   -1.02963  -0.92395  -0.72814  -0.68404  -0.63811
 Alpha  occ. eigenvalues --   -0.60452  -0.56718  -0.41185  -0.39756  -0.38328
 Alpha virt. eigenvalues --    0.03329   0.03988   0.04919   0.05464   0.06911
 Alpha virt. eigenvalues --    0.10647   0.11622   0.12005   0.12418   0.14311
 Alpha virt. eigenvalues --    0.15148   0.15903   0.16973   0.17188   0.19092

 Mulliken charges:
               1
     1  N   -0.377833
     2  C    0.579835
     3  C   -0.679975
     4  C    1.009277
     5  H    0.026274
     6  H   -0.007680
     7  H   -0.052558
     8  H    0.000236
     9  H   -0.497574
 Sum of Mulliken charges =  -0.00000

 Dipole moment (field-independent basis, Debye):
    X=             -0.8559    Y=              0.6710    Z=              1.2229  Tot=              1.6365

 Test job not archived.
 1\1\GINC-SE205\SP\RHF\Aug-CC-pVDZ\C3H5N1\OHZDE\05-Apr-2025\0\\#t hf au
 g-cc-pvdz iop(5/13=1,5/36=2,99/5=2) pseudo=read geom=check guess=(read
 ,tcheck) scf=(maxcycle=1)\\title\\0,1\N,0,-1.52119,-0.514806,-0.120022
 \C,0,-0.579874,0.602125,0.03895\C,0,0.805281,0.14414,-0.003594\C,0,1.9
 43561,-0.232193,-0.014649\H,0,-1.375309,-1.20707,0.60441\H,0,-2.473718
 ,-0.181419,-0.036708\H,0,-0.745639,1.300834,-0.784742\H,0,-0.721665,1.
 172303,0.967186\H,0,2.950856,-0.565445,-0.034238\\Version=ES64L-G16Rev
 C.01\State=1-A\HF=-170.9639525\RMSD=7.980e-03\Dipole=-0.3367473,0.2639

 Normal termination of Gaussian 16 at Sat Apr  5 23:10:27 2025.
