 Gaussian 16, Revision C.01,

 ----------------------------------------------------------------------
 #t hf aug-cc-pvdz symm=none int=(grid=ultrafine) guess=(read,tcheck) s
 table=(opt,rrhf)
 ----------------------------------------------------------------------
 -----
 title
 -----
 Symbolic Z-matrix:
 Charge =  0 Multiplicity = 1

 SCF Done:  E(RHF) =  -265.672744970     A.U. after   15 cycles
 Normal termination of Gaussian 16 at Sat Apr  5 23:10:26 2025.
 Gaussian 16:  ES64L-G16RevC.01  3-Jul-2019

 ----------------------------------------------------------------------
 #t hf aug-cc-pvdz iop(5/13=1,5/36=2,99/5=2) pseudo=read geom=check gue
 ss=(read,tcheck) scf=(maxcycle=1)
 ----------------------------------------------------------------------
 -----
 title
 -----
 Structure from the checkpoint file:  "propanedial.chk"
 Charge =  0 Multiplicity = 1

                         Standard orientation:
 ---------------------------------------------------------------------
 Center     Atomic      Atomic             Coordinates (Angstroms)
 Number     Number       Type             X           Y           Z
 ---------------------------------------------------------------------
      1          6           0        1.070710   -0.368234    0.146305
      2          6           0       -1.282848    0.323971   -0.320122
      3          6           0        0.020532    0.716170    0.346563
      4          8           0        2.179848   -0.153436   -0.260150
      5          8           0       -1.960910   -0.597247    0.054811
      6          1           0        0.734564   -1.388064    0.407927
      7          1           0       -1.572330    0.919367   -1.206311
      8          1           0        0.403972    1.666523   -0.018102
      9          1           0       -0.168069    0.776197    1.422723
 ---------------------------------------------------------------------

 SCF Done:  E(RHF) =  -265.757007379     A.U. after    2 cycles

 The electronic state is 1-A.
 Alpha  occ. eigenvalues --  -20.60003 -20.59450 -11.37257 -11.36777 -11.27943
 Alpha  occ. eigenvalues --   -1.38948  -1.38255  -1.06530  -0.86631  -0.80417
 Alpha  occ. eigenvalues --   -0.72790  -0.68895  -0.66586  -0.66337  -0.59834
 Alpha  occ. eigenvalues --   -0.55956  -0.54671  -0.47293  -0.44464
 Alpha virt. eigenvalues --    0.03287   0.04186   0.04934   0.05789   0.06931
 Alpha virt. eigenvalues --    0.08700   0.10826   0.11147   0.12146   0.13174
 Alpha virt. eigenvalues --    0.14514   0.14659   0.15190   0.15548   0.16920

 Mulliken charges:
               1
     1  C    0.479053
     2  C    0.620267
     3  C   -0.068197
     4  O   -0.421038
     5  O   -0.479922
     6  H   -0.076873
     7  H   -0.111757
     8  H   -0.064172
     9  H    0.122638
 Sum of Mulliken charges =  -0.00000

 Dipole moment (field-independent basis, Debye):
    X=             -1.0223    Y=              2.0653    Z=              0.3847  Tot=              2.3363

 Test job not archived.
 1\1\GINC-SE173\SP\RHF\Aug-CC-pVDZ\C3H4O2\OHZDE\05-Apr-2025\0\\#t hf au
 g-cc-pvdz iop(5/13=1,5/36=2,99/5=2) pseudo=read geom=check guess=(read
 ,tcheck) scf=(maxcycle=1)\\title\\0,1\C,0,1.07071,-0.368234,0.146305\C
 ,0,-1.282848,0.323971,-0.320122\C,0,0.020532,0.71617,0.346563\O,0,2.17
 9848,-0.153436,-0.26015\O,0,-1.96091,-0.597247,0.054811\H,0,0.734564,-
 1.388064,0.407927\H,0,-1.57233,0.919367,-1.206311\H,0,0.403972,1.66652
 3,-0.018102\H,0,-0.168069,0.776197,1.422723\\Version=ES64L-G16RevC.01\
 State=1-A\HF=-265.7570074\RMSD=3.542e-03\Dipole=-0.4021964,0.8125398,0

 Normal termination of Gaussian 16 at Sat Apr  5 23:10:29 2025.
