 Gaussian 16, Revision C.01,

 ----------------------------------------------------------------------
 #t hf aug-cc-pvdz symm=none int=(grid=ultrafine) guess=(read,tcheck) s
 table=(opt,rrhf)
 ----------------------------------------------------------------------
 -----
 title
 -----
 Symbolic Z-matrix:
 Charge =  0 Multiplicity = 1

 SCF Done:  E(RHF) =  -265.616122612     A.U. after   13 cycles
 Normal termination of Gaussian 16 at Sat Apr  5 23:10:25 2025.
 Gaussian 16:  ES64L-G16RevC.01  3-Jul-2019

 ----------------------------------------------------------------------
 #t hf aug-cc-pvdz iop(5/13=1,5/36=2,99/5=2) pseudo=read geom=check gue
 ss=(read,tcheck) scf=(maxcycle=1)
 ----------------------------------------------------------------------
 -----
 title
 -----
 Structure from the checkpoint file:  "propa-1-2-diene-1-3-diol.chk"
 Charge =  0 Multiplicity = 1

                         Standard orientation:
 ---------------------------------------------------------------------
 Center     Atomic      Atomic             Coordinates (Angstroms)
 Number     Number       Type             X           Y           Z
 ---------------------------------------------------------------------
      1          6           0       -0.000000   -0.000000    0.314636
      2          6           0        0.000000    1.305048    0.357543
      3          6           0       -0.000000   -1.305048    0.357543
      4          8           0        0.776928    2.146963   -0.393553
      5          8           0       -0.776928   -2.146963   -0.393553
      6          1           0       -0.646254    1.874974    1.014469
      7          1           0        0.646254   -1.874974    1.014469
      8          1           0        1.357245    1.618777   -0.955207
      9          1           0       -1.357245   -1.618777   -0.955207
 ---------------------------------------------------------------------

 SCF Done:  E(RHF) =  -265.702502246     A.U. after    2 cycles

 The electronic state is 1-A.
 Alpha  occ. eigenvalues --  -20.61045 -20.61045 -11.33082 -11.33036 -11.23732
 Alpha  occ. eigenvalues --   -1.36935  -1.36681  -1.05427  -0.94693  -0.82468
 Alpha  occ. eigenvalues --   -0.77291  -0.66824  -0.66817  -0.60519  -0.59976
 Alpha  occ. eigenvalues --   -0.59788  -0.57304  -0.36839  -0.36774
 Alpha virt. eigenvalues --    0.03287   0.04569   0.04908   0.05212   0.09973
 Alpha virt. eigenvalues --    0.09979   0.10946   0.11294   0.13516   0.14578
 Alpha virt. eigenvalues --    0.15517   0.15749   0.16688   0.17258   0.19255

 Mulliken charges:
               1
     1  C   -0.725407
     2  C    0.997683
     3  C    0.997683
     4  O   -0.521475
     5  O   -0.521475
     6  H   -0.257900
     7  H   -0.257900
     8  H    0.144395
     9  H    0.144395
 Sum of Mulliken charges =  -0.00000

 Dipole moment (field-independent basis, Debye):
    X=             -0.0000    Y=             -0.0000    Z=             -0.4346  Tot=              0.4346

 Test job not archived.
 1\1\GINC-SE170\SP\RHF\Aug-CC-pVDZ\C3H4O2\OHZDE\05-Apr-2025\0\\#t hf au
 g-cc-pvdz iop(5/13=1,5/36=2,99/5=2) pseudo=read geom=check guess=(read
 ,tcheck) scf=(maxcycle=1)\\title\\0,1\C,0,0.,0.,0.314636\C,0,0.,1.3050
 48,0.357543\C,0,0.,-1.305048,0.357543\O,0,0.776928,2.146963,-0.393553\
 O,0,-0.776928,-2.146963,-0.393553\H,0,-0.646254,1.874974,1.014469\H,0,
 0.646254,-1.874974,1.014469\H,0,1.357245,1.618777,-0.955207\H,0,-1.357
 245,-1.618777,-0.955207\\Version=ES64L-G16RevC.01\State=1-A\HF=-265.70
 25022\RMSD=7.779e-03\Dipole=0.,0.,-0.170985\Quadrupole=2.7504122,-5.11

 Normal termination of Gaussian 16 at Sat Apr  5 23:10:28 2025.
