 Gaussian 16, Revision C.01,

 ----------------------------------------------------------------------
 #t hf aug-cc-pvdz symm=none int=(grid=ultrafine) guess=(read,tcheck) s
 table=(opt,rrhf)
 ----------------------------------------------------------------------
 -----
 title
 -----
 Symbolic Z-matrix:
 Charge =  0 Multiplicity = 1

 SCF Done:  E(RHF) =  -268.018923573     A.U. after   12 cycles
 Normal termination of Gaussian 16 at Sat Apr  5 23:10:56 2025.
 Gaussian 16:  ES64L-G16RevC.01  3-Jul-2019

 ----------------------------------------------------------------------
 #t hf aug-cc-pvdz iop(5/13=1,5/36=2,99/5=2) pseudo=read geom=check gue
 ss=(read,tcheck) scf=(maxcycle=1)
 ----------------------------------------------------------------------
 -----
 title
 -----
 Structure from the checkpoint file:  "propylene_glycol.chk"
 Charge =  0 Multiplicity = 1

                         Standard orientation:
 ---------------------------------------------------------------------
 Center     Atomic      Atomic             Coordinates (Angstroms)
 Number     Number       Type             X           Y           Z
 ---------------------------------------------------------------------
      1          8           0       -0.463972    1.384052   -0.155574
      2          1           0        0.450340    1.692749   -0.148928
      3          8           0        1.955994   -0.044939    0.007682
      4          1           0        2.204193   -0.174878    0.928152
      5          6           0        0.719569   -0.720388   -0.243068
      6          1           0        0.626152   -0.767914   -1.328484
      7          1           0        0.743413   -1.741843    0.148870
      8          6           0       -0.461734    0.047680    0.337446
      9          1           0       -0.352342    0.067485    1.432972
     10          6           0       -1.793602   -0.587521   -0.016562
     11          1           0       -1.917072   -0.637100   -1.099209
     12          1           0       -1.865467   -1.596382    0.392217
     13          1           0       -2.610789    0.006348    0.390648
 ---------------------------------------------------------------------

 SCF Done:  E(RHF) =  -268.105094733     A.U. after    2 cycles

 The electronic state is 1-A.
 Alpha  occ. eigenvalues --  -20.58633 -20.56455 -11.29300 -11.29225 -11.22879
 Alpha  occ. eigenvalues --   -1.34045  -1.30931  -1.03745  -0.93130  -0.81829
 Alpha  occ. eigenvalues --   -0.72448  -0.69854  -0.66846  -0.61912  -0.57449
 Alpha  occ. eigenvalues --   -0.54978  -0.54227  -0.53486  -0.51417  -0.47547
 Alpha  occ. eigenvalues --   -0.44079
 Alpha virt. eigenvalues --    0.03112   0.04372   0.04904   0.05219   0.06930
 Alpha virt. eigenvalues --    0.07229   0.07467   0.08156   0.11629   0.13182
 Alpha virt. eigenvalues --    0.14097   0.14828   0.15642   0.16287   0.16552

 Mulliken charges:
               1
     1  O   -0.581605
     2  H    0.168380
     3  O   -0.602057
     4  H    0.156050
     5  C    0.838745
     6  H   -0.136597
     7  H   -0.099148
     8  C   -0.015706
     9  H   -0.150319
    10  C    0.455083
    11  H    0.009866
    12  H    0.002060
    13  H   -0.044751
 Sum of Mulliken charges =  -0.00000

 Dipole moment (field-independent basis, Debye):
    X=              0.3702    Y=             -2.0619    Z=              1.7008  Tot=              2.6984

 Test job not archived.
 1\1\GINC-SE042\SP\RHF\Aug-CC-pVDZ\C3H8O2\OHZDE\05-Apr-2025\0\\#t hf au
 g-cc-pvdz iop(5/13=1,5/36=2,99/5=2) pseudo=read geom=check guess=(read
 ,tcheck) scf=(maxcycle=1)\\title\\0,1\O,0,-0.463972,1.384052,-0.155574
 \H,0,0.45034,1.692749,-0.148928\O,0,1.955994,-0.044939,0.007682\H,0,2.
 204193,-0.174878,0.928152\C,0,0.719569,-0.720388,-0.243068\H,0,0.62615
 2,-0.767914,-1.328484\H,0,0.743413,-1.741843,0.14887\C,0,-0.461734,0.0
 4768,0.337446\H,0,-0.352342,0.067485,1.432972\C,0,-1.793602,-0.587521,
 -0.016562\H,0,-1.917072,-0.6371,-1.099209\H,0,-1.865467,-1.596382,0.39

 Normal termination of Gaussian 16 at Sat Apr  5 23:11:00 2025.
