 Gaussian 16, Revision C.01,

 ----------------------------------------------------------------------
 #t hf aug-cc-pvdz symm=none int=(grid=ultrafine) guess=(read,tcheck) s
 table=(opt,rrhf)
 ----------------------------------------------------------------------
 -----
 title
 -----
 Symbolic Z-matrix:
 Charge =  0 Multiplicity = 1

 SCF Done:  E(RHF) =  -170.982829024     A.U. after   13 cycles
 Normal termination of Gaussian 16 at Sat Apr  5 23:10:26 2025.
 Gaussian 16:  ES64L-G16RevC.01  3-Jul-2019

 ----------------------------------------------------------------------
 #t hf aug-cc-pvdz iop(5/13=1,5/36=2,99/5=2) pseudo=read geom=check gue
 ss=(read,tcheck) scf=(maxcycle=1)
 ----------------------------------------------------------------------
 -----
 title
 -----
 Structure from the checkpoint file:  "propanenitrile.chk"
 Charge =  0 Multiplicity = 1

                         Standard orientation:
 ---------------------------------------------------------------------
 Center     Atomic      Atomic             Coordinates (Angstroms)
 Number     Number       Type             X           Y           Z
 ---------------------------------------------------------------------
      1          6           0        0.771682   -0.432622    0.000000
      2          6           0       -1.515437    0.563249    0.000000
      3          6           0        0.000000    0.807103    0.000000
      4          7           0        1.364991   -1.417770    0.000000
      5          1           0       -1.819793    0.002200    0.881973
      6          1           0       -2.041098    1.517131    0.000000
      7          1           0       -1.819793    0.002200   -0.881973
      8          1           0        0.294138    1.388238    0.876058
      9          1           0        0.294138    1.388238   -0.876058
 ---------------------------------------------------------------------

 SCF Done:  E(RHF) =  -171.036674571     A.U. after    2 cycles

 The electronic state is 1-A'.
 Alpha  occ. eigenvalues --  -15.63531 -11.29570 -11.28538 -11.25932  -1.19415
 Alpha  occ. eigenvalues --   -1.07608  -0.91246  -0.70447  -0.66181  -0.59192
 Alpha  occ. eigenvalues --   -0.56206  -0.54618  -0.53638  -0.45730  -0.45676
 Alpha virt. eigenvalues --    0.02671   0.04390   0.04548   0.05620   0.07379
 Alpha virt. eigenvalues --    0.09371   0.11273   0.11571   0.12106   0.13877
 Alpha virt. eigenvalues --    0.14951   0.16097   0.16570   0.17224   0.18007

 Mulliken charges:
               1
     1  C   -0.283855
     2  C    0.376006
     3  C    0.204282
     4  N   -0.192662
     5  H   -0.059122
     6  H   -0.056533
     7  H   -0.059122
     8  H    0.035504
     9  H    0.035504
 Sum of Mulliken charges =  -0.00000

 Dipole moment (field-independent basis, Debye):
    X=             -2.4343    Y=              3.5098    Z=              0.0000  Tot=              4.2714

 Test job not archived.
 1\1\GINC-SE203\SP\RHF\Aug-CC-pVDZ\C3H5N1\OHZDE\05-Apr-2025\0\\#t hf au
 g-cc-pvdz iop(5/13=1,5/36=2,99/5=2) pseudo=read geom=check guess=(read
 ,tcheck) scf=(maxcycle=1)\\title\\0,1\C,0,0.771682,-0.432622,0.\C,0,-1
 .515437,0.563249,0.\C,0,0.,0.807103,0.\N,0,1.364991,-1.41777,0.\H,0,-1
 .819793,0.0022,0.881973\H,0,-2.041098,1.517131,0.\H,0,-1.819793,0.0022
 ,-0.881973\H,0,0.294138,1.388238,0.876058\H,0,0.294138,1.388238,-0.876
 058\\Version=ES64L-G16RevC.01\State=1-A'\HF=-171.0366746\RMSD=3.690e-0
 3\Dipole=-0.9577191,1.3808695,0.\Quadrupole=-0.758153,-1.0709709,1.829

 Normal termination of Gaussian 16 at Sat Apr  5 23:10:28 2025.
