 Gaussian 16, Revision C.01,

 ----------------------------------------------------------------------
 #t hf aug-cc-pvdz symm=none int=(grid=ultrafine) guess=(read,tcheck) s
 table=(opt,rrhf)
 ----------------------------------------------------------------------
 -----
 title
 -----
 Symbolic Z-matrix:
 Charge =  0 Multiplicity = 1

 SCF Done:  E(RHF) =  -264.465779756     A.U. after   15 cycles
 Normal termination of Gaussian 16 at Sat Apr  5 23:10:26 2025.
 Gaussian 16:  ES64L-G16RevC.01  3-Jul-2019

 ----------------------------------------------------------------------
 #t hf aug-cc-pvdz iop(5/13=1,5/36=2,99/5=2) pseudo=read geom=check gue
 ss=(read,tcheck) scf=(maxcycle=1)
 ----------------------------------------------------------------------
 -----
 title
 -----
 Structure from the checkpoint file:  "propiolic_acid.chk"
 Charge =  0 Multiplicity = 1

                         Standard orientation:
 ---------------------------------------------------------------------
 Center     Atomic      Atomic             Coordinates (Angstroms)
 Number     Number       Type             X           Y           Z
 ---------------------------------------------------------------------
      1          8           0       -1.140757    1.067901   -0.000039
      2          8           0       -1.122638   -1.159311   -0.000036
      3          6           0       -0.509953   -0.131001   -0.000019
      4          6           0        0.939527   -0.050347    0.000023
      5          6           0        2.137587    0.000371    0.000080
      6          1           0       -0.495557    1.786680   -0.000024
      7          1           0        3.199749    0.030461    0.000128
 ---------------------------------------------------------------------

 SCF Done:  E(RHF) =  -264.551495431     A.U. after    2 cycles

 The electronic state is 1-A.
 Alpha  occ. eigenvalues --  -20.64556 -20.58541 -11.43996 -11.29971 -11.28904
 Alpha  occ. eigenvalues --   -1.44288  -1.35502  -1.08050  -0.91914  -0.84037
 Alpha  occ. eigenvalues --   -0.75355  -0.69924  -0.66805  -0.63652  -0.52518
 Alpha  occ. eigenvalues --   -0.51194  -0.45009  -0.44888
 Alpha virt. eigenvalues --    0.02486   0.03981   0.06478   0.08457   0.09566
 Alpha virt. eigenvalues --    0.09611   0.09951   0.12757   0.13468   0.14103
 Alpha virt. eigenvalues --    0.15268   0.15937   0.17879   0.19190   0.20307

 Mulliken charges:
               1
     1  O   -0.480188
     2  O   -0.425493
     3  C    0.683888
     4  C   -0.356273
     5  C    0.812357
     6  H    0.203221
     7  H   -0.437513
 Sum of Mulliken charges =  -0.00000

 Dipole moment (field-independent basis, Debye):
    X=              4.1666    Y=              3.0076    Z=              0.0001  Tot=              5.1387

 Test job not archived.
 1\1\GINC-SE011\SP\RHF\Aug-CC-pVDZ\C3H2O2\OHZDE\05-Apr-2025\0\\#t hf au
 g-cc-pvdz iop(5/13=1,5/36=2,99/5=2) pseudo=read geom=check guess=(read
 ,tcheck) scf=(maxcycle=1)\\title\\0,1\O,0,-1.140757,1.067901,-0.000039
 \O,0,-1.122638,-1.159311,-0.000036\C,0,-0.509953,-0.131001,-0.000019\C
 ,0,0.939527,-0.050347,0.000023\C,0,2.137587,0.000371,0.00008\H,0,-0.49
 5557,1.78668,-0.000024\H,0,3.199749,0.030461,0.000128\\Version=ES64L-G
 16RevC.01\State=1-A\HF=-264.5514954\RMSD=7.983e-03\Dipole=1.6392792,1.
 1832885,0.0000558\Quadrupole=1.771839,-0.9195906,-0.8522483,-1.0494515

 Normal termination of Gaussian 16 at Sat Apr  5 23:10:28 2025.
