 Gaussian 16, Revision C.01,

 ----------------------------------------------------------------------
 #t hf aug-cc-pvdz symm=none int=(grid=ultrafine) guess=(read,tcheck) s
 table=(opt,rrhf)
 ----------------------------------------------------------------------
 -----
 title
 -----
 Symbolic Z-matrix:
 Charge =  0 Multiplicity = 1

 SCF Done:  E(RHF) =  -423.033539293     A.U. after   13 cycles

 1\1\GINC-SE028\Stability\RHF\Aug-CC-pVDZ\C7H14O2\OHZDE\05-Apr-2025\0\\
 #t hf aug-cc-pvdz symm=none int=(grid=ultrafine) guess=(read,tcheck) s
 table=(opt,rrhf)\\title\\0,1\C,0,0.,0.612118,0.\C,0,3.00813,3.090722,0
 .\C,0,-2.513916,-3.581102,0.\C,0,1.428318,1.107953,0.\C,0,1.55259,2.62
 7842,0.\C,0,-1.17295,-2.848444,0.\C,0,-1.353001,-1.343669,0.\O,0,-0.98
 5991,1.306773,0.\O,0,-0.041603,-0.736721,0.\H,0,3.073746,4.179115,0.\H
 ,0,3.541696,2.727258,0.88086\H,0,3.541696,2.727258,-0.88086\H,0,-3.106
 341,-3.328029,-0.88119\H,0,-2.36653,-4.66089,0.\H,0,-3.106341,-3.32802

 Normal termination of Gaussian 16 at Sat Apr  5 23:12:52 2025.
 Gaussian 16:  ES64L-G16RevC.01  3-Jul-2019

 ----------------------------------------------------------------------
 #t hf aug-cc-pvdz iop(5/13=1,5/36=2,99/5=2) pseudo=read geom=check gue
 ss=(read,tcheck) scf=(maxcycle=1)
 ----------------------------------------------------------------------
 -----
 title
 -----
 Structure from the checkpoint file:  "propyl_butanoate.chk"
 Charge =  0 Multiplicity = 1

                         Standard orientation:
 ---------------------------------------------------------------------
 Center     Atomic      Atomic             Coordinates (Angstroms)
 Number     Number       Type             X           Y           Z
 ---------------------------------------------------------------------
      1          6           0       -0.000000    0.612118    0.000000
      2          6           0        3.008129    3.090723    0.000000
      3          6           0       -2.513914   -3.581103    0.000000
      4          6           0        1.428318    1.107954    0.000000
      5          6           0        1.552589    2.627843    0.000000
      6          6           0       -1.172949   -2.848444    0.000000
      7          6           0       -1.353000   -1.343669    0.000000
      8          8           0       -0.985991    1.306773    0.000000
      9          8           0       -0.041603   -0.736721    0.000000
     10          1           0        3.073745    4.179116    0.000000
     11          1           0        3.541695    2.727259    0.880860
     12          1           0        3.541695    2.727259   -0.880860
     13          1           0       -3.106340   -3.328030   -0.881190
     14          1           0       -2.366528   -4.660891    0.000000
     15          1           0       -3.106340   -3.328030    0.881190
     16          1           0        1.929119    0.673099    0.869456
     17          1           0        1.929119    0.673099   -0.869456
     18          1           0        1.031922    3.030231   -0.870409
     19          1           0        1.031922    3.030231    0.870409
     20          1           0       -0.587969   -3.136322   -0.876168
     21          1           0       -0.587969   -3.136322    0.876168
     22          1           0       -1.899179   -1.001822   -0.880481
     23          1           0       -1.899179   -1.001822    0.880481
 ---------------------------------------------------------------------

 SCF Done:  E(RHF) =  -423.170145696     A.U. after    2 cycles

 The electronic state is 1-A'.
 Alpha  occ. eigenvalues --  -20.60907 -20.55518 -11.38707 -11.29401 -11.24839
 Alpha  occ. eigenvalues --  -11.23747 -11.23238 -11.23198 -11.22663  -1.41292
 Alpha  occ. eigenvalues --   -1.31885  -1.07788  -1.05763  -0.97840  -0.92807
 Alpha  occ. eigenvalues --   -0.83621  -0.81304  -0.77443  -0.70115  -0.69617
 Alpha  occ. eigenvalues --   -0.67934  -0.64801  -0.61162  -0.60380  -0.57725
 Alpha  occ. eigenvalues --   -0.56202  -0.55339  -0.52652  -0.52490  -0.50709
 Alpha  occ. eigenvalues --   -0.49311  -0.49166  -0.48937  -0.48056  -0.46681
 Alpha  occ. eigenvalues --   -0.45536
 Alpha virt. eigenvalues --    0.03367   0.03747   0.04645   0.04646   0.05189
 Alpha virt. eigenvalues --    0.05588   0.05609   0.07001   0.07256   0.08111
 Alpha virt. eigenvalues --    0.08132   0.08533   0.09480   0.10487   0.10861

 Mulliken charges:
               1
     1  C   -0.258987
     2  C    0.515187
     3  C    0.531028
     4  C    0.378100
     5  C    0.325787
     6  C    0.253495
     7  C    0.731948
     8  O   -0.421840
     9  O   -0.449479
    10  H   -0.044557
    11  H   -0.084886
    12  H   -0.084886
    13  H   -0.074707
    14  H   -0.071012
    15  H   -0.074707
    16  H   -0.091095
    17  H   -0.091095
    18  H   -0.149844
    19  H   -0.149844
    20  H   -0.138509
    21  H   -0.138509
    22  H   -0.205793
    23  H   -0.205793
 Sum of Mulliken charges =  -0.00000

 Dipole moment (field-independent basis, Debye):
    X=              1.2954    Y=             -1.6822    Z=              0.0000  Tot=              2.1232

 Test job not archived.
 1\1\GINC-SE028\SP\RHF\Aug-CC-pVDZ\C7H14O2\OHZDE\05-Apr-2025\0\\#t hf a
 ug-cc-pvdz iop(5/13=1,5/36=2,99/5=2) pseudo=read geom=check guess=(rea
 d,tcheck) scf=(maxcycle=1)\\title\\0,1\C,0,0.,0.612118,0.\C,0,3.00813,
 3.090722,0.\C,0,-2.513916,-3.581102,0.\C,0,1.428318,1.107953,0.\C,0,1.
 55259,2.627842,0.\C,0,-1.17295,-2.848444,0.\C,0,-1.353001,-1.343669,0.
 \O,0,-0.985991,1.306773,0.\O,0,-0.041603,-0.736721,0.\H,0,3.073746,4.1
 79115,0.\H,0,3.541696,2.727258,0.88086\H,0,3.541696,2.727258,-0.88086\
 H,0,-3.106341,-3.328029,-0.88119\H,0,-2.36653,-4.66089,0.\H,0,-3.10634

 Normal termination of Gaussian 16 at Sat Apr  5 23:13:38 2025.
