 Gaussian 16, Revision C.01,

 ----------------------------------------------------------------------
 #t hf aug-cc-pvdz symm=none int=(grid=ultrafine) guess=(read,tcheck) s
 table=(opt,rrhf)
 ----------------------------------------------------------------------
 -----
 title
 -----
 Symbolic Z-matrix:
 Charge =  0 Multiplicity = 1

 SCF Done:  E(RHF) =  -648.496630934     A.U. after   15 cycles
 Normal termination of Gaussian 16 at Sat Apr  5 23:10:25 2025.
 Gaussian 16:  ES64L-G16RevC.01  3-Jul-2019

 ----------------------------------------------------------------------
 #t hf aug-cc-pvdz iop(5/13=1,5/36=2,99/5=2) pseudo=read geom=check gue
 ss=(read,tcheck) scf=(maxcycle=1)
 ----------------------------------------------------------------------
 -----
 title
 -----
 Structure from the checkpoint file:  "prop-2-ynoyl_chloride.chk"
 Charge =  0 Multiplicity = 1

                         Standard orientation:
 ---------------------------------------------------------------------
 Center     Atomic      Atomic             Coordinates (Angstroms)
 Number     Number       Type             X           Y           Z
 ---------------------------------------------------------------------
      1         17           0       -1.342896   -0.692619   -0.000002
      2          8           0       -0.259568    1.696079    0.000019
      3          6           0       -0.024306    0.532850   -0.000069
      4          6           0        1.265435   -0.081591   -0.000088
      5          6           0        2.355970   -0.580205    0.000092
      6          1           0        3.323175   -1.020440    0.000275
 ---------------------------------------------------------------------

 SCF Done:  E(RHF) =  -648.576111079     A.U. after    2 cycles

 The electronic state is 1-A.
 Alpha  occ. eigenvalues -- -103.68892 -20.62896 -11.45581 -11.30771 -11.29626
 Alpha  occ. eigenvalues --  -10.72201  -8.37908  -8.37601  -8.37591  -1.43307
 Alpha  occ. eigenvalues --   -1.18599  -1.08647  -0.92678  -0.76920  -0.73753
 Alpha  occ. eigenvalues --   -0.69933  -0.63756  -0.51277  -0.49834  -0.49284
 Alpha  occ. eigenvalues --   -0.45525  -0.44846
 Alpha virt. eigenvalues --    0.02814   0.03891   0.07193   0.08304   0.08819
 Alpha virt. eigenvalues --    0.09814   0.10022   0.13052   0.13355   0.13916
 Alpha virt. eigenvalues --    0.15294   0.15866   0.16654   0.17327   0.17624

 Mulliken charges:
               1
     1  Cl  -0.106893
     2  O   -0.382128
     3  C    0.050283
     4  C    0.135655
     5  C    0.703779
     6  H   -0.400697
 Sum of Mulliken charges =   0.00000

 Dipole moment (field-independent basis, Debye):
    X=              2.7747    Y=             -2.2077    Z=              0.0001  Tot=              3.5458

 Test job not archived.
 1\1\GINC-SE152\SP\RHF\Aug-CC-pVDZ\C3H1Cl1O1\OHZDE\05-Apr-2025\0\\#t hf
  aug-cc-pvdz iop(5/13=1,5/36=2,99/5=2) pseudo=read geom=check guess=(r
 ead,tcheck) scf=(maxcycle=1)\\title\\0,1\Cl,0,-1.342896,-0.692618,-0.0
 00002\O,0,-0.259567,1.696079,0.000019\C,0,-0.024306,0.53285,-0.000069\
 C,0,1.265435,-0.081591,-0.000088\C,0,2.35597,-0.580206,0.000092\H,0,3.
 323175,-1.020441,0.000275\\Version=ES64L-G16RevC.01\State=1-A\HF=-648.
 5761111\RMSD=8.121e-03\Dipole=1.0916486,-0.8685578,0.000043\Quadrupole
 =5.187255,-4.106505,-1.08075,-1.7444218,0.000842,-0.0004722\PG=C01 [X(

 Normal termination of Gaussian 16 at Sat Apr  5 23:10:27 2025.
