 Gaussian 16, Revision C.01,

 ----------------------------------------------------------------------
 #t hf aug-cc-pvdz symm=none int=(grid=ultrafine) guess=(read,tcheck) s
 table=(opt,rrhf)
 ----------------------------------------------------------------------
 -----
 title
 -----
 Symbolic Z-matrix:
 Charge =  0 Multiplicity = 1

 SCF Done:  E(RHF) =  -190.743213127     A.U. after   13 cycles
 Normal termination of Gaussian 16 at Sat Apr  5 23:10:22 2025.
 Gaussian 16:  ES64L-G16RevC.01  3-Jul-2019

 ----------------------------------------------------------------------
 #t hf aug-cc-pvdz iop(5/13=1,5/36=2,99/5=2) pseudo=read geom=check gue
 ss=(read,tcheck) scf=(maxcycle=1)
 ----------------------------------------------------------------------
 -----
 title
 -----
 Structure from the checkpoint file:  "propa-1-2-dien-1-ol.chk"
 Charge =  0 Multiplicity = 1

                         Standard orientation:
 ---------------------------------------------------------------------
 Center     Atomic      Atomic             Coordinates (Angstroms)
 Number     Number       Type             X           Y           Z
 ---------------------------------------------------------------------
      1          6           0        0.656988   -0.482689    0.000000
      2          6           0        0.000000    0.643879    0.000000
      3          6           0       -0.646073    1.774994    0.000000
      4          8           0        0.112787   -1.745853    0.000000
      5          1           0        1.737890   -0.517886    0.000000
      6          1           0       -0.928536    2.272014    0.922836
      7          1           0       -0.928536    2.272014   -0.922836
      8          1           0       -0.848607   -1.676418    0.000000
 ---------------------------------------------------------------------

 SCF Done:  E(RHF) =  -190.805813155     A.U. after    2 cycles

 The electronic state is 1-A'.
 Alpha  occ. eigenvalues --  -20.60554 -11.31683 -11.26187 -11.25629  -1.36062
 Alpha  occ. eigenvalues --   -1.06302  -0.95256  -0.80062  -0.67933  -0.66089
 Alpha  occ. eigenvalues --   -0.62285  -0.58801  -0.57914  -0.39543  -0.35680
 Alpha virt. eigenvalues --    0.03401   0.04733   0.05188   0.05271   0.09666
 Alpha virt. eigenvalues --    0.09892   0.10942   0.11834   0.14476   0.15785
 Alpha virt. eigenvalues --    0.15911   0.16457   0.17416   0.18211   0.19417

 Mulliken charges:
               1
     1  C    1.018572
     2  C   -0.667782
     3  C    0.702085
     4  O   -0.526345
     5  H   -0.258123
     6  H   -0.200808
     7  H   -0.200808
     8  H    0.133208
 Sum of Mulliken charges =  -0.00000

 Dipole moment (field-independent basis, Debye):
    X=             -1.0152    Y=              1.1191    Z=             -0.0000  Tot=              1.5110

 Test job not archived.
 1\1\GINC-SE154\SP\RHF\Aug-CC-pVDZ\C3H4O1\OHZDE\05-Apr-2025\0\\#t hf au
 g-cc-pvdz iop(5/13=1,5/36=2,99/5=2) pseudo=read geom=check guess=(read
 ,tcheck) scf=(maxcycle=1)\\title\\0,1\C,0,0.656988,-0.482689,0.\C,0,0.
 ,0.643879,0.\C,0,-0.646073,1.774994,0.\O,0,0.112787,-1.745853,0.\H,0,1
 .73789,-0.517886,0.\H,0,-0.928536,2.272014,0.922836\H,0,-0.928536,2.27
 2014,-0.922836\H,0,-0.848607,-1.676418,0.\\Version=ES64L-G16RevC.01\St
 ate=1-A'\HF=-190.8058132\RMSD=7.356e-03\Dipole=-0.3994131,0.4402775,0.
 \Quadrupole=1.8478918,-0.9854319,-0.86246,0.4151749,0.,0.\PG=CS [SG(C3

 Normal termination of Gaussian 16 at Sat Apr  5 23:10:24 2025.
