 Gaussian 16, Revision C.01,

 ----------------------------------------------------------------------
 #t hf aug-cc-pvdz symm=none int=(grid=ultrafine) guess=(read,tcheck) s
 table=(opt,rrhf)
 ----------------------------------------------------------------------
 -----
 title
 -----
 Symbolic Z-matrix:
 Charge =  0 Multiplicity = 1

 SCF Done:  E(RHF) =  -118.276328973     A.U. after   10 cycles
 Normal termination of Gaussian 16 at Sat Apr  5 23:10:25 2025.
 Gaussian 16:  ES64L-G16RevC.01  3-Jul-2019

 ----------------------------------------------------------------------
 #t hf aug-cc-pvdz iop(5/13=1,5/36=2,99/5=2) pseudo=read geom=check gue
 ss=(read,tcheck) scf=(maxcycle=1)
 ----------------------------------------------------------------------
 -----
 title
 -----
 Structure from the checkpoint file:  "propane.chk"
 Charge =  0 Multiplicity = 1

                         Standard orientation:
 ---------------------------------------------------------------------
 Center     Atomic      Atomic             Coordinates (Angstroms)
 Number     Number       Type             X           Y           Z
 ---------------------------------------------------------------------
      1          6           0        0.000000   -0.000000    0.584601
      2          6           0        0.000000    1.273888   -0.259060
      3          6           0       -0.000000   -1.273888   -0.259060
      4          1           0        0.880629    1.318580   -0.903482
      5          1           0       -0.880629    1.318580   -0.903482
      6          1           0       -0.880629   -1.318580   -0.903482
      7          1           0        0.000000    2.168536    0.365318
      8          1           0        0.880629   -1.318580   -0.903482
      9          1           0       -0.000000   -2.168536    0.365318
     10          1           0        0.873365   -0.000000    1.242204
     11          1           0       -0.873365    0.000000    1.242204
 ---------------------------------------------------------------------

 SCF Done:  E(RHF) =  -118.317649846     A.U. after    2 cycles

 The electronic state is 1-A1.
 Alpha  occ. eigenvalues --  -11.22626 -11.21933 -11.21925  -1.04438  -0.92213
 Alpha  occ. eigenvalues --   -0.80012  -0.62572  -0.59970  -0.55270  -0.53287
 Alpha  occ. eigenvalues --   -0.47855  -0.47742  -0.46923
 Alpha virt. eigenvalues --    0.03733   0.04842   0.05017   0.05158   0.07440
 Alpha virt. eigenvalues --    0.07615   0.07853   0.08233   0.12265   0.14231
 Alpha virt. eigenvalues --    0.15244   0.15887   0.17150   0.17375   0.17405

 Mulliken charges:
               1
     1  C   -0.039076
     2  C    0.354571
     3  C    0.354571
     4  H   -0.075991
     5  H   -0.075991
     6  H   -0.075991
     7  H   -0.094680
     8  H   -0.075991
     9  H   -0.094680
    10  H   -0.088372
    11  H   -0.088372
 Sum of Mulliken charges =  -0.00000

 Dipole moment (field-independent basis, Debye):
    X=              0.0000    Y=              0.0000    Z=              0.0833  Tot=              0.0833

 Test job not archived.
 1\1\GINC-SE171\SP\RHF\Aug-CC-pVDZ\C3H8\OHZDE\05-Apr-2025\0\\#t hf aug-
 cc-pvdz iop(5/13=1,5/36=2,99/5=2) pseudo=read geom=check guess=(read,t
 check) scf=(maxcycle=1)\\title\\0,1\C,0,0.,0.,0.584601\C,0,0.,1.273888
 ,-0.25906\C,0,0.,-1.273888,-0.25906\H,0,0.880629,1.31858,-0.903482\H,0
 ,-0.880629,1.31858,-0.903482\H,0,-0.880629,-1.31858,-0.903482\H,0,0.,2
 .168536,0.365318\H,0,0.880629,-1.31858,-0.903482\H,0,0.,-2.168536,0.36
 5318\H,0,0.873365,0.,1.242204\H,0,-0.873365,0.,1.242204\\Version=ES64L
 -G16RevC.01\State=1-A1\HF=-118.3176498\RMSD=3.676e-03\Dipole=0.,0.,0.0

 Normal termination of Gaussian 16 at Sat Apr  5 23:10:27 2025.
