 Gaussian 16, Revision C.01,

 ----------------------------------------------------------------------
 #t hf aug-cc-pvdz symm=none int=(grid=ultrafine) guess=(read,tcheck) s
 table=(opt,rrhf)
 ----------------------------------------------------------------------
 -----
 title
 -----
 Symbolic Z-matrix:
 Charge =  0 Multiplicity = 1

 SCF Done:  E(RHF) =  -115.878253332     A.U. after   11 cycles
 Normal termination of Gaussian 16 at Sat Apr  5 23:10:44 2025.
 Gaussian 16:  ES64L-G16RevC.01  3-Jul-2019

 ----------------------------------------------------------------------
 #t hf aug-cc-pvdz iop(5/13=1,5/36=2,99/5=2) pseudo=read geom=check gue
 ss=(read,tcheck) scf=(maxcycle=1)
 ----------------------------------------------------------------------
 -----
 title
 -----
 Structure from the checkpoint file:  "propyne.chk"
 Charge =  0 Multiplicity = 1

                         Standard orientation:
 ---------------------------------------------------------------------
 Center     Atomic      Atomic             Coordinates (Angstroms)
 Number     Number       Type             X           Y           Z
 ---------------------------------------------------------------------
      1          6           0        0.000000    1.417677    0.000000
      2          6           0        0.000000    0.218758    0.000000
      3          6           0        0.000000   -1.236142    0.000000
      4          1           0        0.000000    2.478402    0.000000
      5          1           0        1.018882   -1.626721    0.000000
      6          1           0       -0.509441   -1.626721    0.882377
      7          1           0       -0.509441   -1.626721   -0.882377
 ---------------------------------------------------------------------

 SCF Done:  E(RHF) =  -115.918040715     A.U. after    2 cycles

 The electronic state is 1-A'.
 Alpha  occ. eigenvalues --  -11.26118 -11.24704 -11.23125  -1.05293  -0.95821
 Alpha  occ. eigenvalues --   -0.72086  -0.62823  -0.59508  -0.59508  -0.38930
 Alpha  occ. eigenvalues --   -0.38930
 Alpha virt. eigenvalues --    0.03453   0.04125   0.06008   0.06008   0.09067
 Alpha virt. eigenvalues --    0.12090   0.12090   0.13600   0.15476   0.15476
 Alpha virt. eigenvalues --    0.15923   0.16931   0.17142   0.17142   0.23110

 Mulliken charges:
               1
     1  C    1.124351
     2  C   -0.944054
     3  C    0.235251
     4  H   -0.507037
     5  H    0.030497
     6  H    0.030496
     7  H    0.030496
 Sum of Mulliken charges =  -0.00000

 Dipole moment (field-independent basis, Debye):
    X=             -0.0000    Y=             -0.7982    Z=              0.0000  Tot=              0.7982

 Test job not archived.
 1\1\GINC-SE146\SP\RHF\Aug-CC-pVDZ\C3H4\OHZDE\05-Apr-2025\0\\#t hf aug-
 cc-pvdz iop(5/13=1,5/36=2,99/5=2) pseudo=read geom=check guess=(read,t
 check) scf=(maxcycle=1)\\title\\0,1\C,0,0.,0.,1.417677\C,0,0.,0.,0.218
 758\C,0,0.,0.,-1.236142\H,0,0.,0.,2.478402\H,0,0.,1.018882,-1.626721\H
 ,0,0.882377,-0.509441,-1.626721\H,0,-0.882377,-0.509441,-1.626721\\Ver
 sion=ES64L-G16RevC.01\State=1-A'\HF=-115.9180407\RMSD=9.813e-03\Dipole
 =0.,-0.0000002,-0.3140232\Quadrupole=-1.5198082,-1.5198062,3.0396144,0
 .,0.,0.0000009\PG=CS [SG(C3H2),X(H2)]\\@

 Normal termination of Gaussian 16 at Sat Apr  5 23:10:47 2025.
