 Gaussian 16, Revision C.01,

 ----------------------------------------------------------------------
 #t hf aug-cc-pvdz symm=none int=(grid=ultrafine) guess=(read,tcheck) s
 table=(opt,rrhf)
 ----------------------------------------------------------------------
 -----
 title
 -----
 Symbolic Z-matrix:
 Charge =  0 Multiplicity = 1

 SCF Done:  E(RHF) =  -244.555195591     A.U. after   16 cycles
 Normal termination of Gaussian 16 at Sat Apr  5 23:10:25 2025.
 Gaussian 16:  ES64L-G16RevC.01  3-Jul-2019

 ----------------------------------------------------------------------
 #t hf aug-cc-pvdz iop(5/13=1,5/36=2,99/5=2) pseudo=read geom=check gue
 ss=(read,tcheck) scf=(maxcycle=1)
 ----------------------------------------------------------------------
 -----
 title
 -----
 Structure from the checkpoint file:  "prop-2-enenitrileoxide.chk"
 Charge =  0 Multiplicity = 1

                         Standard orientation:
 ---------------------------------------------------------------------
 Center     Atomic      Atomic             Coordinates (Angstroms)
 Number     Number       Type             X           Y           Z
 ---------------------------------------------------------------------
      1          8           0       -2.423172   -0.167625   -0.000000
      2          7           0       -1.229268    0.011793   -0.000004
      3          6           0       -0.078874    0.155417   -0.000002
      4          6           0        1.300610    0.480348    0.000003
      5          6           0        2.286856   -0.419406    0.000002
      6          1           0        1.529592    1.540379    0.000009
      7          1           0        2.091078   -1.482044   -0.000004
      8          1           0        3.318032   -0.098033    0.000007
 ---------------------------------------------------------------------

 SCF Done:  E(RHF) =  -244.634525446     A.U. after    2 cycles

 The electronic state is 1-A.
 Alpha  occ. eigenvalues --  -20.58575 -15.80867 -11.32640 -11.31270 -11.29378
 Alpha  occ. eigenvalues --   -1.44196  -1.20853  -1.09841  -0.89441  -0.74598
 Alpha  occ. eigenvalues --   -0.72307  -0.68571  -0.67521  -0.64898  -0.58188
 Alpha  occ. eigenvalues --   -0.48179  -0.40427  -0.36833
 Alpha virt. eigenvalues --    0.02354   0.03941   0.04945   0.05830   0.09108
 Alpha virt. eigenvalues --    0.09306   0.09770   0.12513   0.12611   0.13886
 Alpha virt. eigenvalues --    0.14577   0.14817   0.15043   0.16584   0.18402

 Mulliken charges:
               1
     1  O   -0.619548
     2  N    0.444387
     3  C   -0.885918
     4  C    1.406191
     5  C    0.513044
     6  H   -0.352172
     7  H   -0.265408
     8  H   -0.240577
 Sum of Mulliken charges =  -0.00000

 Dipole moment (field-independent basis, Debye):
    X=              5.5688    Y=              0.5442    Z=              0.0000  Tot=              5.5953

 Test job not archived.
 1\1\GINC-SE222\SP\RHF\Aug-CC-pVDZ\C3H3N1O1\OHZDE\05-Apr-2025\0\\#t hf
 aug-cc-pvdz iop(5/13=1,5/36=2,99/5=2) pseudo=read geom=check guess=(re
 ad,tcheck) scf=(maxcycle=1)\\title\\0,1\O,0,-2.423172,-0.167625,0.\N,0
 ,-1.229268,0.011793,-0.000004\C,0,-0.078874,0.155417,-0.000002\C,0,1.3
 0061,0.480348,0.000003\C,0,2.286856,-0.419406,0.000002\H,0,1.529592,1.
 540379,0.000009\H,0,2.091078,-1.482044,-0.000004\H,0,3.318032,-0.09803
 3,0.000007\\Version=ES64L-G16RevC.01\State=1-A\HF=-244.6345254\RMSD=6.
 014e-03\Dipole=2.1909177,0.2141001,0.0000007\Quadrupole=-2.9558648,3.0

 Normal termination of Gaussian 16 at Sat Apr  5 23:10:28 2025.
