 Gaussian 16, Revision C.01,

 ----------------------------------------------------------------------
 #t hf aug-cc-pvdz symm=none int=(grid=ultrafine) guess=(read,tcheck) s
 table=(opt,rrhf)
 ----------------------------------------------------------------------
 -----
 title
 -----
 Symbolic Z-matrix:
 Charge =  0 Multiplicity = 1

 SCF Done:  E(RHF) =  -312.300643257     A.U. after   12 cycles
 Normal termination of Gaussian 16 at Sat Apr  5 23:12:45 2025.
 Gaussian 16:  ES64L-G16RevC.01  3-Jul-2019

 ----------------------------------------------------------------------
 #t hf aug-cc-pvdz iop(5/13=1,5/36=2,99/5=2) pseudo=read geom=check gue
 ss=(read,tcheck) scf=(maxcycle=1)
 ----------------------------------------------------------------------
 -----
 title
 -----
 Structure from the checkpoint file:  "propylcyclopentane.chk"
 Charge =  0 Multiplicity = 1

                         Standard orientation:
 ---------------------------------------------------------------------
 Center     Atomic      Atomic             Coordinates (Angstroms)
 Number     Number       Type             X           Y           Z
 ---------------------------------------------------------------------
      1          6           0       -2.668057   -0.516202   -0.151817
      2          6           0       -2.379219    0.990207    0.083732
      3          6           0       -1.340914   -1.229360    0.139892
      4          6           0       -0.838544    1.117468    0.194491
      5          6           0       -0.268079   -0.224742   -0.304017
      6          6           0        3.632805   -0.000756    0.134440
      7          6           0        1.143001   -0.554336    0.179922
      8          6           0        2.231894    0.390324   -0.333620
      9          1           0       -3.488035   -0.885577    0.464020
     10          1           0       -2.953947   -0.684716   -1.191912
     11          1           0       -2.769755    1.593120   -0.736241
     12          1           0       -2.864319    1.350360    0.991058
     13          1           0       -1.236812   -1.414843    1.213997
     14          1           0       -1.254830   -2.193162   -0.364168
     15          1           0       -0.452275    1.972210   -0.360265
     16          1           0       -0.546339    1.259696    1.238803
     17          1           0       -0.259603   -0.208411   -1.401207
     18          1           0        3.700615    0.007006    1.224348
     19          1           0        3.895190   -1.005453   -0.203653
     20          1           0        4.388824    0.686078   -0.248814
     21          1           0        1.393620   -1.576741   -0.122604
     22          1           0        1.150697   -0.552656    1.276131
     23          1           0        2.014697    1.411417   -0.009971
     24          1           0        2.204946    0.406052   -1.427659
 ---------------------------------------------------------------------

 SCF Done:  E(RHF) =  -312.397389744     A.U. after    2 cycles

 The electronic state is 1-A.
 Alpha  occ. eigenvalues --  -11.22347 -11.22276 -11.21994 -11.21973 -11.21938
 Alpha  occ. eigenvalues --  -11.21847 -11.21796 -11.21769  -1.11228  -1.04694
 Alpha  occ. eigenvalues --   -0.97215  -0.95140  -0.88835  -0.80423  -0.77125
 Alpha  occ. eigenvalues --   -0.75504  -0.65568  -0.63318  -0.62524  -0.58373
 Alpha  occ. eigenvalues --   -0.57173  -0.55593  -0.53299  -0.52349  -0.48860
 Alpha  occ. eigenvalues --   -0.47484  -0.47182  -0.46486  -0.45355  -0.44796
 Alpha  occ. eigenvalues --   -0.44397  -0.43418
 Alpha virt. eigenvalues --    0.03620   0.04071   0.04324   0.04508   0.05768
 Alpha virt. eigenvalues --    0.06015   0.06126   0.06664   0.06833   0.07830
 Alpha virt. eigenvalues --    0.08375   0.08646   0.09079   0.09250   0.10913

 Mulliken charges:
               1
     1  C    0.381994
     2  C    0.268950
     3  C    0.744881
     4  C    0.506208
     5  C   -0.719126
     6  C    0.573980
     7  C    0.267068
     8  C    0.369777
     9  H   -0.121260
    10  H   -0.163879
    11  H   -0.079456
    12  H   -0.087059
    13  H   -0.126065
    14  H   -0.177806
    15  H   -0.234977
    16  H   -0.184557
    17  H   -0.345315
    18  H   -0.083463
    19  H   -0.098504
    20  H   -0.059301
    21  H   -0.139423
    22  H   -0.156104
    23  H   -0.194394
    24  H   -0.142170
 Sum of Mulliken charges =  -0.00000

 Dipole moment (field-independent basis, Debye):
    X=             -0.0263    Y=              0.0273    Z=             -0.0897  Tot=              0.0974

 Test job not archived.
 1\1\GINC-SE208\SP\RHF\Aug-CC-pVDZ\C8H16\OHZDE\05-Apr-2025\0\\#t hf aug
 -cc-pvdz iop(5/13=1,5/36=2,99/5=2) pseudo=read geom=check guess=(read,
 tcheck) scf=(maxcycle=1)\\title\\0,1\C,0,-2.668057,-0.516202,-0.151817
 \C,0,-2.379219,0.990207,0.083732\C,0,-1.340914,-1.22936,0.139892\C,0,-
 0.838544,1.117468,0.194491\C,0,-0.268079,-0.224742,-0.304017\C,0,3.632
 805,-0.000756,0.13444\C,0,1.143001,-0.554336,0.179922\C,0,2.231894,0.3
 90324,-0.33362\H,0,-3.488035,-0.885577,0.46402\H,0,-2.953947,-0.684716
 ,-1.191912\H,0,-2.769755,1.59312,-0.736241\H,0,-2.864319,1.35036,0.991

 Normal termination of Gaussian 16 at Sat Apr  5 23:13:41 2025.
