 Gaussian 16, Revision C.01,

 ----------------------------------------------------------------------
 #t hf aug-cc-pvdz symm=none int=(grid=ultrafine) guess=(read,tcheck) s
 table=(opt,rrhf)
 ----------------------------------------------------------------------
 -----
 title
 -----
 Symbolic Z-matrix:
 Charge =  0 Multiplicity = 1

 SCF Done:  E(RHF) =  -247.051863441     A.U. after   13 cycles
 Normal termination of Gaussian 16 at Sat Apr  5 23:10:29 2025.
 Gaussian 16:  ES64L-G16RevC.01  3-Jul-2019

 ----------------------------------------------------------------------
 #t hf aug-cc-pvdz iop(5/13=1,5/36=2,99/5=2) pseudo=read geom=check gue
 ss=(read,tcheck) scf=(maxcycle=1)
 ----------------------------------------------------------------------
 -----
 title
 -----
 Structure from the checkpoint file:  "propanamide.chk"
 Charge =  0 Multiplicity = 1

                         Standard orientation:
 ---------------------------------------------------------------------
 Center     Atomic      Atomic             Coordinates (Angstroms)
 Number     Number       Type             X           Y           Z
 ---------------------------------------------------------------------
      1          1           0       -2.592675   -0.045641   -0.145798
      2          1           0       -1.757839   -1.561246   -0.123394
      3          7           0       -1.728931   -0.558727   -0.107702
      4          8           0       -0.540022    1.352356    0.063774
      5          6           0       -0.562261    0.136158    0.032402
      6          1           0        0.704554   -1.095974    1.200102
      7          1           0        0.596109   -1.605295   -0.469148
      8          6           0        0.688051   -0.724248    0.170792
      9          1           0        2.841756   -0.595111    0.039596
     10          1           0        1.993138    0.372041   -1.170851
     11          1           0        2.052216    0.921934    0.496008
     12          6           0        1.971783    0.038345   -0.133659
 ---------------------------------------------------------------------

 SCF Done:  E(RHF) =  -247.131412385     A.U. after    2 cycles

 The electronic state is 1-A.
 Alpha  occ. eigenvalues --  -20.53282 -15.64802 -11.36327 -11.25195 -11.22699
 Alpha  occ. eigenvalues --   -1.34497  -1.17674  -1.04322  -0.89129  -0.78333
 Alpha  occ. eigenvalues --   -0.72029  -0.67901  -0.63845  -0.61143  -0.56096
 Alpha  occ. eigenvalues --   -0.53163  -0.52020  -0.49735  -0.43596  -0.41729
 Alpha virt. eigenvalues --    0.02712   0.03975   0.04927   0.05119   0.06807
 Alpha virt. eigenvalues --    0.07180   0.08288   0.11990   0.12353   0.12692
 Alpha virt. eigenvalues --    0.13852   0.14307   0.16310   0.16778   0.17098

 Mulliken charges:
               1
     1  H   -0.032208
     2  H   -0.028745
     3  N   -0.123651
     4  O   -0.519339
     5  C    0.489512
     6  H    0.009735
     7  H   -0.091446
     8  C    0.038336
     9  H   -0.054471
    10  H   -0.060812
    11  H   -0.027739
    12  C    0.400829
 Sum of Mulliken charges =  -0.00000

 Dipole moment (field-independent basis, Debye):
    X=             -0.6467    Y=             -4.1889    Z=             -0.0558  Tot=              4.2389

 Test job not archived.
 1\1\GINC-SE169\SP\RHF\Aug-CC-pVDZ\C3H7N1O1\OHZDE\05-Apr-2025\0\\#t hf
 aug-cc-pvdz iop(5/13=1,5/36=2,99/5=2) pseudo=read geom=check guess=(re
 ad,tcheck) scf=(maxcycle=1)\\title\\0,1\H,0,-2.592675,-0.045641,-0.145
 798\H,0,-1.757839,-1.561246,-0.123394\N,0,-1.728931,-0.558727,-0.10770
 2\O,0,-0.540022,1.352356,0.063774\C,0,-0.562261,0.136158,0.032402\H,0,
 0.704554,-1.095974,1.200102\H,0,0.596109,-1.605295,-0.469148\C,0,0.688
 051,-0.724248,0.170792\H,0,2.841756,-0.595111,0.039596\H,0,1.993138,0.
 372041,-1.170851\H,0,2.052216,0.921934,0.496008\C,0,1.971783,0.038345,

 Normal termination of Gaussian 16 at Sat Apr  5 23:10:32 2025.
