 Gaussian 16, Revision C.01,

 ----------------------------------------------------------------------
 #t hf aug-cc-pvdz symm=none int=(grid=ultrafine) guess=(read,tcheck) s
 table=(opt,rrhf)
 ----------------------------------------------------------------------
 -----
 title
 -----
 Symbolic Z-matrix:
 Charge =  0 Multiplicity = 1

 SCF Done:  E(RHF) =  -191.978613924     A.U. after   12 cycles
 Normal termination of Gaussian 16 at Sat Apr  5 23:10:25 2025.
 Gaussian 16:  ES64L-G16RevC.01  3-Jul-2019

 ----------------------------------------------------------------------
 #t hf aug-cc-pvdz iop(5/13=1,5/36=2,99/5=2) pseudo=read geom=check gue
 ss=(read,tcheck) scf=(maxcycle=1)
 ----------------------------------------------------------------------
 -----
 title
 -----
 Structure from the checkpoint file:  "propanal.chk"
 Charge =  0 Multiplicity = 1

                         Standard orientation:
 ---------------------------------------------------------------------
 Center     Atomic      Atomic             Coordinates (Angstroms)
 Number     Number       Type             X           Y           Z
 ---------------------------------------------------------------------
      1          6           0        0.996293   -0.222905    0.000000
      2          6           0       -1.458518    0.470962    0.000000
      3          6           0        0.000000    0.905538    0.000000
      4          8           0        0.716194   -1.394736    0.000000
      5          1           0        2.059410    0.097311    0.000000
      6          1           0       -1.685732   -0.133233    0.877361
      7          1           0       -1.685732   -0.133233   -0.877361
      8          1           0       -2.117948    1.338361    0.000000
      9          1           0        0.236898    1.533556   -0.867218
     10          1           0        0.236898    1.533556    0.867218
 ---------------------------------------------------------------------

 SCF Done:  E(RHF) =  -192.041308339     A.U. after    2 cycles

 The electronic state is 1-A'.
 Alpha  occ. eigenvalues --  -20.57330 -11.34464 -11.25527 -11.23304  -1.36132
 Alpha  occ. eigenvalues --   -1.05558  -0.91103  -0.77673  -0.69145  -0.64196
 Alpha  occ. eigenvalues --   -0.63837  -0.54961  -0.54067  -0.52471  -0.49887
 Alpha  occ. eigenvalues --   -0.43384
 Alpha virt. eigenvalues --    0.03138   0.04360   0.04882   0.05485   0.07025
 Alpha virt. eigenvalues --    0.07854   0.10270   0.10776   0.12353   0.14031
 Alpha virt. eigenvalues --    0.14356   0.15387   0.15988   0.16474   0.17090

 Mulliken charges:
               1
     1  C    0.500916
     2  C    0.470055
     3  C   -0.192301
     4  O   -0.449730
     5  H   -0.133406
     6  H   -0.058023
     7  H   -0.058023
     8  H   -0.052331
     9  H   -0.013579
    10  H   -0.013579
 Sum of Mulliken charges =  -0.00000

 Dipole moment (field-independent basis, Debye):
    X=              0.1774    Y=              3.3160    Z=              0.0000  Tot=              3.3208

 Test job not archived.
 1\1\GINC-SE168\SP\RHF\Aug-CC-pVDZ\C3H6O1\OHZDE\05-Apr-2025\0\\#t hf au
 g-cc-pvdz iop(5/13=1,5/36=2,99/5=2) pseudo=read geom=check guess=(read
 ,tcheck) scf=(maxcycle=1)\\title\\0,1\C,0,0.996293,-0.222905,0.\C,0,-1
 .458518,0.470962,0.\C,0,0.,0.905538,0.\O,0,0.716194,-1.394736,0.\H,0,2
 .05941,0.097311,0.\H,0,-1.685732,-0.133233,0.877361\H,0,-1.685732,-0.1
 33233,-0.877361\H,0,-2.117948,1.338361,0.\H,0,0.236898,1.533556,-0.867
 218\H,0,0.236898,1.533556,0.867218\\Version=ES64L-G16RevC.01\State=1-A
 '\HF=-192.0413083\RMSD=3.948e-03\Dipole=0.0698123,1.3046306,0.\Quadrup

 Normal termination of Gaussian 16 at Sat Apr  5 23:10:28 2025.
