 Gaussian 16, Revision C.01,

 ----------------------------------------------------------------------
 #t hf aug-cc-pvdz symm=none int=(grid=ultrafine) guess=(read,tcheck) s
 table=(opt,rrhf)
 ----------------------------------------------------------------------
 -----
 title
 -----
 Symbolic Z-matrix:
 Charge =  0 Multiplicity = 1

 SCF Done:  E(RHF) =  -191.935066491     A.U. after   12 cycles
 Normal termination of Gaussian 16 at Sat Apr  5 23:10:46 2025.
 Gaussian 16:  ES64L-G16RevC.01  3-Jul-2019

 ----------------------------------------------------------------------
 #t hf aug-cc-pvdz iop(5/13=1,5/36=2,99/5=2) pseudo=read geom=check gue
 ss=(read,tcheck) scf=(maxcycle=1)
 ----------------------------------------------------------------------
 -----
 title
 -----
 Structure from the checkpoint file:  "propylene_oxide.chk"
 Charge =  0 Multiplicity = 1

                         Standard orientation:
 ---------------------------------------------------------------------
 Center     Atomic      Atomic             Coordinates (Angstroms)
 Number     Number       Type             X           Y           Z
 ---------------------------------------------------------------------
      1          8           0        0.828981   -0.789180   -0.238022
      2          6           0       -1.508266    0.097281   -0.148770
      3          1           0       -1.418953    0.320203   -1.211647
      4          1           0       -2.074015   -0.829198   -0.038726
      5          1           0       -2.076905    0.897311    0.329487
      6          6           0       -0.152980   -0.033489    0.484726
      7          1           0       -0.154020   -0.247472    1.550696
      8          6           0        1.040125    0.616650   -0.061363
      9          1           0        0.954099    1.210204   -0.965902
     10          1           0        1.864673    0.879739    0.592713
 ---------------------------------------------------------------------

 SCF Done:  E(RHF) =  -191.998120095     A.U. after    2 cycles

 The electronic state is 1-A.
 Alpha  occ. eigenvalues --  -20.57983 -11.29837 -11.29113 -11.23628  -1.36964
 Alpha  occ. eigenvalues --   -1.00803  -0.90760  -0.81869  -0.70469  -0.65210
 Alpha  occ. eigenvalues --   -0.59323  -0.56883  -0.53267  -0.52291  -0.46105
 Alpha  occ. eigenvalues --   -0.44143
 Alpha virt. eigenvalues --    0.03476   0.04655   0.04773   0.05741   0.06703
 Alpha virt. eigenvalues --    0.07652   0.10215   0.12237   0.12706   0.14409
 Alpha virt. eigenvalues --    0.15033   0.15934   0.16733   0.17631   0.17805

 Mulliken charges:
               1
     1  O   -0.710081
     2  C    0.224637
     3  H   -0.037148
     4  H    0.023735
     5  H    0.024974
     6  C    0.298339
     7  H   -0.281174
     8  C    0.896870
     9  H   -0.226589
    10  H   -0.213564
 Sum of Mulliken charges =  -0.00000

 Dipole moment (field-independent basis, Debye):
    X=             -1.0112    Y=              2.0799    Z=              0.8403  Tot=              2.4606

 Test job not archived.
 1\1\GINC-SE085\SP\RHF\Aug-CC-pVDZ\C3H6O1\OHZDE\05-Apr-2025\0\\#t hf au
 g-cc-pvdz iop(5/13=1,5/36=2,99/5=2) pseudo=read geom=check guess=(read
 ,tcheck) scf=(maxcycle=1)\\title\\0,1\O,0,0.828981,-0.78918,-0.238022\
 C,0,-1.508266,0.097281,-0.14877\H,0,-1.418953,0.320203,-1.211647\H,0,-
 2.074015,-0.829198,-0.038726\H,0,-2.076905,0.897311,0.329487\C,0,-0.15
 298,-0.033489,0.484726\H,0,-0.15402,-0.247472,1.550696\C,0,1.040125,0.
 61665,-0.061363\H,0,0.954099,1.210204,-0.965902\H,0,1.864673,0.879739,
 0.592713\\Version=ES64L-G16RevC.01\State=1-A\HF=-191.9981201\RMSD=5.34

 Normal termination of Gaussian 16 at Sat Apr  5 23:10:49 2025.
