 Gaussian 16, Revision C.01,

 ----------------------------------------------------------------------
 #t hf aug-cc-pvdz symm=none int=(grid=ultrafine) guess=(read,tcheck) s
 table=(opt,rrhf)
 ----------------------------------------------------------------------
 -----
 title
 -----
 Symbolic Z-matrix:
 Charge =  0 Multiplicity = 1

 SCF Done:  E(RHF) =  -379.159379589     A.U. after   15 cycles
 Normal termination of Gaussian 16 at Sat Apr  5 23:11:18 2025.
 Gaussian 16:  ES64L-G16RevC.01  3-Jul-2019

 ----------------------------------------------------------------------
 #t hf aug-cc-pvdz iop(5/13=1,5/36=2,99/5=2) pseudo=read geom=check gue
 ss=(read,tcheck) scf=(maxcycle=1)
 ----------------------------------------------------------------------
 -----
 title
 -----
 Structure from the checkpoint file:  "propynyl_propiolate.chk"
 Charge =  0 Multiplicity = 1

                         Standard orientation:
 ---------------------------------------------------------------------
 Center     Atomic      Atomic             Coordinates (Angstroms)
 Number     Number       Type             X           Y           Z
 ---------------------------------------------------------------------
      1          8           0        0.219214   -0.692487    0.000002
      2          8           0       -1.737049   -1.731787    0.000000
      3          6           0       -1.131002   -0.695733    0.000000
      4          6           0       -1.795334    0.594519   -0.000001
      5          6           0        0.941706    0.562529    0.000002
      6          6           0        2.364687    0.276671    0.000000
      7          6           0       -2.399277    1.630600   -0.000004
      8          6           0        3.545311    0.077874    0.000000
      9          1           0        0.670540    1.140839    0.884807
     10          1           0        0.670539    1.140839   -0.884803
     11          1           0       -2.945518    2.542080   -0.000006
     12          1           0        4.590571   -0.108328   -0.000001
 ---------------------------------------------------------------------

 SCF Done:  E(RHF) =  -379.281569311     A.U. after    2 cycles

 The electronic state is 1-A.
 Alpha  occ. eigenvalues --  -20.63997 -20.58066 -11.43599 -11.35267 -11.29692
 Alpha  occ. eigenvalues --  -11.28713 -11.26631 -11.26033  -1.43929  -1.35208
 Alpha  occ. eigenvalues --   -1.08314  -1.07551  -0.99032  -0.91025  -0.79286
 Alpha  occ. eigenvalues --   -0.75641  -0.74641  -0.71556  -0.70917  -0.66120
 Alpha  occ. eigenvalues --   -0.61023  -0.58162  -0.51044  -0.50443  -0.44729
 Alpha  occ. eigenvalues --   -0.44606  -0.42292  -0.41250
 Alpha virt. eigenvalues --    0.02545   0.03428   0.04714   0.05110   0.06514
 Alpha virt. eigenvalues --    0.07673   0.09247   0.09745   0.10636   0.10759
 Alpha virt. eigenvalues --    0.11935   0.11997   0.12850   0.13152   0.13544

 Mulliken charges:
               1
     1  O   -0.577789
     2  O   -0.462654
     3  C    0.668072
     4  C   -0.247590
     5  C    0.443114
     6  C   -0.555823
     7  C    0.712697
     8  C    1.123710
     9  H   -0.038545
    10  H   -0.038543
    11  H   -0.482340
    12  H   -0.544308
 Sum of Mulliken charges =  -0.00000

 Dipole moment (field-independent basis, Debye):
    X=              1.1206    Y=              5.2263    Z=             -0.0000  Tot=              5.3450

 Test job not archived.
 1\1\GINC-SE165\SP\RHF\Aug-CC-pVDZ\C6H4O2\OHZDE\05-Apr-2025\0\\#t hf au
 g-cc-pvdz iop(5/13=1,5/36=2,99/5=2) pseudo=read geom=check guess=(read
 ,tcheck) scf=(maxcycle=1)\\title\\0,1\O,0,0.219214,-0.692487,0.000002\
 O,0,-1.737049,-1.731787,0.\C,0,-1.131002,-0.695733,0.\C,0,-1.795334,0.
 594519,-0.000001\C,0,0.941706,0.562529,0.000002\C,0,2.364687,0.276671,
 0.\C,0,-2.399277,1.6306,-0.000004\C,0,3.545311,0.077874,0.\H,0,0.67054
 ,1.140839,0.884807\H,0,0.670539,1.140839,-0.884803\H,0,-2.945518,2.542
 08,-0.000006\H,0,4.590571,-0.108328,-0.000001\\Version=ES64L-G16RevC.0

 Normal termination of Gaussian 16 at Sat Apr  5 23:12:26 2025.
