 Gaussian 16, Revision C.01,

 ----------------------------------------------------------------------
 #t hf aug-cc-pvdz symm=none int=(grid=ultrafine) guess=(read,tcheck) s
 table=(opt,rrhf)
 ----------------------------------------------------------------------
 -----
 title
 -----
 Symbolic Z-matrix:
 Charge =  0 Multiplicity = 1

 SCF Done:  E(RHF) =  -347.846562063     A.U. after   14 cycles
 Normal termination of Gaussian 16 at Sat Apr  5 23:12:28 2025.
 Gaussian 16:  ES64L-G16RevC.01  3-Jul-2019

 ----------------------------------------------------------------------
 #t hf aug-cc-pvdz iop(5/13=1,5/36=2,99/5=2) pseudo=read geom=check gue
 ss=(read,tcheck) scf=(maxcycle=1)
 ----------------------------------------------------------------------
 -----
 title
 -----
 Structure from the checkpoint file:  "propylbenzene.chk"
 Charge =  0 Multiplicity = 1

                         Standard orientation:
 ---------------------------------------------------------------------
 Center     Atomic      Atomic             Coordinates (Angstroms)
 Number     Number       Type             X           Y           Z
 ---------------------------------------------------------------------
      1          6           0        0.386271   -2.839243    0.000000
      2          6           0        0.387351   -2.138596    1.200339
      3          6           0        0.387351   -2.138596   -1.200339
      4          6           0        0.387351   -0.748944    1.197148
      5          6           0        0.387351   -0.748944   -1.197148
      6          6           0        0.385210   -0.031430    0.000000
      7          6           0       -1.108485    3.575531   -0.000000
      8          6           0        0.345445    1.476802   -0.000000
      9          6           0       -1.082048    2.048572   -0.000000
     10          1           0        0.389739   -3.921015    0.000000
     11          1           0        0.393022   -2.674365    2.140600
     12          1           0        0.393022   -2.674365   -2.140600
     13          1           0        0.394621   -0.211935    2.138121
     14          1           0        0.394621   -0.211935   -2.138121
     15          1           0       -0.604834    3.979341    0.880742
     16          1           0       -0.604834    3.979341   -0.880742
     17          1           0       -2.131197    3.954700   -0.000000
     18          1           0        0.878157    1.856658    0.875883
     19          1           0        0.878157    1.856658   -0.875883
     20          1           0       -1.617623    1.668007   -0.873416
     21          1           0       -1.617623    1.668007    0.873416
 ---------------------------------------------------------------------

 SCF Done:  E(RHF) =  -347.952244694     A.U. after    2 cycles

 The electronic state is 1-A'.
 Alpha  occ. eigenvalues --  -11.24519 -11.24090 -11.24073 -11.23709 -11.23632
 Alpha  occ. eigenvalues --  -11.23625 -11.23382 -11.23021 -11.22336  -1.14484
 Alpha  occ. eigenvalues --   -1.06641  -1.00748  -1.00643  -0.92108  -0.82684
 Alpha  occ. eigenvalues --   -0.82343  -0.78753  -0.69803  -0.65184  -0.63645
 Alpha  occ. eigenvalues --   -0.61150  -0.59350  -0.58687  -0.56969  -0.53302
 Alpha  occ. eigenvalues --   -0.52996  -0.50182  -0.49177  -0.47832  -0.47162
 Alpha  occ. eigenvalues --   -0.47035  -0.33737  -0.32679
 Alpha virt. eigenvalues --    0.03455   0.03899   0.04087   0.04848   0.05397
 Alpha virt. eigenvalues --    0.05525   0.06726   0.07229   0.07413   0.07819
 Alpha virt. eigenvalues --    0.08090   0.10616   0.11050   0.11339   0.11615

 Mulliken charges:
               1
     1  C    0.629777
     2  C    0.187282
     3  C    0.187282
     4  C    0.393860
     5  C    0.393860
     6  C    1.009449
     7  C    0.401293
     8  C    0.160648
     9  C    0.150976
    10  H   -0.444119
    11  H   -0.450270
    12  H   -0.450270
    13  H   -0.619927
    14  H   -0.619927
    15  H   -0.060903
    16  H   -0.060903
    17  H   -0.063825
    18  H   -0.202731
    19  H   -0.202731
    20  H   -0.169410
    21  H   -0.169410
 Sum of Mulliken charges =  -0.00000

 Dipole moment (field-independent basis, Debye):
    X=             -0.1449    Y=              0.4124    Z=             -0.0000  Tot=              0.4371

 Test job not archived.
 1\1\GINC-SE185\SP\RHF\Aug-CC-pVDZ\C9H12\OHZDE\05-Apr-2025\0\\#t hf aug
 -cc-pvdz iop(5/13=1,5/36=2,99/5=2) pseudo=read geom=check guess=(read,
 tcheck) scf=(maxcycle=1)\\title\\0,1\C,0,0.386271,-2.839243,0.\C,0,0.3
 87351,-2.138596,1.200339\C,0,0.387351,-2.138596,-1.200339\C,0,0.387351
 ,-0.748944,1.197148\C,0,0.387351,-0.748944,-1.197148\C,0,0.38521,-0.03
 143,0.\C,0,-1.108485,3.575531,0.\C,0,0.345445,1.476802,0.\C,0,-1.08204
 8,2.048572,0.\H,0,0.389739,-3.921015,0.\H,0,0.393022,-2.674365,2.1406\
 H,0,0.393022,-2.674365,-2.1406\H,0,0.394621,-0.211935,2.138121\H,0,0.3

 Normal termination of Gaussian 16 at Sat Apr  5 23:12:37 2025.
