 Gaussian 16, Revision C.01,

 ----------------------------------------------------------------------
 #t hf aug-cc-pvdz symm=none int=(grid=ultrafine) guess=(read,tcheck) s
 table=(opt,rrhf)
 ----------------------------------------------------------------------
 -----
 title
 -----
 Symbolic Z-matrix:
 Charge =  0 Multiplicity = 1

 SCF Done:  E(RHF) =  -587.108985603     A.U. after   16 cycles
 Normal termination of Gaussian 16 at Sat Apr  5 23:10:26 2025.
 Gaussian 16:  ES64L-G16RevC.01  3-Jul-2019

 ----------------------------------------------------------------------
 #t hf aug-cc-pvdz iop(5/13=1,5/36=2,99/5=2) pseudo=read geom=check gue
 ss=(read,tcheck) scf=(maxcycle=1)
 ----------------------------------------------------------------------
 -----
 title
 -----
 Structure from the checkpoint file:  "prop-2-ynethioic_acid.chk"
 Charge =  0 Multiplicity = 1

                         Standard orientation:
 ---------------------------------------------------------------------
 Center     Atomic      Atomic             Coordinates (Angstroms)
 Number     Number       Type             X           Y           Z
 ---------------------------------------------------------------------
      1         16           0       -1.415690   -0.626525   -0.000006
      2          8           0       -0.221616    1.707573    0.000000
      3          6           0       -0.028547    0.519090    0.000000
      4          6           0        1.281666   -0.084082    0.000004
      5          6           0        2.374298   -0.580157    0.000009
      6          1           0       -0.687542   -1.757741   -0.000004
      7          1           0        3.347002   -1.007548    0.000013
 ---------------------------------------------------------------------

 SCF Done:  E(RHF) =  -587.189246875     A.U. after    2 cycles

 The electronic state is 1-A.
 Alpha  occ. eigenvalues --  -93.57738 -20.59947 -11.41807 -11.29570 -11.28591
 Alpha  occ. eigenvalues --   -8.87563  -6.21692  -6.21491  -6.21128  -1.39599
 Alpha  occ. eigenvalues --   -1.08846  -1.02387  -0.88685  -0.75624  -0.71923
 Alpha  occ. eigenvalues --   -0.66551  -0.60625  -0.54381  -0.46789  -0.44527
 Alpha  occ. eigenvalues --   -0.43837  -0.40333
 Alpha virt. eigenvalues --    0.02798   0.04413   0.05017   0.07862   0.08507
 Alpha virt. eigenvalues --    0.09693   0.10499   0.11918   0.12364   0.12644
 Alpha virt. eigenvalues --    0.13656   0.14853   0.15529   0.16812   0.17444

 Mulliken charges:
               1
     1  S    0.255313
     2  O   -0.478167
     3  C    0.108038
     4  C   -0.132830
     5  C    0.576744
     6  H    0.077671
     7  H   -0.406769
 Sum of Mulliken charges =  -0.00000

 Dipole moment (field-independent basis, Debye):
    X=              2.0075    Y=             -3.7709    Z=              0.0000  Tot=              4.2720

 Test job not archived.
 1\1\GINC-SE151\SP\RHF\Aug-CC-pVDZ\C3H2O1S1\OHZDE\05-Apr-2025\0\\#t hf
 aug-cc-pvdz iop(5/13=1,5/36=2,99/5=2) pseudo=read geom=check guess=(re
 ad,tcheck) scf=(maxcycle=1)\\title\\0,1\S,0,-1.41569,-0.626525,-0.0000
 06\O,0,-0.221616,1.707573,0.\C,0,-0.028547,0.51909,0.\C,0,1.281666,-0.
 084082,0.000004\C,0,2.374298,-0.580157,0.000009\H,0,-0.687542,-1.75774
 1,-0.000004\H,0,3.347002,-1.007548,0.000013\\Version=ES64L-G16RevC.01\
 State=1-A\HF=-587.1892469\RMSD=9.348e-03\Dipole=0.7898102,-1.4835895,0
 .0000025\Quadrupole=4.5897478,-2.6403414,-1.9494064,-1.3462367,0.00002

 Normal termination of Gaussian 16 at Sat Apr  5 23:10:28 2025.
