 Gaussian 16, Revision C.01,

 ----------------------------------------------------------------------
 #t hf aug-cc-pvdz symm=none int=(grid=ultrafine) guess=(read,tcheck) s
 table=(opt,rrhf)
 ----------------------------------------------------------------------
 -----
 title
 -----
 Symbolic Z-matrix:
 Charge =  0 Multiplicity = 1

 SCF Done:  E(RHF) =  -1310.86806032     A.U. after   13 cycles
 Normal termination of Gaussian 16 at Sat Apr  5 23:10:52 2025.
 Gaussian 16:  ES64L-G16RevC.01  3-Jul-2019

 ----------------------------------------------------------------------
 #t hf aug-cc-pvdz iop(5/13=1,5/36=2,99/5=2) pseudo=read geom=check gue
 ss=(read,tcheck) scf=(maxcycle=1)
 ----------------------------------------------------------------------
 -----
 title
 -----
 Structure from the checkpoint file:  "propane-1-2-3-trithiol.chk"
 Charge =  0 Multiplicity = 1

                         Standard orientation:
 ---------------------------------------------------------------------
 Center     Atomic      Atomic             Coordinates (Angstroms)
 Number     Number       Type             X           Y           Z
 ---------------------------------------------------------------------
      1          6           0        0.834198   -0.936571   -0.030495
      2          6           0       -1.402371   -0.269951    0.991854
      3          6           0        0.042139    0.149384    0.691781
      4         16           0        2.619734   -0.495778   -0.173755
      5         16           0       -2.501238   -0.563857   -0.452043
      6         16           0        0.149502    1.790968   -0.137745
      7          1           0        0.429951   -1.103433   -1.026573
      8          1           0        0.765825   -1.867304    0.532760
      9          1           0       -1.408866   -1.167657    1.610121
     10          1           0       -1.897031    0.521267    1.550558
     11          1           0        0.520127    0.338062    1.655473
     12          1           0        3.083147   -1.750169   -0.026735
     13          1           0       -2.037822   -1.781895   -0.783799
     14          1           0       -0.587096    1.452627   -1.213971
 ---------------------------------------------------------------------

 SCF Done:  E(RHF) =  -1310.96198674     A.U. after    2 cycles

 The electronic state is 1-A.
 Alpha  occ. eigenvalues --  -93.54835 -93.53908 -93.53719 -11.29922 -11.29285
 Alpha  occ. eigenvalues --  -11.28696  -8.84560  -8.83608  -8.83475  -6.18731
 Alpha  occ. eigenvalues --   -6.18509  -6.18188  -6.17781  -6.17634  -6.17546
 Alpha  occ. eigenvalues --   -6.17437  -6.17201  -6.17110  -1.12208  -1.03052
 Alpha  occ. eigenvalues --   -0.97765  -0.91135  -0.86998  -0.78226  -0.65285
 Alpha  occ. eigenvalues --   -0.63932  -0.62598  -0.59113  -0.54090  -0.51949
 Alpha  occ. eigenvalues --   -0.51265  -0.47135  -0.45709  -0.44159  -0.37574
 Alpha  occ. eigenvalues --   -0.36754  -0.35447
 Alpha virt. eigenvalues --    0.02961   0.04284   0.04756   0.05309   0.06681
 Alpha virt. eigenvalues --    0.06955   0.07306   0.07638   0.09198   0.10975
 Alpha virt. eigenvalues --    0.11492   0.12442   0.13237   0.13495   0.14016

 Mulliken charges:
               1
     1  C   -0.121960
     2  C    0.026284
     3  C   -0.549974
     4  S    0.383484
     5  S    0.267357
     6  S    0.248048
     7  H   -0.124911
     8  H   -0.123724
     9  H   -0.122474
    10  H   -0.039848
    11  H   -0.058344
    12  H    0.024963
    13  H    0.062249
    14  H    0.128849
 Sum of Mulliken charges =  -0.00000

 Dipole moment (field-independent basis, Debye):
    X=             -0.6465    Y=             -2.7652    Z=              1.1829  Tot=              3.0763

 Test job not archived.
 1\1\GINC-SE171\SP\RHF\Aug-CC-pVDZ\C3H8S3\OHZDE\05-Apr-2025\0\\#t hf au
 g-cc-pvdz iop(5/13=1,5/36=2,99/5=2) pseudo=read geom=check guess=(read
 ,tcheck) scf=(maxcycle=1)\\title\\0,1\C,0,0.834198,-0.936571,-0.030495
 \C,0,-1.402371,-0.269951,0.991854\C,0,0.042139,0.149384,0.691781\S,0,2
 .619734,-0.495778,-0.173755\S,0,-2.501238,-0.563857,-0.452043\S,0,0.14
 9502,1.790968,-0.137745\H,0,0.429951,-1.103433,-1.026573\H,0,0.765825,
 -1.867304,0.53276\H,0,-1.408866,-1.167657,1.610121\H,0,-1.897031,0.521
 267,1.550558\H,0,0.520127,0.338062,1.655473\H,0,3.083147,-1.750169,-0.

 Normal termination of Gaussian 16 at Sat Apr  5 23:10:58 2025.
