 Gaussian 16, Revision C.01,

 ----------------------------------------------------------------------
 #t hf aug-cc-pvdz symm=none int=(grid=ultrafine) guess=(read,tcheck) s
 table=(opt,rrhf)
 ----------------------------------------------------------------------
 -----
 title
 -----
 Symbolic Z-matrix:
 Charge =  0 Multiplicity = 1

 SCF Done:  E(RHF) =  -168.566584415     A.U. after   12 cycles
 Normal termination of Gaussian 16 at Sat Apr  5 23:10:45 2025.
 Gaussian 16:  ES64L-G16RevC.01  3-Jul-2019

 ----------------------------------------------------------------------
 #t hf aug-cc-pvdz iop(5/13=1,5/36=2,99/5=2) pseudo=read geom=check gue
 ss=(read,tcheck) scf=(maxcycle=1)
 ----------------------------------------------------------------------
 -----
 title
 -----
 Structure from the checkpoint file:  "propiolonitrile.chk"
 Charge =  0 Multiplicity = 1

                         Standard orientation:
 ---------------------------------------------------------------------
 Center     Atomic      Atomic             Coordinates (Angstroms)
 Number     Number       Type             X           Y           Z
 ---------------------------------------------------------------------
      1          7           0        0.000000    0.000000    1.892411
      2          6           0        0.000000    0.000000    0.737350
      3          6           0        0.000000    0.000000   -0.631058
      4          6           0        0.000000    0.000000   -1.831727
      5          1           0        0.000000    0.000000   -2.894266
 ---------------------------------------------------------------------

 SCF Done:  E(RHF) =  -168.619323434     A.U. after    2 cycles

 The electronic state is 1-SG.
 Alpha  occ. eigenvalues --  -15.67552 -11.32699 -11.31537 -11.31087  -1.22312
 Alpha  occ. eigenvalues --   -1.09307  -0.91011  -0.76076  -0.57912  -0.55139
 Alpha  occ. eigenvalues --   -0.55139  -0.43047  -0.43047
 Alpha virt. eigenvalues --    0.02518   0.06622   0.06622   0.07169   0.09479
 Alpha virt. eigenvalues --    0.09621   0.09621   0.13471   0.13839   0.13839
 Alpha virt. eigenvalues --    0.15190   0.19167   0.19167   0.24079   0.25208

 Mulliken charges:
               1
     1  N   -0.205396
     2  C   -0.537446
     3  C    0.718482
     4  C    0.477778
     5  H   -0.453417
 Sum of Mulliken charges =  -0.00000

 Dipole moment (field-independent basis, Debye):
    X=              0.0000    Y=              0.0000    Z=             -4.0000  Tot=              4.0000

 Test job not archived.
 1\1\GINC-SE014\SP\RHF\Aug-CC-pVDZ\C3H1N1\OHZDE\05-Apr-2025\0\\#t hf au
 g-cc-pvdz iop(5/13=1,5/36=2,99/5=2) pseudo=read geom=check guess=(read
 ,tcheck) scf=(maxcycle=1)\\title\\0,1\N,0,0.,0.,1.892411\C,0,0.,0.,0.7
 3735\C,0,0.,0.,-0.631058\C,0,0.,0.,-1.831727\H,0,0.,0.,-2.894266\\Vers
 ion=ES64L-G16RevC.01\State=1-SG\HF=-168.6193234\RMSD=1.352e-02\Dipole=
 0.,0.,-1.5737276\Quadrupole=-0.617563,-0.617563,1.2351261,0.,0.,0.\PG=
 C*V [C*(H1C1C1C1N1)]\\@

 Normal termination of Gaussian 16 at Sat Apr  5 23:10:47 2025.
