 Gaussian 16, Revision C.01,

 ----------------------------------------------------------------------
 #t hf aug-cc-pvdz symm=none int=(grid=ultrafine) guess=(read,tcheck) s
 table=(opt,rrhf)
 ----------------------------------------------------------------------
 -----
 title
 -----
 Symbolic Z-matrix:
 Charge =  0 Multiplicity = 1

 SCF Done:  E(RHF) =  -265.673682803     A.U. after   15 cycles
 Normal termination of Gaussian 16 at Sat Apr  5 23:10:25 2025.
 Gaussian 16:  ES64L-G16RevC.01  3-Jul-2019

 ----------------------------------------------------------------------
 #t hf aug-cc-pvdz iop(5/13=1,5/36=2,99/5=2) pseudo=read geom=check gue
 ss=(read,tcheck) scf=(maxcycle=1)
 ----------------------------------------------------------------------
 -----
 title
 -----
 Structure from the checkpoint file:  "propenalol.chk"
 Charge =  0 Multiplicity = 1

                         Standard orientation:
 ---------------------------------------------------------------------
 Center     Atomic      Atomic             Coordinates (Angstroms)
 Number     Number       Type             X           Y           Z
 ---------------------------------------------------------------------
      1          6           0        0.000000    1.096648    0.000000
      2          6           0        1.231022    0.361916    0.000000
      3          6           0       -1.183818    0.424873    0.000000
      4          8           0        1.286331   -0.874778    0.000000
      5          8           0       -1.283038   -0.888616    0.000000
      6          1           0       -0.346283   -1.239665    0.000000
      7          1           0        0.009428    2.175177    0.000000
      8          1           0        2.168876    0.938076    0.000000
      9          1           0       -2.141591    0.932940    0.000000
 ---------------------------------------------------------------------

 SCF Done:  E(RHF) =  -265.758477068     A.U. after    2 cycles

 The electronic state is 1-A'.
 Alpha  occ. eigenvalues --  -20.61945 -20.57472 -11.35986 -11.35762 -11.24193
 Alpha  occ. eigenvalues --   -1.40212  -1.35092  -1.06382  -0.90802  -0.83735
 Alpha  occ. eigenvalues --   -0.73142  -0.68747  -0.66170  -0.62841  -0.62152
 Alpha  occ. eigenvalues --   -0.57349  -0.55574  -0.45293  -0.37429
 Alpha virt. eigenvalues --    0.02970   0.04065   0.05518   0.05893   0.06778
 Alpha virt. eigenvalues --    0.09859   0.10841   0.12679   0.13710   0.13803
 Alpha virt. eigenvalues --    0.14000   0.14386   0.15099   0.15781   0.17813

 Mulliken charges:
               1
     1  C    0.637998
     2  C    0.405898
     3  C    0.528418
     4  O   -0.564726
     5  O   -0.447508
     6  H    0.257140
     7  H   -0.397181
     8  H   -0.175746
     9  H   -0.244294
 Sum of Mulliken charges =  -0.00000

 Dipole moment (field-independent basis, Debye):
    X=             -0.5718    Y=              3.3820    Z=              0.0000  Tot=              3.4300

 Test job not archived.
 1\1\GINC-SE206\SP\RHF\Aug-CC-pVDZ\C3H4O2\OHZDE\05-Apr-2025\0\\#t hf au
 g-cc-pvdz iop(5/13=1,5/36=2,99/5=2) pseudo=read geom=check guess=(read
 ,tcheck) scf=(maxcycle=1)\\title\\0,1\C,0,0.,1.096648,0.\C,0,1.231022,
 0.361916,0.\C,0,-1.183818,0.424873,0.\O,0,1.286331,-0.874778,0.\O,0,-1
 .283038,-0.888616,0.\H,0,-0.346283,-1.239665,0.\H,0,0.009428,2.175177,
 0.\H,0,2.168876,0.938076,0.\H,0,-2.141591,0.93294,0.\\Version=ES64L-G1
 6RevC.01\State=1-A'\HF=-265.7584771\RMSD=5.908e-03\Dipole=-0.2249555,1
 .3305987,0.\Quadrupole=0.756525,0.1524673,-0.9089924,0.7423066,0.,0.\P

 Normal termination of Gaussian 16 at Sat Apr  5 23:10:29 2025.
