 Gaussian 16, Revision C.01,

 ----------------------------------------------------------------------
 #t hf aug-cc-pvdz symm=none int=(grid=ultrafine) guess=(read,tcheck) s
 table=(opt,rrhf)
 ----------------------------------------------------------------------
 -----
 title
 -----
 Symbolic Z-matrix:
 Charge =  0 Multiplicity = 1

 SCF Done:  E(RHF) =  -383.994911821     A.U. after   13 cycles

 1\1\GINC-SE129\Stability\RHF\Aug-CC-pVDZ\C6H12O2\OHZDE\05-Apr-2025\0\\
 #t hf aug-cc-pvdz symm=none int=(grid=ultrafine) guess=(read,tcheck) s
 table=(opt,rrhf)\\title\\0,1\C,0,-1.00394,-0.403757,0.\C,0,-3.525526,-
 0.680888,0.\C,0,3.764809,0.667909,0.\C,0,-2.349682,0.286562,0.\C,0,2.3
 10162,1.136229,0.\C,0,1.344509,-0.032085,0.\O,0,-0.826705,-1.596688,0.
 \O,0,0.,0.497494,0.\H,0,-3.504242,-1.325262,0.877722\H,0,-4.466982,-0.
 131692,0.\H,0,-3.504242,-1.325262,-0.877722\H,0,3.988516,0.063792,-0.8
 81154\H,0,4.44692,1.517824,0.\H,0,3.988516,0.063792,0.881154\H,0,-2.37

 Normal termination of Gaussian 16 at Sat Apr  5 23:11:44 2025.
 Gaussian 16:  ES64L-G16RevC.01  3-Jul-2019

 ----------------------------------------------------------------------
 #t hf aug-cc-pvdz iop(5/13=1,5/36=2,99/5=2) pseudo=read geom=check gue
 ss=(read,tcheck) scf=(maxcycle=1)
 ----------------------------------------------------------------------
 -----
 title
 -----
 Structure from the checkpoint file:  "propyl_propanoate.chk"
 Charge =  0 Multiplicity = 1

                         Standard orientation:
 ---------------------------------------------------------------------
 Center     Atomic      Atomic             Coordinates (Angstroms)
 Number     Number       Type             X           Y           Z
 ---------------------------------------------------------------------
      1          6           0       -1.003940   -0.403757    0.000000
      2          6           0       -3.525526   -0.680889    0.000000
      3          6           0        3.764809    0.667909    0.000000
      4          6           0       -2.349682    0.286562    0.000000
      5          6           0        2.310162    1.136229    0.000000
      6          6           0        1.344509   -0.032085    0.000000
      7          8           0       -0.826705   -1.596688    0.000000
      8          8           0        0.000000    0.497494    0.000000
      9          1           0       -3.504242   -1.325263    0.877722
     10          1           0       -4.466982   -0.131693    0.000000
     11          1           0       -3.504242   -1.325263   -0.877722
     12          1           0        3.988516    0.063792   -0.881154
     13          1           0        4.446920    1.517824    0.000000
     14          1           0        3.988516    0.063792    0.881154
     15          1           0       -2.378363    0.948115    0.869070
     16          1           0       -2.378363    0.948115   -0.869070
     17          1           0        2.115703    1.758242   -0.876284
     18          1           0        2.115703    1.758242    0.876284
     19          1           0        1.474239   -0.663085   -0.880525
     20          1           0        1.474239   -0.663085    0.880525
 ---------------------------------------------------------------------

 SCF Done:  E(RHF) =  -384.119566868     A.U. after    2 cycles

 The electronic state is 1-A'.
 Alpha  occ. eigenvalues --  -20.60956 -20.55569 -11.38727 -11.29436 -11.25145
 Alpha  occ. eigenvalues --  -11.23776 -11.23220 -11.22862  -1.41347  -1.31942
 Alpha  occ. eigenvalues --   -1.07271  -1.04471  -0.95251  -0.88073  -0.81840
 Alpha  occ. eigenvalues --   -0.77690  -0.70355  -0.69618  -0.67744  -0.63913
 Alpha  occ. eigenvalues --   -0.60667  -0.60021  -0.56145  -0.54294  -0.53373
 Alpha  occ. eigenvalues --   -0.52575  -0.51713  -0.49998  -0.49303  -0.49180
 Alpha  occ. eigenvalues --   -0.46839  -0.45694
 Alpha virt. eigenvalues --    0.03327   0.03787   0.04721   0.04772   0.05401
 Alpha virt. eigenvalues --    0.05889   0.05921   0.07190   0.07847   0.08599
 Alpha virt. eigenvalues --    0.08715   0.09255   0.10997   0.12886   0.13150

 Mulliken charges:
               1
     1  C   -0.196465
     2  C    0.491704
     3  C    0.495157
     4  C    0.352860
     5  C    0.246199
     6  C    0.709532
     7  O   -0.436897
     8  O   -0.458662
     9  H   -0.063446
    10  H   -0.045691
    11  H   -0.063446
    12  H   -0.070854
    13  H   -0.071952
    14  H   -0.070854
    15  H   -0.065404
    16  H   -0.065404
    17  H   -0.138840
    18  H   -0.138840
    19  H   -0.204348
    20  H   -0.204348
 Sum of Mulliken charges =  -0.00000

 Dipole moment (field-independent basis, Debye):
    X=              0.3832    Y=              2.1965    Z=             -0.0000  Tot=              2.2297

 Test job not archived.
 1\1\GINC-SE129\SP\RHF\Aug-CC-pVDZ\C6H12O2\OHZDE\05-Apr-2025\0\\#t hf a
 ug-cc-pvdz iop(5/13=1,5/36=2,99/5=2) pseudo=read geom=check guess=(rea
 d,tcheck) scf=(maxcycle=1)\\title\\0,1\C,0,-1.00394,-0.403757,0.\C,0,-
 3.525526,-0.680888,0.\C,0,3.764809,0.667909,0.\C,0,-2.349682,0.286562,
 0.\C,0,2.310162,1.136229,0.\C,0,1.344509,-0.032085,0.\O,0,-0.826705,-1
 .596688,0.\O,0,0.,0.497494,0.\H,0,-3.504242,-1.325262,0.877722\H,0,-4.
 466982,-0.131692,0.\H,0,-3.504242,-1.325262,-0.877722\H,0,3.988516,0.0
 63792,-0.881154\H,0,4.44692,1.517824,0.\H,0,3.988516,0.063792,0.881154

 Normal termination of Gaussian 16 at Sat Apr  5 23:12:27 2025.
