 Gaussian 16, Revision C.01,

 ----------------------------------------------------------------------
 #t hf aug-cc-pvdz symm=none int=(grid=ultrafine) guess=(read,tcheck) s
 table=(opt,rrhf)
 ----------------------------------------------------------------------
 -----
 title
 -----
 Symbolic Z-matrix:
 Charge =  0 Multiplicity = 1

 SCF Done:  E(RHF) =  -345.458398337     A.U. after   16 cycles
 Normal termination of Gaussian 16 at Sat Apr  5 23:11:29 2025.
 Gaussian 16:  ES64L-G16RevC.01  3-Jul-2019

 ----------------------------------------------------------------------
 #t hf aug-cc-pvdz iop(5/13=1,5/36=2,99/5=2) pseudo=read geom=check gue
 ss=(read,tcheck) scf=(maxcycle=1)
 ----------------------------------------------------------------------
 -----
 title
 -----
 Structure from the checkpoint file:  "prop-1-ynylbenzene.chk"
 Charge =  0 Multiplicity = 1

                         Standard orientation:
 ---------------------------------------------------------------------
 Center     Atomic      Atomic             Coordinates (Angstroms)
 Number     Number       Type             X           Y           Z
 ---------------------------------------------------------------------
      1          6           0       -1.391545    0.000201   -0.000002
      2          6           0       -2.595600    0.000392   -0.000004
      3          6           0        2.836362   -0.000147    0.000002
      4          6           0        2.137248    1.202242    0.000001
      5          6           0        2.137077   -1.202403    0.000001
      6          6           0        0.750328    1.206082   -0.000001
      7          6           0        0.750116   -1.206050   -0.000001
      8          6           0        0.034638    0.000067   -0.000002
      9          6           0       -4.050167   -0.000024    0.000003
     10          1           0        3.918041   -0.000216    0.000003
     11          1           0        2.674572    2.141336    0.000001
     12          1           0        2.674269   -2.141571    0.000002
     13          1           0        0.206696    2.140516   -0.000001
     14          1           0        0.206275   -2.140361   -0.000001
     15          1           0       -4.443661   -0.509666    0.881896
     16          1           0       -4.443259    1.018099   -0.000365
     17          1           0       -4.443669   -0.510309   -0.881514
 ---------------------------------------------------------------------

 SCF Done:  E(RHF) =  -345.563538296     A.U. after    2 cycles

 The electronic state is 1-A.
 Alpha  occ. eigenvalues --  -11.26834 -11.25855 -11.24906 -11.24903 -11.24819
 Alpha  occ. eigenvalues --  -11.24658 -11.24624 -11.24085 -11.23234  -1.15358
 Alpha  occ. eigenvalues --   -1.06383  -1.02284  -1.01569  -0.94882  -0.84459
 Alpha  occ. eigenvalues --   -0.83356  -0.73519  -0.67425  -0.63985  -0.63425
 Alpha  occ. eigenvalues --   -0.60696  -0.59611  -0.59224  -0.59126  -0.52185
 Alpha  occ. eigenvalues --   -0.51774  -0.50380  -0.41886  -0.38075  -0.34516
 Alpha  occ. eigenvalues --   -0.31264
 Alpha virt. eigenvalues --    0.03353   0.03520   0.04213   0.05179   0.05594
 Alpha virt. eigenvalues --    0.06092   0.06991   0.07641   0.08685   0.10450
 Alpha virt. eigenvalues --    0.10569   0.10979   0.11517   0.13448   0.14040

 Mulliken charges:
               1
     1  C    0.333563
     2  C   -1.076557
     3  C    0.266305
     4  C    0.212273
     5  C    0.235757
     6  C    0.486839
     7  C    0.510667
     8  C    0.642084
     9  C    0.343462
    10  H   -0.439442
    11  H   -0.447968
    12  H   -0.445578
    13  H   -0.522803
    14  H   -0.521471
    15  H    0.147964
    16  H    0.126959
    17  H    0.147946
 Sum of Mulliken charges =   0.00000

 Dipole moment (field-independent basis, Debye):
    X=             -0.3761    Y=              0.0002    Z=              0.0000  Tot=              0.3761

 Test job not archived.
 1\1\GINC-SE222\SP\RHF\Aug-CC-pVDZ\C9H8\OHZDE\05-Apr-2025\0\\#t hf aug-
 cc-pvdz iop(5/13=1,5/36=2,99/5=2) pseudo=read geom=check guess=(read,t
 check) scf=(maxcycle=1)\\title\\0,1\C,0,-1.391545,0.000201,-0.000002\C
 ,0,-2.5956,0.000392,-0.000004\C,0,2.836362,-0.000147,0.000002\C,0,2.13
 7248,1.202242,0.000001\C,0,2.137077,-1.202403,0.000001\C,0,0.750328,1.
 206082,-0.000001\C,0,0.750116,-1.20605,-0.000001\C,0,0.034638,0.000067
 ,-0.000002\C,0,-4.050167,-0.000024,0.000003\H,0,3.918041,-0.000216,0.0
 00003\H,0,2.674572,2.141336,0.000001\H,0,2.674269,-2.141571,0.000002\H

 Normal termination of Gaussian 16 at Sat Apr  5 23:12:28 2025.
