 Gaussian 16, Revision C.01,

 ----------------------------------------------------------------------
 #t hf aug-cc-pvdz symm=none int=(grid=ultrafine) guess=(read,tcheck) s
 table=(opt,rrhf)
 ----------------------------------------------------------------------
 -----
 title
 -----
 Symbolic Z-matrix:
 Charge =  0 Multiplicity = 1

 SCF Done:  E(RHF) =  -265.617068022     A.U. after   14 cycles
 Normal termination of Gaussian 16 at Sat Apr  5 23:10:26 2025.
 Gaussian 16:  ES64L-G16RevC.01  3-Jul-2019

 ----------------------------------------------------------------------
 #t hf aug-cc-pvdz iop(5/13=1,5/36=2,99/5=2) pseudo=read geom=check gue
 ss=(read,tcheck) scf=(maxcycle=1)
 ----------------------------------------------------------------------
 -----
 title
 -----
 Structure from the checkpoint file:  "prop-2-yne-1-1-diol.chk"
 Charge =  0 Multiplicity = 1

                         Standard orientation:
 ---------------------------------------------------------------------
 Center     Atomic      Atomic             Coordinates (Angstroms)
 Number     Number       Type             X           Y           Z
 ---------------------------------------------------------------------
      1          8           0       -1.069401   -1.177081   -0.114653
      2          8           0       -1.069399    1.177108   -0.114381
      3          6           0       -0.471048   -0.000047    0.382369
      4          6           0        0.979054   -0.000017    0.143241
      5          6           0        2.155246    0.000008   -0.089537
      6          1           0       -0.691133   -1.390931   -0.974818
      7          1           0       -0.691105    1.391185   -0.974478
      8          1           0       -0.685912   -0.000169    1.449763
      9          1           0        3.199039    0.000030   -0.284622
 ---------------------------------------------------------------------

 SCF Done:  E(RHF) =  -265.702838999     A.U. after    2 cycles

 The electronic state is 1-A.
 Alpha  occ. eigenvalues --  -20.59483 -20.59480 -11.38662 -11.26781 -11.26362
 Alpha  occ. eigenvalues --   -1.38522  -1.31426  -1.05732  -0.94890  -0.79711
 Alpha  occ. eigenvalues --   -0.73927  -0.72298  -0.68729  -0.61047  -0.55532
 Alpha  occ. eigenvalues --   -0.53044  -0.51475  -0.42393  -0.42366
 Alpha virt. eigenvalues --    0.02924   0.04124   0.05231   0.05848   0.09361
 Alpha virt. eigenvalues --    0.10179   0.10356   0.12173   0.13471   0.14165
 Alpha virt. eigenvalues --    0.15247   0.15630   0.17053   0.17251   0.19822

 Mulliken charges:
               1
     1  O   -0.544006
     2  O   -0.544015
     3  C    1.015452
     4  C   -0.738665
     5  C    1.147769
     6  H    0.157403
     7  H    0.157406
     8  H   -0.170000
     9  H   -0.481344
 Sum of Mulliken charges =  -0.00000

 Dipole moment (field-independent basis, Debye):
    X=              2.5770    Y=              0.0002    Z=             -1.6731  Tot=              3.0725

 Test job not archived.
 1\1\GINC-SE223\SP\RHF\Aug-CC-pVDZ\C3H4O2\OHZDE\05-Apr-2025\0\\#t hf au
 g-cc-pvdz iop(5/13=1,5/36=2,99/5=2) pseudo=read geom=check guess=(read
 ,tcheck) scf=(maxcycle=1)\\title\\0,1\O,0,-1.069401,-1.177081,-0.11465
 3\O,0,-1.069399,1.177108,-0.114381\C,0,-0.471048,-0.000047,0.382369\C,
 0,0.979054,-0.000017,0.143241\C,0,2.155246,0.000008,-0.089537\H,0,-0.6
 91133,-1.390931,-0.974818\H,0,-0.691105,1.391185,-0.974478\H,0,-0.6859
 12,-0.000169,1.449763\H,0,3.199039,0.00003,-0.284622\\Version=ES64L-G1
 6RevC.01\State=1-A\HF=-265.702839\RMSD=8.095e-03\Dipole=1.0138545,0.00

 Normal termination of Gaussian 16 at Sat Apr  5 23:10:29 2025.
