 Gaussian 16, Revision C.01,

 ----------------------------------------------------------------------
 #t hf aug-cc-pvdz symm=none int=(grid=ultrafine) guess=(read,tcheck) s
 table=(opt,rrhf)
 ----------------------------------------------------------------------
 -----
 title
 -----
 Symbolic Z-matrix:
 Charge =  0 Multiplicity = 1

 SCF Done:  E(RHF) =  -288.451367317     A.U. after   15 cycles
 Normal termination of Gaussian 16 at Sat Apr  5 23:10:25 2025.
 Gaussian 16:  ES64L-G16RevC.01  3-Jul-2019

 ----------------------------------------------------------------------
 #t hf aug-cc-pvdz iop(5/13=1,5/36=2,99/5=2) pseudo=read geom=check gue
 ss=(read,tcheck) scf=(maxcycle=1)
 ----------------------------------------------------------------------
 -----
 title
 -----
 Structure from the checkpoint file:  "prop-2-ynoyl_fluoride.chk"
 Charge =  0 Multiplicity = 1

                         Standard orientation:
 ---------------------------------------------------------------------
 Center     Atomic      Atomic             Coordinates (Angstroms)
 Number     Number       Type             X           Y           Z
 ---------------------------------------------------------------------
      1          9           0        1.053714    1.101216    0.000007
      2          8           0        1.153455   -1.111284    0.000013
      3          6           0        0.490920   -0.130271   -0.000038
      4          6           0       -0.939398   -0.040028   -0.000063
      5          6           0       -2.136840   -0.004245    0.000046
      6          1           0       -3.199160    0.026597    0.000161
 ---------------------------------------------------------------------

 SCF Done:  E(RHF) =  -288.550072337     A.U. after    2 cycles

 The electronic state is 1-A.
 Alpha  occ. eigenvalues --  -26.17270 -20.62163 -11.47911 -11.30973 -11.29744
 Alpha  occ. eigenvalues --   -1.71686  -1.42456  -1.09589  -0.96951  -0.86116
 Alpha  occ. eigenvalues --   -0.78935  -0.77867  -0.75969  -0.69477  -0.59829
 Alpha  occ. eigenvalues --   -0.55476  -0.45931  -0.45803
 Alpha virt. eigenvalues --    0.02704   0.04929   0.07291   0.08763   0.09139
 Alpha virt. eigenvalues --    0.09390   0.10566   0.13012   0.14253   0.15127
 Alpha virt. eigenvalues --    0.16980   0.17743   0.18830   0.22788   0.23878

 Mulliken charges:
               1
     1  F   -0.342426
     2  O   -0.362210
     3  C    0.561037
     4  C   -0.181247
     5  C    0.759294
     6  H   -0.434449
 Sum of Mulliken charges =   0.00000

 Dipole moment (field-independent basis, Debye):
    X=             -3.7363    Y=              0.6546    Z=              0.0000  Tot=              3.7932

 Test job not archived.
 1\1\GINC-SE152\SP\RHF\Aug-CC-pVDZ\C3H1F1O1\OHZDE\05-Apr-2025\0\\#t hf
 aug-cc-pvdz iop(5/13=1,5/36=2,99/5=2) pseudo=read geom=check guess=(re
 ad,tcheck) scf=(maxcycle=1)\\title\\0,1\F,0,1.053714,1.101216,0.000007
 \O,0,1.153455,-1.111284,0.000013\C,0,0.49092,-0.130271,-0.000038\C,0,-
 0.939398,-0.040028,-0.000063\C,0,-2.13684,-0.004245,0.000046\H,0,-3.19
 916,0.026597,0.000161\\Version=ES64L-G16RevC.01\State=1-A\HF=-288.5500
 723\RMSD=9.118e-03\Dipole=-1.4699881,0.2575441,0.0000108\Quadrupole=4.
 0249095,-3.8290031,-0.1959063,0.7062951,-0.0006291,0.0000207\PG=C01 [X

 Normal termination of Gaussian 16 at Sat Apr  5 23:10:28 2025.
