 Gaussian 16, Revision C.01,

 ----------------------------------------------------------------------
 #t hf aug-cc-pvdz symm=none int=(grid=ultrafine) guess=(read,tcheck) s
 table=(opt,rrhf)
 ----------------------------------------------------------------------
 -----
 title
 -----
 Symbolic Z-matrix:
 Charge =  0 Multiplicity = 1

 SCF Done:  E(RHF) =  -447.372882940     A.U. after   13 cycles
 Normal termination of Gaussian 16 at Sat Apr  5 23:11:31 2025.
 Gaussian 16:  ES64L-G16RevC.01  3-Jul-2019

 ----------------------------------------------------------------------
 #t hf aug-cc-pvdz iop(5/13=1,5/36=2,99/5=2) pseudo=read geom=check gue
 ss=(read,tcheck) scf=(maxcycle=1)
 ----------------------------------------------------------------------
 -----
 title
 -----
 Structure from the checkpoint file:  "pyrazino2-3-bpyrazine.chk"
 Charge =  0 Multiplicity = 1

                         Standard orientation:
 ---------------------------------------------------------------------
 Center     Atomic      Atomic             Coordinates (Angstroms)
 Number     Number       Type             X           Y           Z
 ---------------------------------------------------------------------
      1          6           0        0.000000    0.000000    0.712293
      2          7           0        0.000000    1.158741    1.413954
      3          7           0       -0.000000   -1.158741    1.413954
      4          6           0        0.000000   -2.261085    0.709672
      5          6           0        0.000000    2.261085    0.709672
      6          6           0        0.000000   -2.261085   -0.709672
      7          7           0       -0.000000   -1.158741   -1.413954
      8          6           0        0.000000    0.000000   -0.712293
      9          7           0        0.000000    1.158741   -1.413954
     10          6           0        0.000000    2.261085   -0.709672
     11          1           0        0.000000    3.201418   -1.250194
     12          1           0       -0.000000   -3.201418    1.250194
     13          1           0       -0.000000    3.201418    1.250194
     14          1           0       -0.000000   -3.201418   -1.250194
 ---------------------------------------------------------------------

 SCF Done:  E(RHF) =  -447.496794283     A.U. after    2 cycles

 The electronic state is 1-AG.
 Alpha  occ. eigenvalues --  -15.66811 -15.66810 -15.66808 -15.66808 -11.33740
 Alpha  occ. eigenvalues --  -11.33650 -11.31520 -11.31519 -11.31425 -11.31424
 Alpha  occ. eigenvalues --   -1.32721  -1.25856  -1.23711  -1.17330  -1.06264
 Alpha  occ. eigenvalues --   -0.94926  -0.92794  -0.87947  -0.79369  -0.76406
 Alpha  occ. eigenvalues --   -0.74744  -0.67406  -0.65043  -0.64415  -0.62876
 Alpha  occ. eigenvalues --   -0.57546  -0.52883  -0.51559  -0.49696  -0.48900
 Alpha  occ. eigenvalues --   -0.45944  -0.39969  -0.39797  -0.35370
 Alpha virt. eigenvalues --    0.02163   0.02715   0.03242   0.04527   0.05377
 Alpha virt. eigenvalues --    0.08075   0.08130   0.08961   0.09334   0.11233
 Alpha virt. eigenvalues --    0.11466   0.11743   0.12014   0.12341   0.12946

 Mulliken charges:
               1
     1  C    0.508656
     2  N   -0.526134
     3  N   -0.526134
     4  C    0.601441
     5  C    0.601441
     6  C    0.601441
     7  N   -0.526134
     8  C    0.508656
     9  N   -0.526134
    10  C    0.601441
    11  H   -0.329635
    12  H   -0.329635
    13  H   -0.329635
    14  H   -0.329635
 Sum of Mulliken charges =  -0.00000

 Dipole moment (field-independent basis, Debye):
    X=              0.0000    Y=              0.0000    Z=              0.0000  Tot=              0.0000

 Test job not archived.
 1\1\GINC-SE194\SP\RHF\Aug-CC-pVDZ\C6H4N4\OHZDE\05-Apr-2025\0\\#t hf au
 g-cc-pvdz iop(5/13=1,5/36=2,99/5=2) pseudo=read geom=check guess=(read
 ,tcheck) scf=(maxcycle=1)\\title\\0,1\C,0,0.,0.,0.712293\N,0,0.,1.1587
 41,1.413954\N,0,0.,-1.158741,1.413954\C,0,0.,-2.261085,0.709672\C,0,0.
 ,2.261085,0.709672\C,0,0.,-2.261085,-0.709672\N,0,0.,-1.158741,-1.4139
 54\C,0,0.,0.,-0.712293\N,0,0.,1.158741,-1.413954\C,0,0.,2.261085,-0.70
 9672\H,0,0.,3.201418,-1.250194\H,0,0.,-3.201418,1.250194\H,0,0.,3.2014
 18,1.250194\H,0,0.,-3.201418,-1.250194\\Version=ES64L-G16RevC.01\State

 Normal termination of Gaussian 16 at Sat Apr  5 23:12:25 2025.
