 Gaussian 16, Revision C.01,

 ----------------------------------------------------------------------
 #t hf aug-cc-pvdz symm=none int=(grid=ultrafine) guess=(read,tcheck) s
 table=(opt,rrhf)
 ----------------------------------------------------------------------
 -----
 title
 -----
 Symbolic Z-matrix:
 Charge =  0 Multiplicity = 1

 SCF Done:  E(RHF) =  -262.715935921     A.U. after   11 cycles
 Normal termination of Gaussian 16 at Sat Apr  5 23:10:48 2025.
 Gaussian 16:  ES64L-G16RevC.01  3-Jul-2019

 ----------------------------------------------------------------------
 #t hf aug-cc-pvdz iop(5/13=1,5/36=2,99/5=2) pseudo=read geom=check gue
 ss=(read,tcheck) scf=(maxcycle=1)
 ----------------------------------------------------------------------
 -----
 title
 -----
 Structure from the checkpoint file:  "pyrazine.chk"
 Charge =  0 Multiplicity = 1

                         Standard orientation:
 ---------------------------------------------------------------------
 Center     Atomic      Atomic             Coordinates (Angstroms)
 Number     Number       Type             X           Y           Z
 ---------------------------------------------------------------------
      1          6           0        0.000000    1.130554    0.695666
      2          7           0        0.000000    0.000000    1.399240
      3          6           0        0.000000    1.130554   -0.695666
      4          6           0       -0.000000   -1.130554    0.695666
      5          7           0        0.000000    0.000000   -1.399240
      6          6           0       -0.000000   -1.130554   -0.695666
      7          1           0        0.000000   -2.060631   -1.251616
      8          1           0        0.000000    2.060631   -1.251616
      9          1           0       -0.000000   -2.060631    1.251616
     10          1           0        0.000000    2.060631    1.251616
 ---------------------------------------------------------------------

 SCF Done:  E(RHF) =  -262.791375977     A.U. after    2 cycles

 The electronic state is 1-AG.
 Alpha  occ. eigenvalues --  -15.65915 -15.65912 -11.29651 -11.29636 -11.29534
 Alpha  occ. eigenvalues --  -11.29527  -1.28338  -1.18895  -1.05145  -0.89571
 Alpha  occ. eigenvalues --   -0.89068  -0.73073  -0.70952  -0.67985  -0.61675
 Alpha  occ. eigenvalues --   -0.57854  -0.55516  -0.49245  -0.43592  -0.40730
 Alpha  occ. eigenvalues --   -0.36272
 Alpha virt. eigenvalues --    0.03510   0.03519   0.04618   0.06017   0.06559
 Alpha virt. eigenvalues --    0.09787   0.10487   0.11167   0.11589   0.11834
 Alpha virt. eigenvalues --    0.12515   0.12921   0.13932   0.15383   0.16019

 Mulliken charges:
               1
     1  C    0.542897
     2  N   -0.542049
     3  C    0.542897
     4  C    0.542897
     5  N   -0.542049
     6  C    0.542897
     7  H   -0.271873
     8  H   -0.271873
     9  H   -0.271873
    10  H   -0.271873
 Sum of Mulliken charges =   0.00000

 Dipole moment (field-independent basis, Debye):
    X=             -0.0000    Y=             -0.0000    Z=             -0.0000  Tot=              0.0000

 Test job not archived.
 1\1\GINC-SE190\SP\RHF\Aug-CC-pVDZ\C4H4N2\OHZDE\05-Apr-2025\0\\#t hf au
 g-cc-pvdz iop(5/13=1,5/36=2,99/5=2) pseudo=read geom=check guess=(read
 ,tcheck) scf=(maxcycle=1)\\title\\0,1\C,0,0.,1.130554,0.695666\N,0,0.,
 0.,1.39924\C,0,0.,1.130554,-0.695666\C,0,0.,-1.130554,0.695666\N,0,0.,
 0.,-1.39924\C,0,0.,-1.130554,-0.695666\H,0,0.,-2.060631,-1.251616\H,0,
 0.,2.060631,-1.251616\H,0,0.,-2.060631,1.251616\H,0,0.,2.060631,1.2516
 16\\Version=ES64L-G16RevC.01\State=1-AG\HF=-262.791376\RMSD=7.176e-03\
 Dipole=0.,0.,0.\Quadrupole=-1.4165702,6.247279,-4.8307088,0.,0.,0.\PG=

 Normal termination of Gaussian 16 at Sat Apr  5 23:10:51 2025.
