 Gaussian 16, Revision C.01,

 ----------------------------------------------------------------------
 #t hf aug-cc-pvdz symm=none int=(grid=ultrafine) guess=(read,tcheck) s
 table=(opt,rrhf)
 ----------------------------------------------------------------------
 -----
 title
 -----
 Symbolic Z-matrix:
 Charge =  0 Multiplicity = 1

 SCF Done:  E(RHF) =  -450.363166448     A.U. after   16 cycles
 Normal termination of Gaussian 16 at Sat Apr  5 23:11:40 2025.
 Gaussian 16:  ES64L-G16RevC.01  3-Jul-2019

 ----------------------------------------------------------------------
 #t hf aug-cc-pvdz iop(5/13=1,5/36=2,99/5=2) pseudo=read geom=check gue
 ss=(read,tcheck) scf=(maxcycle=1)
 ----------------------------------------------------------------------
 -----
 title
 -----
 Structure from the checkpoint file:  "pyrazine-2-carboxylic_acid.chk"
 Charge =  0 Multiplicity = 1

                         Standard orientation:
 ---------------------------------------------------------------------
 Center     Atomic      Atomic             Coordinates (Angstroms)
 Number     Number       Type             X           Y           Z
 ---------------------------------------------------------------------
      1          6           0        0.136654   -2.474879    0.000000
      2          6           0       -1.086112   -1.807655    0.000000
      3          6           0        1.225830   -0.491904    0.000000
      4          6           0       -0.000000    0.176466   -0.000000
      5          6           0       -0.001609    1.673965   -0.000000
      6          7           0        1.295697   -1.820585    0.000000
      7          7           0       -1.158456   -0.482162   -0.000000
      8          8           0        1.008914    2.334974   -0.000000
      9          8           0       -1.233925    2.207653   -0.000000
     10          1           0        0.179101   -3.557509    0.000000
     11          1           0       -2.020705   -2.355521    0.000000
     12          1           0        2.152353    0.065709    0.000000
     13          1           0       -1.119932    3.169586   -0.000000
 ---------------------------------------------------------------------

 SCF Done:  E(RHF) =  -450.496611060     A.U. after    2 cycles

 The electronic state is 1-A'.
 Alpha  occ. eigenvalues --  -20.63612 -20.57844 -15.67877 -15.67060 -11.41848
 Alpha  occ. eigenvalues --  -11.31727 -11.31558 -11.31322 -11.30871  -1.44076
 Alpha  occ. eigenvalues --   -1.34139  -1.30110  -1.20707  -1.07898  -0.95046
 Alpha  occ. eigenvalues --   -0.91331  -0.85427  -0.75677  -0.74252  -0.71596
 Alpha  occ. eigenvalues --   -0.70835  -0.66490  -0.65847  -0.62081  -0.59036
 Alpha  occ. eigenvalues --   -0.57941  -0.51674  -0.50736  -0.49689  -0.45136
 Alpha  occ. eigenvalues --   -0.42071  -0.37836
 Alpha virt. eigenvalues --    0.02903   0.03688   0.04507   0.04555   0.05674
 Alpha virt. eigenvalues --    0.06808   0.09451   0.09699   0.10161   0.11365
 Alpha virt. eigenvalues --    0.11428   0.12089   0.12187   0.13769   0.14682

 Mulliken charges:
               1
     1  C    0.522621
     2  C    0.729728
     3  C    0.552842
     4  C    0.637361
     5  C    0.427559
     6  N   -0.499882
     7  N   -0.659859
     8  O   -0.464481
     9  O   -0.530091
    10  H   -0.279882
    11  H   -0.330758
    12  H   -0.353257
    13  H    0.248096
 Sum of Mulliken charges =  -0.00000

 Dipole moment (field-independent basis, Debye):
    X=             -1.6218    Y=             -1.5724    Z=             -0.0000  Tot=              2.2589

 Test job not archived.
 1\1\GINC-SE183\SP\RHF\Aug-CC-pVDZ\C5H4N2O2\OHZDE\05-Apr-2025\0\\#t hf
 aug-cc-pvdz iop(5/13=1,5/36=2,99/5=2) pseudo=read geom=check guess=(re
 ad,tcheck) scf=(maxcycle=1)\\title\\0,1\C,0,0.136653,-2.474879,0.\C,0,
 -1.086113,-1.807655,0.\C,0,1.22583,-0.491905,0.\C,0,0.,0.176466,0.\C,0
 ,-0.001608,1.673965,0.\N,0,1.295696,-1.820586,0.\N,0,-1.158456,-0.4821
 62,0.\O,0,1.008915,2.334974,0.\O,0,-1.233924,2.207653,0.\H,0,0.179099,
 -3.557509,0.\H,0,-2.020706,-2.35552,0.\H,0,2.152353,0.065708,0.\H,0,-1
 .119931,3.169586,0.\\Version=ES64L-G16RevC.01\State=1-A'\HF=-450.49661

 Normal termination of Gaussian 16 at Sat Apr  5 23:12:31 2025.
