 Gaussian 16, Revision C.01,

 ----------------------------------------------------------------------
 #t hf aug-cc-pvdz symm=none int=(grid=ultrafine) guess=(read,tcheck) s
 table=(opt,rrhf)
 ----------------------------------------------------------------------
 -----
 title
 -----
 Symbolic Z-matrix:
 Charge =  0 Multiplicity = 1

 SCF Done:  E(RHF) =  -359.468203054     A.U. after   15 cycles
 Normal termination of Gaussian 16 at Sat Apr  5 23:11:19 2025.
 Gaussian 16:  ES64L-G16RevC.01  3-Jul-2019

 ----------------------------------------------------------------------
 #t hf aug-cc-pvdz iop(5/13=1,5/36=2,99/5=2) pseudo=read geom=check gue
 ss=(read,tcheck) scf=(maxcycle=1)
 ----------------------------------------------------------------------
 -----
 title
 -----
 Structure from the checkpoint file:  "pyridine-3-carbaldehyde.chk"
 Charge =  0 Multiplicity = 1

                         Standard orientation:
 ---------------------------------------------------------------------
 Center     Atomic      Atomic             Coordinates (Angstroms)
 Number     Number       Type             X           Y           Z
 ---------------------------------------------------------------------
      1          6           0        1.610317   -1.209436   -0.000000
      2          6           0        1.329993    0.147978   -0.000000
      3          6           0        0.543915   -2.101297   -0.000000
      4          6           0       -0.997140   -0.422562   -0.000000
      5          6           0        0.000000    0.559527    0.000000
      6          6           0       -0.339161    1.998058    0.000000
      7          7           0       -0.739333   -1.725611   -0.000000
      8          8           0       -1.461675    2.444254    0.000000
      9          1           0        2.627285   -1.575291   -0.000000
     10          1           0        2.126453    0.882601    0.000000
     11          1           0        0.725761   -3.169850   -0.000000
     12          1           0       -2.037530   -0.121485    0.000000
     13          1           0        0.539218    2.675668    0.000000
 ---------------------------------------------------------------------

 SCF Done:  E(RHF) =  -359.574350202     A.U. after    2 cycles

 The electronic state is 1-A'.
 Alpha  occ. eigenvalues --  -20.58000 -15.64736 -11.35798 -11.30904 -11.30676
 Alpha  occ. eigenvalues --  -11.29434 -11.26982 -11.26876  -1.36805  -1.25308
 Alpha  occ. eigenvalues --   -1.10917  -1.05794  -0.91916  -0.88212  -0.81975
 Alpha  occ. eigenvalues --   -0.74136  -0.70837  -0.68130  -0.65253  -0.63447
 Alpha  occ. eigenvalues --   -0.60028  -0.58455  -0.55393  -0.54216  -0.46300
 Alpha  occ. eigenvalues --   -0.42385  -0.40624  -0.36879
 Alpha virt. eigenvalues --    0.02477   0.03636   0.04734   0.04864   0.05673
 Alpha virt. eigenvalues --    0.06572   0.07639   0.07789   0.09576   0.11280
 Alpha virt. eigenvalues --    0.11540   0.12262   0.13154   0.13212   0.14027

 Mulliken charges:
               1
     1  C    0.402722
     2  C    0.249210
     3  C    0.572797
     4  C    0.662853
     5  C    0.338001
     6  C    0.703307
     7  N   -0.502685
     8  O   -0.513873
     9  H   -0.385160
    10  H   -0.522176
    11  H   -0.329641
    12  H   -0.411614
    13  H   -0.263742
 Sum of Mulliken charges =  -0.00000

 Dipole moment (field-independent basis, Debye):
    X=              4.5312    Y=             -1.0354    Z=             -0.0000  Tot=              4.6480

 Test job not archived.
 1\1\GINC-SE010\SP\RHF\Aug-CC-pVDZ\C6H5N1O1\OHZDE\05-Apr-2025\0\\#t hf
 aug-cc-pvdz iop(5/13=1,5/36=2,99/5=2) pseudo=read geom=check guess=(re
 ad,tcheck) scf=(maxcycle=1)\\title\\0,1\C,0,1.610317,-1.209436,0.\C,0,
 1.329993,0.147978,0.\C,0,0.543915,-2.101297,0.\C,0,-0.99714,-0.422562,
 0.\C,0,0.,0.559527,0.\C,0,-0.339161,1.998058,0.\N,0,-0.739333,-1.72561
 1,0.\O,0,-1.461675,2.444254,0.\H,0,2.627285,-1.575291,0.\H,0,2.126453,
 0.882601,0.\H,0,0.725761,-3.16985,0.\H,0,-2.03753,-0.121485,0.\H,0,0.5
 39218,2.675668,0.\\Version=ES64L-G16RevC.01\State=1-A'\HF=-359.5743502

 Normal termination of Gaussian 16 at Sat Apr  5 23:12:25 2025.
