 Gaussian 16, Revision C.01,

 ----------------------------------------------------------------------
 #t hf aug-cc-pvdz symm=none int=(grid=ultrafine) guess=(read,tcheck) s
 table=(opt,rrhf)
 ----------------------------------------------------------------------
 -----
 title
 -----
 Symbolic Z-matrix:
 Charge =  0 Multiplicity = 1

 SCF Done:  E(RHF) =  -246.724774699     A.U. after   13 cycles
 Normal termination of Gaussian 16 at Sat Apr  5 23:10:53 2025.
 Gaussian 16:  ES64L-G16RevC.01  3-Jul-2019

 ----------------------------------------------------------------------
 #t hf aug-cc-pvdz iop(5/13=1,5/36=2,99/5=2) pseudo=read geom=check gue
 ss=(read,tcheck) scf=(maxcycle=1)
 ----------------------------------------------------------------------
 -----
 title
 -----
 Structure from the checkpoint file:  "pyridine.chk"
 Charge =  0 Multiplicity = 1

                         Standard orientation:
 ---------------------------------------------------------------------
 Center     Atomic      Atomic             Coordinates (Angstroms)
 Number     Number       Type             X           Y           Z
 ---------------------------------------------------------------------
      1          6           0        0.000000    1.138944    0.719367
      2          7           0        0.000000   -0.000000    1.412722
      3          6           0        0.000000    1.193219   -0.669712
      4          6           0       -0.000000   -1.138944    0.719367
      5          6           0       -0.000000   -1.193219   -0.669712
      6          6           0       -0.000000    0.000000   -1.378970
      7          1           0        0.000000   -2.147907   -1.177548
      8          1           0        0.000000    2.053255    1.302467
      9          1           0        0.000000    2.147907   -1.177548
     10          1           0       -0.000000   -2.053255    1.302467
     11          1           0       -0.000000    0.000000   -2.460925
 ---------------------------------------------------------------------

 SCF Done:  E(RHF) =  -246.797309346     A.U. after    2 cycles

 The electronic state is 1-A1.
 Alpha  occ. eigenvalues --  -15.63071 -11.28541 -11.28528 -11.26929 -11.25173
 Alpha  occ. eigenvalues --  -11.25170  -1.23350  -1.07957  -1.03038  -0.85805
 Alpha  occ. eigenvalues --   -0.85794  -0.72660  -0.66696  -0.65565  -0.60363
 Alpha  occ. eigenvalues --   -0.57932  -0.54497  -0.52368  -0.41374  -0.38562
 Alpha  occ. eigenvalues --   -0.35129
 Alpha virt. eigenvalues --    0.03108   0.03811   0.04568   0.05945   0.06405
 Alpha virt. eigenvalues --    0.08584   0.10335   0.10572   0.11752   0.12408
 Alpha virt. eigenvalues --    0.13028   0.13691   0.14151   0.14574   0.14718

 Mulliken charges:
               1
     1  C    0.455376
     2  N   -0.413975
     3  C    0.783499
     4  C    0.455376
     5  C    0.783499
     6  C   -0.194008
     7  H   -0.395477
     8  H   -0.340072
     9  H   -0.395477
    10  H   -0.340072
    11  H   -0.398666
 Sum of Mulliken charges =   0.00000

 Dipole moment (field-independent basis, Debye):
    X=             -0.0000    Y=              0.0000    Z=             -2.2435  Tot=              2.2435

 Test job not archived.
 1\1\GINC-SE152\SP\RHF\Aug-CC-pVDZ\C5H5N1\OHZDE\05-Apr-2025\0\\#t hf au
 g-cc-pvdz iop(5/13=1,5/36=2,99/5=2) pseudo=read geom=check guess=(read
 ,tcheck) scf=(maxcycle=1)\\title\\0,1\C,0,0.,1.138944,0.719367\N,0,0.,
 0.,1.412722\C,0,0.,1.193219,-0.669712\C,0,0.,-1.138944,0.719367\C,0,0.
 ,-1.193219,-0.669712\C,0,0.,0.,-1.37897\H,0,0.,-2.147907,-1.177548\H,0
 ,0.,2.053255,1.302467\H,0,0.,2.147907,-1.177548\H,0,0.,-2.053255,1.302
 467\H,0,0.,0.,-2.460925\\Version=ES64L-G16RevC.01\State=1-A1\HF=-246.7
 973093\RMSD=9.208e-03\Dipole=0.,0.,-0.8826553\Quadrupole=-2.9784654,4.

 Normal termination of Gaussian 16 at Sat Apr  5 23:10:58 2025.
