 Gaussian 16, Revision C.01,

 ----------------------------------------------------------------------
 #t hf aug-cc-pvdz symm=none int=(grid=ultrafine) guess=(read,tcheck) s
 table=(opt,rrhf)
 ----------------------------------------------------------------------
 -----
 title
 -----
 Symbolic Z-matrix:
 Charge =  0 Multiplicity = 1

 SCF Done:  E(RHF) =  -338.466790562     A.U. after   16 cycles
 Normal termination of Gaussian 16 at Sat Apr  5 23:11:21 2025.
 Gaussian 16:  ES64L-G16RevC.01  3-Jul-2019

 ----------------------------------------------------------------------
 #t hf aug-cc-pvdz iop(5/13=1,5/36=2,99/5=2) pseudo=read geom=check gue
 ss=(read,tcheck) scf=(maxcycle=1)
 ----------------------------------------------------------------------
 -----
 title
 -----
 Structure from the checkpoint file:  "pyridine-3-carbonitrile.chk"
 Charge =  0 Multiplicity = 1

                         Standard orientation:
 ---------------------------------------------------------------------
 Center     Atomic      Atomic             Coordinates (Angstroms)
 Number     Number       Type             X           Y           Z
 ---------------------------------------------------------------------
      1          6           0       -0.053693    2.019437   -0.000000
      2          6           0        1.204654   -1.469386    0.000000
      3          6           0        1.220966   -0.085509    0.000000
      4          6           0       -0.022972   -2.123259    0.000000
      5          6           0       -1.181722   -0.159565   -0.000000
      6          6           0       -0.000000    0.592498   -0.000000
      7          7           0       -0.100145    3.170672   -0.000000
      8          7           0       -1.195466   -1.486799   -0.000000
      9          1           0        2.124938   -2.035655    0.000000
     10          1           0        2.150017    0.466484    0.000000
     11          1           0       -0.067714   -3.205810    0.000000
     12          1           0       -2.141358    0.342572   -0.000000
 ---------------------------------------------------------------------

 SCF Done:  E(RHF) =  -338.564006675     A.U. after    2 cycles

 The electronic state is 1-A'.
 Alpha  occ. eigenvalues --  -15.65935 -15.65088 -11.32386 -11.31883 -11.30804
 Alpha  occ. eigenvalues --  -11.30597 -11.29975 -11.27945  -1.26823  -1.20598
 Alpha  occ. eigenvalues --   -1.11949  -1.07224  -0.91855  -0.89450  -0.78267
 Alpha  occ. eigenvalues --   -0.73010  -0.70835  -0.64705  -0.61275  -0.58805
 Alpha  occ. eigenvalues --   -0.57536  -0.55374  -0.50672  -0.48469  -0.44002
 Alpha  occ. eigenvalues --   -0.41219  -0.37324
 Alpha virt. eigenvalues --    0.02377   0.03866   0.04303   0.05327   0.05672
 Alpha virt. eigenvalues --    0.06810   0.08087   0.08955   0.09560   0.11695
 Alpha virt. eigenvalues --    0.12109   0.12120   0.12697   0.13242   0.14027

 Mulliken charges:
               1
     1  C   -1.059110
     2  C    0.520161
     3  C   -0.000597
     4  C    0.588049
     5  C    0.751930
     6  C    1.393214
     7  N   -0.118231
     8  N   -0.506297
     9  H   -0.372344
    10  H   -0.489062
    11  H   -0.331009
    12  H   -0.376705
 Sum of Mulliken charges =   0.00000

 Dipole moment (field-independent basis, Debye):
    X=              2.0991    Y=             -3.6370    Z=              0.0000  Tot=              4.1993

 Test job not archived.
 1\1\GINC-SE011\SP\RHF\Aug-CC-pVDZ\C6H4N2\OHZDE\05-Apr-2025\0\\#t hf au
 g-cc-pvdz iop(5/13=1,5/36=2,99/5=2) pseudo=read geom=check guess=(read
 ,tcheck) scf=(maxcycle=1)\\title\\0,1\C,0,-0.053693,2.019437,0.\C,0,1.
 204654,-1.469386,0.\C,0,1.220966,-0.085509,0.\C,0,-0.022972,-2.123259,
 0.\C,0,-1.181722,-0.159565,0.\C,0,0.,0.592498,0.\N,0,-0.100145,3.17067
 2,0.\N,0,-1.195466,-1.486799,0.\H,0,2.124938,-2.035655,0.\H,0,2.150017
 ,0.466484,0.\H,0,-0.067713,-3.20581,0.\H,0,-2.141358,0.342572,0.\\Vers
 ion=ES64L-G16RevC.01\State=1-A'\HF=-338.5640067\RMSD=9.902e-03\Dipole=

 Normal termination of Gaussian 16 at Sat Apr  5 23:12:26 2025.
