 Gaussian 16, Revision C.01,

 ----------------------------------------------------------------------
 #t hf aug-cc-pvdz symm=none int=(grid=ultrafine) guess=(read,tcheck) s
 table=(opt,rrhf)
 ----------------------------------------------------------------------
 -----
 title
 -----
 Symbolic Z-matrix:
 Charge =  0 Multiplicity = 1

 SCF Done:  E(RHF) =  -359.465972127     A.U. after   16 cycles
 Normal termination of Gaussian 16 at Sat Apr  5 23:11:18 2025.
 Gaussian 16:  ES64L-G16RevC.01  3-Jul-2019

 ----------------------------------------------------------------------
 #t hf aug-cc-pvdz iop(5/13=1,5/36=2,99/5=2) pseudo=read geom=check gue
 ss=(read,tcheck) scf=(maxcycle=1)
 ----------------------------------------------------------------------
 -----
 title
 -----
 Structure from the checkpoint file:  "pyridine-4-carbaldehyde.chk"
 Charge =  0 Multiplicity = 1

                         Standard orientation:
 ---------------------------------------------------------------------
 Center     Atomic      Atomic             Coordinates (Angstroms)
 Number     Number       Type             X           Y           Z
 ---------------------------------------------------------------------
      1          6           0        1.317704    0.115038    0.000000
      2          6           0       -1.022687   -0.385775   -0.000000
      3          6           0        1.558392   -1.254677    0.000000
      4          6           0       -0.677231   -1.728443    0.000000
      5          6           0       -0.000000    0.561086   -0.000000
      6          6           0       -0.292864    2.016587   -0.000000
      7          7           0        0.586424   -2.165062    0.000000
      8          8           0       -1.402646    2.490215   -0.000000
      9          1           0        2.141104    0.817975    0.000000
     10          1           0       -2.055648   -0.068068   -0.000000
     11          1           0        2.573168   -1.634741    0.000000
     12          1           0       -1.445137   -2.492744   -0.000000
     13          1           0        0.602825    2.668397   -0.000000
 ---------------------------------------------------------------------

 SCF Done:  E(RHF) =  -359.572237806     A.U. after    2 cycles

 The electronic state is 1-A'.
 Alpha  occ. eigenvalues --  -20.59113 -15.65179 -11.36396 -11.30216 -11.29943
 Alpha  occ. eigenvalues --  -11.28640 -11.27638 -11.26939  -1.37765  -1.25137
 Alpha  occ. eigenvalues --   -1.11116  -1.04930  -0.92896  -0.88012  -0.81812
 Alpha  occ. eigenvalues --   -0.74050  -0.70554  -0.67398  -0.65698  -0.63435
 Alpha  occ. eigenvalues --   -0.62032  -0.58621  -0.54601  -0.53936  -0.46552
 Alpha  occ. eigenvalues --   -0.43095  -0.40190  -0.36749
 Alpha virt. eigenvalues --    0.02855   0.03731   0.03786   0.04302   0.06173
 Alpha virt. eigenvalues --    0.06483   0.07651   0.09256   0.10110   0.10814
 Alpha virt. eigenvalues --    0.10995   0.11707   0.13328   0.13513   0.14356

 Mulliken charges:
               1
     1  C    0.930023
     2  C    0.737382
     3  C    0.333544
     4  C    0.376271
     5  C   -0.431363
     6  C    0.873704
     7  N   -0.442673
     8  O   -0.492953
     9  H   -0.495046
    10  H   -0.485358
    11  H   -0.326811
    12  H   -0.325254
    13  H   -0.251467
 Sum of Mulliken charges =  -0.00000

 Dipole moment (field-independent basis, Debye):
    X=              2.2984    Y=             -0.1356    Z=              0.0000  Tot=              2.3024

 Test job not archived.
 1\1\GINC-SE053\SP\RHF\Aug-CC-pVDZ\C6H5N1O1\OHZDE\05-Apr-2025\0\\#t hf
 aug-cc-pvdz iop(5/13=1,5/36=2,99/5=2) pseudo=read geom=check guess=(re
 ad,tcheck) scf=(maxcycle=1)\\title\\0,1\C,0,1.317704,0.115038,0.\C,0,-
 1.022687,-0.385775,0.\C,0,1.558392,-1.254677,0.\C,0,-0.677231,-1.72844
 3,0.\C,0,0.,0.561086,0.\C,0,-0.292864,2.016587,0.\N,0,0.586424,-2.1650
 62,0.\O,0,-1.402646,2.490215,0.\H,0,2.141104,0.817975,0.\H,0,-2.055648
 ,-0.068068,0.\H,0,2.573168,-1.634741,0.\H,0,-1.445137,-2.492744,0.\H,0
 ,0.602825,2.668397,0.\\Version=ES64L-G16RevC.01\State=1-A'\HF=-359.572

 Normal termination of Gaussian 16 at Sat Apr  5 23:12:25 2025.
