 Gaussian 16, Revision C.01,

 ----------------------------------------------------------------------
 #t hf aug-cc-pvdz symm=none int=(grid=ultrafine) guess=(read,tcheck) s
 table=(opt,rrhf)
 ----------------------------------------------------------------------
 -----
 title
 -----
 Symbolic Z-matrix:
 Charge =  0 Multiplicity = 1

 SCF Done:  E(RHF) =  -317.788988191     A.U. after   14 cycles
 Normal termination of Gaussian 16 at Sat Apr  5 23:11:34 2025.
 Gaussian 16:  ES64L-G16RevC.01  3-Jul-2019

 ----------------------------------------------------------------------
 #t hf aug-cc-pvdz iop(5/13=1,5/36=2,99/5=2) pseudo=read geom=check gue
 ss=(read,tcheck) scf=(maxcycle=1)
 ----------------------------------------------------------------------
 -----
 title
 -----
 Structure from the checkpoint file:  "pyrimidin-2-amine.chk"
 Charge =  0 Multiplicity = 1

                         Standard orientation:
 ---------------------------------------------------------------------
 Center     Atomic      Atomic             Coordinates (Angstroms)
 Number     Number       Type             X           Y           Z
 ---------------------------------------------------------------------
      1          6           0       -0.000845   -1.808309    0.000000
      2          6           0        0.002500   -1.071896    1.177316
      3          6           0        0.002500   -1.071896   -1.177316
      4          6           0       -0.003688    0.863909   -0.000000
      5          7           0        0.002500    0.255572    1.197627
      6          7           0        0.002500    0.255572   -1.197627
      7          7           0       -0.041543    2.223054   -0.000000
      8          1           0       -0.000837   -2.887318    0.000000
      9          1           0        0.007769   -1.564229    2.143784
     10          1           0        0.007769   -1.564229   -2.143784
     11          1           0        0.119153    2.702771   -0.866351
     12          1           0        0.119153    2.702771    0.866351
 ---------------------------------------------------------------------

 SCF Done:  E(RHF) =  -317.882281576     A.U. after    2 cycles

 The electronic state is 1-A'.
 Alpha  occ. eigenvalues --  -15.63888 -15.62238 -15.62236 -11.36379 -11.30529
 Alpha  occ. eigenvalues --  -11.30528 -11.23708  -1.29648  -1.17758  -1.15960
 Alpha  occ. eigenvalues --   -1.03262  -0.89185  -0.86712  -0.74140  -0.73291
 Alpha  occ. eigenvalues --   -0.65770  -0.65238  -0.59841  -0.59208  -0.58422
 Alpha  occ. eigenvalues --   -0.47636  -0.46394  -0.42142  -0.39927  -0.32659
 Alpha virt. eigenvalues --    0.03265   0.03586   0.04033   0.06163   0.06527
 Alpha virt. eigenvalues --    0.08478   0.08854   0.11539   0.12372   0.12397
 Alpha virt. eigenvalues --    0.12859   0.14435   0.14677   0.14964   0.15078

 Mulliken charges:
               1
     1  C    0.608074
     2  C    0.540769
     3  C    0.540769
     4  C    0.734844
     5  N   -0.536447
     6  N   -0.536447
     7  N   -0.251939
     8  H   -0.389008
     9  H   -0.321004
    10  H   -0.321004
    11  H   -0.034304
    12  H   -0.034304
 Sum of Mulliken charges =   0.00000

 Dipole moment (field-independent basis, Debye):
    X=              0.4919    Y=             -0.4261    Z=              0.0000  Tot=              0.6508

 Test job not archived.
 1\1\GINC-SE009\SP\RHF\Aug-CC-pVDZ\C4H5N3\OHZDE\05-Apr-2025\0\\#t hf au
 g-cc-pvdz iop(5/13=1,5/36=2,99/5=2) pseudo=read geom=check guess=(read
 ,tcheck) scf=(maxcycle=1)\\title\\0,1\C,0,-0.000845,-1.808309,0.\C,0,0
 .0025,-1.071896,1.177316\C,0,0.0025,-1.071896,-1.177316\C,0,-0.003688,
 0.863909,0.\N,0,0.0025,0.255572,1.197627\N,0,0.0025,0.255572,-1.197627
 \N,0,-0.041543,2.223054,0.\H,0,-0.000837,-2.887318,0.\H,0,0.007769,-1.
 564229,2.143784\H,0,0.007769,-1.564229,-2.143784\H,0,0.119153,2.702771
 ,-0.866351\H,0,0.119153,2.702771,0.866351\\Version=ES64L-G16RevC.01\St

 Normal termination of Gaussian 16 at Sat Apr  5 23:12:24 2025.
