 Gaussian 16, Revision C.01,

 ----------------------------------------------------------------------
 #t hf aug-cc-pvdz symm=none int=(grid=ultrafine) guess=(read,tcheck) s
 table=(opt,rrhf)
 ----------------------------------------------------------------------
 -----
 title
 -----
 Symbolic Z-matrix:
 Charge =  0 Multiplicity = 1

 SCF Done:  E(RHF) =  -338.464261727     A.U. after   15 cycles
 Normal termination of Gaussian 16 at Sat Apr  5 23:11:18 2025.
 Gaussian 16:  ES64L-G16RevC.01  3-Jul-2019

 ----------------------------------------------------------------------
 #t hf aug-cc-pvdz iop(5/13=1,5/36=2,99/5=2) pseudo=read geom=check gue
 ss=(read,tcheck) scf=(maxcycle=1)
 ----------------------------------------------------------------------
 -----
 title
 -----
 Structure from the checkpoint file:  "pyridine-4-carbonitrile.chk"
 Charge =  0 Multiplicity = 1

                         Standard orientation:
 ---------------------------------------------------------------------
 Center     Atomic      Atomic             Coordinates (Angstroms)
 Number     Number       Type             X           Y           Z
 ---------------------------------------------------------------------
      1          6           0        0.000000    0.000000    2.029610
      2          6           0        0.000000    1.200354   -0.112893
      3          6           0       -0.000000   -1.200354   -0.112893
      4          6           0        0.000000    1.140883   -1.499716
      5          6           0       -0.000000   -1.140883   -1.499716
      6          6           0        0.000000    0.000000    0.598544
      7          7           0        0.000000    0.000000    3.181206
      8          7           0        0.000000    0.000000   -2.189569
      9          1           0        0.000000    2.149584    0.402220
     10          1           0       -0.000000   -2.149584    0.402220
     11          1           0        0.000000    2.054587   -2.081755
     12          1           0       -0.000000   -2.054587   -2.081755
 ---------------------------------------------------------------------

 SCF Done:  E(RHF) =  -338.561567573     A.U. after    2 cycles

 The electronic state is 1-A1.
 Alpha  occ. eigenvalues --  -15.66158 -15.66020 -11.32594 -11.31263 -11.31250
 Alpha  occ. eigenvalues --  -11.30594 -11.28793 -11.28790  -1.26485  -1.21433
 Alpha  occ. eigenvalues --   -1.12471  -1.06252  -0.92664  -0.89284  -0.79102
 Alpha  occ. eigenvalues --   -0.70848  -0.69340  -0.65445  -0.63447  -0.58626
 Alpha  occ. eigenvalues --   -0.56467  -0.56161  -0.51336  -0.48456  -0.44414
 Alpha  occ. eigenvalues --   -0.40082  -0.38013
 Alpha virt. eigenvalues --    0.02928   0.03206   0.04242   0.04745   0.05679
 Alpha virt. eigenvalues --    0.08107   0.08159   0.09102   0.09732   0.10840
 Alpha virt. eigenvalues --    0.11219   0.11823   0.13004   0.13419   0.14121

 Mulliken charges:
               1
     1  C   -1.069852
     2  C    0.688424
     3  C    0.688424
     4  C    0.422316
     5  C    0.422316
     6  C    0.875239
     7  N   -0.057225
     8  N   -0.421844
     9  H   -0.471329
    10  H   -0.471329
    11  H   -0.302570
    12  H   -0.302570
 Sum of Mulliken charges =  -0.00000

 Dipole moment (field-independent basis, Debye):
    X=              0.0000    Y=             -0.0000    Z=             -2.2447  Tot=              2.2447

 Test job not archived.
 1\1\GINC-SE052\SP\RHF\Aug-CC-pVDZ\C6H4N2\OHZDE\05-Apr-2025\0\\#t hf au
 g-cc-pvdz iop(5/13=1,5/36=2,99/5=2) pseudo=read geom=check guess=(read
 ,tcheck) scf=(maxcycle=1)\\title\\0,1\C,0,0.,0.,2.02961\C,0,0.,1.20035
 4,-0.112893\C,0,0.,-1.200354,-0.112893\C,0,0.,1.140883,-1.499716\C,0,0
 .,-1.140883,-1.499716\C,0,0.,0.,0.598544\N,0,0.,0.,3.181206\N,0,0.,0.,
 -2.189569\H,0,0.,2.149584,0.40222\H,0,0.,-2.149584,0.40222\H,0,0.,2.05
 4587,-2.081755\H,0,0.,-2.054587,-2.081755\\Version=ES64L-G16RevC.01\St
 ate=1-A1\HF=-338.5615676\RMSD=1.085e-02\Dipole=0.,0.,-0.8831271\Quadru

 Normal termination of Gaussian 16 at Sat Apr  5 23:12:26 2025.
