 Gaussian 16, Revision C.01,

 ----------------------------------------------------------------------
 #t hf aug-cc-pvdz symm=none int=(grid=ultrafine) guess=(read,tcheck) s
 table=(opt,rrhf)
 ----------------------------------------------------------------------
 -----
 title
 -----
 Symbolic Z-matrix:
 Charge =  0 Multiplicity = 1

 SCF Done:  E(RHF) =  -396.492795761     A.U. after   14 cycles
 Normal termination of Gaussian 16 at Sat Apr  5 23:11:17 2025.
 Gaussian 16:  ES64L-G16RevC.01  3-Jul-2019

 ----------------------------------------------------------------------
 #t hf aug-cc-pvdz iop(5/13=1,5/36=2,99/5=2) pseudo=read geom=check gue
 ss=(read,tcheck) scf=(maxcycle=1)
 ----------------------------------------------------------------------
 -----
 title
 -----
 Structure from the checkpoint file:  "pyridine-2-4-diol.chk"
 Charge =  0 Multiplicity = 1

                         Standard orientation:
 ---------------------------------------------------------------------
 Center     Atomic      Atomic             Coordinates (Angstroms)
 Number     Number       Type             X           Y           Z
 ---------------------------------------------------------------------
      1          6           0       -1.181319   -1.083539    0.000000
      2          6           0        0.000000    1.010809    0.000000
      3          6           0        0.048798   -1.709300    0.000000
      4          6           0       -1.198215    0.314134    0.000000
      5          6           0        1.176033    0.261682    0.000000
      6          7           0        1.220451   -1.060717    0.000000
      7          8           0       -2.406742    0.931648    0.000000
      8          8           0        2.354509    0.926245    0.000000
      9          1           0       -2.104345   -1.642803    0.000000
     10          1           0        0.041008    2.091380    0.000000
     11          1           0        0.107341   -2.790875    0.000000
     12          1           0       -2.290414    1.887774    0.000000
     13          1           0        3.049335    0.253679    0.000000
 ---------------------------------------------------------------------

 SCF Done:  E(RHF) =  -396.613277284     A.U. after    2 cycles

 The electronic state is 1-A'.
 Alpha  occ. eigenvalues --  -20.62698 -20.61277 -15.62330 -11.36033 -11.34481
 Alpha  occ. eigenvalues --  -11.29802 -11.24638 -11.23948  -1.39306  -1.38853
 Alpha  occ. eigenvalues --   -1.22906  -1.07610  -1.03026  -0.89272  -0.86559
 Alpha  occ. eigenvalues --   -0.79717  -0.72684  -0.70395  -0.66841  -0.63847
 Alpha  occ. eigenvalues --   -0.63717  -0.61447  -0.61288  -0.58489  -0.53961
 Alpha  occ. eigenvalues --   -0.50921  -0.43289  -0.37183  -0.34302
 Alpha virt. eigenvalues --    0.02923   0.03922   0.04304   0.06069   0.06444
 Alpha virt. eigenvalues --    0.08977   0.10937   0.11110   0.11823   0.12341
 Alpha virt. eigenvalues --    0.12464   0.13374   0.13644   0.13899   0.14901

 Mulliken charges:
               1
     1  C    1.315745
     2  C    1.286664
     3  C    0.270250
     4  C   -0.664534
     5  C    0.283325
     6  N   -0.387864
     7  O   -0.543788
     8  O   -0.538556
     9  H   -0.466984
    10  H   -0.516997
    11  H   -0.339533
    12  H    0.138096
    13  H    0.164176
 Sum of Mulliken charges =  -0.00000

 Dipole moment (field-independent basis, Debye):
    X=             -0.6507    Y=              0.7235    Z=              0.0000  Tot=              0.9731

 Test job not archived.
 1\1\GINC-SE211\SP\RHF\Aug-CC-pVDZ\C5H5N1O2\OHZDE\05-Apr-2025\0\\#t hf
 aug-cc-pvdz iop(5/13=1,5/36=2,99/5=2) pseudo=read geom=check guess=(re
 ad,tcheck) scf=(maxcycle=1)\\title\\0,1\C,0,-1.181319,-1.083539,0.\C,0
 ,0.,1.010809,0.\C,0,0.048798,-1.7093,0.\C,0,-1.198215,0.314134,0.\C,0,
 1.176033,0.261682,0.\N,0,1.220451,-1.060717,0.\O,0,-2.406742,0.931648,
 0.\O,0,2.354509,0.926245,0.\H,0,-2.104345,-1.642803,0.\H,0,0.041008,2.
 09138,0.\H,0,0.107341,-2.790875,0.\H,0,-2.290414,1.887774,0.\H,0,3.049
 335,0.253679,0.\\Version=ES64L-G16RevC.01\State=1-A'\HF=-396.6132773\R

 Normal termination of Gaussian 16 at Sat Apr  5 23:12:32 2025.
