 Gaussian 16, Revision C.01,

 ----------------------------------------------------------------------
 #t hf aug-cc-pvdz symm=none int=(grid=ultrafine) guess=(read,tcheck) s
 table=(opt,rrhf)
 ----------------------------------------------------------------------
 -----
 title
 -----
 Symbolic Z-matrix:
 Charge =  0 Multiplicity = 1

 SCF Done:  E(RHF) =  -1041.79109499     A.U. after   15 cycles
 Normal termination of Gaussian 16 at Sat Apr  5 23:11:22 2025.
 Gaussian 16:  ES64L-G16RevC.01  3-Jul-2019

 ----------------------------------------------------------------------
 #t hf aug-cc-pvdz iop(5/13=1,5/36=2,99/5=2) pseudo=read geom=check gue
 ss=(read,tcheck) scf=(maxcycle=1)
 ----------------------------------------------------------------------
 -----
 title
 -----
 Structure from the checkpoint file:  "pyridine-2-4-dithiol.chk"
 Charge =  0 Multiplicity = 1

                         Standard orientation:
 ---------------------------------------------------------------------
 Center     Atomic      Atomic             Coordinates (Angstroms)
 Number     Number       Type             X           Y           Z
 ---------------------------------------------------------------------
      1          6           0       -1.178117   -1.374042    0.000000
      2          6           0        0.000000    0.710936    0.000000
      3          6           0        0.054673   -2.002123    0.000000
      4          6           0       -1.206605    0.023456    0.000000
      5          6           0        1.184142   -0.028878    0.000000
      6          7           0        1.224295   -1.357495    0.000000
      7         16           0       -2.784231    0.826539    0.000000
      8         16           0        2.727524    0.857050    0.000000
      9          1           0       -2.088791   -1.955558    0.000000
     10          1           0        0.031617    1.791274    0.000000
     11          1           0        0.111277   -3.084243    0.000000
     12          1           0       -2.326622    2.090660    0.000000
     13          1           0        3.485210   -0.253177    0.000000
 ---------------------------------------------------------------------

 SCF Done:  E(RHF) =  -1041.90180286     A.U. after    2 cycles

 The electronic state is 1-A'.
 Alpha  occ. eigenvalues --  -93.56915 -93.55344 -15.63811 -11.33559 -11.31919
 Alpha  occ. eigenvalues --  -11.30201 -11.26428 -11.25830  -8.86706  -8.85186
 Alpha  occ. eigenvalues --   -6.20912  -6.20706  -6.20287  -6.19387  -6.19180
 Alpha  occ. eigenvalues --   -6.18775  -1.25411  -1.12023  -1.07029  -0.98594
 Alpha  occ. eigenvalues --   -0.96503  -0.86933  -0.81773  -0.70599  -0.70254
 Alpha  occ. eigenvalues --   -0.65490  -0.60158  -0.57680  -0.57660  -0.55082
 Alpha  occ. eigenvalues --   -0.49876  -0.49299  -0.46574  -0.42234  -0.41706
 Alpha  occ. eigenvalues --   -0.34914  -0.32985
 Alpha virt. eigenvalues --    0.03355   0.03839   0.04602   0.06110   0.06395
 Alpha virt. eigenvalues --    0.07365   0.08722   0.08978   0.09658   0.11056
 Alpha virt. eigenvalues --    0.11106   0.12030   0.12147   0.12893   0.13644

 Mulliken charges:
               1
     1  C    0.731154
     2  C    0.617319
     3  C    0.325783
     4  C   -0.533132
     5  C    0.052636
     6  N   -0.561236
     7  S    0.309411
     8  S    0.290670
     9  H   -0.477900
    10  H   -0.552163
    11  H   -0.323156
    12  H    0.033669
    13  H    0.086945
 Sum of Mulliken charges =   0.00000

 Dipole moment (field-independent basis, Debye):
    X=             -1.1674    Y=              0.2629    Z=              0.0000  Tot=              1.1966

 Test job not archived.
 1\1\GINC-SE223\SP\RHF\Aug-CC-pVDZ\C5H5N1S2\OHZDE\05-Apr-2025\0\\#t hf
 aug-cc-pvdz iop(5/13=1,5/36=2,99/5=2) pseudo=read geom=check guess=(re
 ad,tcheck) scf=(maxcycle=1)\\title\\0,1\C,0,-1.178117,-1.374042,0.\C,0
 ,0.,0.710936,0.\C,0,0.054673,-2.002123,0.\C,0,-1.206605,0.023456,0.\C,
 0,1.184142,-0.028878,0.\N,0,1.224295,-1.357495,0.\S,0,-2.784231,0.8265
 39,0.\S,0,2.727524,0.85705,0.\H,0,-2.088791,-1.955558,0.\H,0,0.031617,
 1.791274,0.\H,0,0.111277,-3.084243,0.\H,0,-2.326622,2.09066,0.\H,0,3.4
 8521,-0.253177,0.\\Version=ES64L-G16RevC.01\State=1-A'\HF=-1041.901802

 Normal termination of Gaussian 16 at Sat Apr  5 23:12:26 2025.
