 Gaussian 16, Revision C.01,

 ----------------------------------------------------------------------
 #t hf aug-cc-pvdz symm=none int=(grid=ultrafine) guess=(read,tcheck) s
 table=(opt,rrhf)
 ----------------------------------------------------------------------
 -----
 title
 -----
 Symbolic Z-matrix:
 Charge =  0 Multiplicity = 1

 SCF Done:  E(RHF) =  -262.682992513     A.U. after   13 cycles
 Normal termination of Gaussian 16 at Sat Apr  5 23:10:51 2025.
 Gaussian 16:  ES64L-G16RevC.01  3-Jul-2019

 ----------------------------------------------------------------------
 #t hf aug-cc-pvdz iop(5/13=1,5/36=2,99/5=2) pseudo=read geom=check gue
 ss=(read,tcheck) scf=(maxcycle=1)
 ----------------------------------------------------------------------
 -----
 title
 -----
 Structure from the checkpoint file:  "pyridazine.chk"
 Charge =  0 Multiplicity = 1

                         Standard orientation:
 ---------------------------------------------------------------------
 Center     Atomic      Atomic             Coordinates (Angstroms)
 Number     Number       Type             X           Y           Z
 ---------------------------------------------------------------------
      1          6           0        0.000000    0.688857    1.174003
      2          6           0       -0.000000   -0.688857    1.174003
      3          6           0        0.000000   -1.319429   -0.067431
      4          6           0        0.000000    1.319429   -0.067431
      5          1           0        0.000000    1.265199    2.088781
      6          1           0       -0.000000   -1.265199    2.088781
      7          1           0        0.000000   -2.398824   -0.151216
      8          1           0        0.000000    2.398824   -0.151216
      9          7           0        0.000000    0.664263   -1.225286
     10          7           0       -0.000000   -0.664263   -1.225286
 ---------------------------------------------------------------------

 SCF Done:  E(RHF) =  -262.758385459     A.U. after    2 cycles

 The electronic state is 1-A1.
 Alpha  occ. eigenvalues --  -15.67774 -15.67700 -11.29521 -11.29515 -11.28210
 Alpha  occ. eigenvalues --  -11.28087  -1.31050  -1.10462  -1.09967  -0.89739
 Alpha  occ. eigenvalues --   -0.88723  -0.73539  -0.70395  -0.66795  -0.60589
 Alpha  occ. eigenvalues --   -0.59172  -0.57945  -0.47858  -0.40599  -0.39839
 Alpha  occ. eigenvalues --   -0.38554
 Alpha virt. eigenvalues --    0.02550   0.03436   0.05023   0.05862   0.07312
 Alpha virt. eigenvalues --    0.08553   0.10595   0.10806   0.12366   0.12533
 Alpha virt. eigenvalues --    0.13230   0.13739   0.13803   0.14939   0.14992

 Mulliken charges:
               1
     1  C    0.510719
     2  C    0.510719
     3  C    0.596573
     4  C    0.596573
     5  H   -0.389227
     6  H   -0.389227
     7  H   -0.289715
     8  H   -0.289715
     9  N   -0.428350
    10  N   -0.428350
 Sum of Mulliken charges =  -0.00000

 Dipole moment (field-independent basis, Debye):
    X=              0.0000    Y=             -0.0000    Z=              4.2514  Tot=              4.2514

 Test job not archived.
 1\1\GINC-SE196\SP\RHF\Aug-CC-pVDZ\C4H4N2\OHZDE\05-Apr-2025\0\\#t hf au
 g-cc-pvdz iop(5/13=1,5/36=2,99/5=2) pseudo=read geom=check guess=(read
 ,tcheck) scf=(maxcycle=1)\\title\\0,1\C,0,0.,0.688857,1.174003\C,0,0.,
 -0.688857,1.174003\C,0,0.,-1.319429,-0.067431\C,0,0.,1.319429,-0.06743
 1\H,0,0.,1.265199,2.088781\H,0,0.,-1.265199,2.088781\H,0,0.,-2.398824,
 -0.151216\H,0,0.,2.398824,-0.151216\N,0,0.,0.664263,-1.225286\N,0,0.,-
 0.664263,-1.225286\\Version=ES64L-G16RevC.01\State=1-A1\HF=-262.758385
 5\RMSD=8.656e-03\Dipole=0.,0.,1.6726246\Quadrupole=-1.6376681,4.016691

 Normal termination of Gaussian 16 at Sat Apr  5 23:10:54 2025.
