 Gaussian 16, Revision C.01,

 ----------------------------------------------------------------------
 #t hf aug-cc-pvdz symm=none int=(grid=ultrafine) guess=(read,tcheck) s
 table=(opt,rrhf)
 ----------------------------------------------------------------------
 -----
 title
 -----
 Symbolic Z-matrix:
 Charge =  0 Multiplicity = 1

 SCF Done:  E(RHF) =  -354.460327953     A.U. after   15 cycles
 Normal termination of Gaussian 16 at Sat Apr  5 23:12:42 2025.
 Gaussian 16:  ES64L-G16RevC.01  3-Jul-2019

 ----------------------------------------------------------------------
 #t hf aug-cc-pvdz iop(5/13=1,5/36=2,99/5=2) pseudo=read geom=check gue
 ss=(read,tcheck) scf=(maxcycle=1)
 ----------------------------------------------------------------------
 -----
 title
 -----
 Structure from the checkpoint file:  "pyrimidine-2-carbonitrile.chk"
 Charge =  0 Multiplicity = 1

                         Standard orientation:
 ---------------------------------------------------------------------
 Center     Atomic      Atomic             Coordinates (Angstroms)
 Number     Number       Type             X           Y           Z
 ---------------------------------------------------------------------
      1          6           0        0.000000    0.000000    1.983144
      2          6           0        0.000000   -0.000000   -2.114003
      3          6           0        0.000000    1.182119   -1.386720
      4          6           0       -0.000000   -1.182119   -1.386720
      5          6           0        0.000000    0.000000    0.536531
      6          7           0        0.000000    0.000000    3.132944
      7          7           0        0.000000    1.194621   -0.055327
      8          7           0       -0.000000   -1.194621   -0.055327
      9          1           0        0.000000   -0.000000   -3.193985
     10          1           0        0.000000    2.147839   -1.877717
     11          1           0       -0.000000   -2.147839   -1.877717
 ---------------------------------------------------------------------

 SCF Done:  E(RHF) =  -354.561066780     A.U. after    2 cycles

 The electronic state is 1-A1.
 Alpha  occ. eigenvalues --  -15.67647 -15.67644 -15.65645 -11.38728 -11.33901
 Alpha  occ. eigenvalues --  -11.33900 -11.29829 -11.29054  -1.32765  -1.20544
 Alpha  occ. eigenvalues --   -1.20274  -1.10711  -0.95259  -0.92837  -0.80999
 Alpha  occ. eigenvalues --   -0.74509  -0.70618  -0.63862  -0.63012  -0.62495
 Alpha  occ. eigenvalues --   -0.56237  -0.51143  -0.49878  -0.48400  -0.45193
 Alpha  occ. eigenvalues --   -0.44312  -0.39873
 Alpha virt. eigenvalues --    0.01877   0.03295   0.04873   0.04907   0.05689
 Alpha virt. eigenvalues --    0.07164   0.07823   0.09237   0.10107   0.12078
 Alpha virt. eigenvalues --    0.12175   0.12861   0.13101   0.13424   0.13798

 Mulliken charges:
               1
     1  C   -0.642325
     2  C    0.561469
     3  C    0.620899
     4  C    0.620899
     5  C    0.790522
     6  N   -0.048725
     7  N   -0.468301
     8  N   -0.468301
     9  H   -0.349595
    10  H   -0.308270
    11  H   -0.308270
 Sum of Mulliken charges =  -0.00000

 Dipole moment (field-independent basis, Debye):
    X=              0.0000    Y=             -0.0000    Z=             -6.6068  Tot=              6.6068

 Test job not archived.
 1\1\GINC-SE108\SP\RHF\Aug-CC-pVDZ\C5H3N3\OHZDE\05-Apr-2025\0\\#t hf au
 g-cc-pvdz iop(5/13=1,5/36=2,99/5=2) pseudo=read geom=check guess=(read
 ,tcheck) scf=(maxcycle=1)\\title\\0,1\C,0,0.,0.,1.983144\C,0,0.,0.,-2.
 114003\C,0,0.,1.182119,-1.38672\C,0,0.,-1.182119,-1.38672\C,0,0.,0.,0.
 536531\N,0,0.,0.,3.132944\N,0,0.,1.194621,-0.055327\N,0,0.,-1.194621,-
 0.055327\H,0,0.,0.,-3.193985\H,0,0.,2.147839,-1.877717\H,0,0.,-2.14783
 9,-1.877717\\Version=ES64L-G16RevC.01\State=1-A1\HF=-354.5610668\RMSD=
 6.495e-03\Dipole=0.,0.,-2.5993176\Quadrupole=0.7566787,1.3513187,-2.10

 Normal termination of Gaussian 16 at Sat Apr  5 23:13:32 2025.
