 Gaussian 16, Revision C.01,

 ----------------------------------------------------------------------
 #t hf aug-cc-pvdz symm=none int=(grid=ultrafine) guess=(read,tcheck) s
 table=(opt,rrhf)
 ----------------------------------------------------------------------
 -----
 title
 -----
 Symbolic Z-matrix:
 Charge =  0 Multiplicity = 1

 SCF Done:  E(RHF) =  -284.919797451     A.U. after   13 cycles
 Normal termination of Gaussian 16 at Sat Apr  5 23:12:42 2025.
 Gaussian 16:  ES64L-G16RevC.01  3-Jul-2019

 ----------------------------------------------------------------------
 #t hf aug-cc-pvdz iop(5/13=1,5/36=2,99/5=2) pseudo=read geom=check gue
 ss=(read,tcheck) scf=(maxcycle=1)
 ----------------------------------------------------------------------
 -----
 title
 -----
 Structure from the checkpoint file:  "pyrrolidin-2-one.chk"
 Charge =  0 Multiplicity = 1

                         Standard orientation:
 ---------------------------------------------------------------------
 Center     Atomic      Atomic             Coordinates (Angstroms)
 Number     Number       Type             X           Y           Z
 ---------------------------------------------------------------------
      1          6           0       -0.903175    0.001036   -0.006994
      2          6           0        0.005478    1.220666    0.132987
      3          6           0        1.412127    0.693606   -0.180358
      4          6           0        1.324994   -0.815730    0.127683
      5          7           0       -0.088155   -1.094127   -0.072504
      6          8           0       -2.116544   -0.011504   -0.038990
      7          1           0       -0.330880    2.020914   -0.521866
      8          1           0       -0.083303    1.580279    1.160742
      9          1           0        1.635799    0.834612   -1.237813
     10          1           0        2.197405    1.180877    0.393609
     11          1           0        1.945173   -1.412323   -0.541075
     12          1           0        1.632814   -1.032529    1.156074
     13          1           0       -0.484123   -2.018367   -0.030135
 ---------------------------------------------------------------------

 SCF Done:  E(RHF) =  -285.007607786     A.U. after    2 cycles

 The electronic state is 1-A.
 Alpha  occ. eigenvalues --  -20.52947 -15.64647 -11.35733 -11.28843 -11.25349
 Alpha  occ. eigenvalues --  -11.24966  -1.34106  -1.21978  -1.05014  -0.97056
 Alpha  occ. eigenvalues --   -0.83666  -0.79107  -0.69416  -0.68296  -0.62893
 Alpha  occ. eigenvalues --   -0.59276  -0.58338  -0.56587  -0.55692  -0.51187
 Alpha  occ. eigenvalues --   -0.48949  -0.42477  -0.39276
 Alpha virt. eigenvalues --    0.02834   0.03983   0.04103   0.04955   0.06685
 Alpha virt. eigenvalues --    0.06848   0.07277   0.10079   0.11068   0.12916
 Alpha virt. eigenvalues --    0.13258   0.14146   0.14662   0.15025   0.15384

 Mulliken charges:
               1
     1  C    0.381815
     2  C    0.101786
     3  C    0.209711
     4  C    0.908880
     5  N   -0.380402
     6  O   -0.518088
     7  H   -0.023429
     8  H   -0.005666
     9  H   -0.141102
    10  H   -0.050165
    11  H   -0.155713
    12  H   -0.186676
    13  H   -0.140950
 Sum of Mulliken charges =  -0.00000

 Dipole moment (field-independent basis, Debye):
    X=              4.7771    Y=             -0.5086    Z=              0.3797  Tot=              4.8191

 Test job not archived.
 1\1\GINC-SE164\SP\RHF\Aug-CC-pVDZ\C4H7N1O1\OHZDE\05-Apr-2025\0\\#t hf
 aug-cc-pvdz iop(5/13=1,5/36=2,99/5=2) pseudo=read geom=check guess=(re
 ad,tcheck) scf=(maxcycle=1)\\title\\0,1\C,0,-0.903175,0.001036,-0.0069
 94\C,0,0.005478,1.220666,0.132987\C,0,1.412127,0.693606,-0.180358\C,0,
 1.324994,-0.81573,0.127683\N,0,-0.088155,-1.094127,-0.072504\O,0,-2.11
 6544,-0.011504,-0.03899\H,0,-0.33088,2.020914,-0.521866\H,0,-0.083303,
 1.580279,1.160742\H,0,1.635799,0.834612,-1.237813\H,0,2.197405,1.18087
 7,0.393609\H,0,1.945173,-1.412323,-0.541075\H,0,1.632814,-1.032529,1.1

 Normal termination of Gaussian 16 at Sat Apr  5 23:13:32 2025.
