 Gaussian 16, Revision C.01,

 ----------------------------------------------------------------------
 #t hf aug-cc-pvdz symm=none int=(grid=ultrafine) guess=(read,tcheck) s
 table=(opt,rrhf)
 ----------------------------------------------------------------------
 -----
 title
 -----
 Symbolic Z-matrix:
 Charge =  0 Multiplicity = 1

 SCF Done:  E(RHF) =  -211.174100908     A.U. after   11 cycles
 Normal termination of Gaussian 16 at Sat Apr  5 23:11:34 2025.
 Gaussian 16:  ES64L-G16RevC.01  3-Jul-2019

 ----------------------------------------------------------------------
 #t hf aug-cc-pvdz iop(5/13=1,5/36=2,99/5=2) pseudo=read geom=check gue
 ss=(read,tcheck) scf=(maxcycle=1)
 ----------------------------------------------------------------------
 -----
 title
 -----
 Structure from the checkpoint file:  "pyrrolidine.chk"
 Charge =  0 Multiplicity = 1

                         Standard orientation:
 ---------------------------------------------------------------------
 Center     Atomic      Atomic             Coordinates (Angstroms)
 Number     Number       Type             X           Y           Z
 ---------------------------------------------------------------------
      1          6           0        0.098831    1.023382    0.776623
      2          6           0        0.098831    1.023382   -0.776623
      3          6           0        0.098831   -0.465440    1.163404
      4          6           0        0.098831   -0.465440   -1.163404
      5          7           0       -0.516767   -1.106166    0.000000
      6          1           0        0.959997    1.544372    1.192744
      7          1           0       -0.795896    1.513765    1.157193
      8          1           0       -0.795896    1.513765   -1.157193
      9          1           0        0.959997    1.544372   -1.192744
     10          1           0        1.132013   -0.807155    1.332694
     11          1           0       -0.473545   -0.671624    2.067900
     12          1           0       -0.473545   -0.671624   -2.067900
     13          1           0        1.132013   -0.807155   -1.332694
     14          1           0       -0.399708   -2.110863    0.000000
 ---------------------------------------------------------------------

 SCF Done:  E(RHF) =  -211.239004037     A.U. after    2 cycles

 The electronic state is 1-A'.
 Alpha  occ. eigenvalues --  -15.59981 -11.25094 -11.25093 -11.22401 -11.22358
 Alpha  occ. eigenvalues --   -1.18694  -1.00796  -0.96703  -0.80106  -0.78137
 Alpha  occ. eigenvalues --   -0.68687  -0.65731  -0.58830  -0.55560  -0.51297
 Alpha  occ. eigenvalues --   -0.51210  -0.48182  -0.47442  -0.45758  -0.35985
 Alpha virt. eigenvalues --    0.03586   0.04579   0.04589   0.04823   0.06842
 Alpha virt. eigenvalues --    0.07156   0.07191   0.07389   0.09434   0.11639
 Alpha virt. eigenvalues --    0.13501   0.14127   0.14895   0.15231   0.15688

 Mulliken charges:
               1
     1  C    0.129794
     2  C    0.129794
     3  C    0.785447
     4  C    0.785447
     5  N   -0.642474
     6  H   -0.090649
     7  H   -0.116978
     8  H   -0.116978
     9  H   -0.090649
    10  H   -0.157169
    11  H   -0.203988
    12  H   -0.203988
    13  H   -0.157169
    14  H   -0.050443
 Sum of Mulliken charges =  -0.00000

 Dipole moment (field-independent basis, Debye):
    X=              1.0306    Y=             -0.2055    Z=              0.0000  Tot=              1.0509

 Test job not archived.
 1\1\GINC-SE013\SP\RHF\Aug-CC-pVDZ\C4H9N1\OHZDE\05-Apr-2025\0\\#t hf au
 g-cc-pvdz iop(5/13=1,5/36=2,99/5=2) pseudo=read geom=check guess=(read
 ,tcheck) scf=(maxcycle=1)\\title\\0,1\C,0,0.098831,1.023382,0.776623\C
 ,0,0.098831,1.023382,-0.776623\C,0,0.098831,-0.46544,1.163404\C,0,0.09
 8831,-0.46544,-1.163404\N,0,-0.516767,-1.106166,0.\H,0,0.959997,1.5443
 72,1.192744\H,0,-0.795896,1.513765,1.157193\H,0,-0.795896,1.513765,-1.
 157193\H,0,0.959997,1.544372,-1.192744\H,0,1.132013,-0.807155,1.332694
 \H,0,-0.473545,-0.671624,2.0679\H,0,-0.473545,-0.671624,-2.0679\H,0,1.

 Normal termination of Gaussian 16 at Sat Apr  5 23:12:23 2025.
