 Gaussian 16, Revision C.01,

 ----------------------------------------------------------------------
 #t hf aug-cc-pvdz symm=none int=(grid=ultrafine) guess=(read,tcheck) s
 table=(opt,rrhf)
 ----------------------------------------------------------------------
 -----
 title
 -----
 Symbolic Z-matrix:
 Charge =  0 Multiplicity = 1

 SCF Done:  E(RHF) =  -1077.52678064     A.U. after   17 cycles
 Normal termination of Gaussian 16 at Sat Apr  5 23:11:41 2025.
 Gaussian 16:  ES64L-G16RevC.01  3-Jul-2019

 ----------------------------------------------------------------------
 #t hf aug-cc-pvdz iop(5/13=1,5/36=2,99/5=2) pseudo=read geom=check gue
 ss=(read,tcheck) scf=(maxcycle=1)
 ----------------------------------------------------------------------
 -----
 title
 -----
 Structure from the checkpoint file:  "pyrrolo-1-2-oxadithiazole.chk"
 Charge =  0 Multiplicity = 1

                         Standard orientation:
 ---------------------------------------------------------------------
 Center     Atomic      Atomic             Coordinates (Angstroms)
 Number     Number       Type             X           Y           Z
 ---------------------------------------------------------------------
      1         16           0       -1.051061    1.281881   -0.283900
      2         16           0       -1.895278   -0.532601    0.338547
      3          8           0       -0.614494   -1.427165   -0.363889
      4          7           0        0.475661    0.575388    0.138694
      5          6           0        0.558745   -0.776721   -0.091504
      6          6           0        1.756359    1.099948    0.219774
      7          6           0        1.870920   -1.154035   -0.105040
      8          6           0        2.624545    0.047815    0.089137
      9          1           0        1.921997    2.142592    0.418071
     10          1           0        2.246994   -2.155899   -0.208071
     11          1           0        3.695337    0.112379    0.181703
 ---------------------------------------------------------------------

 SCF Done:  E(RHF) =  -1077.65827629     A.U. after    2 cycles

 The electronic state is 1-A.
 Alpha  occ. eigenvalues --  -93.64145 -93.62686 -20.65519 -15.70480 -11.34891
 Alpha  occ. eigenvalues --  -11.28057 -11.24376 -11.23690  -8.93104  -8.91919
 Alpha  occ. eigenvalues --   -6.27194  -6.26971  -6.26453  -6.26037  -6.25839
 Alpha  occ. eigenvalues --   -6.25313  -1.41207  -1.27966  -1.10728  -1.00443
 Alpha  occ. eigenvalues --   -0.98315  -0.88402  -0.81106  -0.77581  -0.71786
 Alpha  occ. eigenvalues --   -0.67331  -0.64519  -0.61706  -0.59634  -0.56937
 Alpha  occ. eigenvalues --   -0.56692  -0.54567  -0.48675  -0.46005  -0.38554
 Alpha  occ. eigenvalues --   -0.34228  -0.30928
 Alpha virt. eigenvalues --    0.03533   0.03975   0.04693   0.05320   0.05632
 Alpha virt. eigenvalues --    0.07720   0.08934   0.09460   0.11256   0.11893
 Alpha virt. eigenvalues --    0.12336   0.12738   0.13648   0.14417   0.14450

 Mulliken charges:
               1
     1  S    0.405483
     2  S    0.391710
     3  O   -0.778597
     4  N   -0.455807
     5  C    0.123268
     6  C    0.458785
     7  C    0.519568
     8  C    0.327292
     9  H   -0.350440
    10  H   -0.320449
    11  H   -0.320812
 Sum of Mulliken charges =  -0.00000

 Dipole moment (field-independent basis, Debye):
    X=             -0.1280    Y=              1.3564    Z=              0.5386  Tot=              1.4650

 Test job not archived.
 1\1\GINC-SE084\SP\RHF\Aug-CC-pVDZ\C4H3N1O1S2\OHZDE\05-Apr-2025\0\\#t h
 f aug-cc-pvdz iop(5/13=1,5/36=2,99/5=2) pseudo=read geom=check guess=(
 read,tcheck) scf=(maxcycle=1)\\title\\0,1\S,0,-1.051061,1.281881,-0.28
 39\S,0,-1.895278,-0.532601,0.338547\O,0,-0.614494,-1.427165,-0.363889\
 N,0,0.475661,0.575388,0.138694\C,0,0.558745,-0.776721,-0.091504\C,0,1.
 756359,1.099948,0.219774\C,0,1.87092,-1.154035,-0.10504\C,0,2.624545,0
 .047815,0.089137\H,0,1.921997,2.142592,0.418071\H,0,2.246994,-2.155899
 ,-0.208071\H,0,3.695337,0.112379,0.181703\\Version=ES64L-G16RevC.01\St

 Normal termination of Gaussian 16 at Sat Apr  5 23:12:27 2025.
