 Gaussian 16, Revision C.01,

 ----------------------------------------------------------------------
 #t hf aug-cc-pvdz symm=none int=(grid=ultrafine) guess=(read,tcheck) s
 table=(opt,rrhf)
 ----------------------------------------------------------------------
 -----
 title
 -----
 Symbolic Z-matrix:
 Charge =  0 Multiplicity = 1

 SCF Done:  E(RHF) =  -302.908305846     A.U. after   14 cycles
 Normal termination of Gaussian 16 at Sat Apr  5 23:11:52 2025.
 Gaussian 16:  ES64L-G16RevC.01  3-Jul-2019

 ----------------------------------------------------------------------
 #t hf aug-cc-pvdz iop(5/13=1,5/36=2,99/5=2) pseudo=read geom=check gue
 ss=(read,tcheck) scf=(maxcycle=1)
 ----------------------------------------------------------------------
 -----
 title
 -----
 Structure from the checkpoint file:  "pyrrolidine-1-carbonitrile.chk"
 Charge =  0 Multiplicity = 1

                         Standard orientation:
 ---------------------------------------------------------------------
 Center     Atomic      Atomic             Coordinates (Angstroms)
 Number     Number       Type             X           Y           Z
 ---------------------------------------------------------------------
      1          1           0        0.006474   -0.227339    2.044374
      2          1           0       -1.635546   -0.354899    1.408749
      3          6           0       -0.624771   -0.007610    1.187918
      4          1           0        0.006474   -0.227339   -2.044374
      5          1           0       -1.635546   -0.354899   -1.408749
      6          6           0       -0.624771   -0.007610   -1.187918
      7          1           0       -1.486817    2.000076   -1.189456
      8          1           0        0.267197    1.975221   -1.154715
      9          6           0       -0.624771    1.478937   -0.776179
     10          1           0       -1.486817    2.000076    1.189456
     11          1           0        0.267197    1.975221    1.154715
     12          6           0       -0.624771    1.478937    0.776179
     13          7           0       -0.139113   -0.737456    0.000000
     14          6           0        1.096623   -1.229239   -0.000000
     15          7           0        2.155136   -1.700631   -0.000000
 ---------------------------------------------------------------------

 SCF Done:  E(RHF) =  -302.999545947     A.U. after    2 cycles

 The electronic state is 1-A'.
 Alpha  occ. eigenvalues --  -15.67443 -15.61533 -11.30646 -11.29428 -11.29427
 Alpha  occ. eigenvalues --  -11.25451 -11.25407  -1.27063  -1.16580  -1.06023
 Alpha  occ. eigenvalues --   -1.01078  -0.89263  -0.82372  -0.74534  -0.69174
 Alpha  occ. eigenvalues --   -0.64016  -0.63285  -0.57584  -0.56906  -0.53132
 Alpha  occ. eigenvalues --   -0.51994  -0.51375  -0.50582  -0.49232  -0.44179
 Alpha  occ. eigenvalues --   -0.36926
 Alpha virt. eigenvalues --    0.02597   0.03827   0.03938   0.05035   0.06244
 Alpha virt. eigenvalues --    0.06535   0.06792   0.08872   0.09139   0.09887
 Alpha virt. eigenvalues --    0.12660   0.12935   0.13153   0.14312   0.14341

 Mulliken charges:
               1
     1  H   -0.199682
     2  H   -0.180264
     3  C    0.828082
     4  H   -0.199682
     5  H   -0.180264
     6  C    0.828082
     7  H   -0.083576
     8  H   -0.117433
     9  C    0.227196
    10  H   -0.083576
    11  H   -0.117433
    12  C    0.227196
    13  N   -0.273004
    14  C   -0.507267
    15  N   -0.168373
 Sum of Mulliken charges =  -0.00000

 Dipole moment (field-independent basis, Debye):
    X=             -4.2734    Y=              3.4172    Z=             -0.0000  Tot=              5.4717

 Test job not archived.
 1\1\GINC-SE183\SP\RHF\Aug-CC-pVDZ\C5H8N2\OHZDE\05-Apr-2025\0\\#t hf au
 g-cc-pvdz iop(5/13=1,5/36=2,99/5=2) pseudo=read geom=check guess=(read
 ,tcheck) scf=(maxcycle=1)\\title\\0,1\H,0,0.006474,-0.227339,2.044374\
 H,0,-1.635546,-0.354899,1.408749\C,0,-0.624771,-0.00761,1.187918\H,0,0
 .006474,-0.227339,-2.044374\H,0,-1.635546,-0.354899,-1.408749\C,0,-0.6
 24771,-0.00761,-1.187918\H,0,-1.486817,2.000076,-1.189456\H,0,0.267197
 ,1.975221,-1.154715\C,0,-0.624771,1.478937,-0.776179\H,0,-1.486817,2.0
 00076,1.189456\H,0,0.267197,1.975221,1.154715\C,0,-0.624771,1.478937,0

 Normal termination of Gaussian 16 at Sat Apr  5 23:12:24 2025.
