 Gaussian 16, Revision C.01,

 ----------------------------------------------------------------------
 #t hf aug-cc-pvdz symm=none int=(grid=ultrafine) guess=(read,tcheck) s
 table=(opt,rrhf)
 ----------------------------------------------------------------------
 -----
 title
 -----
 Symbolic Z-matrix:
 Charge =  0 Multiplicity = 1

 SCF Done:  E(RHF) =  -208.838608894     A.U. after   13 cycles
 Normal termination of Gaussian 16 at Sat Apr  5 23:11:24 2025.
 Gaussian 16:  ES64L-G16RevC.01  3-Jul-2019

 ----------------------------------------------------------------------
 #t hf aug-cc-pvdz iop(5/13=1,5/36=2,99/5=2) pseudo=read geom=check gue
 ss=(read,tcheck) scf=(maxcycle=1)
 ----------------------------------------------------------------------
 -----
 title
 -----
 Structure from the checkpoint file:  "pyrrole.chk"
 Charge =  0 Multiplicity = 1

                         Standard orientation:
 ---------------------------------------------------------------------
 Center     Atomic      Atomic             Coordinates (Angstroms)
 Number     Number       Type             X           Y           Z
 ---------------------------------------------------------------------
      1          6           0        0.000000    0.710696   -0.980035
      2          6           0       -0.000000   -0.710696   -0.980035
      3          6           0        0.000000    1.121982    0.330484
      4          6           0       -0.000000   -1.121982    0.330484
      5          7           0        0.000000    0.000000    1.118833
      6          1           0        0.000000    1.356378   -1.841340
      7          1           0       -0.000000   -1.356378   -1.841340
      8          1           0        0.000000    2.107246    0.761724
      9          1           0       -0.000000   -2.107246    0.761724
     10          1           0        0.000000    0.000000    2.121999
 ---------------------------------------------------------------------

 SCF Done:  E(RHF) =  -208.902268385     A.U. after    2 cycles

 The electronic state is 1-A1.
 Alpha  occ. eigenvalues --  -15.66981 -11.26246 -11.26237 -11.21892 -11.21799
 Alpha  occ. eigenvalues --   -1.26095  -1.03183  -0.97409  -0.79251  -0.76840
 Alpha  occ. eigenvalues --   -0.73861  -0.59581  -0.58522  -0.56675  -0.55178
 Alpha  occ. eigenvalues --   -0.53283  -0.34675  -0.30084
 Alpha virt. eigenvalues --    0.03117   0.04048   0.04414   0.06223   0.06672
 Alpha virt. eigenvalues --    0.09693   0.12301   0.12836   0.14007   0.14460
 Alpha virt. eigenvalues --    0.14698   0.14773   0.15309   0.15354   0.16713

 Mulliken charges:
               1
     1  C    0.354147
     2  C    0.354147
     3  C    0.496065
     4  C    0.496065
     5  N   -0.346711
     6  H   -0.331234
     7  H   -0.331234
     8  H   -0.298126
     9  H   -0.298126
    10  H   -0.094992
 Sum of Mulliken charges =  -0.00000

 Dipole moment (field-independent basis, Debye):
    X=              0.0000    Y=              0.0000    Z=              1.9302  Tot=              1.9302

 Test job not archived.
 1\1\GINC-SE158\SP\RHF\Aug-CC-pVDZ\C4H5N1\OHZDE\05-Apr-2025\0\\#t hf au
 g-cc-pvdz iop(5/13=1,5/36=2,99/5=2) pseudo=read geom=check guess=(read
 ,tcheck) scf=(maxcycle=1)\\title\\0,1\C,0,0.,0.710696,-0.980035\C,0,0.
 ,-0.710696,-0.980035\C,0,0.,1.121982,0.330484\C,0,0.,-1.121982,0.33048
 4\N,0,0.,0.,1.118833\H,0,0.,1.356378,-1.84134\H,0,0.,-1.356378,-1.8413
 4\H,0,0.,2.107246,0.761724\H,0,0.,-2.107246,0.761724\H,0,0.,0.,2.12199
 9\\Version=ES64L-G16RevC.01\State=1-A1\HF=-208.9022684\RMSD=8.380e-03\
 Dipole=0.,0.,0.759418\Quadrupole=-4.6807589,1.1726699,3.508089,0.,0.,0

 Normal termination of Gaussian 16 at Sat Apr  5 23:12:23 2025.
