 Gaussian 16, Revision C.01,

 ----------------------------------------------------------------------
 #t hf aug-cc-pvdz symm=none int=(grid=ultrafine) guess=(read,tcheck) s
 table=(opt,rrhf)
 ----------------------------------------------------------------------
 -----
 title
 -----
 Symbolic Z-matrix:
 Charge =  0 Multiplicity = 1

 SCF Done:  E(RHF) =  -269.645425006     A.U. after   12 cycles
 Normal termination of Gaussian 16 at Sat Apr  5 23:11:50 2025.
 Gaussian 16:  ES64L-G16RevC.01  3-Jul-2019

 ----------------------------------------------------------------------
 #t hf aug-cc-pvdz iop(5/13=1,5/36=2,99/5=2) pseudo=read geom=check gue
 ss=(read,tcheck) scf=(maxcycle=1)
 ----------------------------------------------------------------------
 -----
 title
 -----
 Structure from the checkpoint file:  "quadricyclane.chk"
 Charge =  0 Multiplicity = 1

                         Standard orientation:
 ---------------------------------------------------------------------
 Center     Atomic      Atomic             Coordinates (Angstroms)
 Number     Number       Type             X           Y           Z
 ---------------------------------------------------------------------
      1          6           0       -0.756547    0.773373   -0.707390
      2          6           0        0.756547    0.773373   -0.707390
      3          6           0        0.000000    1.149648    0.549230
      4          6           0       -0.756547   -0.773373   -0.707390
      5          6           0        0.756547   -0.773373   -0.707390
      6          6           0       -0.000000   -1.149648    0.549230
      7          6           0       -0.000000   -0.000000    1.534441
      8          1           0       -1.443256    1.422663   -1.227100
      9          1           0        1.443256    1.422663   -1.227100
     10          1           0        0.000000    2.180720    0.872633
     11          1           0       -1.443256   -1.422663   -1.227100
     12          1           0        1.443256   -1.422663   -1.227100
     13          1           0       -0.000000   -2.180720    0.872633
     14          1           0        0.887300   -0.000000    2.171546
     15          1           0       -0.887300    0.000000    2.171546
 ---------------------------------------------------------------------

 SCF Done:  E(RHF) =  -269.723762825     A.U. after    2 cycles

 The electronic state is 1-A1.
 Alpha  occ. eigenvalues --  -11.23494 -11.23492 -11.23410 -11.23388 -11.23386
 Alpha  occ. eigenvalues --  -11.23339 -11.22579  -1.23062  -1.04097  -0.98410
 Alpha  occ. eigenvalues --   -0.86425  -0.77189  -0.75649  -0.72076  -0.71509
 Alpha  occ. eigenvalues --   -0.60255  -0.59387  -0.58975  -0.54215  -0.49227
 Alpha  occ. eigenvalues --   -0.48684  -0.44166  -0.40232  -0.39107  -0.33575
 Alpha virt. eigenvalues --    0.03445   0.04114   0.04331   0.04652   0.06195
 Alpha virt. eigenvalues --    0.06318   0.06729   0.06824   0.10459   0.12542
 Alpha virt. eigenvalues --    0.12668   0.12673   0.13778   0.14205   0.14752

 Mulliken charges:
               1
     1  C    0.349317
     2  C    0.349317
     3  C    0.475333
     4  C    0.349317
     5  C    0.349317
     6  C    0.475333
     7  C    0.326872
     8  H   -0.428202
     9  H   -0.428202
    10  H   -0.414165
    11  H   -0.428202
    12  H   -0.428202
    13  H   -0.414165
    14  H   -0.066832
    15  H   -0.066832
 Sum of Mulliken charges =  -0.00000

 Dipole moment (field-independent basis, Debye):
    X=              0.0000    Y=              0.0000    Z=             -0.0280  Tot=              0.0280

 Test job not archived.
 1\1\GINC-SE145\SP\RHF\Aug-CC-pVDZ\C7H8\OHZDE\05-Apr-2025\0\\#t hf aug-
 cc-pvdz iop(5/13=1,5/36=2,99/5=2) pseudo=read geom=check guess=(read,t
 check) scf=(maxcycle=1)\\title\\0,1\C,0,-0.756547,0.773373,-0.70739\C,
 0,0.756547,0.773373,-0.70739\C,0,0.,1.149648,0.54923\C,0,-0.756547,-0.
 773373,-0.70739\C,0,0.756547,-0.773373,-0.70739\C,0,0.,-1.149648,0.549
 23\C,0,0.,0.,1.534441\H,0,-1.443256,1.422663,-1.2271\H,0,1.443256,1.42
 2663,-1.2271\H,0,0.,2.18072,0.872633\H,0,-1.443256,-1.422663,-1.2271\H
 ,0,1.443256,-1.422663,-1.2271\H,0,0.,-2.18072,0.872633\H,0,0.8873,0.,2

 Normal termination of Gaussian 16 at Sat Apr  5 23:12:28 2025.
