 Gaussian 16, Revision C.01,

 ----------------------------------------------------------------------
 #t hf aug-cc-pvdz symm=none int=(grid=ultrafine) guess=(read,tcheck) s
 table=(opt,rrhf)
 ----------------------------------------------------------------------
 -----
 title
 -----
 Symbolic Z-matrix:
 Charge =  0 Multiplicity = 1

 SCF Done:  E(RHF) =  -399.392455679     A.U. after   17 cycles
 Normal termination of Gaussian 16 at Sat Apr  5 23:12:52 2025.
 Gaussian 16:  ES64L-G16RevC.01  3-Jul-2019

 ----------------------------------------------------------------------
 #t hf aug-cc-pvdz iop(5/13=1,5/36=2,99/5=2) pseudo=read geom=check gue
 ss=(read,tcheck) scf=(maxcycle=1)
 ----------------------------------------------------------------------
 -----
 title
 -----
 Structure from the checkpoint file:  "quinoline.chk"
 Charge =  0 Multiplicity = 1

                         Standard orientation:
 ---------------------------------------------------------------------
 Center     Atomic      Atomic             Coordinates (Angstroms)
 Number     Number       Type             X           Y           Z
 ---------------------------------------------------------------------
      1          6           0        0.000000    0.703651    0.000000
      2          7           0       -1.128178    1.465945   -0.000000
      3          6           0        1.258493    1.350388    0.000000
      4          6           0       -2.286918    0.851830   -0.000000
      5          6           0       -2.438097   -0.553100   -0.000000
      6          6           0       -1.316052   -1.335881   -0.000000
      7          6           0       -0.043208   -0.722482   -0.000000
      8          6           0        2.416244    0.616895    0.000000
      9          6           0        2.373746   -0.794928    0.000000
     10          6           0        1.170348   -1.450387    0.000000
     11          1           0       -3.428480   -0.986603   -0.000000
     12          1           0       -3.168814    1.484250   -0.000000
     13          1           0        3.297826   -1.356965    0.000000
     14          1           0        3.374149    1.119515    0.000000
     15          1           0       -1.387749   -2.416474   -0.000000
     16          1           0        1.132723   -2.532563    0.000000
     17          1           0        1.270259    2.431307    0.000000
 ---------------------------------------------------------------------

 SCF Done:  E(RHF) =  -399.506962417     A.U. after    2 cycles

 The electronic state is 1-A'.
 Alpha  occ. eigenvalues --  -15.62938 -11.28964 -11.28472 -11.27036 -11.25808
 Alpha  occ. eigenvalues --  -11.25424 -11.25276 -11.25222 -11.24986 -11.24409
 Alpha  occ. eigenvalues --   -1.23712  -1.13752  -1.08718  -1.01893  -1.00642
 Alpha  occ. eigenvalues --   -0.87973  -0.86176  -0.82651  -0.73171  -0.71283
 Alpha  occ. eigenvalues --   -0.70224  -0.63597  -0.62129  -0.60578  -0.58516
 Alpha  occ. eigenvalues --   -0.57732  -0.56390  -0.51945  -0.50840  -0.47152
 Alpha  occ. eigenvalues --   -0.41623  -0.41167  -0.33067  -0.31435
 Alpha virt. eigenvalues --    0.03091   0.03411   0.04114   0.05205   0.05471
 Alpha virt. eigenvalues --    0.06112   0.07095   0.07747   0.08990   0.09605
 Alpha virt. eigenvalues --    0.10398   0.11840   0.12149   0.12885   0.13484

 Mulliken charges:
               1
     1  C   -0.749814
     2  N   -0.467688
     3  C    1.238940
     4  C    0.484850
     5  C    0.500487
     6  C    0.341241
     7  C    0.678838
     8  C    0.382705
     9  C    0.424305
    10  C    0.561225
    11  H   -0.412994
    12  H   -0.389026
    13  H   -0.462883
    14  H   -0.440083
    15  H   -0.555901
    16  H   -0.578243
    17  H   -0.555960
 Sum of Mulliken charges =  -0.00000

 Dipole moment (field-independent basis, Debye):
    X=             -0.0655    Y=             -2.1096    Z=             -0.0000  Tot=              2.1106

 Test job not archived.
 1\1\GINC-SE180\SP\RHF\Aug-CC-pVDZ\C9H7N1\OHZDE\05-Apr-2025\0\\#t hf au
 g-cc-pvdz iop(5/13=1,5/36=2,99/5=2) pseudo=read geom=check guess=(read
 ,tcheck) scf=(maxcycle=1)\\title\\0,1\C,0,0.,0.703651,0.\N,0,-1.128178
 ,1.465945,0.\C,0,1.258493,1.350388,0.\C,0,-2.286918,0.85183,0.\C,0,-2.
 438097,-0.5531,0.\C,0,-1.316052,-1.335881,0.\C,0,-0.043208,-0.722482,0
 .\C,0,2.416244,0.616895,0.\C,0,2.373746,-0.794928,0.\C,0,1.170348,-1.4
 50387,0.\H,0,-3.42848,-0.986603,0.\H,0,-3.168814,1.48425,0.\H,0,3.2978
 26,-1.356965,0.\H,0,3.374149,1.119515,0.\H,0,-1.387749,-2.416474,0.\H,

 Normal termination of Gaussian 16 at Sat Apr  5 23:13:38 2025.
