 Gaussian 16, Revision C.01,

 ----------------------------------------------------------------------
 #t hf aug-cc-pvdz symm=none int=(grid=ultrafine) guess=(read,tcheck) s
 table=(opt,rrhf)
 ----------------------------------------------------------------------
 -----
 title
 -----
 Symbolic Z-matrix:
 Charge =  0 Multiplicity = 1

 SCF Done:  E(RHF) =  -474.251888092     A.U. after   17 cycles
 Normal termination of Gaussian 16 at Sat Apr  5 23:13:28 2025.
 Gaussian 16:  ES64L-G16RevC.01  3-Jul-2019

 ----------------------------------------------------------------------
 #t hf aug-cc-pvdz iop(5/13=1,5/36=2,99/5=2) pseudo=read geom=check gue
 ss=(read,tcheck) scf=(maxcycle=1)
 ----------------------------------------------------------------------
 -----
 title
 -----
 Structure from the checkpoint file:  "quinolizin-4-one.chk"
 Charge =  0 Multiplicity = 1

                         Standard orientation:
 ---------------------------------------------------------------------
 Center     Atomic      Atomic             Coordinates (Angstroms)
 Number     Number       Type             X           Y           Z
 ---------------------------------------------------------------------
      1          6           0        2.686397   -0.273423    0.000000
      2          6           0       -1.985692   -1.496840    0.000000
      3          6           0        1.738403   -1.247443    0.000000
      4          6           0       -2.345922   -0.171173    0.000000
      5          6           0        2.286782    1.088691    0.000000
      6          6           0       -0.649162   -1.894413    0.000000
      7          6           0        0.967175    1.392721    0.000000
      8          6           0        0.349704   -0.934931    0.000000
      9          6           0       -1.385928    0.877094    0.000000
     10          7           0        0.000000    0.414424    0.000000
     11          8           0       -1.598323    2.082097    0.000000
     12          1           0        3.736243   -0.531123    0.000000
     13          1           0       -2.760365   -2.253012    0.000000
     14          1           0        2.008742   -2.293605    0.000000
     15          1           0       -3.380584    0.135968    0.000000
     16          1           0        3.014750    1.885443    0.000000
     17          1           0       -0.368673   -2.936075    0.000000
     18          1           0        0.565929    2.392966    0.000000
 ---------------------------------------------------------------------

 SCF Done:  E(RHF) =  -474.392627391     A.U. after    2 cycles

 The electronic state is 1-A'.
 Alpha  occ. eigenvalues --  -20.52881 -15.71667 -11.36753 -11.33159 -11.31106
 Alpha  occ. eigenvalues --  -11.28631 -11.27765 -11.26992 -11.26211 -11.23854
 Alpha  occ. eigenvalues --  -11.23427  -1.35138  -1.27729  -1.13211  -1.11147
 Alpha  occ. eigenvalues --   -1.04999  -0.98999  -0.89712  -0.88952  -0.85243
 Alpha  occ. eigenvalues --   -0.75225  -0.72861  -0.71867  -0.67525  -0.64984
 Alpha  occ. eigenvalues --   -0.63560  -0.63447  -0.62952  -0.59352  -0.56602
 Alpha  occ. eigenvalues --   -0.54311  -0.53296  -0.52972  -0.46460  -0.44449
 Alpha  occ. eigenvalues --   -0.43207  -0.37321  -0.27670
 Alpha virt. eigenvalues --    0.02533   0.03161   0.04157   0.05257   0.05557
 Alpha virt. eigenvalues --    0.05708   0.07227   0.07354   0.07667   0.08747
 Alpha virt. eigenvalues --    0.10354   0.11370   0.11474   0.12420   0.13197

 Mulliken charges:
               1
     1  C   -0.536500
     2  C   -0.689419
     3  C    1.507565
     4  C    1.161521
     5  C    0.466875
     6  C    1.507446
     7  C    0.943528
     8  C   -0.245973
     9  C    0.462860
    10  N   -0.647285
    11  O   -0.543983
    12  H   -0.416414
    13  H   -0.416390
    14  H   -0.546178
    15  H   -0.498674
    16  H   -0.429089
    17  H   -0.547258
    18  H   -0.532633
 Sum of Mulliken charges =  -0.00000

 Dipole moment (field-independent basis, Debye):
    X=              3.5024    Y=             -3.6269    Z=              0.0000  Tot=              5.0419

 Test job not archived.
 1\1\GINC-SE190\SP\RHF\Aug-CC-pVDZ\C9H7N1O1\OHZDE\05-Apr-2025\0\\#t hf
 aug-cc-pvdz iop(5/13=1,5/36=2,99/5=2) pseudo=read geom=check guess=(re
 ad,tcheck) scf=(maxcycle=1)\\title\\0,1\C,0,2.686397,-0.273422,0.\C,0,
 -1.985691,-1.496841,0.\C,0,1.738404,-1.247442,0.\C,0,-2.345922,-0.1711
 74,0.\C,0,2.286782,1.088692,0.\C,0,-0.649161,-1.894413,0.\C,0,0.967175
 ,1.392721,0.\C,0,0.349704,-0.934931,0.\C,0,-1.385928,0.877093,0.\N,0,0
 .,0.414424,0.\O,0,-1.598324,2.082096,0.\H,0,3.736243,-0.531122,0.\H,0,
 -2.760364,-2.253013,0.\H,0,2.008743,-2.293604,0.\H,0,-3.380584,0.13596

 Normal termination of Gaussian 16 at Sat Apr  5 23:13:47 2025.
