 Gaussian 16, Revision C.01,

 ----------------------------------------------------------------------
 #t hf aug-cc-pvdz symm=none int=(grid=ultrafine) guess=(read,tcheck) s
 table=(opt,rrhf)
 ----------------------------------------------------------------------
 -----
 title
 -----
 Symbolic Z-matrix:
 Charge =  0 Multiplicity = 1

 SCF Done:  E(RHF) =  -415.385362536     A.U. after   15 cycles
 Normal termination of Gaussian 16 at Sat Apr  5 23:12:38 2025.
 Gaussian 16:  ES64L-G16RevC.01  3-Jul-2019

 ----------------------------------------------------------------------
 #t hf aug-cc-pvdz iop(5/13=1,5/36=2,99/5=2) pseudo=read geom=check gue
 ss=(read,tcheck) scf=(maxcycle=1)
 ----------------------------------------------------------------------
 -----
 title
 -----
 Structure from the checkpoint file:  "quinoxaline.chk"
 Charge =  0 Multiplicity = 1

                         Standard orientation:
 ---------------------------------------------------------------------
 Center     Atomic      Atomic             Coordinates (Angstroms)
 Number     Number       Type             X           Y           Z
 ---------------------------------------------------------------------
      1          6           0        0.000000    0.706926    2.368951
      2          6           0       -0.000000   -0.706926    2.368951
      3          6           0        0.000000    1.406054    1.190448
      4          6           0       -0.000000   -1.406054    1.190448
      5          6           0        0.000000    0.708403   -2.312800
      6          6           0       -0.000000   -0.708403   -2.312800
      7          6           0        0.000000    0.712878   -0.041323
      8          6           0       -0.000000   -0.712878   -0.041323
      9          7           0        0.000000    1.410993   -1.208183
     10          7           0       -0.000000   -1.410993   -1.208183
     11          1           0        0.000000    1.237156    3.311638
     12          1           0       -0.000000   -1.237156    3.311638
     13          1           0        0.000000    2.486877    1.166492
     14          1           0       -0.000000   -2.486877    1.166492
     15          1           0        0.000000    1.250205   -3.252504
     16          1           0       -0.000000   -1.250205   -3.252504
 ---------------------------------------------------------------------

 SCF Done:  E(RHF) =  -415.502995225     A.U. after    2 cycles

 The electronic state is 1-A1.
 Alpha  occ. eigenvalues --  -15.65650 -15.65648 -11.29991 -11.29894 -11.29270
 Alpha  occ. eigenvalues --  -11.29176 -11.25851 -11.25755 -11.25376 -11.25368
 Alpha  occ. eigenvalues --   -1.28240  -1.19303  -1.14448  -1.03262  -1.02321
 Alpha  occ. eigenvalues --   -0.90949  -0.88413  -0.83589  -0.74685  -0.73731
 Alpha  occ. eigenvalues --   -0.70890  -0.65293  -0.62670  -0.61409  -0.60374
 Alpha  occ. eigenvalues --   -0.59010  -0.52823  -0.52796  -0.49011  -0.48178
 Alpha  occ. eigenvalues --   -0.45703  -0.40400  -0.33746  -0.33019
 Alpha virt. eigenvalues --    0.03240   0.03436   0.03976   0.04501   0.05346
 Alpha virt. eigenvalues --    0.05666   0.07075   0.09131   0.10055   0.10695
 Alpha virt. eigenvalues --    0.12041   0.12063   0.12434   0.12539   0.13251

 Mulliken charges:
               1
     1  C    0.545158
     2  C    0.545158
     3  C    0.981233
     4  C    0.981233
     5  C    0.633708
     6  C    0.633708
     7  C   -0.215616
     8  C   -0.215616
     9  N   -0.609455
    10  N   -0.609455
    11  H   -0.450688
    12  H   -0.450688
    13  H   -0.530308
    14  H   -0.530308
    15  H   -0.354032
    16  H   -0.354032
 Sum of Mulliken charges =  -0.00000

 Dipole moment (field-independent basis, Debye):
    X=              0.0000    Y=              0.0000    Z=              0.1785  Tot=              0.1785

 Test job not archived.
 1\1\GINC-SE213\SP\RHF\Aug-CC-pVDZ\C8H6N2\OHZDE\05-Apr-2025\0\\#t hf au
 g-cc-pvdz iop(5/13=1,5/36=2,99/5=2) pseudo=read geom=check guess=(read
 ,tcheck) scf=(maxcycle=1)\\title\\0,1\C,0,0.,0.706926,2.368951\C,0,0.,
 -0.706926,2.368951\C,0,0.,1.406054,1.190448\C,0,0.,-1.406054,1.190448\
 C,0,0.,0.708403,-2.3128\C,0,0.,-0.708403,-2.3128\C,0,0.,0.712878,-0.04
 1323\C,0,0.,-0.712878,-0.041323\N,0,0.,1.410993,-1.208183\N,0,0.,-1.41
 0993,-1.208183\H,0,0.,1.237156,3.311638\H,0,0.,-1.237156,3.311638\H,0,
 0.,2.486877,1.166492\H,0,0.,-2.486877,1.166492\H,0,0.,1.250205,-3.2525

 Normal termination of Gaussian 16 at Sat Apr  5 23:12:44 2025.
