 Gaussian 16, Revision C.01,

 ----------------------------------------------------------------------
 #t hf aug-cc-pvdz symm=none int=(grid=ultrafine) guess=(read,tcheck) s
 table=(opt,rrhf)
 ----------------------------------------------------------------------
 -----
 title
 -----
 Symbolic Z-matrix:
 Charge =  0 Multiplicity = 1

 SCF Done:  E(RHF) =  -327.114313251     A.U. after   12 cycles

 1\1\GINC-SE214\Stability\RHF\Aug-CC-pVDZ\C7H13N1\OHZDE\05-Apr-2025\0\\
 #t hf aug-cc-pvdz symm=none int=(grid=ultrafine) guess=(read,tcheck) s
 table=(opt,rrhf)\\title\\0,1\N,0,0.,0.,1.286725\C,0,0.,1.384344,0.7969
 64\C,0,-1.198877,-0.692172,0.796964\C,0,1.198877,-0.692172,0.796964\C,
 0,0.,1.443662,-0.760521\C,0,-1.250248,-0.721831,-0.760521\C,0,1.250248
 ,-0.721831,-0.760521\C,0,0.,0.,-1.290089\H,0,0.877475,1.885976,1.20793
 1\H,0,-0.877475,1.885976,1.207931\H,0,-2.07204,-0.183072,1.207931\H,0,
 -1.194565,-1.702903,1.207931\H,0,1.194565,-1.702903,1.207931\H,0,2.072

 Normal termination of Gaussian 16 at Sat Apr  5 23:12:39 2025.
 Gaussian 16:  ES64L-G16RevC.01  3-Jul-2019

 ----------------------------------------------------------------------
 #t hf aug-cc-pvdz iop(5/13=1,5/36=2,99/5=2) pseudo=read geom=check gue
 ss=(read,tcheck) scf=(maxcycle=1)
 ----------------------------------------------------------------------
 -----
 title
 -----
 Structure from the checkpoint file:  "quinuclidine.chk"
 Charge =  0 Multiplicity = 1

                         Standard orientation:
 ---------------------------------------------------------------------
 Center     Atomic      Atomic             Coordinates (Angstroms)
 Number     Number       Type             X           Y           Z
 ---------------------------------------------------------------------
      1          7           0       -1.286725    0.000000    0.000000
      2          6           0       -0.796964   -1.384344    0.000000
      3          6           0       -0.796964    0.692172    1.198877
      4          6           0       -0.796964    0.692172   -1.198877
      5          6           0        0.760521   -1.443662   -0.000000
      6          6           0        0.760521    0.721831    1.250248
      7          6           0        0.760521    0.721831   -1.250248
      8          6           0        1.290089    0.000000   -0.000000
      9          1           0       -1.207931   -1.885976   -0.877475
     10          1           0       -1.207931   -1.885976    0.877475
     11          1           0       -1.207931    0.183072    2.072040
     12          1           0       -1.207931    1.702903    1.194565
     13          1           0       -1.207931    1.702903   -1.194565
     14          1           0       -1.207931    0.183072   -2.072040
     15          1           0        1.131569   -1.977815   -0.877284
     16          1           0        1.131569   -1.977815    0.877284
     17          1           0        1.131569    0.229157    2.151480
     18          1           0        1.131569    1.748657    1.274196
     19          1           0        1.131569    1.748657   -1.274196
     20          1           0        1.131569    0.229157   -2.151480
     21          1           0        2.380678    0.000000   -0.000000
 ---------------------------------------------------------------------

 SCF Done:  E(RHF) =  -327.210975915     A.U. after    2 cycles

 The electronic state is 1-A'.
 Alpha  occ. eigenvalues --  -15.60090 -11.24904 -11.24904 -11.24903 -11.23028
 Alpha  occ. eigenvalues --  -11.22184 -11.22184 -11.22171  -1.20786  -1.05531
 Alpha  occ. eigenvalues --   -0.99939  -0.99939  -0.84380  -0.84379  -0.82221
 Alpha  occ. eigenvalues --   -0.69616  -0.66437  -0.65846  -0.65846  -0.56445
 Alpha  occ. eigenvalues --   -0.55110  -0.55110  -0.52463  -0.52463  -0.51135
 Alpha  occ. eigenvalues --   -0.51135  -0.49422  -0.46241  -0.42916  -0.42916
 Alpha  occ. eigenvalues --   -0.33420
 Alpha virt. eigenvalues --    0.03370   0.04285   0.04285   0.04633   0.06273
 Alpha virt. eigenvalues --    0.06273   0.06706   0.06706   0.06922   0.08621
 Alpha virt. eigenvalues --    0.08865   0.08865   0.11157   0.11714   0.12849

 Mulliken charges:
               1
     1  N   -0.736757
     2  C    0.706544
     3  C    0.706546
     4  C    0.706546
     5  C    0.411020
     6  C    0.411022
     7  C    0.411022
     8  C   -0.497980
     9  H   -0.186174
    10  H   -0.186174
    11  H   -0.186175
    12  H   -0.186176
    13  H   -0.186176
    14  H   -0.186175
    15  H   -0.142660
    16  H   -0.142660
    17  H   -0.142659
    18  H   -0.142662
    19  H   -0.142662
    20  H   -0.142659
    21  H   -0.144949
 Sum of Mulliken charges =  -0.00000

 Dipole moment (field-independent basis, Debye):
    X=              1.1767    Y=              0.0000    Z=             -0.0000  Tot=              1.1767

 Test job not archived.
 1\1\GINC-SE214\SP\RHF\Aug-CC-pVDZ\C7H13N1\OHZDE\05-Apr-2025\0\\#t hf a
 ug-cc-pvdz iop(5/13=1,5/36=2,99/5=2) pseudo=read geom=check guess=(rea
 d,tcheck) scf=(maxcycle=1)\\title\\0,1\N,0,0.,0.,1.286725\C,0,0.,1.384
 344,0.796964\C,0,-1.198877,-0.692172,0.796964\C,0,1.198877,-0.692172,0
 .796964\C,0,0.,1.443662,-0.760521\C,0,-1.250248,-0.721831,-0.760521\C,
 0,1.250248,-0.721831,-0.760521\C,0,0.,0.,-1.290089\H,0,0.877475,1.8859
 76,1.207931\H,0,-0.877475,1.885976,1.207931\H,0,-2.07204,-0.183072,1.2
 07931\H,0,-1.194565,-1.702903,1.207931\H,0,1.194565,-1.702903,1.207931

 Normal termination of Gaussian 16 at Sat Apr  5 23:12:46 2025.
