 Gaussian 16, Revision C.01,

 ----------------------------------------------------------------------
 #t hf aug-cc-pvdz symm=none int=(grid=ultrafine) guess=(read,tcheck) s
 table=(opt,rrhf)
 ----------------------------------------------------------------------
 -----
 title
 -----
 Symbolic Z-matrix:
 Charge =  0 Multiplicity = 1

 SCF Done:  E(RHF) =  -415.394415194     A.U. after   17 cycles
 Normal termination of Gaussian 16 at Sat Apr  5 23:12:39 2025.
 Gaussian 16:  ES64L-G16RevC.01  3-Jul-2019

 ----------------------------------------------------------------------
 #t hf aug-cc-pvdz iop(5/13=1,5/36=2,99/5=2) pseudo=read geom=check gue
 ss=(read,tcheck) scf=(maxcycle=1)
 ----------------------------------------------------------------------
 -----
 title
 -----
 Structure from the checkpoint file:  "quinazoline.chk"
 Charge =  0 Multiplicity = 1

                         Standard orientation:
 ---------------------------------------------------------------------
 Center     Atomic      Atomic             Coordinates (Angstroms)
 Number     Number       Type             X           Y           Z
 ---------------------------------------------------------------------
      1          6           0       -0.000000    0.710654    0.000000
      2          7           0       -1.139196    1.455520   -0.000000
      3          6           0        1.262828    1.344587    0.000000
      4          6           0       -2.272688    0.801977   -0.000000
      5          7           0       -2.447219   -0.545954   -0.000000
      6          6           0       -1.355631   -1.271463   -0.000000
      7          6           0       -0.059588   -0.708461   -0.000000
      8          6           0        2.405933    0.586778    0.000000
      9          6           0        2.345352   -0.825470    0.000000
     10          6           0        1.133349   -1.465216    0.000000
     11          1           0       -3.182755    1.390554   -0.000000
     12          1           0       -1.474928   -2.351670   -0.000000
     13          1           0        3.262970   -1.397525    0.000000
     14          1           0        3.372410    1.072811    0.000000
     15          1           0        1.075626   -2.546382    0.000000
     16          1           0        1.294255    2.424936    0.000000
 ---------------------------------------------------------------------

 SCF Done:  E(RHF) =  -415.512205320     A.U. after    2 cycles

 The electronic state is 1-A'.
 Alpha  occ. eigenvalues --  -15.63928 -15.63440 -11.32398 -11.31619 -11.30286
 Alpha  occ. eigenvalues --  -11.27037 -11.26884 -11.26527 -11.26046 -11.25474
 Alpha  occ. eigenvalues --   -1.28377  -1.17550  -1.14939  -1.05104  -1.02648
 Alpha  occ. eigenvalues --   -0.90890  -0.88541  -0.84431  -0.74992  -0.73893
 Alpha  occ. eigenvalues --   -0.70745  -0.65131  -0.63552  -0.61690  -0.59243
 Alpha  occ. eigenvalues --   -0.58953  -0.55331  -0.52931  -0.49576  -0.46432
 Alpha  occ. eigenvalues --   -0.44107  -0.40699  -0.35890  -0.32847
 Alpha virt. eigenvalues --    0.02830   0.03587   0.04245   0.05129   0.05329
 Alpha virt. eigenvalues --    0.05713   0.07321   0.07411   0.08907   0.09978
 Alpha virt. eigenvalues --    0.11252   0.11427   0.12601   0.12679   0.13439

 Mulliken charges:
               1
     1  C   -0.851240
     2  N   -0.589522
     3  C    1.371952
     4  C    0.640282
     5  N   -0.615871
     6  C    0.533494
     7  C    0.876100
     8  C    0.349633
     9  C    0.444350
    10  C    0.546231
    11  H   -0.338892
    12  H   -0.377937
    13  H   -0.465371
    14  H   -0.438582
    15  H   -0.542746
    16  H   -0.541881
 Sum of Mulliken charges =  -0.00000

 Dipole moment (field-independent basis, Debye):
    X=              2.4701    Y=             -1.4957    Z=              0.0000  Tot=              2.8876

 Test job not archived.
 1\1\GINC-SE155\SP\RHF\Aug-CC-pVDZ\C8H6N2\OHZDE\05-Apr-2025\0\\#t hf au
 g-cc-pvdz iop(5/13=1,5/36=2,99/5=2) pseudo=read geom=check guess=(read
 ,tcheck) scf=(maxcycle=1)\\title\\0,1\C,0,0.039427,-0.709559,0.\N,0,1.
 218194,-1.390076,0.\C,0,-1.186285,-1.412578,0.\C,0,2.313681,-0.674653,
 0.\N,0,2.41316,0.680885,0.\C,0,1.283002,1.344715,0.\C,0,0.020191,0.710
 676,0.\C,0,-2.369673,-0.719355,0.\C,0,-2.387537,0.694079,0.\C,0,-1.212
 893,1.400081,0.\H,0,3.255001,-1.211833,0.\H,0,1.342186,2.429877,0.\H,0
 ,-3.335479,1.214343,0.\H,0,-3.307696,-1.25826,0.\H,0,-1.215242,2.48278

 Normal termination of Gaussian 16 at Sat Apr  5 23:12:48 2025.
