 Gaussian 16, Revision C.01,

 ----------------------------------------------------------------------
 #t hf aug-cc-pvdz symm=none int=(grid=ultrafine) guess=(read,tcheck) s
 table=(opt,rrhf)
 ----------------------------------------------------------------------
 -----
 title
 -----
 Symbolic Z-matrix:
 Charge =  0 Multiplicity = 1

 SCF Done:  E(RHF) =  -1075.17089788     A.U. after   12 cycles

 1\1\GINC-SE187\Stability\RHF\Aug-CC-pVDZ\C4H8Cl2\OHZDE\05-Apr-2025\0\\
 #t hf aug-cc-pvdz symm=none int=(grid=ultrafine) guess=(read,tcheck) s
 table=(opt,rrhf)\\title\\0,1\Cl,0,-0.963836,1.196188,-1.568576\Cl,0,0.
 963836,-1.196188,1.568576\C,0,-1.87728,-0.439478,0.405978\C,0,1.87728,
 0.439478,-0.405978\C,0,-0.655802,0.388883,0.056013\C,0,0.655802,-0.388
 883,-0.056013\H,0,-2.76875,0.184001,0.39551\H,0,2.76875,-0.184001,-0.3
 9551\H,0,1.76393,0.869887,-1.399295\H,0,-1.76393,-0.869887,1.399295\H,
 0,-2.014805,-1.248691,-0.311234\H,0,2.014805,1.248691,0.311234\H,0,0.5

 Normal termination of Gaussian 16 at Sat Apr  5 22:49:59 2025.
 Gaussian 16:  ES64L-G16RevC.01  3-Jul-2019

 ----------------------------------------------------------------------
 #t hf aug-cc-pvdz iop(5/13=1,5/36=2,99/5=2) pseudo=read geom=check gue
 ss=(read,tcheck) scf=(maxcycle=1)
 ----------------------------------------------------------------------
 -----
 title
 -----
 Structure from the checkpoint file:  "R-S-2-3-dichlorobutane.chk"
 Charge =  0 Multiplicity = 1

                         Standard orientation:
 ---------------------------------------------------------------------
 Center     Atomic      Atomic             Coordinates (Angstroms)
 Number     Number       Type             X           Y           Z
 ---------------------------------------------------------------------
      1         17           0       -0.963836    1.196188   -1.568576
      2         17           0        0.963836   -1.196188    1.568576
      3          6           0       -1.877280   -0.439478    0.405978
      4          6           0        1.877280    0.439478   -0.405978
      5          6           0       -0.655802    0.388883    0.056013
      6          6           0        0.655802   -0.388883   -0.056013
      7          1           0       -2.768750    0.184001    0.395510
      8          1           0        2.768750   -0.184001   -0.395510
      9          1           0        1.763930    0.869887   -1.399295
     10          1           0       -1.763930   -0.869887    1.399295
     11          1           0       -2.014805   -1.248691   -0.311234
     12          1           0        2.014805    1.248691    0.311234
     13          1           0        0.528989   -1.216949   -0.749644
     14          1           0       -0.528989    1.216949    0.749644
 ---------------------------------------------------------------------

 SCF Done:  E(RHF) =  -1075.25535154     A.U. after    2 cycles

 The electronic state is 1-AG.
 Alpha  occ. eigenvalues -- -103.65468-103.65467 -11.32848 -11.32793 -11.24632
 Alpha  occ. eigenvalues --  -11.24631 -10.68752 -10.68750  -8.34458  -8.34457
 Alpha  occ. eigenvalues --   -8.34194  -8.34191  -8.34179  -8.34178  -1.19479
 Alpha  occ. eigenvalues --   -1.15082  -1.03357  -1.00825  -0.89080  -0.80642
 Alpha  occ. eigenvalues --   -0.65981  -0.64880  -0.61723  -0.61305  -0.55862
 Alpha  occ. eigenvalues --   -0.54194  -0.53263  -0.52366  -0.49940  -0.47160
 Alpha  occ. eigenvalues --   -0.45574  -0.45144  -0.44265
 Alpha virt. eigenvalues --    0.03793   0.04315   0.04657   0.05838   0.06521
 Alpha virt. eigenvalues --    0.06675   0.07046   0.09247   0.10018   0.10205
 Alpha virt. eigenvalues --    0.12479   0.13382   0.14146   0.15226   0.15244

 Mulliken charges:
               1
     1  Cl  -0.182188
     2  Cl  -0.182188
     3  C    0.633050
     4  C    0.633050
     5  C   -0.288389
     6  C   -0.288389
     7  H   -0.034203
     8  H   -0.034203
     9  H   -0.010168
    10  H   -0.010168
    11  H   -0.021089
    12  H   -0.021089
    13  H   -0.097013
    14  H   -0.097013
 Sum of Mulliken charges =   0.00000

 Dipole moment (field-independent basis, Debye):
    X=              0.0000    Y=              0.0000    Z=             -0.0000  Tot=              0.0000

 Test job not archived.
 1\1\GINC-SE187\SP\RHF\Aug-CC-pVDZ\C4H8Cl2\OHZDE\05-Apr-2025\0\\#t hf a
 ug-cc-pvdz iop(5/13=1,5/36=2,99/5=2) pseudo=read geom=check guess=(rea
 d,tcheck) scf=(maxcycle=1)\\title\\0,1\Cl,0,-0.963836,1.196188,-1.5685
 76\Cl,0,0.963836,-1.196188,1.568576\C,0,-1.87728,-0.439478,0.405978\C,
 0,1.87728,0.439478,-0.405978\C,0,-0.655802,0.388883,0.056013\C,0,0.655
 802,-0.388883,-0.056013\H,0,-2.76875,0.184001,0.39551\H,0,2.76875,-0.1
 84001,-0.39551\H,0,1.76393,0.869887,-1.399295\H,0,-1.76393,-0.869887,1
 .399295\H,0,-2.014805,-1.248691,-0.311234\H,0,2.014805,1.248691,0.3112

 Normal termination of Gaussian 16 at Sat Apr  5 22:50:03 2025.
