 Gaussian 16, Revision C.01,

 ----------------------------------------------------------------------
 #t hf aug-cc-pvdz symm=none int=(grid=ultrafine) guess=(read,tcheck) s
 table=(opt,rrhf)
 ----------------------------------------------------------------------
 -----
 title
 -----
 Symbolic Z-matrix:
 Charge =  0 Multiplicity = 1

 SCF Done:  E(RHF) =  -796.043546611     A.U. after   16 cycles
 Normal termination of Gaussian 16 at Sat Apr  5 22:49:49 2025.
 Gaussian 16:  ES64L-G16RevC.01  3-Jul-2019

 ----------------------------------------------------------------------
 #t hf aug-cc-pvdz iop(5/13=1,5/36=2,99/5=2) pseudo=read geom=check gue
 ss=(read,tcheck) scf=(maxcycle=1)
 ----------------------------------------------------------------------
 -----
 title
 -----
 Structure from the checkpoint file:  "S-2-pyridinyl_ethanethioate.chk"
 Charge =  0 Multiplicity = 1

                         Standard orientation:
 ---------------------------------------------------------------------
 Center     Atomic      Atomic             Coordinates (Angstroms)
 Number     Number       Type             X           Y           Z
 ---------------------------------------------------------------------
      1          6           0        2.274150    1.388749   -0.000069
      2          6           0        3.234944    0.386128    0.000107
      3          6           0        0.927785    1.052725   -0.000171
      4          6           0        2.801859   -0.932997    0.000173
      5          6           0        0.607018   -0.304386   -0.000074
      6          6           0       -2.244819    0.347643    0.000025
      7          6           0       -3.658489   -0.190391    0.000171
      8          7           0        1.514712   -1.276021    0.000089
      9          8           0       -1.993920    1.525908    0.000110
     10         16           0       -1.049030   -0.997881   -0.000205
     11          1           0        2.565776    2.430616   -0.000132
     12          1           0        4.290895    0.616050    0.000187
     13          1           0        0.153685    1.800661   -0.000305
     14          1           0        3.511957   -1.751445    0.000302
     15          1           0       -4.172879    0.194508   -0.880641
     16          1           0       -4.172111    0.193012    0.882092
     17          1           0       -3.699155   -1.277234   -0.000689
 ---------------------------------------------------------------------

 SCF Done:  E(RHF) =  -796.182708911     A.U. after    2 cycles

 The electronic state is 1-A.
 Alpha  occ. eigenvalues --  -93.56408 -20.58133 -15.64051 -11.38871 -11.32842
 Alpha  occ. eigenvalues --  -11.29416 -11.27376 -11.26147 -11.25550 -11.25351
 Alpha  occ. eigenvalues --   -8.86272  -6.20443  -6.20160  -6.19847  -1.37982
 Alpha  occ. eigenvalues --   -1.25101  -1.08769  -1.07180  -1.03487  -0.96423
 Alpha  occ. eigenvalues --   -0.87176  -0.84892  -0.76619  -0.71140  -0.68541
 Alpha  occ. eigenvalues --   -0.67422  -0.65452  -0.63020  -0.62515  -0.59136
 Alpha  occ. eigenvalues --   -0.56918  -0.56699  -0.56449  -0.53775  -0.49074
 Alpha  occ. eigenvalues --   -0.42523  -0.42475  -0.42240  -0.38714  -0.33321
 Alpha virt. eigenvalues --    0.03167   0.03466   0.04370   0.05637   0.05733
 Alpha virt. eigenvalues --    0.06029   0.07383   0.08457   0.08905   0.09487
 Alpha virt. eigenvalues --    0.10525   0.11366   0.11726   0.12308   0.12896

 Mulliken charges:
               1
     1  C   -0.013759
     2  C    0.870820
     3  C    0.807896
     4  C    0.516897
     5  C   -0.495184
     6  C   -0.471603
     7  C    0.670346
     8  N   -0.343752
     9  O   -0.498941
    10  S    0.753900
    11  H   -0.443607
    12  H   -0.416644
    13  H   -0.516531
    14  H   -0.380037
    15  H    0.032477
    16  H    0.032663
    17  H   -0.104940
 Sum of Mulliken charges =   0.00000

 Dipole moment (field-independent basis, Debye):
    X=              0.2620    Y=              0.1319    Z=              0.0000  Tot=              0.2933

 Test job not archived.
 1\1\GINC-SE232\SP\RHF\Aug-CC-pVDZ\C7H7N1O1S1\OHZDE\05-Apr-2025\0\\#t h
 f aug-cc-pvdz iop(5/13=1,5/36=2,99/5=2) pseudo=read geom=check guess=(
 read,tcheck) scf=(maxcycle=1)\\title\\0,1\C,0,2.27415,1.388749,-0.0000
 69\C,0,3.234944,0.386128,0.000107\C,0,0.927785,1.052725,-0.000171\C,0,
 2.801859,-0.932997,0.000173\C,0,0.607018,-0.304386,-0.000074\C,0,-2.24
 4819,0.347643,0.000025\C,0,-3.658489,-0.190391,0.000171\N,0,1.514712,-
 1.276021,0.000089\O,0,-1.99392,1.525908,0.00011\S,0,-1.04903,-0.997881
 ,-0.000205\H,0,2.565776,2.430616,-0.000132\H,0,4.290895,0.61605,0.0001

 Normal termination of Gaussian 16 at Sat Apr  5 22:50:08 2025.
