 Gaussian 16, Revision C.01,

 ----------------------------------------------------------------------
 #t hf aug-cc-pvdz symm=none int=(grid=ultrafine) guess=(read,tcheck) s
 table=(opt,rrhf)
 ----------------------------------------------------------------------
 -----
 title
 -----
 Symbolic Z-matrix:
 Charge =  0 Multiplicity = 1

 SCF Done:  E(RHF) =  -628.556054074     A.U. after   14 cycles
 Normal termination of Gaussian 16 at Sat Apr  5 22:48:57 2025.
 Gaussian 16:  ES64L-G16RevC.01  3-Jul-2019

 ----------------------------------------------------------------------
 #t hf aug-cc-pvdz iop(5/13=1,5/36=2,99/5=2) pseudo=read geom=check gue
 ss=(read,tcheck) scf=(maxcycle=1)
 ----------------------------------------------------------------------
 -----
 title
 -----
 Structure from the checkpoint file:  "S-ethyl_ethanethioate.chk"
 Charge =  0 Multiplicity = 1

                         Standard orientation:
 ---------------------------------------------------------------------
 Center     Atomic      Atomic             Coordinates (Angstroms)
 Number     Number       Type             X           Y           Z
 ---------------------------------------------------------------------
      1          8           0       -2.357106   -0.826508    0.000023
      2          6           0       -1.415289   -0.075802    0.000085
      3         16           0        0.232683   -0.804196   -0.000140
      4          1           0       -1.076024    1.860038    0.880271
      5          1           0       -2.611239    1.674996    0.000488
      6          1           0       -1.076214    1.860311   -0.879564
      7          6           0       -1.552652    1.427474    0.000338
      8          1           0        1.252246    1.209742   -0.884316
      9          1           0        1.252388    1.209438    0.884567
     10          6           0        1.422814    0.598820    0.000007
     11          1           0        3.026676   -0.571696    0.882060
     12          1           0        3.561268    0.860316   -0.000120
     13          1           0        3.026534   -0.571397   -0.882700
     14          6           0        2.841508    0.040750   -0.000202
 ---------------------------------------------------------------------

 SCF Done:  E(RHF) =  -628.650717330     A.U. after    2 cycles

 The electronic state is 1-A.
 Alpha  occ. eigenvalues --  -93.54589 -20.57122 -11.37720 -11.28691 -11.26062
 Alpha  occ. eigenvalues --  -11.24989  -8.84440  -6.18574  -6.18345  -6.18027
 Alpha  occ. eigenvalues --   -1.36917  -1.08277  -1.02469  -0.95261  -0.84929
 Alpha  occ. eigenvalues --   -0.74123  -0.66983  -0.65307  -0.64552  -0.61996
 Alpha  occ. eigenvalues --   -0.59021  -0.55553  -0.54552  -0.53502  -0.52921
 Alpha  occ. eigenvalues --   -0.46009  -0.41449  -0.36676
 Alpha virt. eigenvalues --    0.02732   0.03965   0.04594   0.05142   0.06273
 Alpha virt. eigenvalues --    0.06581   0.08138   0.08605   0.09450   0.11004
 Alpha virt. eigenvalues --    0.12322   0.12427   0.14061   0.14412   0.14434

 Mulliken charges:
               1
     1  O   -0.486152
     2  C   -0.097382
     3  S    0.506106
     4  H    0.057446
     5  H   -0.176213
     6  H    0.057442
     7  C    0.264522
     8  H   -0.114078
     9  H   -0.114083
    10  C   -0.168646
    11  H   -0.047671
    12  H   -0.021254
    13  H   -0.047673
    14  C    0.387635
 Sum of Mulliken charges =  -0.00000

 Dipole moment (field-independent basis, Debye):
    X=              3.2244    Y=              3.9778    Z=              0.0004  Tot=              5.1205

 Test job not archived.
 1\1\GINC-SE232\SP\RHF\Aug-CC-pVDZ\C4H8O1S1\OHZDE\05-Apr-2025\0\\#t hf
 aug-cc-pvdz iop(5/13=1,5/36=2,99/5=2) pseudo=read geom=check guess=(re
 ad,tcheck) scf=(maxcycle=1)\\title\\0,1\O,0,-2.357106,-0.826508,0.0000
 23\C,0,-1.415289,-0.075802,0.000085\S,0,0.232683,-0.804196,-0.00014\H,
 0,-1.076024,1.860038,0.880271\H,0,-2.611239,1.674996,0.000488\H,0,-1.0
 76214,1.860311,-0.879564\C,0,-1.552652,1.427474,0.000338\H,0,1.252246,
 1.209742,-0.884316\H,0,1.252388,1.209438,0.884567\C,0,1.422814,0.59882
 ,0.000007\H,0,3.026676,-0.571696,0.88206\H,0,3.561268,0.860316,-0.0001

 Normal termination of Gaussian 16 at Sat Apr  5 22:50:03 2025.
