 Gaussian 16, Revision C.01,

 ----------------------------------------------------------------------
 #t hf aug-cc-pvdz symm=none int=(grid=ultrafine) guess=(read,tcheck) s
 table=(opt,rrhf)
 ----------------------------------------------------------------------
 -----
 title
 -----
 Symbolic Z-matrix:
 Charge =  0 Multiplicity = 1

 SCF Done:  E(RHF) =  -851.454377359     A.U. after   19 cycles
 Normal termination of Gaussian 16 at Sat Apr  5 22:49:23 2025.
 Gaussian 16:  ES64L-G16RevC.01  3-Jul-2019

 ----------------------------------------------------------------------
 #t hf aug-cc-pvdz iop(5/13=1,5/36=2,99/5=2) pseudo=read geom=check gue
 ss=(read,tcheck) scf=(maxcycle=1)
 ----------------------------------------------------------------------
 -----
 title
 -----
 Structure from the checkpoint file:  "S-hydroperoxy_hexa-2-4-diynethioate.chk"
 Charge =  0 Multiplicity = 1

                         Standard orientation:
 ---------------------------------------------------------------------
 Center     Atomic      Atomic             Coordinates (Angstroms)
 Number     Number       Type             X           Y           Z
 ---------------------------------------------------------------------
      1         16           0        1.777893   -1.017043   -0.098312
      2          8           0        3.331071   -0.521658   -0.383927
      3          8           0        1.564558    1.616301   -0.260640
      4          8           0        3.903677    0.151691    0.784045
      5          6           0        0.945852    0.577476   -0.185281
      6          6           0       -0.473005    0.441711   -0.112433
      7          6           0       -1.670367    0.263764   -0.051931
      8          6           0       -3.011782    0.084916    0.015677
      9          6           0       -4.208213   -0.073703    0.076329
     10          6           0       -5.641659   -0.262465    0.148528
     11          1           0        3.588858    1.056127    0.611506
     12          1           0       -6.026208   -0.654858   -0.794688
     13          1           0       -6.149180    0.680904    0.356636
     14          1           0       -5.899149   -0.970358    0.938381
 ---------------------------------------------------------------------

 SCF Done:  E(RHF) =  -851.624061750     A.U. after    2 cycles

 The electronic state is 1-A.
 Alpha  occ. eigenvalues --  -93.62551 -20.68085 -20.65702 -20.60588 -11.42047
 Alpha  occ. eigenvalues --  -11.32058 -11.30329 -11.29128 -11.29102 -11.28373
 Alpha  occ. eigenvalues --   -8.91738  -6.25947  -6.25592  -6.25223  -1.44402
 Alpha  occ. eigenvalues --   -1.39592  -1.22864  -1.12365  -1.08401  -1.02269
 Alpha  occ. eigenvalues --   -0.98600  -0.89790  -0.82906  -0.74510  -0.72704
 Alpha  occ. eigenvalues --   -0.70512  -0.67279  -0.66251  -0.62789  -0.62746
 Alpha  occ. eigenvalues --   -0.61473  -0.60147  -0.56100  -0.51924  -0.51194
 Alpha  occ. eigenvalues --   -0.50748  -0.45637  -0.40740  -0.38485  -0.38071
 Alpha virt. eigenvalues --    0.02205   0.02811   0.04866   0.04950   0.05265
 Alpha virt. eigenvalues --    0.06016   0.06782   0.07800   0.08913   0.09804
 Alpha virt. eigenvalues --    0.10916   0.11903   0.12661   0.13112   0.13417

 Mulliken charges:
               1
     1  S    0.845084
     2  O   -0.604632
     3  O   -0.522084
     4  O   -0.241920
     5  C   -0.431663
     6  C   -0.802073
     7  C    0.974981
     8  C    1.865451
     9  C   -2.517927
    10  C    0.506396
    11  H    0.271038
    12  H    0.220985
    13  H    0.218145
    14  H    0.218219
 Sum of Mulliken charges =  -0.00000

 Dipole moment (field-independent basis, Debye):
    X=             -6.6562    Y=             -1.0342    Z=              0.4689  Tot=              6.7524

 Test job not archived.
 1\1\GINC-SE199\SP\RHF\Aug-CC-pVDZ\C6H4O3S1\OHZDE\05-Apr-2025\0\\#t hf
 aug-cc-pvdz iop(5/13=1,5/36=2,99/5=2) pseudo=read geom=check guess=(re
 ad,tcheck) scf=(maxcycle=1)\\title\\0,1\S,0,1.777893,-1.017043,-0.0983
 12\O,0,3.331071,-0.521658,-0.383927\O,0,1.564558,1.616301,-0.26064\O,0
 ,3.903677,0.151691,0.784045\C,0,0.945852,0.577476,-0.185281\C,0,-0.473
 005,0.441711,-0.112433\C,0,-1.670367,0.263764,-0.051931\C,0,-3.011782,
 0.084916,0.015677\C,0,-4.208213,-0.073703,0.076329\C,0,-5.641659,-0.26
 2465,0.148528\H,0,3.588858,1.056127,0.611506\H,0,-6.026208,-0.654858,-

 Normal termination of Gaussian 16 at Sat Apr  5 22:50:04 2025.
