 Gaussian 16, Revision C.01,

 ----------------------------------------------------------------------
 #t hf aug-cc-pvdz symm=none int=(grid=ultrafine) guess=(read,tcheck) s
 table=(opt,rrhf)
 ----------------------------------------------------------------------
 -----
 title
 -----
 Symbolic Z-matrix:
 Charge =  0 Multiplicity = 1

 SCF Done:  E(RHF) =  -780.053444248     A.U. after   16 cycles
 Normal termination of Gaussian 16 at Sat Apr  5 22:49:56 2025.
 Gaussian 16:  ES64L-G16RevC.01  3-Jul-2019

 ----------------------------------------------------------------------
 #t hf aug-cc-pvdz iop(5/13=1,5/36=2,99/5=2) pseudo=read geom=check gue
 ss=(read,tcheck) scf=(maxcycle=1)
 ----------------------------------------------------------------------
 -----
 title
 -----
 Structure from the checkpoint file:  "S-methyl_benzenecarbothioate.chk"
 Charge =  0 Multiplicity = 1

                         Standard orientation:
 ---------------------------------------------------------------------
 Center     Atomic      Atomic             Coordinates (Angstroms)
 Number     Number       Type             X           Y           Z
 ---------------------------------------------------------------------
      1          6           0        1.333065    3.036686    0.000000
      2          6           0       -0.058033    3.001626    0.000000
      3          6           0        2.057969    1.849796    0.000000
      4          6           0       -0.721944    1.784420    0.000000
      5          6           0        1.395636    0.630072    0.000000
      6          6           0        0.000000    0.587581    0.000000
      7          6           0       -0.775412   -0.687600    0.000000
      8          6           0       -1.161168   -3.408295    0.000000
      9          8           0       -1.984399   -0.723520    0.000000
     10         16           0        0.197665   -2.203581    0.000000
     11          1           0        1.851085    3.986336    0.000000
     12          1           0       -0.623442    3.923567    0.000000
     13          1           0        3.139026    1.874086    0.000000
     14          1           0       -1.801297    1.738555    0.000000
     15          1           0        1.969563   -0.285827    0.000000
     16          1           0       -1.773676   -3.283052    0.887927
     17          1           0       -0.695712   -4.390868    0.000000
     18          1           0       -1.773676   -3.283052   -0.887927
 ---------------------------------------------------------------------

 SCF Done:  E(RHF) =  -780.188859272     A.U. after    2 cycles

 The electronic state is 1-A'.
 Alpha  occ. eigenvalues --  -93.54822 -20.57127 -11.37764 -11.26876 -11.26647
 Alpha  occ. eigenvalues --  -11.26528 -11.26440 -11.26053 -11.25679 -11.25541
 Alpha  occ. eigenvalues --   -8.84700  -6.18853  -6.18628  -6.18305  -1.36885
 Alpha  occ. eigenvalues --   -1.16400  -1.05945  -1.03373  -1.02673  -0.91805
 Alpha  occ. eigenvalues --   -0.85910  -0.83777  -0.76317  -0.71619  -0.66616
 Alpha  occ. eigenvalues --   -0.66503  -0.63230  -0.62364  -0.60874  -0.60733
 Alpha  occ. eigenvalues --   -0.57188  -0.56219  -0.53488  -0.51374  -0.51313
 Alpha  occ. eigenvalues --   -0.48425  -0.41784  -0.37779  -0.35481  -0.35066
 Alpha virt. eigenvalues --    0.03149   0.03774   0.04126   0.05248   0.05635
 Alpha virt. eigenvalues --    0.05836   0.06609   0.07117   0.07492   0.09966
 Alpha virt. eigenvalues --    0.10442   0.10751   0.10876   0.12864   0.13062

 Mulliken charges:
               1
     1  C    0.479702
     2  C    0.682808
     3  C    0.673337
     4  C   -0.122506
     5  C    0.196435
     6  C    1.574559
     7  C   -0.821594
     8  C    0.117585
     9  O   -0.493135
    10  S    0.357421
    11  H   -0.436409
    12  H   -0.420040
    13  H   -0.457624
    14  H   -0.622451
    15  H   -0.497786
    16  H   -0.031827
    17  H   -0.146646
    18  H   -0.031827
 Sum of Mulliken charges =  -0.00000

 Dipole moment (field-independent basis, Debye):
    X=              1.9288    Y=              0.5491    Z=             -0.0000  Tot=              2.0054

 Test job not archived.
 1\1\GINC-SE226\SP\RHF\Aug-CC-pVDZ\C8H8O1S1\OHZDE\05-Apr-2025\0\\#t hf
 aug-cc-pvdz iop(5/13=1,5/36=2,99/5=2) pseudo=read geom=check guess=(re
 ad,tcheck) scf=(maxcycle=1)\\title\\0,1\C,0,1.333065,3.036686,0.\C,0,-
 0.058033,3.001626,0.\C,0,2.057969,1.849796,0.\C,0,-0.721944,1.78442,0.
 \C,0,1.395636,0.630072,0.\C,0,0.,0.587581,0.\C,0,-0.775412,-0.6876,0.\
 C,0,-1.161168,-3.408295,0.\O,0,-1.984399,-0.72352,0.\S,0,0.197665,-2.2
 03581,0.\H,0,1.851085,3.986336,0.\H,0,-0.623442,3.923567,0.\H,0,3.1390
 26,1.874086,0.\H,0,-1.801297,1.738555,0.\H,0,1.969563,-0.285827,0.\H,0

 Normal termination of Gaussian 16 at Sat Apr  5 22:50:08 2025.
