 Gaussian 16, Revision C.01,

 ----------------------------------------------------------------------
 #t hf aug-cc-pvdz symm=none int=(grid=ultrafine) guess=(read,tcheck) s
 table=(opt,rrhf)
 ----------------------------------------------------------------------
 -----
 title
 -----
 Symbolic Z-matrix:
 Charge =  0 Multiplicity = 1

 SCF Done:  E(RHF) =  -742.108831243     A.U. after   16 cycles
 Normal termination of Gaussian 16 at Sat Apr  5 22:49:36 2025.
 Gaussian 16:  ES64L-G16RevC.01  3-Jul-2019

 ----------------------------------------------------------------------
 #t hf aug-cc-pvdz iop(5/13=1,5/36=2,99/5=2) pseudo=read geom=check gue
 ss=(read,tcheck) scf=(maxcycle=1)
 ----------------------------------------------------------------------
 -----
 title
 -----
 Structure from the checkpoint file:  "S-methylsulfinylbenzene.chk"
 Charge =  0 Multiplicity = 1

                         Standard orientation:
 ---------------------------------------------------------------------
 Center     Atomic      Atomic             Coordinates (Angstroms)
 Number     Number       Type             X           Y           Z
 ---------------------------------------------------------------------
      1          6           0       -2.865077    0.100616    0.165518
      2          6           0       -2.070507    1.223857    0.366327
      3          6           0       -2.286294   -1.104138   -0.223924
      4          6           0       -0.692839    1.148380    0.186907
      5          6           0       -0.911773   -1.187321   -0.409725
      6          6           0       -0.127095   -0.061385   -0.186065
      7          6           0        2.115664   -0.968781    1.096612
      8          8           0        2.191158    1.279499   -0.345256
      9         16           0        1.671473   -0.126541   -0.469671
     10          1           0       -3.936059    0.164368    0.301992
     11          1           0       -2.522707    2.162209    0.657897
     12          1           0       -2.905625   -1.974771   -0.391995
     13          1           0       -0.051411    2.009136    0.320028
     14          1           0       -0.461290   -2.117623   -0.732907
     15          1           0        1.639276   -1.946560    1.131766
     16          1           0        1.794165   -0.342110    1.925393
     17          1           0        3.198354   -1.073357    1.090709
 ---------------------------------------------------------------------

 SCF Done:  E(RHF) =  -742.253729825     A.U. after    2 cycles

 The electronic state is 1-A.
 Alpha  occ. eigenvalues --  -93.66261 -20.52027 -11.28065 -11.27508 -11.26848
 Alpha  occ. eigenvalues --  -11.26242 -11.26106 -11.25962 -11.25854  -8.94599
 Alpha  occ. eigenvalues --   -6.28880  -6.28723  -6.28417  -1.30087  -1.16556
 Alpha  occ. eigenvalues --   -1.05467  -1.03021  -1.00483  -0.88098  -0.84979
 Alpha  occ. eigenvalues --   -0.80320  -0.72191  -0.65716  -0.65326  -0.62890
 Alpha  occ. eigenvalues --   -0.62182  -0.61073  -0.59403  -0.58192  -0.53863
 Alpha  occ. eigenvalues --   -0.52606  -0.52095  -0.51555  -0.43716  -0.39655
 Alpha  occ. eigenvalues --   -0.35790  -0.34795
 Alpha virt. eigenvalues --    0.02897   0.03637   0.04153   0.05152   0.05709
 Alpha virt. eigenvalues --    0.06182   0.06996   0.07753   0.08569   0.09466
 Alpha virt. eigenvalues --    0.10033   0.11036   0.11580   0.12271   0.13622

 Mulliken charges:
               1
     1  C    0.528313
     2  C    0.652621
     3  C    0.652057
     4  C   -0.102837
     5  C    0.174279
     6  C    0.461795
     7  C    0.114730
     8  O   -1.073517
     9  S    1.098150
    10  H   -0.444099
    11  H   -0.433805
    12  H   -0.437700
    13  H   -0.521056
    14  H   -0.506300
    15  H   -0.075118
    16  H   -0.027002
    17  H   -0.060511
 Sum of Mulliken charges =   0.00000

 Dipole moment (field-independent basis, Debye):
    X=             -2.7410    Y=             -3.5346    Z=              1.5424  Tot=              4.7313

 Test job not archived.
 1\1\GINC-SE047\SP\RHF\Aug-CC-pVDZ\C7H8O1S1\OHZDE\05-Apr-2025\0\\#t hf
 aug-cc-pvdz iop(5/13=1,5/36=2,99/5=2) pseudo=read geom=check guess=(re
 ad,tcheck) scf=(maxcycle=1)\\title\\0,1\C,0,-2.865077,0.100616,0.16551
 8\C,0,-2.070507,1.223857,0.366327\C,0,-2.286294,-1.104138,-0.223924\C,
 0,-0.692839,1.14838,0.186907\C,0,-0.911773,-1.187321,-0.409725\C,0,-0.
 127095,-0.061385,-0.186065\C,0,2.115664,-0.968781,1.096612\O,0,2.19115
 8,1.279499,-0.345256\S,0,1.671473,-0.126541,-0.469671\H,0,-3.936059,0.
 164368,0.301992\H,0,-2.522707,2.162209,0.657897\H,0,-2.905625,-1.97477

 Normal termination of Gaussian 16 at Sat Apr  5 22:50:07 2025.
