 Gaussian 16, Revision C.01,

 ----------------------------------------------------------------------
 #t hf aug-cc-pvdz symm=none int=(grid=ultrafine) guess=(read,tcheck) s
 table=(opt,rrhf)
 ----------------------------------------------------------------------
 -----
 title
 -----
 Symbolic Z-matrix:
 Charge =  0 Multiplicity = 1

 SCF Done:  E(RHF) =  -777.981558625     A.U. after   15 cycles
 Normal termination of Gaussian 16 at Sat Apr  5 22:49:22 2025.
 Gaussian 16:  ES64L-G16RevC.01  3-Jul-2019

 ----------------------------------------------------------------------
 #t hf aug-cc-pvdz iop(5/13=1,5/36=2,99/5=2) pseudo=read geom=check gue
 ss=(read,tcheck) scf=(maxcycle=1)
 ----------------------------------------------------------------------
 -----
 title
 -----
 Structure from the checkpoint file:  "S-methyl-3-furancarbothioate.chk"
 Charge =  0 Multiplicity = 1

                         Standard orientation:
 ---------------------------------------------------------------------
 Center     Atomic      Atomic             Coordinates (Angstroms)
 Number     Number       Type             X           Y           Z
 ---------------------------------------------------------------------
      1          6           0       -1.392165    1.170066    0.000000
      2          6           0       -1.428012    2.519619    0.000000
      3          6           0        0.691129    1.983502    0.000000
      4          6           0        0.000000    0.807541    0.000000
      5          6           0        0.635993   -0.516796    0.000000
      6          6           0        0.661715   -3.268787    0.000000
      7          8           0        1.835393   -0.684653    0.000000
      8          8           0       -0.157808    3.030443    0.000000
      9         16           0       -0.521930   -1.891204    0.000000
     10          1           0       -2.241204    0.509673    0.000000
     11          1           0       -2.223626    3.241441    0.000000
     12          1           0        1.742596    2.204050    0.000000
     13          1           0        1.285248   -3.226145    0.888112
     14          1           0        1.285248   -3.226145   -0.888112
     15          1           0        0.069983   -4.180792    0.000000
 ---------------------------------------------------------------------

 SCF Done:  E(RHF) =  -778.120345724     A.U. after    2 cycles

 The electronic state is 1-A'.
 Alpha  occ. eigenvalues --  -93.55152 -20.66121 -20.57077 -11.38214 -11.33125
 Alpha  occ. eigenvalues --  -11.31531 -11.27141 -11.26229 -11.26030  -8.85030
 Alpha  occ. eigenvalues --   -6.19178  -6.18949  -6.18634  -1.44497  -1.36753
 Alpha  occ. eigenvalues --   -1.11286  -1.04906  -1.03318  -0.93154  -0.85584
 Alpha  occ. eigenvalues --   -0.80674  -0.78337  -0.71744  -0.67213  -0.65429
 Alpha  occ. eigenvalues --   -0.65038  -0.62805  -0.60764  -0.60157  -0.58069
 Alpha  occ. eigenvalues --   -0.56835  -0.55005  -0.48859  -0.42719  -0.42394
 Alpha  occ. eigenvalues --   -0.37039  -0.34307
 Alpha virt. eigenvalues --    0.03334   0.03764   0.04684   0.05605   0.06189
 Alpha virt. eigenvalues --    0.06396   0.07242   0.09364   0.09730   0.10107
 Alpha virt. eigenvalues --    0.10770   0.11911   0.13016   0.13170   0.13586

 Mulliken charges:
               1
     1  C    0.479467
     2  C    0.686774
     3  C    0.565601
     4  C    0.636620
     5  C   -0.490904
     6  C    0.140654
     7  O   -0.530002
     8  O   -0.532537
     9  S    0.392292
    10  H   -0.398489
    11  H   -0.314755
    12  H   -0.434518
    13  H   -0.028766
    14  H   -0.028766
    15  H   -0.142671
 Sum of Mulliken charges =  -0.00000

 Dipole moment (field-independent basis, Debye):
    X=             -1.9753    Y=             -0.2460    Z=              0.0000  Tot=              1.9906

 Test job not archived.
 1\1\GINC-SE225\SP\RHF\Aug-CC-pVDZ\C6H6O2S1\OHZDE\05-Apr-2025\0\\#t hf
 aug-cc-pvdz iop(5/13=1,5/36=2,99/5=2) pseudo=read geom=check guess=(re
 ad,tcheck) scf=(maxcycle=1)\\title\\0,1\C,0,-1.392165,1.170066,0.\C,0,
 -1.428012,2.519619,0.\C,0,0.691129,1.983502,0.\C,0,0.,0.807541,0.\C,0,
 0.635993,-0.516796,0.\C,0,0.661715,-3.268787,0.\O,0,1.835393,-0.684653
 ,0.\O,0,-0.157808,3.030443,0.\S,0,-0.52193,-1.891204,0.\H,0,-2.241204,
 0.509673,0.\H,0,-2.223626,3.241441,0.\H,0,1.742596,2.20405,0.\H,0,1.28
 5248,-3.226145,0.888112\H,0,1.285248,-3.226145,-0.888112\H,0,0.069983,

 Normal termination of Gaussian 16 at Sat Apr  5 22:50:05 2025.
