 Gaussian 16, Revision C.01,

 ----------------------------------------------------------------------
 #t hf aug-cc-pvdz symm=none int=(grid=ultrafine) guess=(read,tcheck) s
 table=(opt,rrhf)
 ----------------------------------------------------------------------
 -----
 title
 -----
 Symbolic Z-matrix:
 Charge =  0 Multiplicity = 1

 SCF Done:  E(RHF) =  -550.467664889     A.U. after   14 cycles
 Normal termination of Gaussian 16 at Sat Apr  5 22:48:28 2025.
 Gaussian 16:  ES64L-G16RevC.01  3-Jul-2019

 ----------------------------------------------------------------------
 #t hf aug-cc-pvdz iop(5/13=1,5/36=2,99/5=2) pseudo=read geom=check gue
 ss=(read,tcheck) scf=(maxcycle=1)
 ----------------------------------------------------------------------
 -----
 title
 -----
 Structure from the checkpoint file:  "S-methyl_thioformate.chk"
 Charge =  0 Multiplicity = 1

                         Standard orientation:
 ---------------------------------------------------------------------
 Center     Atomic      Atomic             Coordinates (Angstroms)
 Number     Number       Type             X           Y           Z
 ---------------------------------------------------------------------
      1          6           0       -0.591523   -0.910088    0.000000
      2          6           0        1.806424    0.511742    0.000000
      3          8           0       -1.751511   -1.205927    0.000000
      4         16           0        0.000000    0.769997    0.000000
      5          1           0        0.228373   -1.652841    0.000000
      6          1           0        2.021441   -0.556170    0.000000
      7          1           0        2.236433    0.963278    0.889535
      8          1           0        2.236433    0.963278   -0.889535
 ---------------------------------------------------------------------

 SCF Done:  E(RHF) =  -550.538935089     A.U. after    2 cycles

 The electronic state is 1-A'.
 Alpha  occ. eigenvalues --  -93.56132 -20.58768 -11.38408 -11.29054  -8.86015
 Alpha  occ. eigenvalues --   -6.20121  -6.19906  -6.19601  -1.38185  -1.06762
 Alpha  occ. eigenvalues --   -0.92550  -0.80443  -0.69001  -0.65011  -0.61930
 Alpha  occ. eigenvalues --   -0.59101  -0.57501  -0.49326  -0.42938  -0.37907
 Alpha virt. eigenvalues --    0.02901   0.04642   0.05179   0.06049   0.08465
 Alpha virt. eigenvalues --    0.09218   0.10749   0.12338   0.13301   0.13720
 Alpha virt. eigenvalues --    0.15231   0.15600   0.16079   0.16673   0.17322

 Mulliken charges:
               1
     1  C    0.228621
     2  C    0.088735
     3  O   -0.417956
     4  S    0.456897
     5  H   -0.149470
     6  H   -0.194594
     7  H   -0.006116
     8  H   -0.006116
 Sum of Mulliken charges =  -0.00000

 Dipole moment (field-independent basis, Debye):
    X=              4.5504    Y=              0.3327    Z=              0.0000  Tot=              4.5626

 Test job not archived.
 1\1\GINC-SE046\SP\RHF\Aug-CC-pVDZ\C2H4O1S1\OHZDE\05-Apr-2025\0\\#t hf
 aug-cc-pvdz iop(5/13=1,5/36=2,99/5=2) pseudo=read geom=check guess=(re
 ad,tcheck) scf=(maxcycle=1)\\title\\0,1\C,0,-0.591523,-0.910088,0.\C,0
 ,1.806424,0.511742,0.\O,0,-1.751511,-1.205927,0.\S,0,0.,0.769997,0.\H,
 0,0.228373,-1.652841,0.\H,0,2.021441,-0.55617,0.\H,0,2.236433,0.963278
 ,0.889535\H,0,2.236433,0.963278,-0.889535\\Version=ES64L-G16RevC.01\St
 ate=1-A'\HF=-550.5389351\RMSD=4.409e-03\Dipole=1.7902694,0.1308819,0.\
 Quadrupole=-1.1908009,0.6029402,0.5878607,-1.9825227,0.,0.\PG=CS [SG(C

 Normal termination of Gaussian 16 at Sat Apr  5 22:48:33 2025.
