 Gaussian 16, Revision C.01,

 ----------------------------------------------------------------------
 #t hf aug-cc-pvdz symm=none int=(grid=ultrafine) guess=(read,tcheck) s
 table=(opt,rrhf)
 ----------------------------------------------------------------------
 -----
 title
 -----
 Symbolic Z-matrix:
 Charge =  0 Multiplicity = 1

 SCF Done:  E(RHF) =  -848.102677588     A.U. after   18 cycles
 Normal termination of Gaussian 16 at Sat Apr  5 22:49:32 2025.
 Gaussian 16:  ES64L-G16RevC.01  3-Jul-2019

 ----------------------------------------------------------------------
 #t hf aug-cc-pvdz iop(5/13=1,5/36=2,99/5=2) pseudo=read geom=check gue
 ss=(read,tcheck) scf=(maxcycle=1)
 ----------------------------------------------------------------------
 -----
 title
 -----
 Structure from the checkpoint file:  "S-nitrosocysteine.chk"
 Charge =  0 Multiplicity = 1

                         Standard orientation:
 ---------------------------------------------------------------------
 Center     Atomic      Atomic             Coordinates (Angstroms)
 Number     Number       Type             X           Y           Z
 ---------------------------------------------------------------------
      1         16           0       -1.708055   -0.944543    0.238777
      2          8           0        2.543314    1.082665   -0.736842
      3          8           0        3.099840   -0.995616   -0.091408
      4          8           0       -3.637533    0.704920   -0.308545
      5          7           0        0.648212    1.175180    1.198357
      6          7           0       -2.500457    0.538811   -0.543859
      7          6           0        0.958154   -0.108039    0.596436
      8          6           0       -0.057481   -0.638317   -0.450388
      9          6           0        2.322002   -0.078776   -0.081186
     10          1           0        1.047909   -0.847293    1.390980
     11          1           0        0.293305   -1.573053   -0.885849
     12          1           0       -0.196720    0.090629   -1.251576
     13          1           0       -0.227541    1.132950    1.703394
     14          1           0        0.584033    1.910377    0.505497
     15          1           0        3.412596    1.016178   -1.159186
 ---------------------------------------------------------------------

 SCF Done:  E(RHF) =  -848.261248992     A.U. after    2 cycles

 The electronic state is 1-A.
 Alpha  occ. eigenvalues --  -93.58376 -20.68906 -20.64173 -20.58114 -15.83375
 Alpha  occ. eigenvalues --  -15.62997 -11.41457 -11.31153 -11.30063  -8.88006
 Alpha  occ. eigenvalues --   -6.22072  -6.21885  -6.21554  -1.53510  -1.44272
 Alpha  occ. eigenvalues --   -1.34466  -1.19268  -1.08525  -1.00715  -0.93210
 Alpha  occ. eigenvalues --   -0.85595  -0.83066  -0.74196  -0.72453  -0.71579
 Alpha  occ. eigenvalues --   -0.70712  -0.67407  -0.66507  -0.65956  -0.63289
 Alpha  occ. eigenvalues --   -0.61539  -0.59814  -0.55386  -0.51777  -0.51426
 Alpha  occ. eigenvalues --   -0.47725  -0.41698  -0.39838  -0.38949
 Alpha virt. eigenvalues --    0.03141   0.04323   0.04459   0.05113   0.05564
 Alpha virt. eigenvalues --    0.06975   0.07325   0.08369   0.08784   0.11183
 Alpha virt. eigenvalues --    0.11292   0.11927   0.13073   0.13585   0.14322

 Mulliken charges:
               1
     1  S    0.687948
     2  O   -0.555990
     3  O   -0.497461
     4  O   -0.353127
     5  N   -0.308122
     6  N   -0.158279
     7  C    0.361197
     8  C    0.038200
     9  C    0.665876
    10  H   -0.117010
    11  H   -0.035913
    12  H    0.009980
    13  H    0.026099
    14  H    0.039141
    15  H    0.197461
 Sum of Mulliken charges =  -0.00000

 Dipole moment (field-independent basis, Debye):
    X=              0.3274    Y=              0.8150    Z=             -1.1830  Tot=              1.4734

 Test job not archived.
 1\1\GINC-SE107\SP\RHF\Aug-CC-pVDZ\C3H6N2O3S1\OHZDE\05-Apr-2025\0\\#t h
 f aug-cc-pvdz iop(5/13=1,5/36=2,99/5=2) pseudo=read geom=check guess=(
 read,tcheck) scf=(maxcycle=1)\\title\\0,1\S,0,-1.708055,-0.944543,0.23
 8777\O,0,2.543314,1.082665,-0.736842\O,0,3.09984,-0.995616,-0.091408\O
 ,0,-3.637533,0.70492,-0.308545\N,0,0.648212,1.17518,1.198357\N,0,-2.50
 0457,0.538811,-0.543859\C,0,0.958154,-0.108039,0.596436\C,0,-0.057481,
 -0.638317,-0.450388\C,0,2.322002,-0.078776,-0.081186\H,0,1.047909,-0.8
 47293,1.39098\H,0,0.293305,-1.573053,-0.885849\H,0,-0.19672,0.090629,-

 Normal termination of Gaussian 16 at Sat Apr  5 22:50:05 2025.
