 Gaussian 16, Revision C.01,

 ----------------------------------------------------------------------
 #t hf aug-cc-pvdz symm=none int=(grid=ultrafine) guess=(read,tcheck) s
 table=(opt,rrhf)
 ----------------------------------------------------------------------
 -----
 title
 -----
 Symbolic Z-matrix:
 Charge =  0 Multiplicity = 1

 SCF Done:  E(RHF) =  -321.902419393     A.U. after   14 cycles
 Normal termination of Gaussian 16 at Sat Apr  5 23:11:38 2025.
 Gaussian 16:  ES64L-G16RevC.01  3-Jul-2019

 ----------------------------------------------------------------------
 #t hf aug-cc-pvdz iop(5/13=1,5/36=2,99/5=2) pseudo=read geom=check gue
 ss=(read,tcheck) scf=(maxcycle=1)
 ----------------------------------------------------------------------
 -----
 title
 -----
 Structure from the checkpoint file:  "sarcosine.chk"
 Charge =  0 Multiplicity = 1

                         Standard orientation:
 ---------------------------------------------------------------------
 Center     Atomic      Atomic             Coordinates (Angstroms)
 Number     Number       Type             X           Y           Z
 ---------------------------------------------------------------------
      1          1           0       -1.062995    1.233708   -0.007749
      2          7           0       -1.287298    0.301061   -0.329906
      3          1           0       -2.668450   -0.329662    1.188710
      4          1           0       -2.886524   -1.049290   -0.414325
      5          1           0       -3.337280    0.630006   -0.147704
      6          6           0       -2.603422   -0.132820    0.107415
      7          1           0       -0.323323   -1.023463    1.042073
      8          1           0       -0.185290   -1.445839   -0.662916
      9          6           0       -0.216255   -0.595054    0.027536
     10          8           0        1.244161    1.313708    0.076402
     11          6           0        1.122183    0.123838    0.016980
     12          1           0        1.964442   -1.602938   -0.095392
     13          8           0        2.217773   -0.675674   -0.014519
 ---------------------------------------------------------------------

 SCF Done:  E(RHF) =  -322.005053275     A.U. after    2 cycles

 The electronic state is 1-A.
 Alpha  occ. eigenvalues --  -20.63399 -20.56855 -15.62084 -11.40641 -11.29918
 Alpha  occ. eigenvalues --  -11.26711  -1.42881  -1.34067  -1.19356  -1.00163
 Alpha  occ. eigenvalues --   -0.89040  -0.84384  -0.75348  -0.68853  -0.68446
 Alpha  occ. eigenvalues --   -0.64204  -0.62178  -0.61808  -0.57730  -0.54945
 Alpha  occ. eigenvalues --   -0.53117  -0.50604  -0.47334  -0.37945
 Alpha virt. eigenvalues --    0.02457   0.03697   0.04448   0.05330   0.06844
 Alpha virt. eigenvalues --    0.07390   0.08452   0.09909   0.11699   0.12165
 Alpha virt. eigenvalues --    0.13515   0.14208   0.14594   0.15260   0.15939

 Mulliken charges:
               1
     1  H    0.028847
     2  N   -0.548245
     3  H   -0.102303
     4  H   -0.136839
     5  H   -0.217349
     6  C    0.714730
     7  H   -0.019132
     8  H   -0.227172
     9  C    0.646547
    10  O   -0.454216
    11  C    0.630547
    12  H    0.185209
    13  O   -0.500623
 Sum of Mulliken charges =  -0.00000

 Dipole moment (field-independent basis, Debye):
    X=             -2.3337    Y=             -4.0397    Z=              0.7769  Tot=              4.7296

 Test job not archived.
 1\1\GINC-SE047\SP\RHF\Aug-CC-pVDZ\C3H7N1O2\OHZDE\05-Apr-2025\0\\#t hf
 aug-cc-pvdz iop(5/13=1,5/36=2,99/5=2) pseudo=read geom=check guess=(re
 ad,tcheck) scf=(maxcycle=1)\\title\\0,1\H,0,-1.062995,1.233708,-0.0077
 49\N,0,-1.287298,0.301061,-0.329906\H,0,-2.66845,-0.329662,1.18871\H,0
 ,-2.886524,-1.04929,-0.414325\H,0,-3.33728,0.630006,-0.147704\C,0,-2.6
 03422,-0.13282,0.107415\H,0,-0.323323,-1.023463,1.042073\H,0,-0.18529,
 -1.445839,-0.662916\C,0,-0.216255,-0.595054,0.027536\O,0,1.244161,1.31
 3708,0.076402\C,0,1.122183,0.123838,0.01698\H,0,1.964442,-1.602938,-0.

 Normal termination of Gaussian 16 at Sat Apr  5 23:12:24 2025.
