 Gaussian 16, Revision C.01,

 ----------------------------------------------------------------------
 #t hf aug-cc-pvdz symm=none int=(grid=ultrafine) guess=(read,tcheck) s
 table=(opt,rrhf)
 ----------------------------------------------------------------------
 -----
 title
 -----
 Symbolic Z-matrix:
 Charge =  0 Multiplicity = 1

 SCF Done:  E(RHF) =  -386.882962520     A.U. after   14 cycles
 Normal termination of Gaussian 16 at Sat Apr  5 23:14:13 2025.
 Gaussian 16:  ES64L-G16RevC.01  3-Jul-2019

 ----------------------------------------------------------------------
 #t hf aug-cc-pvdz iop(5/13=1,5/36=2,99/5=2) pseudo=read geom=check gue
 ss=(read,tcheck) scf=(maxcycle=1)
 ----------------------------------------------------------------------
 -----
 title
 -----
 Structure from the checkpoint file:  "sec-butylbenzene.chk"
 Charge =  0 Multiplicity = 1

                         Standard orientation:
 ---------------------------------------------------------------------
 Center     Atomic      Atomic             Coordinates (Angstroms)
 Number     Number       Type             X           Y           Z
 ---------------------------------------------------------------------
      1          6           0        2.857988   -0.186371   -0.233131
      2          6           0        2.053766    0.384179   -1.214486
      3          6           0        2.290498   -0.563987    0.976902
      4          6           0        0.697008    0.573868   -0.984913
      5          6           0        0.930680   -0.371454    1.200202
      6          6           0        0.110355    0.199210    0.227134
      7          6           0       -2.106231   -1.897819   -0.384502
      8          6           0       -1.735472    1.906080    0.469313
      9          6           0       -2.268736   -0.382193   -0.478594
     10          6           0       -1.370680    0.413775    0.488686
     11          1           0        3.914630   -0.333895   -0.411250
     12          1           0        2.484835    0.682992   -2.161028
     13          1           0        2.904128   -1.009341    1.748912
     14          1           0        0.089544    1.020400   -1.761714
     15          1           0        0.498685   -0.670061    2.147496
     16          1           0       -2.781757   -2.406774   -1.073300
     17          1           0       -1.088989   -2.207419   -0.625697
     18          1           0       -2.330630   -2.254856    0.622994
     19          1           0       -1.578291    2.339587   -0.519828
     20          1           0       -2.785198    2.048697    0.731767
     21          1           0       -1.128084    2.469271    1.178299
     22          1           0       -2.072665   -0.053669   -1.503150
     23          1           0       -3.308762   -0.116218   -0.270236
     24          1           0       -1.572502    0.039560    1.497058
 ---------------------------------------------------------------------

 SCF Done:  E(RHF) =  -387.000292313     A.U. after    2 cycles

 The electronic state is 1-A.
 Alpha  occ. eigenvalues --  -11.24362 -11.24117 -11.24069 -11.23968 -11.23720
 Alpha  occ. eigenvalues --  -11.23604 -11.23590 -11.22806 -11.22304 -11.21788
 Alpha  occ. eigenvalues --   -1.14616  -1.07964  -1.00643  -1.00324  -0.97079
 Alpha  occ. eigenvalues --   -0.86808  -0.83460  -0.82257  -0.76827  -0.69841
 Alpha  occ. eigenvalues --   -0.65154  -0.62830  -0.61282  -0.59617  -0.58719
 Alpha  occ. eigenvalues --   -0.57631  -0.57273  -0.53920  -0.51712  -0.50262
 Alpha  occ. eigenvalues --   -0.49810  -0.49152  -0.46754  -0.46380  -0.45595
 Alpha  occ. eigenvalues --   -0.33729  -0.32722
 Alpha virt. eigenvalues --    0.03350   0.03880   0.04059   0.04585   0.05412
 Alpha virt. eigenvalues --    0.05594   0.06330   0.06889   0.07307   0.07398
 Alpha virt. eigenvalues --    0.08036   0.08847   0.09366   0.10347   0.11104

 Mulliken charges:
               1
     1  C    0.781541
     2  C    0.159059
     3  C    0.299489
     4  C    0.579410
     5  C    0.563616
     6  C    0.429725
     7  C    0.450637
     8  C    0.726857
     9  C    0.502833
    10  C   -0.696013
    11  H   -0.463594
    12  H   -0.466663
    13  H   -0.458590
    14  H   -0.691153
    15  H   -0.654190
    16  H   -0.088937
    17  H   -0.076829
    18  H   -0.066051
    19  H   -0.059469
    20  H   -0.110383
    21  H   -0.083878
    22  H   -0.121208
    23  H   -0.144157
    24  H   -0.312053
 Sum of Mulliken charges =  -0.00000

 Dipole moment (field-independent basis, Debye):
    X=             -0.3920    Y=              0.0399    Z=              0.0367  Tot=              0.3957

 Test job not archived.
 1\1\GINC-SE046\SP\RHF\Aug-CC-pVDZ\C10H14\OHZDE\05-Apr-2025\0\\#t hf au
 g-cc-pvdz iop(5/13=1,5/36=2,99/5=2) pseudo=read geom=check guess=(read
 ,tcheck) scf=(maxcycle=1)\\title\\0,1\C,0,2.857988,-0.186371,-0.233131
 \C,0,2.053766,0.384179,-1.214486\C,0,2.290498,-0.563987,0.976902\C,0,0
 .697008,0.573868,-0.984913\C,0,0.93068,-0.371454,1.200202\C,0,0.110355
 ,0.19921,0.227134\C,0,-2.106231,-1.897819,-0.384502\C,0,-1.735472,1.90
 608,0.469313\C,0,-2.268736,-0.382193,-0.478594\C,0,-1.37068,0.413775,0
 .488686\H,0,3.91463,-0.333895,-0.41125\H,0,2.484835,0.682992,-2.161028

 Normal termination of Gaussian 16 at Sat Apr  5 23:14:33 2025.
