 Gaussian 16, Revision C.01,

 ----------------------------------------------------------------------
 #t hf aug-cc-pvdz symm=none int=(grid=ultrafine) guess=(read,tcheck) s
 table=(opt,rrhf)
 ----------------------------------------------------------------------
 -----
 title
 -----
 Symbolic Z-matrix:
 Charge =  0 Multiplicity = 1

 SCF Done:  E(RHF) =  -396.792676285     A.U. after   14 cycles
 Normal termination of Gaussian 16 at Sat Apr  5 23:12:54 2025.
 Gaussian 16:  ES64L-G16RevC.01  3-Jul-2019

 ----------------------------------------------------------------------
 #t hf aug-cc-pvdz iop(5/13=1,5/36=2,99/5=2) pseudo=read geom=check gue
 ss=(read,tcheck) scf=(maxcycle=1)
 ----------------------------------------------------------------------
 -----
 title
 -----
 Structure from the checkpoint file:  "serine.chk"
 Charge =  0 Multiplicity = 1

                         Standard orientation:
 ---------------------------------------------------------------------
 Center     Atomic      Atomic             Coordinates (Angstroms)
 Number     Number       Type             X           Y           Z
 ---------------------------------------------------------------------
      1          7           0       -0.177991    1.757044   -0.045284
      2          6           0       -0.174557    0.454696    0.630245
      3          6           0        1.009523   -0.385808    0.110632
      4          8           0        1.076352   -1.580041    0.246542
      5          8           0        1.963473    0.331956   -0.488889
      6          1           0        1.615569    1.250303   -0.522903
      7          6           0       -1.479889   -0.332217    0.505893
      8          8           0       -1.818406   -0.558856   -0.858546
      9          1           0        0.029220    0.618593    1.692314
     10          1           0       -2.295702    0.252625    0.931383
     11          1           0       -1.398556   -1.270636    1.055345
     12          1           0       -1.310349   -1.313636   -1.174889
     13          1           0       -0.748545    1.709812   -0.883078
     14          1           0       -0.547515    2.489126    0.545335
 ---------------------------------------------------------------------

 SCF Done:  E(RHF) =  -396.916927862     A.U. after    2 cycles

 The electronic state is 1-A.
 Alpha  occ. eigenvalues --  -20.61660 -20.59018 -20.56104 -15.64873 -11.39765
 Alpha  occ. eigenvalues --  -11.30766 -11.30685  -1.42109  -1.34129  -1.33025
 Alpha  occ. eigenvalues --   -1.19259  -1.01186  -0.90203  -0.82538  -0.75229
 Alpha  occ. eigenvalues --   -0.72506  -0.70666  -0.68414  -0.64586  -0.63647
 Alpha  occ. eigenvalues --   -0.62142  -0.59937  -0.56432  -0.52549  -0.50264
 Alpha  occ. eigenvalues --   -0.49369  -0.47418  -0.42600
 Alpha virt. eigenvalues --    0.02418   0.03857   0.04481   0.04743   0.06973
 Alpha virt. eigenvalues --    0.07114   0.07556   0.10309   0.11208   0.12783
 Alpha virt. eigenvalues --    0.13501   0.14055   0.14548   0.15152   0.15484

 Mulliken charges:
               1
     1  N   -0.526234
     2  C   -0.120870
     3  C    0.630644
     4  O   -0.487651
     5  O   -0.475440
     6  H    0.263053
     7  C    1.153713
     8  O   -0.589845
     9  H    0.056528
    10  H   -0.167343
    11  H   -0.093661
    12  H    0.188805
    13  H    0.113423
    14  H    0.054877
 Sum of Mulliken charges =  -0.00000

 Dipole moment (field-independent basis, Debye):
    X=             -2.4733    Y=              3.6295    Z=              1.5996  Tot=              4.6743

 Test job not archived.
 1\1\GINC-SE177\SP\RHF\Aug-CC-pVDZ\C3H7N1O3\OHZDE\05-Apr-2025\0\\#t hf
 aug-cc-pvdz iop(5/13=1,5/36=2,99/5=2) pseudo=read geom=check guess=(re
 ad,tcheck) scf=(maxcycle=1)\\title\\0,1\N,0,-0.177991,1.757044,-0.0452
 84\C,0,-0.174557,0.454696,0.630245\C,0,1.009523,-0.385808,0.110632\O,0
 ,1.076352,-1.580041,0.246542\O,0,1.963473,0.331956,-0.488889\H,0,1.615
 569,1.250303,-0.522903\C,0,-1.479889,-0.332217,0.505893\O,0,-1.818406,
 -0.558856,-0.858546\H,0,0.02922,0.618593,1.692314\H,0,-2.295702,0.2526
 25,0.931383\H,0,-1.398556,-1.270636,1.055345\H,0,-1.310349,-1.313636,-

 Normal termination of Gaussian 16 at Sat Apr  5 23:13:34 2025.
