 Gaussian 16, Revision C.01,

 ----------------------------------------------------------------------
 #t hf aug-cc-pvdz symm=none int=(grid=ultrafine) guess=(read,tcheck) s
 table=(opt,rrhf)
 ----------------------------------------------------------------------
 -----
 title
 -----
 Symbolic Z-matrix:
 Charge =  0 Multiplicity = 1

 SCF Done:  E(RHF) =  -193.936798254     A.U. after   11 cycles
 Normal termination of Gaussian 16 at Sat Apr  5 23:11:34 2025.
 Gaussian 16:  ES64L-G16RevC.01  3-Jul-2019

 ----------------------------------------------------------------------
 #t hf aug-cc-pvdz iop(5/13=1,5/36=2,99/5=2) pseudo=read geom=check gue
 ss=(read,tcheck) scf=(maxcycle=1)
 ----------------------------------------------------------------------
 -----
 title
 -----
 Structure from the checkpoint file:  "spiropentane.chk"
 Charge =  0 Multiplicity = 1

                         Standard orientation:
 ---------------------------------------------------------------------
 Center     Atomic      Atomic             Coordinates (Angstroms)
 Number     Number       Type             X           Y           Z
 ---------------------------------------------------------------------
      1          6           0        0.000000    0.000000    0.000000
      2          6           0        0.000000    0.763303    1.266524
      3          6           0       -0.000000   -0.763303    1.266524
      4          6           0       -0.763303    0.000000   -1.266524
      5          6           0        0.763303   -0.000000   -1.266524
      6          1           0        0.910461    1.264133    1.569347
      7          1           0       -0.910461    1.264133    1.569347
      8          1           0       -0.910461   -1.264133    1.569347
      9          1           0        0.910461   -1.264133    1.569347
     10          1           0       -1.264133   -0.910461   -1.569347
     11          1           0       -1.264133    0.910461   -1.569347
     12          1           0        1.264133    0.910461   -1.569347
     13          1           0        1.264133   -0.910461   -1.569347
 ---------------------------------------------------------------------

 SCF Done:  E(RHF) =  -193.999061398     A.U. after    2 cycles

 The electronic state is 1-A1.
 Alpha  occ. eigenvalues --  -11.24241 -11.23279 -11.23270 -11.23235 -11.23235
 Alpha  occ. eigenvalues --   -1.16050  -1.05540  -0.82370  -0.82370  -0.74160
 Alpha  occ. eigenvalues --   -0.65783  -0.64101  -0.64101  -0.52353  -0.50775
 Alpha  occ. eigenvalues --   -0.48922  -0.41550  -0.41550  -0.39058
 Alpha virt. eigenvalues --    0.03824   0.04646   0.04812   0.04812   0.06734
 Alpha virt. eigenvalues --    0.06734   0.06851   0.08975   0.09833   0.11762
 Alpha virt. eigenvalues --    0.13735   0.13735   0.14498   0.15119   0.15749

 Mulliken charges:
               1
     1  C   -0.167451
     2  C    0.501309
     3  C    0.501309
     4  C    0.501309
     5  C    0.501309
     6  H   -0.229723
     7  H   -0.229723
     8  H   -0.229723
     9  H   -0.229723
    10  H   -0.229723
    11  H   -0.229723
    12  H   -0.229723
    13  H   -0.229723
 Sum of Mulliken charges =   0.00000

 Dipole moment (field-independent basis, Debye):
    X=              0.0000    Y=              0.0000    Z=              0.0000  Tot=              0.0000

 Test job not archived.
 1\1\GINC-SE187\SP\RHF\Aug-CC-pVDZ\C5H8\OHZDE\05-Apr-2025\0\\#t hf aug-
 cc-pvdz iop(5/13=1,5/36=2,99/5=2) pseudo=read geom=check guess=(read,t
 check) scf=(maxcycle=1)\\title\\0,1\C,0,0.,0.,0.\C,0,0.,0.763303,1.266
 524\C,0,0.,-0.763303,1.266524\C,0,-0.763303,0.,-1.266524\C,0,0.763303,
 0.,-1.266524\H,0,0.910461,1.264133,1.569347\H,0,-0.910461,1.264133,1.5
 69347\H,0,-0.910461,-1.264133,1.569347\H,0,0.910461,-1.264133,1.569347
 \H,0,-1.264133,-0.910461,-1.569347\H,0,-1.264133,0.910461,-1.569347\H,
 0,1.264133,0.910461,-1.569347\H,0,1.264133,-0.910461,-1.569347\\Versio

 Normal termination of Gaussian 16 at Sat Apr  5 23:12:23 2025.
