 Gaussian 16, Revision C.01,

 ----------------------------------------------------------------------
 #t hf aug-cc-pvdz symm=none int=(grid=ultrafine) guess=(read,tcheck) s
 table=(opt,rrhf)
 ----------------------------------------------------------------------
 -----
 title
 -----
 Symbolic Z-matrix:
 Charge =  0 Multiplicity = 1

 SCF Done:  E(RHF) =  -307.619562935     A.U. after   15 cycles
 Normal termination of Gaussian 16 at Sat Apr  5 23:12:29 2025.
 Gaussian 16:  ES64L-G16RevC.01  3-Jul-2019

 ----------------------------------------------------------------------
 #t hf aug-cc-pvdz iop(5/13=1,5/36=2,99/5=2) pseudo=read geom=check gue
 ss=(read,tcheck) scf=(maxcycle=1)
 ----------------------------------------------------------------------
 -----
 title
 -----
 Structure from the checkpoint file:  "styrene.chk"
 Charge =  0 Multiplicity = 1

                         Standard orientation:
 ---------------------------------------------------------------------
 Center     Atomic      Atomic             Coordinates (Angstroms)
 Number     Number       Type             X           Y           Z
 ---------------------------------------------------------------------
      1          6           0        0.646281   -2.178017    0.000000
      2          6           0        1.654479   -1.222905    0.000000
      3          6           0       -0.685207   -1.768319    0.000000
      4          6           0        1.332018    0.128421    0.000000
      5          6           0       -1.004470   -0.419868    0.000000
      6          6           0        0.000000    0.557656    0.000000
      7          6           0       -1.470206    2.598351    0.000000
      8          6           0       -0.279787    1.999196    0.000000
      9          1           0        0.891660   -3.231362    0.000000
     10          1           0        2.692244   -1.528409    0.000000
     11          1           0       -1.476757   -2.505897    0.000000
     12          1           0        2.123019    0.867889    0.000000
     13          1           0       -2.044665   -0.124640    0.000000
     14          1           0       -1.545935    3.676443    0.000000
     15          1           0       -2.403023    2.050610    0.000000
     16          1           0        0.604810    2.628272    0.000000
 ---------------------------------------------------------------------

 SCF Done:  E(RHF) =  -307.711828299     A.U. after    2 cycles

 The electronic state is 1-A'.
 Alpha  occ. eigenvalues --  -11.25414 -11.25048 -11.24651 -11.24609 -11.24507
 Alpha  occ. eigenvalues --  -11.24458 -11.24435 -11.23853  -1.15195  -1.06642
 Alpha  occ. eigenvalues --   -1.01397  -0.98840  -0.85483  -0.83053  -0.77010
 Alpha  occ. eigenvalues --   -0.70641  -0.66039  -0.63977  -0.61608  -0.59306
 Alpha  occ. eigenvalues --   -0.58534  -0.53120  -0.51886  -0.49996  -0.49155
 Alpha  occ. eigenvalues --   -0.41525  -0.34376  -0.30961
 Alpha virt. eigenvalues --    0.03454   0.03812   0.04004   0.05414   0.05519
 Alpha virt. eigenvalues --    0.07250   0.07251   0.07812   0.09712   0.10090
 Alpha virt. eigenvalues --    0.11206   0.11503   0.12814   0.13006   0.13910

 Mulliken charges:
               1
     1  C    0.367307
     2  C    0.393979
     3  C    0.244168
     4  C    0.319145
     5  C    0.385776
     6  C    0.708586
     7  C    0.639786
     8  C    0.609604
     9  H   -0.434831
    10  H   -0.442961
    11  H   -0.453692
    12  H   -0.573190
    13  H   -0.550043
    14  H   -0.380212
    15  H   -0.308420
    16  H   -0.525004
 Sum of Mulliken charges =  -0.00000

 Dipole moment (field-independent basis, Debye):
    X=              0.0633    Y=             -0.1571    Z=              0.0000  Tot=              0.1693

 Test job not archived.
 1\1\GINC-SE188\SP\RHF\Aug-CC-pVDZ\C8H8\OHZDE\05-Apr-2025\0\\#t hf aug-
 cc-pvdz iop(5/13=1,5/36=2,99/5=2) pseudo=read geom=check guess=(read,t
 check) scf=(maxcycle=1)\\title\\0,1\C,0,0.646281,-2.178017,0.\C,0,1.65
 4479,-1.222905,0.\C,0,-0.685207,-1.768319,0.\C,0,1.332018,0.128421,0.\
 C,0,-1.00447,-0.419868,0.\C,0,0.,0.557656,0.\C,0,-1.470206,2.598351,0.
 \C,0,-0.279787,1.999196,0.\H,0,0.89166,-3.231362,0.\H,0,2.692244,-1.52
 8409,0.\H,0,-1.476757,-2.505897,0.\H,0,2.123019,0.867889,0.\H,0,-2.044
 665,-0.12464,0.\H,0,-1.545935,3.676443,0.\H,0,-2.403023,2.05061,0.\H,0

 Normal termination of Gaussian 16 at Sat Apr  5 23:12:36 2025.
