 Gaussian 16, Revision C.01,

 ----------------------------------------------------------------------
 #t hf aug-cc-pvdz symm=none int=(grid=ultrafine) guess=(read,tcheck) s
 table=(opt,rrhf)
 ----------------------------------------------------------------------
 -----
 title
 -----
 Symbolic Z-matrix:
 Charge =  0 Multiplicity = 1

 SCF Done:  E(RHF) =  -262.721320498     A.U. after   13 cycles
 Normal termination of Gaussian 16 at Sat Apr  5 23:12:30 2025.
 Gaussian 16:  ES64L-G16RevC.01  3-Jul-2019

 ----------------------------------------------------------------------
 #t hf aug-cc-pvdz iop(5/13=1,5/36=2,99/5=2) pseudo=read geom=check gue
 ss=(read,tcheck) scf=(maxcycle=1)
 ----------------------------------------------------------------------
 -----
 title
 -----
 Structure from the checkpoint file:  "succinonitrile.chk"
 Charge =  0 Multiplicity = 1

                         Standard orientation:
 ---------------------------------------------------------------------
 Center     Atomic      Atomic             Coordinates (Angstroms)
 Number     Number       Type             X           Y           Z
 ---------------------------------------------------------------------
      1          6           0        0.422954    0.646920    0.000000
      2          6           0       -0.422954   -0.646920    0.000000
      3          6           0       -0.422954    1.834859    0.000000
      4          6           0        0.422954   -1.834859    0.000000
      5          7           0        1.107673   -2.757950    0.000000
      6          7           0       -1.107673    2.757950    0.000000
      7          1           0        1.069525    0.672423    0.877634
      8          1           0        1.069525    0.672423   -0.877634
      9          1           0       -1.069525   -0.672423    0.877634
     10          1           0       -1.069525   -0.672423   -0.877634
 ---------------------------------------------------------------------

 SCF Done:  E(RHF) =  -262.799528588     A.U. after    2 cycles

 The electronic state is 1-AG.
 Alpha  occ. eigenvalues --  -15.66127 -15.66127 -11.33030 -11.32980 -11.30937
 Alpha  occ. eigenvalues --  -11.30937  -1.22333  -1.21582  -1.12438  -0.98354
 Alpha  occ. eigenvalues --   -0.75871  -0.71036  -0.69554  -0.62768  -0.60607
 Alpha  occ. eigenvalues --   -0.57016  -0.56233  -0.49725  -0.48321  -0.48126
 Alpha  occ. eigenvalues --   -0.47401
 Alpha virt. eigenvalues --    0.02533   0.03705   0.03933   0.06463   0.06976
 Alpha virt. eigenvalues --    0.09342   0.10165   0.10310   0.10978   0.12008
 Alpha virt. eigenvalues --    0.13304   0.13739   0.15069   0.15259   0.15465

 Mulliken charges:
               1
     1  C    0.534397
     2  C    0.534397
     3  C   -0.344636
     4  C   -0.344636
     5  N   -0.151273
     6  N   -0.151273
     7  H   -0.019244
     8  H   -0.019244
     9  H   -0.019244
    10  H   -0.019244
 Sum of Mulliken charges =  -0.00000

 Dipole moment (field-independent basis, Debye):
    X=             -0.0000    Y=             -0.0000    Z=              0.0000  Tot=              0.0000

 Test job not archived.
 1\1\GINC-SE199\SP\RHF\Aug-CC-pVDZ\C4H4N2\OHZDE\05-Apr-2025\0\\#t hf au
 g-cc-pvdz iop(5/13=1,5/36=2,99/5=2) pseudo=read geom=check guess=(read
 ,tcheck) scf=(maxcycle=1)\\title\\0,1\C,0,0.422954,0.64692,0.\C,0,-0.4
 22954,-0.64692,0.\C,0,-0.422954,1.834859,0.\C,0,0.422954,-1.834859,0.\
 N,0,1.107673,-2.75795,0.\N,0,-1.107673,2.75795,0.\H,0,1.069525,0.67242
 3,0.877634\H,0,1.069525,0.672423,-0.877634\H,0,-1.069525,-0.672423,0.8
 77634\H,0,-1.069525,-0.672423,-0.877634\\Version=ES64L-G16RevC.01\Stat
 e=1-AG\HF=-262.7995286\RMSD=4.079e-03\Dipole=0.,0.,0.\Quadrupole=3.676

 Normal termination of Gaussian 16 at Sat Apr  5 23:12:34 2025.
