 Gaussian 16, Revision C.01,

 ----------------------------------------------------------------------
 #t hf aug-cc-pvdz symm=none int=(grid=ultrafine) guess=(read,tcheck) s
 table=(opt,rrhf)
 ----------------------------------------------------------------------
 -----
 title
 -----
 Symbolic Z-matrix:
 Charge =  0 Multiplicity = 1

 SCF Done:  E(RHF) =  -454.534732395     A.U. after   13 cycles
 Normal termination of Gaussian 16 at Sat Apr  5 23:11:53 2025.
 Gaussian 16:  ES64L-G16RevC.01  3-Jul-2019

 ----------------------------------------------------------------------
 #t hf aug-cc-pvdz iop(5/13=1,5/36=2,99/5=2) pseudo=read geom=check gue
 ss=(read,tcheck) scf=(maxcycle=1)
 ----------------------------------------------------------------------
 -----
 title
 -----
 Structure from the checkpoint file:  "succinic_acid.chk"
 Charge =  0 Multiplicity = 1

                         Standard orientation:
 ---------------------------------------------------------------------
 Center     Atomic      Atomic             Coordinates (Angstroms)
 Number     Number       Type             X           Y           Z
 ---------------------------------------------------------------------
      1          8           0       -2.569105   -0.409889   -0.572480
      2          6           0       -1.603311   -0.035392    0.038272
      3          6           0       -0.692304    1.087981   -0.403001
      4          6           0        0.695435    1.135208    0.232886
      5          6           0        1.604629   -0.043381   -0.033539
      6          8           0        2.579645   -0.312785    0.616746
      7          8           0        1.230271   -0.763568   -1.119024
      8          8           0       -1.243334   -0.568197    1.231448
      9          1           0       -1.222247    2.014615   -0.166974
     10          1           0       -0.636885    1.034304   -1.487924
     11          1           0        0.640007    1.245840    1.313535
     12          1           0        1.226901    2.014895   -0.139503
     13          1           0        1.873901   -1.480386   -1.220794
     14          1           0       -1.888183   -1.260241    1.440431
 ---------------------------------------------------------------------

 SCF Done:  E(RHF) =  -454.678937565     A.U. after    2 cycles

 The electronic state is 1-A.
 Alpha  occ. eigenvalues --  -20.63680 -20.63670 -20.57222 -20.57216 -11.41088
 Alpha  occ. eigenvalues --  -11.41078 -11.27577 -11.27521  -1.43770  -1.43438
 Alpha  occ. eigenvalues --   -1.33737  -1.33712  -1.09691  -0.96932  -0.85933
 Alpha  occ. eigenvalues --   -0.83403  -0.73141  -0.73003  -0.72061  -0.67997
 Alpha  occ. eigenvalues --   -0.67374  -0.66406  -0.61345  -0.61009  -0.58295
 Alpha  occ. eigenvalues --   -0.58137  -0.54632  -0.51260  -0.50555  -0.47631
 Alpha  occ. eigenvalues --   -0.47233
 Alpha virt. eigenvalues --    0.02916   0.04008   0.04213   0.05488   0.05729
 Alpha virt. eigenvalues --    0.07193   0.09641   0.09883   0.10659   0.13021
 Alpha virt. eigenvalues --    0.13369   0.13829   0.14644   0.15074   0.15097

 Mulliken charges:
               1
     1  O   -0.495533
     2  C    0.521625
     3  C    0.195606
     4  C    0.192522
     5  C    0.519634
     6  O   -0.496745
     7  O   -0.535117
     8  O   -0.535451
     9  H    0.072420
    10  H    0.053299
    11  H    0.056029
    12  H    0.072064
    13  H    0.189869
    14  H    0.189778
 Sum of Mulliken charges =  -0.00000

 Dipole moment (field-independent basis, Debye):
    X=             -0.0155    Y=              1.1557    Z=             -0.0719  Tot=              1.1580

 Test job not archived.
 1\1\GINC-SE198\SP\RHF\Aug-CC-pVDZ\C4H6O4\OHZDE\05-Apr-2025\0\\#t hf au
 g-cc-pvdz iop(5/13=1,5/36=2,99/5=2) pseudo=read geom=check guess=(read
 ,tcheck) scf=(maxcycle=1)\\title\\0,1\O,0,-2.569105,-0.409889,-0.57248
 \C,0,-1.603311,-0.035392,0.038272\C,0,-0.692304,1.087981,-0.403001\C,0
 ,0.695435,1.135208,0.232886\C,0,1.604629,-0.043381,-0.033539\O,0,2.579
 645,-0.312785,0.616746\O,0,1.230271,-0.763568,-1.119024\O,0,-1.243334,
 -0.568197,1.231448\H,0,-1.222247,2.014615,-0.166974\H,0,-0.636885,1.03
 4304,-1.487924\H,0,0.640007,1.24584,1.313535\H,0,1.226901,2.014895,-0.

 Normal termination of Gaussian 16 at Sat Apr  5 23:12:28 2025.
