 Gaussian 16, Revision C.01,

 ----------------------------------------------------------------------
 #t hf aug-cc-pvdz symm=none int=(grid=ultrafine) guess=(read,tcheck) s
 table=(opt,rrhf)
 ----------------------------------------------------------------------
 -----
 title
 -----
 Symbolic Z-matrix:
 Charge =  0 Multiplicity = 1

 SCF Done:  E(RHF) =  -926.988111746     A.U. after   14 cycles
 Normal termination of Gaussian 16 at Sat Apr  5 23:11:24 2025.
 Gaussian 16:  ES64L-G16RevC.01  3-Jul-2019

 ----------------------------------------------------------------------
 #t hf aug-cc-pvdz iop(5/13=1,5/36=2,99/5=2) pseudo=read geom=check gue
 ss=(read,tcheck) scf=(maxcycle=1)
 ----------------------------------------------------------------------
 -----
 title
 -----
 Structure from the checkpoint file:  "sulfanylmethylthiocyanate.chk"
 Charge =  0 Multiplicity = 1

                         Standard orientation:
 ---------------------------------------------------------------------
 Center     Atomic      Atomic             Coordinates (Angstroms)
 Number     Number       Type             X           Y           Z
 ---------------------------------------------------------------------
      1         16           0       -0.581423    0.778059   -0.046508
      2         16           0        2.290563   -0.099694   -0.028882
      3          7           0       -3.075461   -0.603242    0.072586
      4          6           0        0.575090   -0.674352   -0.075835
      5          6           0       -2.060382   -0.051436    0.023082
      6          1           0        2.304288    0.255860    1.269161
      7          1           0        0.444681   -1.205612   -1.013319
      8          1           0        0.344772   -1.326672    0.758810
 ---------------------------------------------------------------------

 SCF Done:  E(RHF) =  -927.069034370     A.U. after    2 cycles

 The electronic state is 1-A.
 Alpha  occ. eigenvalues --  -93.60707 -93.57762 -15.65745 -11.34638 -11.31581
 Alpha  occ. eigenvalues --   -8.90343  -8.87492  -6.24544  -6.24215  -6.23862
 Alpha  occ. eigenvalues --   -6.21640  -6.21430  -6.21071  -1.20940  -1.11160
 Alpha  occ. eigenvalues --   -1.00859  -0.88055  -0.69239  -0.67462  -0.58740
 Alpha  occ. eigenvalues --   -0.56897  -0.54072  -0.52573  -0.50341  -0.46475
 Alpha  occ. eigenvalues --   -0.39555  -0.38939
 Alpha virt. eigenvalues --    0.02976   0.04429   0.05384   0.06936   0.07826
 Alpha virt. eigenvalues --    0.09207   0.09969   0.10910   0.12032   0.12556
 Alpha virt. eigenvalues --    0.14059   0.14373   0.14644   0.15589   0.15888

 Mulliken charges:
               1
     1  S    0.693171
     2  S    0.341052
     3  N   -0.184872
     4  C   -0.398657
     5  C   -0.398126
     6  H    0.086949
     7  H   -0.035349
     8  H   -0.104168
 Sum of Mulliken charges =  -0.00000

 Dipole moment (field-independent basis, Debye):
    X=              3.3701    Y=             -0.0576    Z=              0.5753  Tot=              3.4194

 Test job not archived.
 1\1\GINC-SE170\SP\RHF\Aug-CC-pVDZ\C2H3N1S2\OHZDE\05-Apr-2025\0\\#t hf
 aug-cc-pvdz iop(5/13=1,5/36=2,99/5=2) pseudo=read geom=check guess=(re
 ad,tcheck) scf=(maxcycle=1)\\title\\0,1\S,0,-0.581423,0.778059,-0.0465
 08\S,0,2.290563,-0.099694,-0.028882\N,0,-3.075461,-0.603242,0.072586\C
 ,0,0.57509,-0.674352,-0.075835\C,0,-2.060382,-0.051436,0.023082\H,0,2.
 304288,0.25586,1.269161\H,0,0.444681,-1.205612,-1.013319\H,0,0.344772,
 -1.326672,0.75881\\Version=ES64L-G16RevC.01\State=1-A\HF=-927.0690344\
 RMSD=5.622e-03\Dipole=1.3259063,-0.022643,0.226337\Quadrupole=-6.88067

 Normal termination of Gaussian 16 at Sat Apr  5 23:12:23 2025.
