 Gaussian 16, Revision C.01,

 ----------------------------------------------------------------------
 #t hf aug-cc-pvdz symm=none int=(grid=ultrafine) guess=(read,tcheck) s
 table=(opt,rrhf)
 ----------------------------------------------------------------------
 -----
 title
 -----
 Symbolic Z-matrix:
 Charge =  0 Multiplicity = 1

 SCF Done:  E(RHF) =  -1009.40409580     A.U. after   14 cycles
 Normal termination of Gaussian 16 at Sat Apr  5 23:11:24 2025.
 Gaussian 16:  ES64L-G16RevC.01  3-Jul-2019

 ----------------------------------------------------------------------
 #t hf aug-cc-pvdz iop(5/13=1,5/36=2,99/5=2) pseudo=read geom=check gue
 ss=(read,tcheck) scf=(maxcycle=1)
 ----------------------------------------------------------------------
 -----
 title
 -----
 Structure from the checkpoint file:  "sulfanylacetyl_chloride.chk"
 Charge =  0 Multiplicity = 1

                         Standard orientation:
 ---------------------------------------------------------------------
 Center     Atomic      Atomic             Coordinates (Angstroms)
 Number     Number       Type             X           Y           Z
 ---------------------------------------------------------------------
      1         17           0        1.676546   -0.809324   -0.064042
      2         16           0       -1.948152   -0.418639   -0.243515
      3          8           0        0.873755    1.670610   -0.356742
      4          6           0        0.580777    0.624501    0.110504
      5          6           0       -0.682958    0.310390    0.867857
      6          1           0       -2.149817    0.689707   -0.979994
      7          1           0       -1.058018    1.227789    1.313361
      8          1           0       -0.499959   -0.434986    1.635345
 ---------------------------------------------------------------------

 SCF Done:  E(RHF) =  -1009.49038209     A.U. after    2 cycles

 The electronic state is 1-A.
 Alpha  occ. eigenvalues -- -103.67790 -93.57068 -20.62159 -11.43437 -11.32087
 Alpha  occ. eigenvalues --  -10.71127  -8.86754  -8.36830  -8.36535  -8.36525
 Alpha  occ. eigenvalues --   -6.20897  -6.20695  -6.20325  -1.42887  -1.17452
 Alpha  occ. eigenvalues --   -1.08414  -0.92819  -0.79336  -0.71178  -0.69939
 Alpha  occ. eigenvalues --   -0.63646  -0.62795  -0.55764  -0.50314  -0.48708
 Alpha  occ. eigenvalues --   -0.48478  -0.47373  -0.38939
 Alpha virt. eigenvalues --    0.03359   0.04609   0.05458   0.07050   0.08627
 Alpha virt. eigenvalues --    0.09602   0.10637   0.10919   0.12145   0.13073
 Alpha virt. eigenvalues --    0.14429   0.14880   0.15516   0.16779   0.17282

 Mulliken charges:
               1
     1  Cl  -0.134406
     2  S    0.300115
     3  O   -0.363972
     4  C    0.133469
     5  C   -0.034505
     6  H    0.091519
     7  H   -0.026864
     8  H    0.034645
 Sum of Mulliken charges =  -0.00000

 Dipole moment (field-independent basis, Debye):
    X=             -1.9227    Y=             -0.1762    Z=              1.7116  Tot=              2.5802

 Test job not archived.
 1\1\GINC-SE226\SP\RHF\Aug-CC-pVDZ\C2H3Cl1O1S1\OHZDE\05-Apr-2025\0\\#t
 hf aug-cc-pvdz iop(5/13=1,5/36=2,99/5=2) pseudo=read geom=check guess=
 (read,tcheck) scf=(maxcycle=1)\\title\\0,1\Cl,0,1.676546,-0.809324,-0.
 064042\S,0,-1.948152,-0.418639,-0.243515\O,0,0.873755,1.67061,-0.35674
 2\C,0,0.580777,0.624501,0.110504\C,0,-0.682958,0.31039,0.867857\H,0,-2
 .149817,0.689707,-0.979994\H,0,-1.058018,1.227789,1.313361\H,0,-0.4999
 59,-0.434986,1.635345\\Version=ES64L-G16RevC.01\State=1-A\HF=-1009.490
 3821\RMSD=4.977e-03\Dipole=-0.7564527,-0.0693357,0.6733952\Quadrupole=

 Normal termination of Gaussian 16 at Sat Apr  5 23:12:23 2025.
