 Gaussian 16, Revision C.01,

 ----------------------------------------------------------------------
 #t hf aug-cc-pvdz symm=none int=(grid=ultrafine) guess=(read,tcheck) s
 table=(opt,rrhf)
 ----------------------------------------------------------------------
 -----
 title
 -----
 Symbolic Z-matrix:
 Charge =  0 Multiplicity = 1

 SCF Done:  E(RHF) =  -700.197143337     A.U. after   14 cycles
 Normal termination of Gaussian 16 at Sat Apr  5 23:11:28 2025.
 Gaussian 16:  ES64L-G16RevC.01  3-Jul-2019

 ----------------------------------------------------------------------
 #t hf aug-cc-pvdz iop(5/13=1,5/36=2,99/5=2) pseudo=read geom=check gue
 ss=(read,tcheck) scf=(maxcycle=1)
 ----------------------------------------------------------------------
 -----
 title
 -----
 Structure from the checkpoint file:  "sulfanyl-2-hydroxyacetate.chk"
 Charge =  0 Multiplicity = 1

                         Standard orientation:
 ---------------------------------------------------------------------
 Center     Atomic      Atomic             Coordinates (Angstroms)
 Number     Number       Type             X           Y           Z
 ---------------------------------------------------------------------
      1         16           0        2.048400   -0.290055   -0.000004
      2          8           0        0.344735   -0.570900    0.000028
      3          8           0        0.114295    1.662368   -0.000031
      4          8           0       -2.201166   -1.044702   -0.000050
      5          6           0       -0.370001    0.558920    0.000004
      6          6           0       -1.869456    0.327817    0.000042
      7          1           0        2.266181   -1.618423    0.000025
      8          1           0       -3.158635   -1.130729   -0.000000
      9          1           0       -2.254090    0.847812   -0.883395
     10          1           0       -2.254023    0.847674    0.883591
 ---------------------------------------------------------------------

 SCF Done:  E(RHF) =  -700.317443263     A.U. after    2 cycles

 The electronic state is 1-A.
 Alpha  occ. eigenvalues --  -93.60970 -20.64928 -20.59856 -20.57324 -11.41140
 Alpha  occ. eigenvalues --  -11.32564  -8.90021  -6.24227  -6.23911  -6.23433
 Alpha  occ. eigenvalues --   -1.43883  -1.35009  -1.33755  -1.02648  -0.95889
 Alpha  occ. eigenvalues --   -0.78784  -0.74506  -0.72463  -0.70113  -0.68146
 Alpha  occ. eigenvalues --   -0.64043  -0.60721  -0.56148  -0.53180  -0.51012
 Alpha  occ. eigenvalues --   -0.48403  -0.47920  -0.38170
 Alpha virt. eigenvalues --    0.02870   0.04376   0.05427   0.05458   0.06785
 Alpha virt. eigenvalues --    0.08969   0.11512   0.12108   0.12412   0.14627
 Alpha virt. eigenvalues --    0.14784   0.15913   0.16013   0.16672   0.16775

 Mulliken charges:
               1
     1  S    0.507524
     2  O   -0.736037
     3  O   -0.471671
     4  O   -0.495626
     5  C    0.290455
     6  C    0.672902
     7  H    0.047120
     8  H    0.153425
     9  H    0.015948
    10  H    0.015961
 Sum of Mulliken charges =   0.00000

 Dipole moment (field-independent basis, Debye):
    X=             -2.1861    Y=             -1.5158    Z=              0.0003  Tot=              2.6602

 Test job not archived.
 1\1\GINC-SE225\SP\RHF\Aug-CC-pVDZ\C2H4O3S1\OHZDE\05-Apr-2025\0\\#t hf
 aug-cc-pvdz iop(5/13=1,5/36=2,99/5=2) pseudo=read geom=check guess=(re
 ad,tcheck) scf=(maxcycle=1)\\title\\0,1\S,0,2.0484,-0.290055,-0.000004
 \O,0,0.344735,-0.5709,0.000028\O,0,0.114295,1.662368,-0.000031\O,0,-2.
 201166,-1.044702,-0.00005\C,0,-0.370001,0.55892,0.000004\C,0,-1.869456
 ,0.327817,0.000042\H,0,2.266181,-1.618423,0.000025\H,0,-3.158635,-1.13
 0729,0.\H,0,-2.25409,0.847812,-0.883395\H,0,-2.254023,0.847674,0.88359
 1\\Version=ES64L-G16RevC.01\State=1-A\HF=-700.3174433\RMSD=4.616e-03\D

 Normal termination of Gaussian 16 at Sat Apr  5 23:12:24 2025.
