 Gaussian 16, Revision C.01,

 ----------------------------------------------------------------------
 #t hf aug-cc-pvdz symm=none int=(grid=ultrafine) guess=(read,tcheck) s
 table=(opt,rrhf)
 ----------------------------------------------------------------------
 -----
 title
 -----
 Symbolic Z-matrix:
 Charge =  0 Multiplicity = 1

 SCF Done:  E(RHF) =  -549.223503970     A.U. after   14 cycles
 Normal termination of Gaussian 16 at Sat Apr  5 23:11:22 2025.
 Gaussian 16:  ES64L-G16RevC.01  3-Jul-2019

 ----------------------------------------------------------------------
 #t hf aug-cc-pvdz iop(5/13=1,5/36=2,99/5=2) pseudo=read geom=check gue
 ss=(read,tcheck) scf=(maxcycle=1)
 ----------------------------------------------------------------------
 -----
 title
 -----
 Structure from the checkpoint file:  "sulfanylacetylenol.chk"
 Charge =  0 Multiplicity = 1

                         Standard orientation:
 ---------------------------------------------------------------------
 Center     Atomic      Atomic             Coordinates (Angstroms)
 Number     Number       Type             X           Y           Z
 ---------------------------------------------------------------------
      1         16           0       -1.717687   -0.094549    0.004331
      2          8           0        2.473344   -0.005347   -0.104993
      3          6           0       -0.032037    0.049767   -0.007089
      4          6           0        1.170348    0.011478    0.003985
      5          1           0       -2.024932    1.220216    0.023363
      6          1           0        2.891302   -0.032124    0.765910
 ---------------------------------------------------------------------

 SCF Done:  E(RHF) =  -549.296646840     A.U. after    2 cycles

 The electronic state is 1-A.
 Alpha  occ. eigenvalues --  -93.57350 -20.65737 -11.31651 -11.26124  -8.86925
 Alpha  occ. eigenvalues --   -6.21164  -6.20895  -6.20508  -1.41651  -1.06571
 Alpha  occ. eigenvalues --   -0.96913  -0.83643  -0.69383  -0.65115  -0.63959
 Alpha  occ. eigenvalues --   -0.52765  -0.47115  -0.38229  -0.34257
 Alpha virt. eigenvalues --    0.02757   0.04378   0.08196   0.09647   0.09847
 Alpha virt. eigenvalues --    0.11869   0.12425   0.14146   0.15428   0.15666
 Alpha virt. eigenvalues --    0.17479   0.17671   0.18671   0.21512   0.23489

 Mulliken charges:
               1
     1  S    0.244288
     2  O   -0.297763
     3  C    0.360143
     4  C   -0.525037
     5  H    0.057773
     6  H    0.160595
 Sum of Mulliken charges =  -0.00000

 Dipole moment (field-independent basis, Debye):
    X=              0.9586    Y=              0.7456    Z=              1.6032  Tot=              2.0113

 Test job not archived.
 1\1\GINC-SE231\SP\RHF\Aug-CC-pVDZ\C2H2O1S1\OHZDE\05-Apr-2025\0\\#t hf
 aug-cc-pvdz iop(5/13=1,5/36=2,99/5=2) pseudo=read geom=check guess=(re
 ad,tcheck) scf=(maxcycle=1)\\title\\0,1\S,0,-1.717687,-0.094549,0.0043
 31\O,0,2.473344,-0.005347,-0.104993\C,0,-0.032037,0.049767,-0.007089\C
 ,0,1.170348,0.011478,0.003985\H,0,-2.024932,1.220216,0.023363\H,0,2.89
 1302,-0.032124,0.76591\\Version=ES64L-G16RevC.01\State=1-A\HF=-549.296
 6468\RMSD=1.292e-02\Dipole=0.3771581,0.2933233,0.6307622\Quadrupole=3.
 2457392,-1.0207125,-2.2250267,-1.8513472,3.872656,-0.0147799\PG=C01 [X

 Normal termination of Gaussian 16 at Sat Apr  5 23:12:22 2025.
