 Gaussian 16, Revision C.01,

 ----------------------------------------------------------------------
 #t hf aug-cc-pvdz symm=none int=(grid=ultrafine) guess=(read,tcheck) s
 table=(opt,rrhf)
 ----------------------------------------------------------------------
 -----
 title
 -----
 Symbolic Z-matrix:
 Charge =  0 Multiplicity = 1

 SCF Done:  E(RHF) =  -309.855572164     A.U. after   12 cycles
 Normal termination of Gaussian 16 at Sat Apr  5 23:12:34 2025.
 Gaussian 16:  ES64L-G16RevC.01  3-Jul-2019

 ----------------------------------------------------------------------
 #t hf aug-cc-pvdz iop(5/13=1,5/36=2,99/5=2) pseudo=read geom=check gue
 ss=(read,tcheck) scf=(maxcycle=1)
 ----------------------------------------------------------------------
 -----
 title
 -----
 Structure from the checkpoint file:  "syn-tricyclo4-2-0-02-5octane.chk"
 Charge =  0 Multiplicity = 1

                         Standard orientation:
 ---------------------------------------------------------------------
 Center     Atomic      Atomic             Coordinates (Angstroms)
 Number     Number       Type             X           Y           Z
 ---------------------------------------------------------------------
      1          6           0       -0.780890    0.782120    0.714182
      2          6           0        0.780890    0.782120    0.714182
      3          6           0        0.780890   -0.782120    0.714182
      4          6           0       -0.780890   -0.782120    0.714182
      5          6           0       -1.552994    0.779426   -0.630946
      6          6           0       -1.552994   -0.779426   -0.630946
      7          1           0       -1.230266    1.359101    1.520382
      8          1           0       -1.230266   -1.359101    1.520382
      9          1           0       -1.058422    1.259186   -1.474246
     10          1           0       -2.550804    1.207825   -0.545553
     11          1           0       -2.550804   -1.207825   -0.545553
     12          1           0       -1.058422   -1.259186   -1.474246
     13          6           0        1.552994   -0.779426   -0.630946
     14          6           0        1.552994    0.779426   -0.630946
     15          1           0        1.230266    1.359101    1.520382
     16          1           0        1.230266   -1.359101    1.520382
     17          1           0        2.550804   -1.207825   -0.545553
     18          1           0        1.058422   -1.259186   -1.474246
     19          1           0        2.550804    1.207825   -0.545553
     20          1           0        1.058422    1.259186   -1.474246
 ---------------------------------------------------------------------

 SCF Done:  E(RHF) =  -309.945990430     A.U. after    2 cycles

 The electronic state is 1-A1.
 Alpha  occ. eigenvalues --  -11.22451 -11.22416 -11.22415 -11.22387 -11.22202
 Alpha  occ. eigenvalues --  -11.22200 -11.22167 -11.22160  -1.15973  -1.06159
 Alpha  occ. eigenvalues --   -0.94403  -0.92249  -0.85186  -0.80931  -0.76701
 Alpha  occ. eigenvalues --   -0.69083  -0.66198  -0.64877  -0.61301  -0.57177
 Alpha  occ. eigenvalues --   -0.56750  -0.54982  -0.50783  -0.47651  -0.47571
 Alpha  occ. eigenvalues --   -0.45315  -0.42467  -0.40934  -0.40098  -0.37233
 Alpha virt. eigenvalues --    0.03468   0.04135   0.04366   0.04648   0.05725
 Alpha virt. eigenvalues --    0.06216   0.06388   0.06440   0.07962   0.08526
 Alpha virt. eigenvalues --    0.09001   0.11146   0.11436   0.11876   0.14094

 Mulliken charges:
               1
     1  C    0.221876
     2  C    0.221876
     3  C    0.221876
     4  C    0.221876
     5  C    0.620832
     6  C    0.620832
     7  H   -0.411254
     8  H   -0.411254
     9  H   -0.210479
    10  H   -0.220976
    11  H   -0.220976
    12  H   -0.210479
    13  C    0.620832
    14  C    0.620832
    15  H   -0.411254
    16  H   -0.411254
    17  H   -0.220976
    18  H   -0.210479
    19  H   -0.220976
    20  H   -0.210479
 Sum of Mulliken charges =   0.00000

 Dipole moment (field-independent basis, Debye):
    X=             -0.0000    Y=              0.0000    Z=              0.1566  Tot=              0.1566

 Test job not archived.
 1\1\GINC-SE171\SP\RHF\Aug-CC-pVDZ\C8H12\OHZDE\05-Apr-2025\0\\#t hf aug
 -cc-pvdz iop(5/13=1,5/36=2,99/5=2) pseudo=read geom=check guess=(read,
 tcheck) scf=(maxcycle=1)\\title\\0,1\C,0,-0.78089,0.78212,0.714182\C,0
 ,0.78089,0.78212,0.714182\C,0,0.78089,-0.78212,0.714182\C,0,-0.78089,-
 0.78212,0.714182\C,0,-1.552994,0.779426,-0.630946\C,0,-1.552994,-0.779
 426,-0.630946\H,0,-1.230266,1.359101,1.520382\H,0,-1.230266,-1.359101,
 1.520382\H,0,-1.058422,1.259186,-1.474246\H,0,-2.550804,1.207825,-0.54
 5553\H,0,-2.550804,-1.207825,-0.545553\H,0,-1.058422,-1.259186,-1.4742

 Normal termination of Gaussian 16 at Sat Apr  5 23:12:41 2025.
