 Gaussian 16, Revision C.01,

 ----------------------------------------------------------------------
 #t hf aug-cc-pvdz symm=none int=(grid=ultrafine) guess=(read,tcheck) s
 table=(opt,rrhf)
 ----------------------------------------------------------------------
 -----
 title
 -----
 Symbolic Z-matrix:
 Charge =  0 Multiplicity = 1

 SCF Done:  E(RHF) =  -743.554935459     A.U. after   13 cycles
 Normal termination of Gaussian 16 at Sat Apr  5 23:12:45 2025.
 Gaussian 16:  ES64L-G16RevC.01  3-Jul-2019

 ----------------------------------------------------------------------
 #t hf aug-cc-pvdz iop(5/13=1,5/36=2,99/5=2) pseudo=read geom=check gue
 ss=(read,tcheck) scf=(maxcycle=1)
 ----------------------------------------------------------------------
 -----
 title
 -----
 Structure from the checkpoint file:  "t-butylmethylsulfone.chk"
 Charge =  0 Multiplicity = 1

                         Standard orientation:
 ---------------------------------------------------------------------
 Center     Atomic      Atomic             Coordinates (Angstroms)
 Number     Number       Type             X           Y           Z
 ---------------------------------------------------------------------
      1          6           0       -1.390811    0.856682   -1.268373
      2          6           0       -1.015837    0.089879   -0.000005
      3          6           0       -1.643181   -1.309663   -0.000111
      4          6           0       -1.390836    0.856501    1.268466
      5         16           0        0.822500   -0.225263   -0.000009
      6          6           0        1.634089    1.387915    0.000134
      7          8           0        1.168494   -0.878127    1.262513
      8          8           0        1.168524   -0.877920   -1.262630
      9          1           0       -1.046643    0.337279   -2.160653
     10          1           0       -2.477629    0.942210   -1.319652
     11          1           0       -0.985356    1.868581   -1.272654
     12          1           0       -1.352891   -1.874065    0.884264
     13          1           0       -2.728961   -1.202795   -0.000121
     14          1           0       -1.352864   -1.873940   -0.884557
     15          1           0       -0.985388    1.868403    1.272894
     16          1           0       -2.477655    0.942015    1.319740
     17          1           0       -1.046678    0.336974    2.160677
     18          1           0        2.695942    1.152116    0.000133
     19          1           0        1.370738    1.934035   -0.900315
     20          1           0        1.370707    1.933886    0.900664
 ---------------------------------------------------------------------

 SCF Done:  E(RHF) =  -743.733881705     A.U. after    2 cycles

 The electronic state is 1-A.
 Alpha  occ. eigenvalues --  -93.76446 -20.54616 -20.54615 -11.30110 -11.28367
 Alpha  occ. eigenvalues --  -11.25079 -11.25070 -11.24171  -9.03283  -6.37893
 Alpha  occ. eigenvalues --   -6.37685  -6.37612  -1.39911  -1.28587  -1.12042
 Alpha  occ. eigenvalues --   -1.02814  -0.96170  -0.95489  -0.86937  -0.75533
 Alpha  occ. eigenvalues --   -0.69713  -0.66738  -0.65801  -0.63393  -0.63360
 Alpha  occ. eigenvalues --   -0.60511  -0.60173  -0.57253  -0.56973  -0.55612
 Alpha  occ. eigenvalues --   -0.54354  -0.50504  -0.50441  -0.50364  -0.49050
 Alpha  occ. eigenvalues --   -0.47760  -0.42451
 Alpha virt. eigenvalues --    0.02777   0.03805   0.04454   0.04782   0.06023
 Alpha virt. eigenvalues --    0.06124   0.06554   0.07295   0.07690   0.09074
 Alpha virt. eigenvalues --    0.09196   0.09449   0.11637   0.12286   0.13244

 Mulliken charges:
               1
     1  C    1.082434
     2  C   -3.456257
     3  C    1.257440
     4  C    1.082431
     5  S    2.426099
     6  C    0.068045
     7  O   -1.174817
     8  O   -1.174818
     9  H    0.025268
    10  H    0.022045
    11  H   -0.125798
    12  H    0.008161
    13  H   -0.034759
    14  H    0.008160
    15  H   -0.125795
    16  H    0.022042
    17  H    0.025268
    18  H    0.035418
    19  H    0.014716
    20  H    0.014717
 Sum of Mulliken charges =  -0.00000

 Dipole moment (field-independent basis, Debye):
    X=             -3.0554    Y=              4.5879    Z=              0.0003  Tot=              5.5122

 Test job not archived.
 1\1\GINC-SE202\SP\RHF\Aug-CC-pVDZ\C5H12O2S1\OHZDE\05-Apr-2025\0\\#t hf
  aug-cc-pvdz iop(5/13=1,5/36=2,99/5=2) pseudo=read geom=check guess=(r
 ead,tcheck) scf=(maxcycle=1)\\title\\0,1\C,0,-1.390811,0.856682,-1.268
 373\C,0,-1.015837,0.089879,-0.000005\C,0,-1.643181,-1.309663,-0.000111
 \C,0,-1.390836,0.856501,1.268466\S,0,0.8225,-0.225263,-0.000009\C,0,1.
 634089,1.387915,0.000134\O,0,1.168494,-0.878127,1.262513\O,0,1.168524,
 -0.87792,-1.26263\H,0,-1.046643,0.337279,-2.160653\H,0,-2.477629,0.942
 211,-1.319652\H,0,-0.985355,1.868581,-1.272654\H,0,-1.352891,-1.874065

 Normal termination of Gaussian 16 at Sat Apr  5 23:13:38 2025.
