 Gaussian 16, Revision C.01,

 ----------------------------------------------------------------------
 #t hf aug-cc-pvdz symm=none int=(grid=ultrafine) guess=(read,tcheck) s
 table=(opt,rrhf)
 ----------------------------------------------------------------------
 -----
 title
 -----
 Symbolic Z-matrix:
 Charge =  0 Multiplicity = 1

 SCF Done:  E(RHF) =  -414.211459084     A.U. after   14 cycles
 Normal termination of Gaussian 16 at Sat Apr  5 23:13:29 2025.
 Gaussian 16:  ES64L-G16RevC.01  3-Jul-2019

 ----------------------------------------------------------------------
 #t hf aug-cc-pvdz iop(5/13=1,5/36=2,99/5=2) pseudo=read geom=check gue
 ss=(read,tcheck) scf=(maxcycle=1)
 ----------------------------------------------------------------------
 -----
 title
 -----
 Structure from the checkpoint file:  "terephthalonitrile.chk"
 Charge =  0 Multiplicity = 1

                         Standard orientation:
 ---------------------------------------------------------------------
 Center     Atomic      Atomic             Coordinates (Angstroms)
 Number     Number       Type             X           Y           Z
 ---------------------------------------------------------------------
      1          6           0        0.000000    0.000000    2.819994
      2          6           0        0.000000    0.000000   -2.819994
      3          6           0        0.000000    1.212111    0.691573
      4          6           0        0.000000    1.212111   -0.691573
      5          6           0       -0.000000   -1.212111    0.691573
      6          6           0       -0.000000   -1.212111   -0.691573
      7          6           0        0.000000    0.000000    1.390135
      8          6           0        0.000000    0.000000   -1.390135
      9          7           0        0.000000    0.000000    3.971955
     10          7           0        0.000000    0.000000   -3.971955
     11          1           0        0.000000    2.144546    1.236677
     12          1           0        0.000000    2.144546   -1.236677
     13          1           0       -0.000000   -2.144546    1.236677
     14          1           0       -0.000000   -2.144546   -1.236677
 ---------------------------------------------------------------------

 SCF Done:  E(RHF) =  -414.330540591     A.U. after    2 cycles

 The electronic state is 1-AG.
 Alpha  occ. eigenvalues --  -15.66329 -15.66328 -11.32987 -11.32977 -11.30972
 Alpha  occ. eigenvalues --  -11.30971 -11.30597 -11.30587 -11.30478 -11.30472
 Alpha  occ. eigenvalues --   -1.23254  -1.21860  -1.19581  -1.09937  -1.07457
 Alpha  occ. eigenvalues --   -0.94668  -0.89536  -0.80054  -0.78863  -0.70854
 Alpha  occ. eigenvalues --   -0.67394  -0.65283  -0.61451  -0.59371  -0.56890
 Alpha  occ. eigenvalues --   -0.56793  -0.56117  -0.53655  -0.48939  -0.48856
 Alpha  occ. eigenvalues --   -0.48381  -0.39822  -0.37961
 Alpha virt. eigenvalues --    0.02086   0.02438   0.03042   0.04852   0.05324
 Alpha virt. eigenvalues --    0.06319   0.07741   0.08459   0.08794   0.09475
 Alpha virt. eigenvalues --    0.09733   0.11348   0.12083   0.12123   0.13360

 Mulliken charges:
               1
     1  C   -1.178831
     2  C   -1.178831
     3  C    0.174372
     4  C    0.174372
     5  C    0.174372
     6  C    0.174372
     7  C    1.980883
     8  C    1.980883
     9  N   -0.064060
    10  N   -0.064060
    11  H   -0.543368
    12  H   -0.543368
    13  H   -0.543368
    14  H   -0.543368
 Sum of Mulliken charges =   0.00000

 Dipole moment (field-independent basis, Debye):
    X=              0.0000    Y=             -0.0000    Z=             -0.0000  Tot=              0.0000

 Test job not archived.
 1\1\GINC-SE203\SP\RHF\Aug-CC-pVDZ\C8H4N2\OHZDE\05-Apr-2025\0\\#t hf au
 g-cc-pvdz iop(5/13=1,5/36=2,99/5=2) pseudo=read geom=check guess=(read
 ,tcheck) scf=(maxcycle=1)\\title\\0,1\C,0,0.,0.,2.819994\C,0,0.,0.,-2.
 819994\C,0,0.,1.212111,0.691573\C,0,0.,1.212111,-0.691573\C,0,0.,-1.21
 2111,0.691573\C,0,0.,-1.212111,-0.691573\C,0,0.,0.,1.390135\C,0,0.,0.,
 -1.390135\N,0,0.,0.,3.971955\N,0,0.,0.,-3.971955\H,0,0.,2.144546,1.236
 677\H,0,0.,2.144546,-1.236677\H,0,0.,-2.144546,1.236677\H,0,0.,-2.1445
 46,-1.236677\\Version=ES64L-G16RevC.01\State=1-AG\HF=-414.3305406\RMSD

 Normal termination of Gaussian 16 at Sat Apr  5 23:13:41 2025.
