 Gaussian 16, Revision C.01,

 ----------------------------------------------------------------------
 #t hf aug-cc-pvdz symm=none int=(grid=ultrafine) guess=(read,tcheck) s
 table=(opt,rrhf)
 ----------------------------------------------------------------------
 -----
 title
 -----
 Symbolic Z-matrix:
 Charge =  0 Multiplicity = 1

 SCF Done:  E(RHF) =  -306.958522386     A.U. after   14 cycles

 1\1\GINC-SE206\Stability\RHF\Aug-CC-pVDZ\C4H10O2\OHZDE\05-Apr-2025\0\\
 #t hf aug-cc-pvdz symm=none int=(grid=ultrafine) guess=(read,tcheck) s
 table=(opt,rrhf)\\title\\0,1\C,0,-0.389046,-0.000005,0.034711\O,0,0.73
 8307,-0.064366,-0.877245\O,0,1.978654,0.098687,-0.135089\C,0,-1.568549
 ,-0.139826,-0.926939\C,0,-0.342451,-1.161836,1.025628\C,0,-0.410298,1.
 351768,0.745235\H,0,2.385379,-0.765132,-0.282112\H,0,-1.561837,0.66417
 9,-1.661962\H,0,-2.504086,-0.091572,-0.369874\H,0,-1.529057,-1.092846,
 -1.453933\H,0,-0.427183,2.162831,0.017417\H,0,0.469173,1.471463,1.3749

 Normal termination of Gaussian 16 at Sat Apr  5 23:11:49 2025.
 Gaussian 16:  ES64L-G16RevC.01  3-Jul-2019

 ----------------------------------------------------------------------
 #t hf aug-cc-pvdz iop(5/13=1,5/36=2,99/5=2) pseudo=read geom=check gue
 ss=(read,tcheck) scf=(maxcycle=1)
 ----------------------------------------------------------------------
 -----
 title
 -----
 Structure from the checkpoint file:  "tertbutylhydroperoxide.chk"
 Charge =  0 Multiplicity = 1

                         Standard orientation:
 ---------------------------------------------------------------------
 Center     Atomic      Atomic             Coordinates (Angstroms)
 Number     Number       Type             X           Y           Z
 ---------------------------------------------------------------------
      1          6           0       -0.389046   -0.000005    0.034711
      2          8           0        0.738307   -0.064366   -0.877245
      3          8           0        1.978654    0.098688   -0.135089
      4          6           0       -1.568549   -0.139827   -0.926939
      5          6           0       -0.342451   -1.161836    1.025628
      6          6           0       -0.410299    1.351768    0.745235
      7          1           0        2.385379   -0.765131   -0.282112
      8          1           0       -1.561837    0.664178   -1.661962
      9          1           0       -2.504086   -0.091573   -0.369874
     10          1           0       -1.529057   -1.092847   -1.453933
     11          1           0       -0.427184    2.162831    0.017417
     12          1           0        0.469172    1.471463    1.374999
     13          1           0       -1.297115    1.433057    1.375024
     14          1           0       -0.300457   -2.114938    0.496791
     15          1           0       -1.234525   -1.159419    1.652852
     16          1           0        0.526087   -1.082798    1.677660
 ---------------------------------------------------------------------

 SCF Done:  E(RHF) =  -307.056902622     A.U. after    2 cycles

 The electronic state is 1-A.
 Alpha  occ. eigenvalues --  -20.62942 -20.62894 -11.30174 -11.22810 -11.22697
 Alpha  occ. eigenvalues --  -11.22124  -1.41272  -1.20526  -1.04805  -0.94147
 Alpha  occ. eigenvalues --   -0.93920  -0.77225  -0.72239  -0.66438  -0.65476
 Alpha  occ. eigenvalues --   -0.61582  -0.58491  -0.55943  -0.54996  -0.53818
 Alpha  occ. eigenvalues --   -0.52236  -0.51552  -0.49546  -0.47092  -0.44966
 Alpha virt. eigenvalues --    0.03435   0.04426   0.04864   0.05050   0.06711
 Alpha virt. eigenvalues --    0.06834   0.06976   0.07757   0.07907   0.09614
 Alpha virt. eigenvalues --    0.12188   0.14135   0.14393   0.14981   0.15775

 Mulliken charges:
               1
     1  C   -2.226984
     2  O   -0.451784
     3  O   -0.281255
     4  C    0.835754
     5  C    0.919656
     6  C    0.909260
     7  H    0.204863
     8  H   -0.018217
     9  H    0.063245
    10  H   -0.026111
    11  H    0.015851
    12  H   -0.017647
    13  H    0.048584
    14  H    0.016480
    15  H    0.035276
    16  H   -0.026971
 Sum of Mulliken charges =  -0.00000

 Dipole moment (field-independent basis, Debye):
    X=             -0.9794    Y=             -1.3716    Z=              1.0003  Tot=              1.9599

 Test job not archived.
 1\1\GINC-SE206\SP\RHF\Aug-CC-pVDZ\C4H10O2\OHZDE\05-Apr-2025\0\\#t hf a
 ug-cc-pvdz iop(5/13=1,5/36=2,99/5=2) pseudo=read geom=check guess=(rea
 d,tcheck) scf=(maxcycle=1)\\title\\0,1\C,0,-0.389046,-0.000005,0.03471
 1\O,0,0.738307,-0.064366,-0.877245\O,0,1.978654,0.098687,-0.135089\C,0
 ,-1.568549,-0.139826,-0.926939\C,0,-0.342451,-1.161836,1.025628\C,0,-0
 .410298,1.351768,0.745235\H,0,2.385379,-0.765132,-0.282112\H,0,-1.5618
 37,0.664179,-1.661962\H,0,-2.504086,-0.091572,-0.369874\H,0,-1.529057,
 -1.092846,-1.453933\H,0,-0.427183,2.162831,0.017417\H,0,0.469173,1.471

 Normal termination of Gaussian 16 at Sat Apr  5 23:12:30 2025.
