 Gaussian 16, Revision C.01,

 ----------------------------------------------------------------------
 #t hf aug-cc-pvdz symm=none int=(grid=ultrafine) guess=(read,tcheck) s
 table=(opt,rrhf)
 ----------------------------------------------------------------------
 -----
 title
 -----
 Symbolic Z-matrix:
 Charge =  0 Multiplicity = 1

 SCF Done:  E(RHF) =  -386.878948571     A.U. after   14 cycles
 Normal termination of Gaussian 16 at Sat Apr  5 23:15:21 2025.
 Gaussian 16:  ES64L-G16RevC.01  3-Jul-2019

 ----------------------------------------------------------------------
 #t hf aug-cc-pvdz iop(5/13=1,5/36=2,99/5=2) pseudo=read geom=check gue
 ss=(read,tcheck) scf=(maxcycle=1)
 ----------------------------------------------------------------------
 -----
 title
 -----
 Structure from the checkpoint file:  "tertbutylbenzene.chk"
 Charge =  0 Multiplicity = 1

                         Standard orientation:
 ---------------------------------------------------------------------
 Center     Atomic      Atomic             Coordinates (Angstroms)
 Number     Number       Type             X           Y           Z
 ---------------------------------------------------------------------
      1          6           0        1.016390    2.717163    0.000000
      2          6           0        1.881445    1.628485    0.000000
      3          6           0       -0.351319    2.489477    0.000000
      4          6           0        1.378116    0.335664    0.000000
      5          6           0       -0.850314    1.189521    0.000000
      6          6           0        0.000795    0.083541    0.000000
      7          6           0        0.000795   -2.093932    1.258284
      8          6           0        0.000795   -2.093932   -1.258284
      9          6           0       -2.048330   -1.439541    0.000000
     10          6           0       -0.514092   -1.363859    0.000000
     11          1           0        1.405258    3.726594    0.000000
     12          1           0        2.952226    1.785794    0.000000
     13          1           0       -1.040642    3.323885    0.000000
     14          1           0        2.076582   -0.490211    0.000000
     15          1           0       -1.921023    1.051194    0.000000
     16          1           0       -0.357843   -3.125177    1.270861
     17          1           0        1.089525   -2.120203    1.294620
     18          1           0       -0.351283   -1.601521    2.165820
     19          1           0        1.089525   -2.120203   -1.294620
     20          1           0       -0.357843   -3.125177   -1.270861
     21          1           0       -0.351283   -1.601521   -2.165820
     22          1           0       -2.361319   -2.484481    0.000000
     23          1           0       -2.478782   -0.967247    0.883628
     24          1           0       -2.478782   -0.967247   -0.883628
 ---------------------------------------------------------------------

 SCF Done:  E(RHF) =  -386.995922515     A.U. after    2 cycles

 The electronic state is 1-A'.
 Alpha  occ. eigenvalues --  -11.25165 -11.24475 -11.23975 -11.23918 -11.23616
 Alpha  occ. eigenvalues --  -11.23521 -11.23464 -11.22246 -11.22225 -11.22218
 Alpha  occ. eigenvalues --   -1.14731  -1.08901  -1.00633  -0.99289  -0.93098
 Alpha  occ. eigenvalues --   -0.92913  -0.83595  -0.82082  -0.75247  -0.69898
 Alpha  occ. eigenvalues --   -0.63561  -0.63302  -0.61804  -0.60452  -0.59049
 Alpha  occ. eigenvalues --   -0.58208  -0.55018  -0.53454  -0.52705  -0.51773
 Alpha  occ. eigenvalues --   -0.50153  -0.49865  -0.46754  -0.46261  -0.45550
 Alpha  occ. eigenvalues --   -0.33620  -0.32697
 Alpha virt. eigenvalues --    0.03345   0.03871   0.04075   0.05010   0.05411
 Alpha virt. eigenvalues --    0.05521   0.06524   0.07020   0.07336   0.07717
 Alpha virt. eigenvalues --    0.07832   0.09189   0.09900   0.10455   0.11274

 Mulliken charges:
               1
     1  C    0.751562
     2  C    0.237197
     3  C    0.219897
     4  C    0.541706
     5  C    0.696597
     6  C    1.099473
     7  C    1.020710
     8  C    1.020710
     9  C    1.247342
    10  C   -3.449888
    11  H   -0.455801
    12  H   -0.465431
    13  H   -0.472042
    14  H   -0.725129
    15  H   -0.729384
    16  H   -0.060138
    17  H   -0.112990
    18  H   -0.050184
    19  H   -0.112990
    20  H   -0.060138
    21  H   -0.050184
    22  H   -0.095966
    23  H    0.002535
    24  H    0.002535
 Sum of Mulliken charges =  -0.00000

 Dipole moment (field-independent basis, Debye):
    X=             -0.1477    Y=             -0.4318    Z=             -0.0000  Tot=              0.4563

 Test job not archived.
 1\1\GINC-SE204\SP\RHF\Aug-CC-pVDZ\C10H14\OHZDE\05-Apr-2025\0\\#t hf au
 g-cc-pvdz iop(5/13=1,5/36=2,99/5=2) pseudo=read geom=check guess=(read
 ,tcheck) scf=(maxcycle=1)\\title\\0,1\C,0,1.01639,2.717163,0.\C,0,1.88
 1445,1.628485,0.\C,0,-0.351319,2.489477,0.\C,0,1.378116,0.335664,0.\C,
 0,-0.850314,1.189521,0.\C,0,0.000795,0.083541,0.\C,0,0.000795,-2.09393
 2,1.258284\C,0,0.000795,-2.093932,-1.258284\C,0,-2.04833,-1.439541,0.\
 C,0,-0.514092,-1.363859,0.\H,0,1.405258,3.726594,0.\H,0,2.952226,1.785
 794,0.\H,0,-1.040642,3.323885,0.\H,0,2.076582,-0.490211,0.\H,0,-1.9210

 Normal termination of Gaussian 16 at Sat Apr  5 23:16:03 2025.
