 Gaussian 16, Revision C.01,

 ----------------------------------------------------------------------
 #t hf aug-cc-pvdz symm=none int=(grid=ultrafine) guess=(read,tcheck) s
 table=(opt,rrhf)
 ----------------------------------------------------------------------
 -----
 title
 -----
 Symbolic Z-matrix:
 Charge =  0 Multiplicity = 1

 SCF Done:  E(RHF) =  -312.267474502     A.U. after   12 cycles
 Normal termination of Gaussian 16 at Sat Apr  5 23:13:28 2025.
 Gaussian 16:  ES64L-G16RevC.01  3-Jul-2019

 ----------------------------------------------------------------------
 #t hf aug-cc-pvdz iop(5/13=1,5/36=2,99/5=2) pseudo=read geom=check gue
 ss=(read,tcheck) scf=(maxcycle=1)
 ----------------------------------------------------------------------
 -----
 title
 -----
 Structure from the checkpoint file:  "tertbutylcyclobutane.chk"
 Charge =  0 Multiplicity = 1

                         Standard orientation:
 ---------------------------------------------------------------------
 Center     Atomic      Atomic             Coordinates (Angstroms)
 Number     Number       Type             X           Y           Z
 ---------------------------------------------------------------------
      1          6           0       -0.176910   -0.999418   -0.000000
      2          6           0        0.539789    0.364342    0.000000
      3          6           0        0.254060   -1.777499    1.254087
      4          6           0       -1.706916   -0.860851   -0.000000
      5          6           0        0.254060    1.442946    1.082409
      6          6           0        0.254060   -1.777499   -1.254087
      7          6           0        0.486107    2.526258    0.000000
      8          1           0       -0.178689    3.388865    0.000000
      9          1           0        0.895719    1.457716    1.962608
     10          6           0        0.254060    1.442946   -1.082409
     11          1           0        0.895719    1.457716   -1.962608
     12          1           0       -2.173656   -1.847725   -0.000000
     13          1           0       -0.206452   -2.767279   -1.276969
     14          1           0       -0.785006    1.429853    1.411389
     15          1           0       -0.785006    1.429853   -1.411389
     16          1           0        1.615876    0.164339   -0.000000
     17          1           0       -0.038955   -1.254061   -2.165956
     18          1           0       -2.067434   -0.330830    0.882403
     19          1           0       -2.067434   -0.330830   -0.882403
     20          1           0       -0.206452   -2.767279    1.276969
     21          1           0        1.337322   -1.913005   -1.279707
     22          1           0        1.516228    2.882374    0.000000
     23          1           0        1.337322   -1.913005    1.279707
     24          1           0       -0.038955   -1.254061    2.165956
 ---------------------------------------------------------------------

 SCF Done:  E(RHF) =  -312.364367083     A.U. after    2 cycles

 The electronic state is 1-A'.
 Alpha  occ. eigenvalues --  -11.23626 -11.22610 -11.22312 -11.22106 -11.22096
 Alpha  occ. eigenvalues --  -11.21590 -11.21583 -11.21539  -1.12628  -1.06477
 Alpha  occ. eigenvalues --   -0.92596  -0.92471  -0.88688  -0.88661  -0.77288
 Alpha  occ. eigenvalues --   -0.71838  -0.64932  -0.64425  -0.59885  -0.59793
 Alpha  occ. eigenvalues --   -0.56385  -0.54875  -0.53551  -0.53353  -0.50967
 Alpha  occ. eigenvalues --   -0.49658  -0.48548  -0.46913  -0.46108  -0.43719
 Alpha  occ. eigenvalues --   -0.42326  -0.41341
 Alpha virt. eigenvalues --    0.03532   0.04231   0.04444   0.04506   0.05995
 Alpha virt. eigenvalues --    0.06141   0.06351   0.06463   0.06779   0.08544
 Alpha virt. eigenvalues --    0.08820   0.09094   0.09138   0.09141   0.09573

 Mulliken charges:
               1
     1  C   -4.146478
     2  C    0.156510
     3  C    1.313504
     4  C    1.384566
     5  C    0.651401
     6  C    1.313504
     7  C    0.627754
     8  H   -0.210420
     9  H   -0.180378
    10  C    0.651401
    11  H   -0.180378
    12  H   -0.050334
    13  H   -0.029385
    14  H   -0.235540
    15  H   -0.235540
    16  H   -0.371995
    17  H   -0.038714
    18  H   -0.043777
    19  H   -0.043777
    20  H   -0.029385
    21  H   -0.014069
    22  H   -0.235688
    23  H   -0.014069
    24  H   -0.038714
 Sum of Mulliken charges =   0.00000

 Dipole moment (field-independent basis, Debye):
    X=              0.0393    Y=             -0.0093    Z=             -0.0000  Tot=              0.0404

 Test job not archived.
 1\1\GINC-SE205\SP\RHF\Aug-CC-pVDZ\C8H16\OHZDE\05-Apr-2025\0\\#t hf aug
 -cc-pvdz iop(5/13=1,5/36=2,99/5=2) pseudo=read geom=check guess=(read,
 tcheck) scf=(maxcycle=1)\\title\\0,1\C,0,-0.17691,-0.999418,0.\C,0,0.5
 39789,0.364342,0.\C,0,0.25406,-1.777499,1.254087\C,0,-1.706916,-0.8608
 51,0.\C,0,0.25406,1.442946,1.082409\C,0,0.25406,-1.777499,-1.254087\C,
 0,0.486107,2.526258,0.\H,0,-0.178689,3.388865,0.\H,0,0.895719,1.457716
 ,1.962608\C,0,0.25406,1.442946,-1.082409\H,0,0.895719,1.457716,-1.9626
 08\H,0,-2.173656,-1.847725,0.\H,0,-0.206452,-2.767279,-1.276969\H,0,-0

 Normal termination of Gaussian 16 at Sat Apr  5 23:13:44 2025.
