 Gaussian 16, Revision C.01,

 ----------------------------------------------------------------------
 #t hf aug-cc-pvdz symm=none int=(grid=ultrafine) guess=(read,tcheck) s
 table=(opt,rrhf)
 ----------------------------------------------------------------------
 -----
 title
 -----
 Symbolic Z-matrix:
 Charge =  0 Multiplicity = 1

 SCF Done:  E(RHF) =  -854.093789118     A.U. after   13 cycles
 Normal termination of Gaussian 16 at Sat Apr  5 23:15:05 2025.
 Gaussian 16:  ES64L-G16RevC.01  3-Jul-2019

 ----------------------------------------------------------------------
 #t hf aug-cc-pvdz iop(5/13=1,5/36=2,99/5=2) pseudo=read geom=check gue
 ss=(read,tcheck) scf=(maxcycle=1)
 ----------------------------------------------------------------------
 -----
 title
 -----
 Structure from the checkpoint file:  "tetranitromethane.chk"
 Charge =  0 Multiplicity = 1

                         Standard orientation:
 ---------------------------------------------------------------------
 Center     Atomic      Atomic             Coordinates (Angstroms)
 Number     Number       Type             X           Y           Z
 ---------------------------------------------------------------------
      1          6           0        0.000000    0.000000    0.000000
      2          7           0        0.447266   -1.152752    0.927023
      3          8           0        1.211160   -0.804270    1.793232
      4          7           0       -0.447266    1.152752    0.927023
      5          8           0        0.000000    2.247297    0.698711
      6          8           0       -1.211160    0.804270    1.793232
      7          7           0       -1.152752   -0.447266   -0.927023
      8          8           0       -2.247297    0.000000   -0.698711
      9          8           0       -0.804270   -1.211160   -1.793232
     10          7           0        1.152752    0.447266   -0.927023
     11          8           0        0.804270    1.211160   -1.793232
     12          8           0        2.247297   -0.000000   -0.698711
     13          8           0       -0.000000   -2.247297    0.698711
 ---------------------------------------------------------------------

 SCF Done:  E(RHF) =  -854.351329697     A.U. after    2 cycles

 The electronic state is 1-A.
 Alpha  occ. eigenvalues --  -20.71079 -20.71079 -20.71079 -20.71079 -20.70653
 Alpha  occ. eigenvalues --  -20.70653 -20.70653 -20.70652 -16.01912 -16.01912
 Alpha  occ. eigenvalues --  -16.01911 -16.01908 -11.56779  -1.67444  -1.64495
 Alpha  occ. eigenvalues --   -1.64249  -1.64249  -1.47685  -1.46988  -1.46988
 Alpha  occ. eigenvalues --   -1.46840  -1.26646  -1.04531  -1.03576  -1.03576
 Alpha  occ. eigenvalues --   -0.90658  -0.89409  -0.88634  -0.88634  -0.82576
 Alpha  occ. eigenvalues --   -0.82426  -0.81973  -0.81973  -0.81541  -0.80568
 Alpha  occ. eigenvalues --   -0.79409  -0.79409  -0.65938  -0.62839  -0.61113
 Alpha  occ. eigenvalues --   -0.61113  -0.60236  -0.58147  -0.58147  -0.57206
 Alpha  occ. eigenvalues --   -0.56314  -0.54662  -0.54242  -0.54242
 Alpha virt. eigenvalues --   -0.01823  -0.00519  -0.00519   0.00459   0.07449
 Alpha virt. eigenvalues --    0.08088   0.08088   0.08219   0.13010   0.13010
 Alpha virt. eigenvalues --    0.13089   0.13844   0.13860   0.17440   0.17440

 Mulliken charges:
               1
     1  C    3.087657
     2  N    0.199236
     3  O   -0.520563
     4  N    0.199236
     5  O   -0.450588
     6  O   -0.520563
     7  N    0.199236
     8  O   -0.450588
     9  O   -0.520563
    10  N    0.199236
    11  O   -0.520563
    12  O   -0.450588
    13  O   -0.450588
 Sum of Mulliken charges =   0.00000

 Dipole moment (field-independent basis, Debye):
    X=              0.0000    Y=             -0.0000    Z=             -0.0000  Tot=              0.0000

 Test job not archived.
 1\1\GINC-SE187\SP\RHF\Aug-CC-pVDZ\C1N4O8\OHZDE\05-Apr-2025\0\\#t hf au
 g-cc-pvdz iop(5/13=1,5/36=2,99/5=2) pseudo=read geom=check guess=(read
 ,tcheck) scf=(maxcycle=1)\\title\\0,1\C,0,0.,0.,0.\N,0,0.447266,-1.152
 752,0.927023\O,0,1.21116,-0.80427,1.793232\N,0,-0.447266,1.152752,0.92
 7023\O,0,0.,2.247297,0.698711\O,0,-1.21116,0.80427,1.793232\N,0,-1.152
 752,-0.447266,-0.927023\O,0,-2.247297,0.,-0.698711\O,0,-0.80427,-1.211
 16,-1.793232\N,0,1.152752,0.447266,-0.927023\O,0,0.80427,1.21116,-1.79
 3232\O,0,2.247297,0.,-0.698711\O,0,0.,-2.247297,0.698711\\Version=ES64

 Normal termination of Gaussian 16 at Sat Apr  5 23:15:57 2025.
