 Gaussian 16, Revision C.01,

 ----------------------------------------------------------------------
 #t hf aug-cc-pvdz symm=none int=(grid=ultrafine) guess=(read,tcheck) s
 table=(opt,rrhf)
 ----------------------------------------------------------------------
 -----
 title
 -----
 Symbolic Z-matrix:
 Charge =  0 Multiplicity = 1

 SCF Done:  E(RHF) =  -592.722461083     A.U. after   13 cycles

 1\1\GINC-SE185\Stability\RHF\Aug-CC-pVDZ\C5H10S1\OHZDE\05-Apr-2025\0\\
 #t hf aug-cc-pvdz symm=none int=(grid=ultrafine) guess=(read,tcheck) s
 table=(opt,rrhf)\\title\\0,1\C,0,-2.277189,0.125824,0.21236\H,0,-2.220
 83,0.016412,1.295791\H,0,-2.855694,1.024383,-0.016248\H,0,-2.824192,-0
 .729215,-0.185129\S,0,0.123265,-1.298216,-0.068974\C,0,1.67673,-0.3648
 75,0.283148\H,0,2.502112,-0.834989,-0.246639\H,0,1.880084,-0.410297,1.
 35212\C,0,-0.886248,0.229699,-0.395836\H,0,-0.974067,0.321657,-1.47958
 1\C,0,1.420648,1.071535,-0.176011\H,0,1.587312,1.148737,-1.252546\H,0,

 Normal termination of Gaussian 16 at Sat Apr  5 23:13:29 2025.
 Gaussian 16:  ES64L-G16RevC.01  3-Jul-2019

 ----------------------------------------------------------------------
 #t hf aug-cc-pvdz iop(5/13=1,5/36=2,99/5=2) pseudo=read geom=check gue
 ss=(read,tcheck) scf=(maxcycle=1)
 ----------------------------------------------------------------------
 -----
 title
 -----
 Structure from the checkpoint file:  "tetrahydro-2-methylthiophene.chk"
 Charge =  0 Multiplicity = 1

                         Standard orientation:
 ---------------------------------------------------------------------
 Center     Atomic      Atomic             Coordinates (Angstroms)
 Number     Number       Type             X           Y           Z
 ---------------------------------------------------------------------
      1          6           0       -2.277189    0.125824    0.212360
      2          1           0       -2.220830    0.016412    1.295791
      3          1           0       -2.855694    1.024384   -0.016248
      4          1           0       -2.824192   -0.729215   -0.185129
      5         16           0        0.123265   -1.298216   -0.068974
      6          6           0        1.676730   -0.364875    0.283148
      7          1           0        2.502112   -0.834989   -0.246639
      8          1           0        1.880084   -0.410297    1.352120
      9          6           0       -0.886248    0.229699   -0.395836
     10          1           0       -0.974067    0.321657   -1.479581
     11          6           0        1.420648    1.071535   -0.176011
     12          1           0        1.587312    1.148737   -1.252546
     13          1           0        2.105520    1.766873    0.312872
     14          6           0       -0.039816    1.384131    0.141919
     15          1           0       -0.360577    2.332565   -0.294901
     16          1           0       -0.176661    1.457447    1.224367
 ---------------------------------------------------------------------

 SCF Done:  E(RHF) =  -592.802157166     A.U. after    2 cycles

 The electronic state is 1-A.
 Alpha  occ. eigenvalues --  -93.51144 -11.26791 -11.26124 -11.24145 -11.23921
 Alpha  occ. eigenvalues --  -11.22982  -8.80907  -6.15041  -6.14873  -6.14521
 Alpha  occ. eigenvalues --   -1.11868  -1.01885  -0.95773  -0.89792  -0.79293
 Alpha  occ. eigenvalues --   -0.75790  -0.65470  -0.63279  -0.60870  -0.57290
 Alpha  occ. eigenvalues --   -0.56145  -0.52101  -0.49892  -0.48194  -0.48008
 Alpha  occ. eigenvalues --   -0.45605  -0.41130  -0.32702
 Alpha virt. eigenvalues --    0.03432   0.04250   0.04691   0.05013   0.06388
 Alpha virt. eigenvalues --    0.06569   0.06691   0.07471   0.07725   0.09384
 Alpha virt. eigenvalues --    0.10398   0.12327   0.14049   0.14255   0.14497

 Mulliken charges:
               1
     1  C    0.562645
     2  H   -0.033834
     3  H   -0.032691
     4  H   -0.077100
     5  S    0.443803
     6  C   -0.022724
     7  H   -0.086353
     8  H   -0.100381
     9  C   -0.513323
    10  H   -0.192485
    11  C    0.337440
    12  H   -0.155601
    13  H   -0.046139
    14  C    0.178605
    15  H   -0.096877
    16  H   -0.164984
 Sum of Mulliken charges =  -0.00000

 Dipole moment (field-independent basis, Debye):
    X=              0.3754    Y=              2.2037    Z=              0.0053  Tot=              2.2355

 Test job not archived.
 1\1\GINC-SE185\SP\RHF\Aug-CC-pVDZ\C5H10S1\OHZDE\05-Apr-2025\0\\#t hf a
 ug-cc-pvdz iop(5/13=1,5/36=2,99/5=2) pseudo=read geom=check guess=(rea
 d,tcheck) scf=(maxcycle=1)\\title\\0,1\C,0,-2.277189,0.125824,0.21236\
 H,0,-2.22083,0.016412,1.295791\H,0,-2.855694,1.024383,-0.016248\H,0,-2
 .824192,-0.729215,-0.185129\S,0,0.123265,-1.298216,-0.068974\C,0,1.676
 73,-0.364875,0.283148\H,0,2.502112,-0.834989,-0.246639\H,0,1.880084,-0
 .410297,1.35212\C,0,-0.886248,0.229699,-0.395836\H,0,-0.974067,0.32165
 7,-1.479581\C,0,1.420648,1.071535,-0.176011\H,0,1.587312,1.148737,-1.2

 Normal termination of Gaussian 16 at Sat Apr  5 23:13:41 2025.
