 Gaussian 16, Revision C.01,

 ----------------------------------------------------------------------
 #t hf aug-cc-pvdz symm=none int=(grid=ultrafine) guess=(read,tcheck) s
 table=(opt,rrhf)
 ----------------------------------------------------------------------
 -----
 title
 -----
 Symbolic Z-matrix:
 Charge =  0 Multiplicity = 1

 SCF Done:  E(RHF) =  -666.434703051     A.U. after   15 cycles
 Normal termination of Gaussian 16 at Sat Apr  5 23:14:08 2025.
 Gaussian 16:  ES64L-G16RevC.01  3-Jul-2019

 ----------------------------------------------------------------------
 #t hf aug-cc-pvdz iop(5/13=1,5/36=2,99/5=2) pseudo=read geom=check gue
 ss=(read,tcheck) scf=(maxcycle=1)
 ----------------------------------------------------------------------
 -----
 title
 -----
 Structure from the checkpoint file:  "tetrahydro-2H-thiopyran-2-one.chk"
 Charge =  0 Multiplicity = 1

                         Standard orientation:
 ---------------------------------------------------------------------
 Center     Atomic      Atomic             Coordinates (Angstroms)
 Number     Number       Type             X           Y           Z
 ---------------------------------------------------------------------
      1          6           0        1.198990    0.282454   -0.007474
      2          6           0        0.320746    1.512346   -0.137212
      3          6           0       -1.130693    1.395994    0.326233
      4          6           0       -1.862920    0.229298   -0.332913
      5          6           0       -1.354110   -1.115285    0.160621
      6          8           0        2.401259    0.353704    0.028692
      7         16           0        0.466430   -1.359194   -0.017043
      8          1           0        0.844847    2.313553    0.384969
      9          1           0        0.347721    1.769982   -1.201227
     10          1           0       -1.165947    1.279754    1.413293
     11          1           0       -1.641073    2.333624    0.100488
     12          1           0       -2.931348    0.287652   -0.110885
     13          1           0       -1.760809    0.292351   -1.419347
     14          1           0       -1.596179   -1.250292    1.214503
     15          1           0       -1.802249   -1.937985   -0.394177
 ---------------------------------------------------------------------

 SCF Done:  E(RHF) =  -666.536964359     A.U. after    2 cycles

 The electronic state is 1-A.
 Alpha  occ. eigenvalues --  -93.54559 -20.56743 -11.37372 -11.28478 -11.26138
 Alpha  occ. eigenvalues --  -11.25851 -11.25686  -8.84410  -6.18538  -6.18319
 Alpha  occ. eigenvalues --   -6.18006  -1.36627  -1.12019  -1.03247  -0.99321
 Alpha  occ. eigenvalues --   -0.87969  -0.83260  -0.73049  -0.67330  -0.64764
 Alpha  occ. eigenvalues --   -0.63878  -0.62849  -0.60694  -0.58249  -0.53322
 Alpha  occ. eigenvalues --   -0.52689  -0.50240  -0.49601  -0.45797  -0.40542
 Alpha  occ. eigenvalues --   -0.36548
 Alpha virt. eigenvalues --    0.02750   0.03919   0.04206   0.04961   0.06231
 Alpha virt. eigenvalues --    0.06527   0.07032   0.08080   0.09365   0.11244
 Alpha virt. eigenvalues --    0.11331   0.13065   0.13445   0.13924   0.14079

 Mulliken charges:
               1
     1  C   -0.197210
     2  C    0.069481
     3  C    0.315603
     4  C    0.325539
     5  C   -0.126338
     6  O   -0.518969
     7  S    0.558660
     8  H   -0.030828
     9  H    0.058771
    10  H   -0.136415
    11  H   -0.054665
    12  H   -0.059361
    13  H   -0.133252
    14  H   -0.028929
    15  H   -0.042088
 Sum of Mulliken charges =  -0.00000

 Dipole moment (field-independent basis, Debye):
    X=             -5.1957    Y=              1.2093    Z=             -0.0296  Tot=              5.3347

 Test job not archived.
 1\1\GINC-SE154\SP\RHF\Aug-CC-pVDZ\C5H8O1S1\OHZDE\05-Apr-2025\0\\#t hf
 aug-cc-pvdz iop(5/13=1,5/36=2,99/5=2) pseudo=read geom=check guess=(re
 ad,tcheck) scf=(maxcycle=1)\\title\\0,1\C,0,1.19899,0.282455,-0.007474
 \C,0,0.320745,1.512346,-0.137212\C,0,-1.130694,1.395994,0.326233\C,0,-
 1.86292,0.229297,-0.332913\C,0,-1.354109,-1.115286,0.160621\O,0,2.4012
 59,0.353705,0.028692\S,0,0.466431,-1.359194,-0.017043\H,0,0.844846,2.3
 13553,0.384969\H,0,0.34772,1.769982,-1.201227\H,0,-1.165948,1.279754,1
 .413293\H,0,-1.641074,2.333623,0.100488\H,0,-2.931348,0.287651,-0.1108

 Normal termination of Gaussian 16 at Sat Apr  5 23:14:15 2025.
