 Gaussian 16, Revision C.01,

 ----------------------------------------------------------------------
 #t hf aug-cc-pvdz symm=none int=(grid=ultrafine) guess=(read,tcheck) s
 table=(opt,rrhf)
 ----------------------------------------------------------------------
 -----
 title
 -----
 Symbolic Z-matrix:
 Charge =  0 Multiplicity = 1

 SCF Done:  E(RHF) =  -1875.85026988     A.U. after   10 cycles
 Normal termination of Gaussian 16 at Sat Apr  5 23:12:29 2025.
 Gaussian 16:  ES64L-G16RevC.01  3-Jul-2019

 ----------------------------------------------------------------------
 #t hf aug-cc-pvdz iop(5/13=1,5/36=2,99/5=2) pseudo=read geom=check gue
 ss=(read,tcheck) scf=(maxcycle=1)
 ----------------------------------------------------------------------
 -----
 title
 -----
 Structure from the checkpoint file:  "tetrachloromethane.chk"
 Charge =  0 Multiplicity = 1

                         Standard orientation:
 ---------------------------------------------------------------------
 Center     Atomic      Atomic             Coordinates (Angstroms)
 Number     Number       Type             X           Y           Z
 ---------------------------------------------------------------------
      1          6           0        0.000000    0.000000    0.000000
      2         17           0        1.030607    1.030607    1.030607
      3         17           0       -1.030607   -1.030607    1.030607
      4         17           0        1.030607   -1.030607   -1.030607
      5         17           0       -1.030607    1.030607   -1.030607
 ---------------------------------------------------------------------

 SCF Done:  E(RHF) =  -1875.93698871     A.U. after    2 cycles

 The electronic state is 1-A1.
 Alpha  occ. eigenvalues -- -103.70557-103.70557-103.70557-103.70555 -11.50997
 Alpha  occ. eigenvalues --  -10.73890 -10.73890 -10.73890 -10.73838  -8.39598
 Alpha  occ. eigenvalues --   -8.39598  -8.39598  -8.39582  -8.39236  -8.39236
 Alpha  occ. eigenvalues --   -8.39236  -8.39233  -8.39233  -8.39233  -8.39233
 Alpha  occ. eigenvalues --   -8.39233  -1.30129  -1.17505  -1.17505  -1.17505
 Alpha  occ. eigenvalues --   -0.86073  -0.67067  -0.67067  -0.67067  -0.54515
 Alpha  occ. eigenvalues --   -0.54515  -0.50272  -0.50272  -0.50272  -0.47752
 Alpha  occ. eigenvalues --   -0.47752  -0.47752
 Alpha virt. eigenvalues --    0.04738   0.07662   0.08194   0.08194   0.08194
 Alpha virt. eigenvalues --    0.11929   0.11929   0.11929   0.15386   0.15386
 Alpha virt. eigenvalues --    0.18629   0.18629   0.18629   0.18977   0.18977

 Mulliken charges:
               1
     1  C   -1.068181
     2  Cl   0.267045
     3  Cl   0.267045
     4  Cl   0.267045
     5  Cl   0.267045
 Sum of Mulliken charges =   0.00000

 Dipole moment (field-independent basis, Debye):
    X=              0.0000    Y=             -0.0000    Z=              0.0000  Tot=              0.0000

 Test job not archived.
 1\1\GINC-SE388\SP\RHF\Aug-CC-pVDZ\C1Cl4\OHZDE\05-Apr-2025\0\\#t hf aug
 -cc-pvdz iop(5/13=1,5/36=2,99/5=2) pseudo=read geom=check guess=(read,
 tcheck) scf=(maxcycle=1)\\title\\0,1\C,0,0.,0.,0.\Cl,0,1.030607,1.0306
 07,1.030607\Cl,0,-1.030607,-1.030607,1.030607\Cl,0,1.030607,-1.030607,
 -1.030607\Cl,0,-1.030607,1.030607,-1.030607\\Version=ES64L-G16RevC.01\
 State=1-A1\HF=-1875.9369887\RMSD=2.913e-03\Dipole=0.,0.,0.\Quadrupole=
 0.,0.,0.,0.,0.,0.\PG=TD [O(C1),4C3(Cl1)]\\@

 Normal termination of Gaussian 16 at Sat Apr  5 23:12:31 2025.
