 Gaussian 16, Revision C.01,

 ----------------------------------------------------------------------
 #t hf aug-cc-pvdz symm=none int=(grid=ultrafine) guess=(read,tcheck) s
 table=(opt,rrhf)
 ----------------------------------------------------------------------
 -----
 title
 -----
 Symbolic Z-matrix:
 Charge =  0 Multiplicity = 1

 SCF Done:  E(RHF) =  -425.877134363     A.U. after   12 cycles
 Normal termination of Gaussian 16 at Sat Apr  5 23:17:17 2025.
 Gaussian 16:  ES64L-G16RevC.01  3-Jul-2019

 ----------------------------------------------------------------------
 #t hf aug-cc-pvdz iop(5/13=1,5/36=2,99/5=2) pseudo=read geom=check gue
 ss=(read,tcheck) scf=(maxcycle=1)
 ----------------------------------------------------------------------
 -----
 title
 -----
 Structure from the checkpoint file:  "tetracyclo-undecane.chk"
 Charge =  0 Multiplicity = 1

                         Standard orientation:
 ---------------------------------------------------------------------
 Center     Atomic      Atomic             Coordinates (Angstroms)
 Number     Number       Type             X           Y           Z
 ---------------------------------------------------------------------
      1          6           0       -2.401528    0.502518   -0.667526
      2          6           0       -2.260633   -1.021826   -0.364232
      3          6           0       -1.222072    1.126694    0.106636
      4          6           0       -0.997200   -1.082851    0.518924
      5          6           0       -1.144453    0.209527    1.343374
      6          6           0        0.221275   -0.773296   -0.380965
      7          6           0        0.094854    0.782700   -0.624847
      8          6           0        1.349485    1.451766    0.000179
      9          6           0        1.581769   -0.992045    0.255521
     10          6           0        2.270694    0.335229    0.459780
     11          6           0        2.775082   -0.620972   -0.585328
     12          1           0       -3.352715    0.889677   -0.300403
     13          1           0       -2.352143    0.725742   -1.733924
     14          1           0       -2.158654   -1.624292   -1.267296
     15          1           0       -3.129856   -1.394619    0.178895
     16          1           0       -1.339901    2.191878    0.303109
     17          1           0       -0.899022   -2.008675    1.084603
     18          1           0       -0.291880    0.414655    1.989396
     19          1           0       -2.051980    0.229391    1.948912
     20          1           0        0.145237   -1.338197   -1.312928
     21          1           0        0.018474    1.024497   -1.684640
     22          1           0        1.840307    2.119123   -0.711691
     23          1           0        1.063396    2.066804    0.856481
     24          1           0        1.694152   -1.794885    0.972678
     25          1           0        2.893858    0.506385    1.327317
     26          1           0        2.609293   -0.379963   -1.628590
     27          1           0        3.707801   -1.132180   -0.391015
 ---------------------------------------------------------------------

 SCF Done:  E(RHF) =  -425.999118414     A.U. after    2 cycles

 The electronic state is 1-A.
 Alpha  occ. eigenvalues --  -11.22832 -11.22640 -11.22531 -11.22490 -11.22460
 Alpha  occ. eigenvalues --  -11.22420 -11.22396 -11.22180 -11.22021 -11.21977
 Alpha  occ. eigenvalues --  -11.21706  -1.17188  -1.12500  -1.00656  -0.98000
 Alpha  occ. eigenvalues --   -0.94103  -0.92381  -0.82974  -0.77436  -0.77104
 Alpha  occ. eigenvalues --   -0.74497  -0.71970  -0.67282  -0.66632  -0.64600
 Alpha  occ. eigenvalues --   -0.61574  -0.58243  -0.56182  -0.54509  -0.51982
 Alpha  occ. eigenvalues --   -0.49689  -0.49196  -0.48537  -0.48422  -0.47152
 Alpha  occ. eigenvalues --   -0.45376  -0.43429  -0.43181  -0.42488  -0.39428
 Alpha  occ. eigenvalues --   -0.38456
 Alpha virt. eigenvalues --    0.03363   0.03960   0.04060   0.04180   0.05465
 Alpha virt. eigenvalues --    0.05749   0.05872   0.06158   0.06300   0.07697
 Alpha virt. eigenvalues --    0.08250   0.08317   0.08449   0.08721   0.10017

 Mulliken charges:
               1
     1  C    0.522195
     2  C    0.703866
     3  C    0.310030
     4  C    0.282450
     5  C    0.855255
     6  C   -0.114956
     7  C   -0.301715
     8  C    0.652590
     9  C    0.661207
    10  C    0.352733
    11  C    1.074486
    12  H   -0.150255
    13  H   -0.198648
    14  H   -0.201719
    15  H   -0.176846
    16  H   -0.425934
    17  H   -0.440406
    18  H   -0.178333
    19  H   -0.265942
    20  H   -0.415531
    21  H   -0.405543
    22  H   -0.084840
    23  H   -0.230165
    24  H   -0.587905
    25  H   -0.434563
    26  H   -0.390572
    27  H   -0.410939
 Sum of Mulliken charges =  -0.00000

 Dipole moment (field-independent basis, Debye):
    X=             -0.1097    Y=              0.0285    Z=              0.1535  Tot=              0.1908

 Test job not archived.
 1\1\GINC-SE055\SP\RHF\Aug-CC-pVDZ\C11H16\OHZDE\05-Apr-2025\0\\#t hf au
 g-cc-pvdz iop(5/13=1,5/36=2,99/5=2) pseudo=read geom=check guess=(read
 ,tcheck) scf=(maxcycle=1)\\title\\0,1\C,0,-2.401528,0.502518,-0.667526
 \C,0,-2.260633,-1.021826,-0.364232\C,0,-1.222072,1.126694,0.106636\C,0
 ,-0.9972,-1.082851,0.518924\C,0,-1.144453,0.209527,1.343374\C,0,0.2212
 75,-0.773296,-0.380965\C,0,0.094854,0.7827,-0.624847\C,0,1.349485,1.45
 1766,0.000179\C,0,1.581769,-0.992045,0.255521\C,0,2.270694,0.335229,0.
 45978\C,0,2.775082,-0.620972,-0.585328\H,0,-3.352715,0.889677,-0.30040

 Normal termination of Gaussian 16 at Sat Apr  5 23:17:40 2025.
