 Gaussian 16, Revision C.01,

 ----------------------------------------------------------------------
 #t hf aug-cc-pvdz symm=none int=(grid=ultrafine) guess=(read,tcheck) s
 table=(opt,rrhf)
 ----------------------------------------------------------------------
 -----
 title
 -----
 Symbolic Z-matrix:
 Charge =  0 Multiplicity = 1

 SCF Done:  E(RHF) =  -592.723363130     A.U. after   12 cycles

 1\1\GINC-SE183\Stability\RHF\Aug-CC-pVDZ\C5H10S1\OHZDE\05-Apr-2025\0\\
 #t hf aug-cc-pvdz symm=none int=(grid=ultrafine) guess=(read,tcheck) s
 table=(opt,rrhf)\\title\\0,1\S,0,-0.747974,-1.318207,0.\C,0,0.805831,1
 .524574,0.\C,0,0.139507,1.01143,1.280779\C,0,0.139507,1.01143,-1.28077
 9\C,0,0.139507,-0.511309,1.383433\C,0,0.139507,-0.511309,-1.383433\H,0
 ,0.797332,2.616416,0.\H,0,1.85981,1.225806,0.\H,0,1.161031,-0.896509,1
 .416773\H,0,1.161031,-0.896509,-1.416773\H,0,0.661931,1.421155,2.15029
 9\H,0,0.661931,1.421155,-2.150299\H,0,-0.89091,1.371982,1.328857\H,0,-

 Normal termination of Gaussian 16 at Sat Apr  5 23:13:59 2025.
 Gaussian 16:  ES64L-G16RevC.01  3-Jul-2019

 ----------------------------------------------------------------------
 #t hf aug-cc-pvdz iop(5/13=1,5/36=2,99/5=2) pseudo=read geom=check gue
 ss=(read,tcheck) scf=(maxcycle=1)
 ----------------------------------------------------------------------
 -----
 title
 -----
 Structure from the checkpoint file:  "tetrahydro-2H-thiopyran.chk"
 Charge =  0 Multiplicity = 1

                         Standard orientation:
 ---------------------------------------------------------------------
 Center     Atomic      Atomic             Coordinates (Angstroms)
 Number     Number       Type             X           Y           Z
 ---------------------------------------------------------------------
      1         16           0       -0.747974   -1.318207   -0.000000
      2          6           0        0.805831    1.524574    0.000000
      3          6           0        0.139507    1.011430    1.280779
      4          6           0        0.139507    1.011430   -1.280779
      5          6           0        0.139507   -0.511309    1.383433
      6          6           0        0.139507   -0.511309   -1.383433
      7          1           0        0.797332    2.616416    0.000000
      8          1           0        1.859810    1.225806    0.000000
      9          1           0        1.161031   -0.896509    1.416773
     10          1           0        1.161031   -0.896509   -1.416773
     11          1           0        0.661931    1.421155    2.150299
     12          1           0        0.661931    1.421155   -2.150299
     13          1           0       -0.890910    1.371982    1.328857
     14          1           0       -0.890910    1.371982   -1.328857
     15          1           0       -0.368406   -0.846533   -2.286830
     16          1           0       -0.368406   -0.846533    2.286830
 ---------------------------------------------------------------------

 SCF Done:  E(RHF) =  -592.803636092     A.U. after    2 cycles

 The electronic state is 1-A'.
 Alpha  occ. eigenvalues --  -93.51614 -11.26124 -11.26107 -11.23584 -11.23582
 Alpha  occ. eigenvalues --  -11.23379  -8.81359  -6.15505  -6.15315  -6.14978
 Alpha  occ. eigenvalues --   -1.10611  -1.01449  -0.99556  -0.84343  -0.83347
 Alpha  occ. eigenvalues --   -0.75430  -0.64971  -0.61905  -0.61364  -0.58204
 Alpha  occ. eigenvalues --   -0.55101  -0.52936  -0.50224  -0.49798  -0.47563
 Alpha  occ. eigenvalues --   -0.43764  -0.41173  -0.32938
 Alpha virt. eigenvalues --    0.03440   0.04233   0.04608   0.04919   0.06249
 Alpha virt. eigenvalues --    0.06722   0.06827   0.07439   0.07708   0.09142
 Alpha virt. eigenvalues --    0.10530   0.13381   0.13825   0.14442   0.14609

 Mulliken charges:
               1
     1  S    0.439428
     2  C    0.111342
     3  C    0.236108
     4  C    0.236108
     5  C   -0.055291
     6  C   -0.055291
     7  H   -0.090518
     8  H   -0.125410
     9  H   -0.083207
    10  H   -0.083207
    11  H   -0.080189
    12  H   -0.080189
    13  H   -0.105430
    14  H   -0.105430
    15  H   -0.079412
    16  H   -0.079412
 Sum of Mulliken charges =   0.00000

 Dipole moment (field-independent basis, Debye):
    X=              1.3588    Y=              1.5476    Z=              0.0000  Tot=              2.0594

 Test job not archived.
 1\1\GINC-SE183\SP\RHF\Aug-CC-pVDZ\C5H10S1\OHZDE\05-Apr-2025\0\\#t hf a
 ug-cc-pvdz iop(5/13=1,5/36=2,99/5=2) pseudo=read geom=check guess=(rea
 d,tcheck) scf=(maxcycle=1)\\title\\0,1\S,0,-0.747974,-1.318207,0.\C,0,
 0.805831,1.524574,0.\C,0,0.139507,1.01143,1.280779\C,0,0.139507,1.0114
 3,-1.280779\C,0,0.139507,-0.511309,1.383433\C,0,0.139507,-0.511309,-1.
 383433\H,0,0.797332,2.616416,0.\H,0,1.85981,1.225806,0.\H,0,1.161031,-
 0.896509,1.416773\H,0,1.161031,-0.896509,-1.416773\H,0,0.661931,1.4211
 55,2.150299\H,0,0.661931,1.421155,-2.150299\H,0,-0.89091,1.371982,1.32

 Normal termination of Gaussian 16 at Sat Apr  5 23:14:04 2025.
