 Gaussian 16, Revision C.01,

 ----------------------------------------------------------------------
 #t hf aug-cc-pvdz symm=none int=(grid=ultrafine) guess=(read,tcheck) s
 table=(opt,rrhf)
 ----------------------------------------------------------------------
 -----
 title
 -----
 Symbolic Z-matrix:
 Charge =  0 Multiplicity = 1

 SCF Done:  E(RHF) =  -343.781302669     A.U. after   14 cycles
 Normal termination of Gaussian 16 at Sat Apr  5 23:13:29 2025.
 Gaussian 16:  ES64L-G16RevC.01  3-Jul-2019

 ----------------------------------------------------------------------
 #t hf aug-cc-pvdz iop(5/13=1,5/36=2,99/5=2) pseudo=read geom=check gue
 ss=(read,tcheck) scf=(maxcycle=1)
 ----------------------------------------------------------------------
 -----
 title
 -----
 Structure from the checkpoint file:  "tetrahydropyran-2-one.chk"
 Charge =  0 Multiplicity = 1

                         Standard orientation:
 ---------------------------------------------------------------------
 Center     Atomic      Atomic             Coordinates (Angstroms)
 Number     Number       Type             X           Y           Z
 ---------------------------------------------------------------------
      1          6           0       -1.136499   -0.015675   -0.013358
      2          6           0       -0.351177    1.282015   -0.109345
      3          6           0        1.121374    1.196395    0.288033
      4          6           0        1.730375   -0.061094   -0.320692
      5          6           0        0.967631   -1.274376    0.171548
      6          8           0       -2.337675   -0.038845    0.011767
      7          8           0       -0.460963   -1.190435   -0.035842
      8          1           0       -0.435798    1.586810   -1.156969
      9          1           0       -0.898296    2.025035    0.467869
     10          1           0        1.649445    2.092882   -0.038416
     11          1           0        1.214168    1.154900    1.376777
     12          1           0        1.688686   -0.010986   -1.412045
     13          1           0        2.779640   -0.174267   -0.041841
     14          1           0        1.269887   -2.184408   -0.342725
     15          1           0        1.131141   -1.419315    1.242831
 ---------------------------------------------------------------------

 SCF Done:  E(RHF) =  -343.889378806     A.U. after    2 cycles

 The electronic state is 1-A.
 Alpha  occ. eigenvalues --  -20.60952 -20.54708 -11.38951 -11.31255 -11.26015
 Alpha  occ. eigenvalues --  -11.25735 -11.25623  -1.40775  -1.31977  -1.10228
 Alpha  occ. eigenvalues --   -1.02865  -0.91861  -0.86311  -0.75882  -0.70615
 Alpha  occ. eigenvalues --   -0.67972  -0.67579  -0.63870  -0.62288  -0.60592
 Alpha  occ. eigenvalues --   -0.57766  -0.52614  -0.51531  -0.50922  -0.49626
 Alpha  occ. eigenvalues --   -0.45966  -0.44274
 Alpha virt. eigenvalues --    0.02684   0.03894   0.04044   0.04777   0.06131
 Alpha virt. eigenvalues --    0.06439   0.06930   0.07843   0.09627   0.12011
 Alpha virt. eigenvalues --    0.13166   0.13339   0.13797   0.14179   0.14568

 Mulliken charges:
               1
     1  C    0.464241
     2  C    0.064948
     3  C    0.291769
     4  C    0.151718
     5  C    0.821930
     6  O   -0.503728
     7  O   -0.632188
     8  H    0.053332
     9  H   -0.046169
    10  H   -0.058644
    11  H   -0.095879
    12  H   -0.126967
    13  H   -0.025641
    14  H   -0.206542
    15  H   -0.152181
 Sum of Mulliken charges =  -0.00000

 Dipole moment (field-independent basis, Debye):
    X=              5.4764    Y=              1.5029    Z=              0.0926  Tot=              5.6796

 Test job not archived.
 1\1\GINC-SE053\SP\RHF\Aug-CC-pVDZ\C5H8O2\OHZDE\05-Apr-2025\0\\#t hf au
 g-cc-pvdz iop(5/13=1,5/36=2,99/5=2) pseudo=read geom=check guess=(read
 ,tcheck) scf=(maxcycle=1)\\title\\0,1\C,0,-1.136499,-0.015675,-0.01335
 8\C,0,-0.351177,1.282015,-0.109345\C,0,1.121374,1.196395,0.288033\C,0,
 1.730375,-0.061094,-0.320692\C,0,0.967631,-1.274376,0.171548\O,0,-2.33
 7675,-0.038845,0.011767\O,0,-0.460963,-1.190435,-0.035842\H,0,-0.43579
 8,1.58681,-1.156969\H,0,-0.898296,2.025035,0.467869\H,0,1.649445,2.092
 882,-0.038416\H,0,1.214168,1.1549,1.376777\H,0,1.688686,-0.010986,-1.4

 Normal termination of Gaussian 16 at Sat Apr  5 23:13:41 2025.
