 Gaussian 16, Revision C.01,

 ----------------------------------------------------------------------
 #t hf aug-cc-pvdz symm=none int=(grid=ultrafine) guess=(read,tcheck) s
 table=(opt,rrhf)
 ----------------------------------------------------------------------
 -----
 title
 -----
 Symbolic Z-matrix:
 Charge =  0 Multiplicity = 1

 SCF Done:  E(RHF) =  -435.693213818     A.U. after    9 cycles
 Normal termination of Gaussian 16 at Sat Apr  5 23:13:35 2025.
 Gaussian 16:  ES64L-G16RevC.01  3-Jul-2019

 ----------------------------------------------------------------------
 #t hf aug-cc-pvdz iop(5/13=1,5/36=2,99/5=2) pseudo=read geom=check gue
 ss=(read,tcheck) scf=(maxcycle=1)
 ----------------------------------------------------------------------
 -----
 title
 -----
 Structure from the checkpoint file:  "tetrafluoromethane.chk"
 Charge =  0 Multiplicity = 1

                         Standard orientation:
 ---------------------------------------------------------------------
 Center     Atomic      Atomic             Coordinates (Angstroms)
 Number     Number       Type             X           Y           Z
 ---------------------------------------------------------------------
      1          6           0        0.000000    0.000000    0.000000
      2          9           0        0.765982    0.765982    0.765982
      3          9           0       -0.765982   -0.765982    0.765982
      4          9           0        0.765982   -0.765982   -0.765982
      5          9           0       -0.765982    0.765982   -0.765982
 ---------------------------------------------------------------------

 SCF Done:  E(RHF) =  -435.857999084     A.U. after    2 cycles

 The electronic state is 1-A1.
 Alpha  occ. eigenvalues --  -26.20387 -26.20387 -26.20387 -26.20364 -11.63563
 Alpha  occ. eigenvalues --   -1.82919  -1.73575  -1.73575  -1.73575  -1.07624
 Alpha  occ. eigenvalues --   -0.94717  -0.94717  -0.94717  -0.82749  -0.82749
 Alpha  occ. eigenvalues --   -0.77483  -0.77483  -0.77483  -0.75431  -0.75431
 Alpha  occ. eigenvalues --   -0.75431
 Alpha virt. eigenvalues --    0.08063   0.08876   0.08876   0.08876   0.23387
 Alpha virt. eigenvalues --    0.23387   0.23387   0.23899   0.23899   0.31143
 Alpha virt. eigenvalues --    0.32934   0.32934   0.32934   0.34140   0.34140

 Mulliken charges:
               1
     1  C    0.964250
     2  F   -0.241063
     3  F   -0.241063
     4  F   -0.241063
     5  F   -0.241063
 Sum of Mulliken charges =  -0.00000

 Dipole moment (field-independent basis, Debye):
    X=              0.0000    Y=             -0.0000    Z=             -0.0000  Tot=              0.0000

 Test job not archived.
 1\1\GINC-SE172\SP\RHF\Aug-CC-pVDZ\C1F4\OHZDE\05-Apr-2025\0\\#t hf aug-
 cc-pvdz iop(5/13=1,5/36=2,99/5=2) pseudo=read geom=check guess=(read,t
 check) scf=(maxcycle=1)\\title\\0,1\C,0,0.,0.,0.\F,0,0.765982,0.765982
 ,0.765982\F,0,-0.765982,-0.765982,0.765982\F,0,0.765982,-0.765982,-0.7
 65982\F,0,-0.765982,0.765982,-0.765982\\Version=ES64L-G16RevC.01\State
 =1-A1\HF=-435.8579991\RMSD=7.295e-03\Dipole=0.,0.,0.\Quadrupole=0.,0.,
 0.,0.,0.,0.\PG=TD [O(C1),4C3(F1)]\\@

 Normal termination of Gaussian 16 at Sat Apr  5 23:13:38 2025.
