 Gaussian 16, Revision C.01,

 ----------------------------------------------------------------------
 #t hf aug-cc-pvdz symm=none int=(grid=ultrafine) guess=(read,tcheck) s
 table=(opt,rrhf)
 ----------------------------------------------------------------------
 -----
 title
 -----
 Symbolic Z-matrix:
 Charge =  0 Multiplicity = 1

 SCF Done:  E(RHF) =  -313.454421340     A.U. after   11 cycles
 Normal termination of Gaussian 16 at Sat Apr  5 23:14:56 2025.
 Gaussian 16:  ES64L-G16RevC.01  3-Jul-2019

 ----------------------------------------------------------------------
 #t hf aug-cc-pvdz iop(5/13=1,5/36=2,99/5=2) pseudo=read geom=check gue
 ss=(read,tcheck) scf=(maxcycle=1)
 ----------------------------------------------------------------------
 -----
 title
 -----
 Structure from the checkpoint file:  "tetramethylbutane.chk"
 Charge =  0 Multiplicity = 1

                         Standard orientation:
 ---------------------------------------------------------------------
 Center     Atomic      Atomic             Coordinates (Angstroms)
 Number     Number       Type             X           Y           Z
 ---------------------------------------------------------------------
      1          6           0       -0.793806    0.000317    0.000712
      2          6           0        0.794117   -0.000301   -0.000582
      3          6           0       -1.356708   -0.189678   -1.421858
      4          6           0       -1.354984   -1.136898    0.877100
      5          6           0       -1.354681    1.327742    0.547105
      6          6           0        1.357091   -0.075952    1.432622
      7          6           0        1.353535   -1.204480   -0.783350
      8          6           0        1.355771    1.279143   -0.651705
      9          1           0       -2.441884   -0.072570   -1.406443
     10          1           0       -1.144491   -1.182618   -1.817093
     11          1           0       -0.962417    0.544243   -2.124996
     12          1           0       -2.440034   -1.183015    0.768243
     13          1           0       -1.142299   -0.981799    1.934354
     14          1           0       -0.959235   -2.112320    0.593200
     15          1           0       -2.439863    1.256872    0.640493
     16          1           0       -1.140725    2.165743   -0.115533
     17          1           0       -0.960398    1.569458    1.534443
     18          1           0        2.442714    0.034700    1.406974
     19          1           0        1.140854   -1.032026    1.908287
     20          1           0        0.966524    0.715254    2.073010
     21          1           0        2.439259   -1.239843   -0.676586
     22          1           0        1.134678   -1.137379   -1.848540
     23          1           0        0.961031   -2.153507   -0.417428
     24          1           0        2.441259    1.202277   -0.736391
     25          1           0        1.139194    2.167931   -0.059919
     26          1           0        0.963822    1.439246   -1.656335
 ---------------------------------------------------------------------

 SCF Done:  E(RHF) =  -313.554142579     A.U. after    2 cycles

 The electronic state is 1-A.
 Alpha  occ. eigenvalues --  -11.24011 -11.23971 -11.21456 -11.21454 -11.21453
 Alpha  occ. eigenvalues --  -11.21452 -11.21443 -11.21441  -1.11122  -1.02981
 Alpha  occ. eigenvalues --   -0.93640  -0.93629  -0.90797  -0.90794  -0.80330
 Alpha  occ. eigenvalues --   -0.69437  -0.64924  -0.60718  -0.60715  -0.59320
 Alpha  occ. eigenvalues --   -0.59316  -0.55495  -0.53409  -0.53396  -0.52572
 Alpha  occ. eigenvalues --   -0.51227  -0.51223  -0.49801  -0.48329  -0.48319
 Alpha  occ. eigenvalues --   -0.43548  -0.43541  -0.42529
 Alpha virt. eigenvalues --    0.03597   0.04270   0.04542   0.04543   0.06251
 Alpha virt. eigenvalues --    0.06252   0.06400   0.06564   0.06565   0.08414
 Alpha virt. eigenvalues --    0.08414   0.09088   0.09091   0.09309   0.09311

 Mulliken charges:
               1
     1  C   -3.488049
     2  C   -3.478697
     3  C    1.315533
     4  C    1.314818
     5  C    1.315279
     6  C    1.314925
     7  C    1.313628
     8  C    1.314678
     9  H   -0.043088
    10  H   -0.057599
    11  H   -0.054954
    12  H   -0.041887
    13  H   -0.056467
    14  H   -0.054098
    15  H   -0.041536
    16  H   -0.056511
    17  H   -0.054185
    18  H   -0.041359
    19  H   -0.059506
    20  H   -0.053825
    21  H   -0.041106
    22  H   -0.058047
    23  H   -0.053521
    24  H   -0.042189
    25  H   -0.057785
    26  H   -0.054453
 Sum of Mulliken charges =   0.00000

 Dipole moment (field-independent basis, Debye):
    X=             -0.0004    Y=              0.0002    Z=             -0.0001  Tot=              0.0005

 Test job not archived.
 1\1\GINC-SE170\SP\RHF\Aug-CC-pVDZ\C8H18\OHZDE\05-Apr-2025\0\\#t hf aug
 -cc-pvdz iop(5/13=1,5/36=2,99/5=2) pseudo=read geom=check guess=(read,
 tcheck) scf=(maxcycle=1)\\title\\0,1\C,0,-0.793806,0.000318,0.000712\C
 ,0,0.794117,-0.000302,-0.000582\C,0,-1.356708,-0.190381,-1.421764\C,0,
 -1.354984,-1.136464,0.877663\C,0,-1.354681,1.328013,0.546448\C,0,1.357
 091,-0.075244,1.432659\C,0,1.353535,-1.204868,-0.782754\C,0,1.355771,1
 .27882,-0.652338\H,0,-2.441884,-0.073265,-1.406406\H,0,-1.144492,-1.18
 3517,-1.816507\H,0,-0.962417,0.543192,-2.125265\H,0,-2.440034,-1.18263

 Normal termination of Gaussian 16 at Sat Apr  5 23:16:07 2025.
