 Gaussian 16, Revision C.01,

 ----------------------------------------------------------------------
 #t hf aug-cc-pvdz symm=none int=(grid=ultrafine) guess=(read,tcheck) s
 table=(opt,rrhf)
 ----------------------------------------------------------------------
 -----
 title
 -----
 Symbolic Z-matrix:
 Charge =  0 Multiplicity = 1

 SCF Done:  E(RHF) =  -231.005886921     A.U. after   11 cycles
 Normal termination of Gaussian 16 at Sat Apr  5 23:12:54 2025.
 Gaussian 16:  ES64L-G16RevC.01  3-Jul-2019

 ----------------------------------------------------------------------
 #t hf aug-cc-pvdz iop(5/13=1,5/36=2,99/5=2) pseudo=read geom=check gue
 ss=(read,tcheck) scf=(maxcycle=1)
 ----------------------------------------------------------------------
 -----
 title
 -----
 Structure from the checkpoint file:  "tetrahydrofuran.chk"
 Charge =  0 Multiplicity = 1

                         Standard orientation:
 ---------------------------------------------------------------------
 Center     Atomic      Atomic             Coordinates (Angstroms)
 Number     Number       Type             X           Y           Z
 ---------------------------------------------------------------------
      1          6           0        0.000000    0.766501   -0.994198
      2          6           0       -0.000000   -0.766501   -0.994198
      3          6           0        0.461326    1.081053    0.428368
      4          6           0       -0.461326   -1.081053    0.428368
      5          8           0       -0.000000    0.000000    1.249603
      6          1           0        0.652460    1.198961   -1.751443
      7          1           0       -1.009869    1.145990   -1.159921
      8          1           0       -0.652460   -1.198961   -1.751443
      9          1           0        1.009869   -1.145990   -1.159921
     10          1           0        1.553740    1.135699    0.488606
     11          1           0        0.050023    2.012637    0.819323
     12          1           0       -1.553740   -1.135699    0.488606
     13          1           0       -0.050023   -2.012637    0.819323
 ---------------------------------------------------------------------

 SCF Done:  E(RHF) =  -231.079248988     A.U. after    2 cycles

 The electronic state is 1-A.
 Alpha  occ. eigenvalues --  -20.55721 -11.27898 -11.27876 -11.23495 -11.23441
 Alpha  occ. eigenvalues --   -1.32276  -1.05086  -0.98878  -0.81189  -0.80989
 Alpha  occ. eigenvalues --   -0.68902  -0.67793  -0.60016  -0.59185  -0.56862
 Alpha  occ. eigenvalues --   -0.51080  -0.49681  -0.47795  -0.47229  -0.41986
 Alpha virt. eigenvalues --    0.03505   0.04630   0.04682   0.05048   0.06789
 Alpha virt. eigenvalues --    0.06926   0.07067   0.07519   0.11053   0.13572
 Alpha virt. eigenvalues --    0.14352   0.14388   0.14457   0.14809   0.15764

 Mulliken charges:
               1
     1  C    0.062404
     2  C    0.062404
     3  C    0.888119
     4  C    0.888119
     5  O   -0.723190
     6  H   -0.037267
     7  H   -0.168845
     8  H   -0.037267
     9  H   -0.168845
    10  H   -0.203317
    11  H   -0.179498
    12  H   -0.203317
    13  H   -0.179498
 Sum of Mulliken charges =  -0.00000

 Dipole moment (field-independent basis, Debye):
    X=             -0.0000    Y=             -0.0000    Z=             -2.0748  Tot=              2.0748

 Test job not archived.
 1\1\GINC-SE194\SP\RHF\Aug-CC-pVDZ\C4H8O1\OHZDE\05-Apr-2025\0\\#t hf au
 g-cc-pvdz iop(5/13=1,5/36=2,99/5=2) pseudo=read geom=check guess=(read
 ,tcheck) scf=(maxcycle=1)\\title\\0,1\C,0,0.,0.766501,-0.994198\C,0,0.
 ,-0.766501,-0.994198\C,0,0.461326,1.081053,0.428368\C,0,-0.461326,-1.0
 81053,0.428368\O,0,0.,0.,1.249603\H,0,0.65246,1.198961,-1.751443\H,0,-
 1.009869,1.14599,-1.159921\H,0,-0.65246,-1.198961,-1.751443\H,0,1.0098
 69,-1.14599,-1.159921\H,0,1.55374,1.135699,0.488606\H,0,0.050023,2.012
 637,0.819323\H,0,-1.55374,-1.135699,0.488606\H,0,-0.050023,-2.012637,0

 Normal termination of Gaussian 16 at Sat Apr  5 23:13:30 2025.
