 Gaussian 16, Revision C.01,

 ----------------------------------------------------------------------
 #t hf aug-cc-pvdz symm=none int=(grid=ultrafine) guess=(read,tcheck) s
 table=(opt,rrhf)
 ----------------------------------------------------------------------
 -----
 title
 -----
 Symbolic Z-matrix:
 Charge =  0 Multiplicity = 1

 SCF Done:  E(RHF) =  -270.051075092     A.U. after   11 cycles

 1\1\GINC-SE190\Stability\RHF\Aug-CC-pVDZ\C5H10O1\OHZDE\05-Apr-2025\0\\
 #t hf aug-cc-pvdz symm=none int=(grid=ultrafine) guess=(read,tcheck) s
 table=(opt,rrhf)\\title\\0,1\C,0,-0.621065,1.325981,0.\C,0,0.020904,0.
 729584,1.256731\C,0,0.020904,0.729584,-1.256731\C,0,0.020904,-0.794091
 ,1.182195\C,0,0.020904,-0.794091,-1.182195\O,0,0.655923,-1.267487,0.\H
 ,0,-1.692321,1.099091,0.\H,0,-0.531769,2.413763,0.\H,0,1.053246,1.0778
 01,1.346976\H,0,-0.509437,1.050894,2.156429\H,0,-0.509437,1.050894,-2.
 156429\H,0,1.053246,1.077801,-1.346976\H,0,0.568763,-1.234712,2.014395

 Normal termination of Gaussian 16 at Sat Apr  5 23:13:28 2025.
 Gaussian 16:  ES64L-G16RevC.01  3-Jul-2019

 ----------------------------------------------------------------------
 #t hf aug-cc-pvdz iop(5/13=1,5/36=2,99/5=2) pseudo=read geom=check gue
 ss=(read,tcheck) scf=(maxcycle=1)
 ----------------------------------------------------------------------
 -----
 title
 -----
 Structure from the checkpoint file:  "tetrahydro-2H-pyran.chk"
 Charge =  0 Multiplicity = 1

                         Standard orientation:
 ---------------------------------------------------------------------
 Center     Atomic      Atomic             Coordinates (Angstroms)
 Number     Number       Type             X           Y           Z
 ---------------------------------------------------------------------
      1          6           0       -0.621065    1.325981   -0.000000
      2          6           0        0.020904    0.729584    1.256731
      3          6           0        0.020904    0.729584   -1.256731
      4          6           0        0.020904   -0.794091    1.182195
      5          6           0        0.020904   -0.794091   -1.182195
      6          8           0        0.655923   -1.267487    0.000000
      7          1           0       -1.692321    1.099091   -0.000000
      8          1           0       -0.531769    2.413763   -0.000000
      9          1           0        1.053246    1.077801    1.346976
     10          1           0       -0.509437    1.050894    2.156429
     11          1           0       -0.509437    1.050894   -2.156429
     12          1           0        1.053246    1.077801   -1.346976
     13          1           0        0.568763   -1.234712    2.014395
     14          1           0       -1.011867   -1.171361    1.218225
     15          1           0       -1.011867   -1.171361   -1.218225
     16          1           0        0.568763   -1.234712   -2.014395
 ---------------------------------------------------------------------

 SCF Done:  E(RHF) =  -270.135981139     A.U. after    2 cycles

 The electronic state is 1-A'.
 Alpha  occ. eigenvalues --  -20.56142 -11.27864 -11.27836 -11.23114 -11.22828
 Alpha  occ. eigenvalues --  -11.22816  -1.32606  -1.06701  -1.02026  -0.87600
 Alpha  occ. eigenvalues --   -0.86145  -0.77106  -0.68053  -0.64294  -0.63239
 Alpha  occ. eigenvalues --   -0.61460  -0.57795  -0.54939  -0.54021  -0.49935
 Alpha  occ. eigenvalues --   -0.48605  -0.46139  -0.45174  -0.41358
 Alpha virt. eigenvalues --    0.03536   0.04441   0.04591   0.04841   0.06418
 Alpha virt. eigenvalues --    0.06616   0.06768   0.07318   0.07641   0.09404
 Alpha virt. eigenvalues --    0.12578   0.13809   0.14040   0.14449   0.15039

 Mulliken charges:
               1
     1  C    0.112096
     2  C    0.161339
     3  C    0.161339
     4  C    0.731636
     5  C    0.731636
     6  O   -0.692132
     7  H   -0.137334
     8  H   -0.078639
     9  H   -0.104125
    10  H   -0.054421
    11  H   -0.054421
    12  H   -0.104125
    13  H   -0.248351
    14  H   -0.088074
    15  H   -0.088074
    16  H   -0.248351
 Sum of Mulliken charges =   0.00000

 Dipole moment (field-independent basis, Debye):
    X=             -1.2231    Y=              1.2726    Z=              0.0000  Tot=              1.7651

 Test job not archived.
 1\1\GINC-SE190\SP\RHF\Aug-CC-pVDZ\C5H10O1\OHZDE\05-Apr-2025\0\\#t hf a
 ug-cc-pvdz iop(5/13=1,5/36=2,99/5=2) pseudo=read geom=check guess=(rea
 d,tcheck) scf=(maxcycle=1)\\title\\0,1\C,0,-0.621065,1.325981,0.\C,0,0
 .020904,0.729584,1.256731\C,0,0.020904,0.729584,-1.256731\C,0,0.020904
 ,-0.794091,1.182195\C,0,0.020904,-0.794091,-1.182195\O,0,0.655923,-1.2
 67487,0.\H,0,-1.692321,1.099091,0.\H,0,-0.531769,2.413763,0.\H,0,1.053
 246,1.077801,1.346976\H,0,-0.509437,1.050894,2.156429\H,0,-0.509437,1.
 050894,-2.156429\H,0,1.053246,1.077801,-1.346976\H,0,0.568763,-1.23471

 Normal termination of Gaussian 16 at Sat Apr  5 23:13:39 2025.
