 Gaussian 16, Revision C.01,

 ----------------------------------------------------------------------
 #t hf aug-cc-pvdz symm=none int=(grid=ultrafine) guess=(read,tcheck) s
 table=(opt,rrhf)
 ----------------------------------------------------------------------
 -----
 title
 -----
 Symbolic Z-matrix:
 Charge =  0 Multiplicity = 1

 SCF Done:  E(RHF) =  -424.532463169     A.U. after   12 cycles
 Normal termination of Gaussian 16 at Sat Apr  5 23:17:06 2025.
 Gaussian 16:  ES64L-G16RevC.01  3-Jul-2019

 ----------------------------------------------------------------------
 #t hf aug-cc-pvdz iop(5/13=1,5/36=2,99/5=2) pseudo=read geom=check gue
 ss=(read,tcheck) scf=(maxcycle=1)
 ----------------------------------------------------------------------
 -----
 title
 -----
 Structure from the checkpoint file:  "tetraspiro2-0-0-0-2-1-1-1undecane.chk"
 Charge =  0 Multiplicity = 1

                         Standard orientation:
 ---------------------------------------------------------------------
 Center     Atomic      Atomic             Coordinates (Angstroms)
 Number     Number       Type             X           Y           Z
 ---------------------------------------------------------------------
      1          6           0        0.413406    2.700298   -1.134720
      2          6           0        0.000000    3.315092    0.199170
      3          6           0       -0.395103    1.934856   -0.158726
      4          6           0       -1.657201    1.128232   -0.172530
      5          6           0       -0.395289    0.613063    0.456739
      6          6           0        0.000000   -0.000000    1.767022
      7          6           0        0.395289   -0.613063    0.456739
      8          6           0        1.657201   -1.128232   -0.172530
      9          6           0        0.395103   -1.934856   -0.158726
     10          6           0       -0.000000   -3.315092    0.199170
     11          6           0       -0.413406   -2.700298   -1.134720
     12          1           0       -0.070461    3.069979   -2.029417
     13          1           0        1.454651    2.435395   -1.262890
     14          1           0        0.769193    3.453264    0.948163
     15          1           0       -0.755429    4.089910    0.182539
     16          1           0       -2.465963    1.433064    0.481413
     17          1           0       -1.971867    0.689861   -1.112222
     18          1           0        0.765446    0.497373    2.351754
     19          1           0       -0.765446   -0.497373    2.351754
     20          1           0        1.971867   -0.689861   -1.112222
     21          1           0        2.465963   -1.433064    0.481413
     22          1           0       -0.769193   -3.453264    0.948163
     23          1           0        0.755429   -4.089910    0.182539
     24          1           0       -1.454651   -2.435395   -1.262890
     25          1           0        0.070461   -3.069979   -2.029417
 ---------------------------------------------------------------------

 SCF Done:  E(RHF) =  -424.663138809     A.U. after    2 cycles

 The electronic state is 1-A.
 Alpha  occ. eigenvalues --  -11.24532 -11.24475 -11.24368 -11.24360 -11.23348
 Alpha  occ. eigenvalues --  -11.23345 -11.23325 -11.23308 -11.23308 -11.23269
 Alpha  occ. eigenvalues --  -11.23268  -1.18901  -1.15342  -1.10114  -1.04478
 Alpha  occ. eigenvalues --   -0.99903  -0.82477  -0.82281  -0.79151  -0.78802
 Alpha  occ. eigenvalues --   -0.74879  -0.70098  -0.67959  -0.64378  -0.64323
 Alpha  occ. eigenvalues --   -0.61705  -0.61395  -0.60102  -0.53819  -0.51672
 Alpha  occ. eigenvalues --   -0.51441  -0.49783  -0.47278  -0.45608  -0.43303
 Alpha  occ. eigenvalues --   -0.42477  -0.41027  -0.37371  -0.37309  -0.36994
 Alpha virt. eigenvalues --    0.03612   0.03886   0.04200   0.04244   0.05434
 Alpha virt. eigenvalues --    0.05878   0.05904   0.06461   0.06462   0.07445
 Alpha virt. eigenvalues --    0.08298   0.08485   0.09004   0.09194   0.11201

 Mulliken charges:
               1
     1  C    0.783214
     2  C    0.803893
     3  C   -0.396588
     4  C    0.659793
     5  C   -0.446829
     6  C    0.480075
     7  C   -0.446829
     8  C    0.659793
     9  C   -0.396588
    10  C    0.803893
    11  C    0.783214
    12  H   -0.246254
    13  H   -0.276466
    14  H   -0.272232
    15  H   -0.251025
    16  H   -0.198055
    17  H   -0.210170
    18  H   -0.189318
    19  H   -0.189318
    20  H   -0.210170
    21  H   -0.198055
    22  H   -0.272232
    23  H   -0.251025
    24  H   -0.276466
    25  H   -0.246254
 Sum of Mulliken charges =  -0.00000

 Dipole moment (field-independent basis, Debye):
    X=             -0.0000    Y=              0.0000    Z=             -0.0264  Tot=              0.0264

 Test job not archived.
 1\1\GINC-SE198\SP\RHF\Aug-CC-pVDZ\C11H14\OHZDE\05-Apr-2025\0\\#t hf au
 g-cc-pvdz iop(5/13=1,5/36=2,99/5=2) pseudo=read geom=check guess=(read
 ,tcheck) scf=(maxcycle=1)\\title\\0,1\C,0,0.413406,2.700298,-1.13472\C
 ,0,0.,3.315092,0.19917\C,0,-0.395103,1.934856,-0.158726\C,0,-1.657201,
 1.128232,-0.17253\C,0,-0.395289,0.613063,0.456739\C,0,0.,0.,1.767022\C
 ,0,0.395289,-0.613063,0.456739\C,0,1.657201,-1.128232,-0.17253\C,0,0.3
 95103,-1.934856,-0.158726\C,0,0.,-3.315092,0.19917\C,0,-0.413406,-2.70
 0298,-1.13472\H,0,-0.070461,3.069979,-2.029417\H,0,1.454651,2.435395,-

 Normal termination of Gaussian 16 at Sat Apr  5 23:17:18 2025.
