 Gaussian 16, Revision C.01,

 ----------------------------------------------------------------------
 #t hf aug-cc-pvdz symm=none int=(grid=ultrafine) guess=(read,tcheck) s
 table=(opt,rrhf)
 ----------------------------------------------------------------------
 -----
 title
 -----
 Symbolic Z-matrix:
 Charge =  0 Multiplicity = 1

 SCF Done:  E(RHF) =  -1913.70573389     A.U. after   11 cycles
 Normal termination of Gaussian 16 at Sat Apr  5 23:11:24 2025.
 Gaussian 16:  ES64L-G16RevC.01  3-Jul-2019

 ----------------------------------------------------------------------
 #t hf aug-cc-pvdz iop(5/13=1,5/36=2,99/5=2) pseudo=read geom=check gue
 ss=(read,tcheck) scf=(maxcycle=1)
 ----------------------------------------------------------------------
 -----
 title
 -----
 Structure from the checkpoint file:  "tetrachloroethylene.chk"
 Charge =  0 Multiplicity = 1

                         Standard orientation:
 ---------------------------------------------------------------------
 Center     Atomic      Atomic             Coordinates (Angstroms)
 Number     Number       Type             X           Y           Z
 ---------------------------------------------------------------------
      1          6           0        0.000000    0.000000    0.669101
      2          6           0        0.000000    0.000000   -0.669101
      3         17           0        0.000000    1.454916    1.595675
      4         17           0       -0.000000   -1.454916    1.595675
      5         17           0       -0.000000   -1.454916   -1.595675
      6         17           0        0.000000    1.454916   -1.595675
 ---------------------------------------------------------------------

 SCF Done:  E(RHF) =  -1913.80700696     A.U. after    2 cycles

 The electronic state is 1-AG.
 Alpha  occ. eigenvalues -- -103.70565-103.70564-103.70563-103.70563 -11.40105
 Alpha  occ. eigenvalues --  -11.39941 -10.73864 -10.73859 -10.73855 -10.73849
 Alpha  occ. eigenvalues --   -8.39601  -8.39600  -8.39598  -8.39588  -8.39250
 Alpha  occ. eigenvalues --   -8.39250  -8.39243  -8.39241  -8.39235  -8.39234
 Alpha  occ. eigenvalues --   -8.39233  -8.39231  -1.28649  -1.23246  -1.18935
 Alpha  occ. eigenvalues --   -1.16626  -1.01306  -0.77199  -0.69550  -0.68345
 Alpha  occ. eigenvalues --   -0.62735  -0.59123  -0.54765  -0.52729  -0.51874
 Alpha  occ. eigenvalues --   -0.51441  -0.50655  -0.50018  -0.46896  -0.38012
 Alpha virt. eigenvalues --    0.05702   0.07054   0.07090   0.08749   0.09574
 Alpha virt. eigenvalues --    0.11312   0.11467   0.12241   0.12998   0.14670
 Alpha virt. eigenvalues --    0.15068   0.15180   0.16895   0.17309   0.17681

 Mulliken charges:
               1
     1  C    0.255239
     2  C    0.255239
     3  Cl  -0.127619
     4  Cl  -0.127619
     5  Cl  -0.127619
     6  Cl  -0.127619
 Sum of Mulliken charges =  -0.00000

 Dipole moment (field-independent basis, Debye):
    X=              0.0000    Y=             -0.0000    Z=              0.0000  Tot=              0.0000

 Test job not archived.
 1\1\GINC-SE292\SP\RHF\Aug-CC-pVDZ\C2Cl4\OHZDE\05-Apr-2025\0\\#t hf aug
 -cc-pvdz iop(5/13=1,5/36=2,99/5=2) pseudo=read geom=check guess=(read,
 tcheck) scf=(maxcycle=1)\\title\\0,1\C,0,0.,0.,0.669101\C,0,0.,0.,-0.6
 69101\Cl,0,0.,1.454916,1.595675\Cl,0,0.,-1.454916,1.595675\Cl,0,0.,-1.
 454916,-1.595675\Cl,0,0.,1.454916,-1.595675\\Version=ES64L-G16RevC.01\
 State=1-AG\HF=-1913.807007\RMSD=5.776e-03\Dipole=0.,0.,0.\Quadrupole=-
 1.0786179,1.3715157,-0.2928978,0.,0.,0.\PG=D02H [C2"(C1.C1),SG(Cl4)]\\
 @

 Normal termination of Gaussian 16 at Sat Apr  5 23:12:22 2025.
