 Gaussian 16, Revision C.01,

 ----------------------------------------------------------------------
 #t hf aug-cc-pvdz symm=none int=(grid=ultrafine) guess=(read,tcheck) s
 table=(opt,rrhf)
 ----------------------------------------------------------------------
 -----
 title
 -----
 Symbolic Z-matrix:
 Charge =  0 Multiplicity = 1

 SCF Done:  E(RHF) =  -553.682089282     A.U. after   12 cycles
 Normal termination of Gaussian 16 at Sat Apr  5 23:13:47 2025.
 Gaussian 16:  ES64L-G16RevC.01  3-Jul-2019

 ----------------------------------------------------------------------
 #t hf aug-cc-pvdz iop(5/13=1,5/36=2,99/5=2) pseudo=read geom=check gue
 ss=(read,tcheck) scf=(maxcycle=1)
 ----------------------------------------------------------------------
 -----
 title
 -----
 Structure from the checkpoint file:  "tetrahydrothiophene.chk"
 Charge =  0 Multiplicity = 1

                         Standard orientation:
 ---------------------------------------------------------------------
 Center     Atomic      Atomic             Coordinates (Angstroms)
 Number     Number       Type             X           Y           Z
 ---------------------------------------------------------------------
      1          1           0        0.727709    2.103092    0.342737
      2          1           0       -0.986957    1.809222    0.025908
      3          6           0        0.000000    1.349368    0.050917
      4          1           0        1.422074    0.557865   -1.364380
      5          1           0        0.016317    1.302538   -2.122147
      6          6           0        0.340403    0.685094   -1.282406
      7          1           0       -0.016317   -1.302538   -2.122147
      8          1           0       -1.422074   -0.557865   -1.364380
      9          6           0       -0.340403   -0.685094   -1.282406
     10          1           0        0.986957   -1.809222    0.025908
     11          1           0       -0.727709   -2.103092    0.342737
     12          6           0       -0.000000   -1.349368    0.050917
     13         16           0        0.000000   -0.000000    1.313352
 ---------------------------------------------------------------------

 SCF Done:  E(RHF) =  -553.750155170     A.U. after    2 cycles

 The electronic state is 1-A.
 Alpha  occ. eigenvalues --  -93.51451 -11.26244 -11.26231 -11.24276 -11.24224
 Alpha  occ. eigenvalues --   -8.81202  -6.15323  -6.15165  -6.14798  -1.11307
 Alpha  occ. eigenvalues --   -0.98014  -0.95474  -0.79457  -0.77770  -0.65863
 Alpha  occ. eigenvalues --   -0.63949  -0.60187  -0.54887  -0.50854  -0.49553
 Alpha  occ. eigenvalues --   -0.48335  -0.47371  -0.41732  -0.32826
 Alpha virt. eigenvalues --    0.03431   0.04518   0.04712   0.05234   0.06822
 Alpha virt. eigenvalues --    0.06832   0.07069   0.07786   0.09043   0.13061
 Alpha virt. eigenvalues --    0.14263   0.14505   0.14880   0.15122   0.15343

 Mulliken charges:
               1
     1  H   -0.066518
     2  H   -0.095566
     3  C   -0.038916
     4  H   -0.146123
     5  H   -0.057463
     6  C    0.168019
     7  H   -0.057463
     8  H   -0.146123
     9  C    0.168019
    10  H   -0.095566
    11  H   -0.066518
    12  C   -0.038916
    13  S    0.473134
 Sum of Mulliken charges =  -0.00000

 Dipole moment (field-independent basis, Debye):
    X=              0.0000    Y=             -0.0000    Z=             -2.2868  Tot=              2.2868

 Test job not archived.
 1\1\GINC-SE052\SP\RHF\Aug-CC-pVDZ\C4H8S1\OHZDE\05-Apr-2025\0\\#t hf au
 g-cc-pvdz iop(5/13=1,5/36=2,99/5=2) pseudo=read geom=check guess=(read
 ,tcheck) scf=(maxcycle=1)\\title\\0,1\H,0,0.727709,2.103092,0.342737\H
 ,0,-0.986957,1.809222,0.025908\C,0,0.,1.349368,0.050917\H,0,1.422074,0
 .557865,-1.36438\H,0,0.016317,1.302538,-2.122147\C,0,0.340403,0.685094
 ,-1.282406\H,0,-0.016317,-1.302538,-2.122147\H,0,-1.422074,-0.557865,-
 1.36438\C,0,-0.340403,-0.685094,-1.282406\H,0,0.986957,-1.809222,0.025
 908\H,0,-0.727709,-2.103092,0.342737\C,0,0.,-1.349368,0.050917\S,0,0.,

 Normal termination of Gaussian 16 at Sat Apr  5 23:13:50 2025.
