 Gaussian 16, Revision C.01,

 ----------------------------------------------------------------------
 #t hf aug-cc-pvdz symm=none int=(grid=ultrafine) guess=(read,tcheck) s
 table=(opt,rrhf)
 ----------------------------------------------------------------------
 -----
 title
 -----
 Symbolic Z-matrix:
 Charge =  0 Multiplicity = 1

 SCF Done:  E(RHF) =  -549.079217987     A.U. after   12 cycles
 Normal termination of Gaussian 16 at Sat Apr  5 23:13:39 2025.
 Gaussian 16:  ES64L-G16RevC.01  3-Jul-2019

 ----------------------------------------------------------------------
 #t hf aug-cc-pvdz iop(5/13=1,5/36=2,99/5=2) pseudo=read geom=check gue
 ss=(read,tcheck) scf=(maxcycle=1)
 ----------------------------------------------------------------------
 -----
 title
 -----
 Structure from the checkpoint file:  "tetrafluorocyclobutadiene.chk"
 Charge =  0 Multiplicity = 1

                         Standard orientation:
 ---------------------------------------------------------------------
 Center     Atomic      Atomic             Coordinates (Angstroms)
 Number     Number       Type             X           Y           Z
 ---------------------------------------------------------------------
      1          6           0        0.135333    0.760964    0.664678
      2          6           0       -0.135333   -0.760964    0.664678
      3          6           0       -0.135333   -0.760964   -0.664678
      4          6           0        0.135333    0.760964   -0.664678
      5          9           0       -0.135333    1.670444    1.579297
      6          9           0        0.135333   -1.670444    1.579297
      7          9           0        0.135333   -1.670444   -1.579297
      8          9           0       -0.135333    1.670444   -1.579297
 ---------------------------------------------------------------------

 SCF Done:  E(RHF) =  -549.272079576     A.U. after    2 cycles

 The electronic state is 1-AG.
 Alpha  occ. eigenvalues --  -26.19057 -26.19052 -26.19048 -26.19046 -11.39874
 Alpha  occ. eigenvalues --  -11.39847 -11.39720 -11.39663  -1.73570  -1.73298
 Alpha  occ. eigenvalues --   -1.73156  -1.72948  -1.25092  -1.01739  -0.96231
 Alpha  occ. eigenvalues --   -0.90719  -0.89337  -0.85005  -0.83165  -0.81873
 Alpha  occ. eigenvalues --   -0.80961  -0.80186  -0.79526  -0.79067  -0.78803
 Alpha  occ. eigenvalues --   -0.74392  -0.63796  -0.57426  -0.52072  -0.34605
 Alpha virt. eigenvalues --    0.02935   0.05949   0.06691   0.06780   0.09143
 Alpha virt. eigenvalues --    0.09527   0.11789   0.12546   0.12628   0.13808
 Alpha virt. eigenvalues --    0.14842   0.15192   0.15328   0.18357   0.18846

 Mulliken charges:
               1
     1  C    0.214943
     2  C    0.214943
     3  C    0.214943
     4  C    0.214943
     5  F   -0.214943
     6  F   -0.214943
     7  F   -0.214943
     8  F   -0.214943
 Sum of Mulliken charges =  -0.00000

 Dipole moment (field-independent basis, Debye):
    X=              0.0000    Y=              0.0000    Z=             -0.0000  Tot=              0.0000

 Test job not archived.
 1\1\GINC-SE115\SP\RHF\Aug-CC-pVDZ\C4F4\OHZDE\05-Apr-2025\0\\#t hf aug-
 cc-pvdz iop(5/13=1,5/36=2,99/5=2) pseudo=read geom=check guess=(read,t
 check) scf=(maxcycle=1)\\title\\0,1\C,0,0.135333,0.760964,0.664678\C,0
 ,-0.135333,-0.760964,0.664678\C,0,-0.135333,-0.760964,-0.664678\C,0,0.
 135333,0.760964,-0.664678\F,0,-0.135333,1.670444,1.579297\F,0,0.135333
 ,-1.670444,1.579297\F,0,0.135333,-1.670444,-1.579297\F,0,-0.135333,1.6
 70444,-1.579297\\Version=ES64L-G16RevC.01\State=1-AG\HF=-549.2720796\R
 MSD=1.141e-02\Dipole=0.,0.,0.\Quadrupole=2.592546,-1.8016356,-0.790910

 Normal termination of Gaussian 16 at Sat Apr  5 23:13:41 2025.
