 Gaussian 16, Revision C.01,

 ----------------------------------------------------------------------
 #t hf aug-cc-pvdz symm=none int=(grid=ultrafine) guess=(read,tcheck) s
 table=(opt,rrhf)
 ----------------------------------------------------------------------
 -----
 title
 -----
 Symbolic Z-matrix:
 Charge =  0 Multiplicity = 1

 SCF Done:  E(RHF) =  -444.963332415     A.U. after   13 cycles
 Normal termination of Gaussian 16 at Sat Apr  5 23:12:50 2025.
 Gaussian 16:  ES64L-G16RevC.01  3-Jul-2019

 ----------------------------------------------------------------------
 #t hf aug-cc-pvdz iop(5/13=1,5/36=2,99/5=2) pseudo=read geom=check gue
 ss=(read,tcheck) scf=(maxcycle=1)
 ----------------------------------------------------------------------
 -----
 title
 -----
 Structure from the checkpoint file:  "tetracyanoethylene.chk"
 Charge =  0 Multiplicity = 1

                         Standard orientation:
 ---------------------------------------------------------------------
 Center     Atomic      Atomic             Coordinates (Angstroms)
 Number     Number       Type             X           Y           Z
 ---------------------------------------------------------------------
      1          6           0        0.000000    0.000000    0.681974
      2          6           0        0.000000    0.000000   -0.681974
      3          6           0        0.000000    1.213865    1.428575
      4          6           0       -0.000000   -1.213865    1.428575
      5          6           0        0.000000    1.213865   -1.428575
      6          6           0       -0.000000   -1.213865   -1.428575
      7          7           0        0.000000    2.183501    2.049472
      8          7           0       -0.000000   -2.183501    2.049472
      9          7           0        0.000000    2.183501   -2.049472
     10          7           0       -0.000000   -2.183501   -2.049472
 ---------------------------------------------------------------------

 SCF Done:  E(RHF) =  -445.089904039     A.U. after    2 cycles

 The electronic state is 1-AG.
 Alpha  occ. eigenvalues --  -15.72155 -15.72154 -15.72154 -15.72154 -11.43834
 Alpha  occ. eigenvalues --  -11.43704 -11.36066 -11.36064 -11.36062 -11.36060
 Alpha  occ. eigenvalues --   -1.30144  -1.26968  -1.26242  -1.25936  -1.20891
 Alpha  occ. eigenvalues --   -1.06571  -0.92189  -0.84445  -0.81196  -0.66215
 Alpha  occ. eigenvalues --   -0.62165  -0.62123  -0.61902  -0.61201  -0.57538
 Alpha  occ. eigenvalues --   -0.55334  -0.55095  -0.54544  -0.54271  -0.53649
 Alpha  occ. eigenvalues --   -0.52164  -0.44087
 Alpha virt. eigenvalues --   -0.06385   0.04154   0.05097   0.06389   0.06785
 Alpha virt. eigenvalues --    0.07958   0.08458   0.08601   0.09522   0.09960
 Alpha virt. eigenvalues --    0.10174   0.11100   0.12144   0.12145   0.12489

 Mulliken charges:
               1
     1  C    2.205717
     2  C    2.205717
     3  C   -1.037008
     4  C   -1.037008
     5  C   -1.037008
     6  C   -1.037008
     7  N   -0.065851
     8  N   -0.065851
     9  N   -0.065851
    10  N   -0.065851
 Sum of Mulliken charges =  -0.00000

 Dipole moment (field-independent basis, Debye):
    X=              0.0000    Y=             -0.0000    Z=             -0.0000  Tot=              0.0000

 Test job not archived.
 1\1\GINC-SE396\SP\RHF\Aug-CC-pVDZ\C6N4\OHZDE\05-Apr-2025\0\\#t hf aug-
 cc-pvdz iop(5/13=1,5/36=2,99/5=2) pseudo=read geom=check guess=(read,t
 check) scf=(maxcycle=1)\\title\\0,1\C,0,0.,0.,0.681974\C,0,0.,0.,-0.68
 1974\C,0,0.,1.213865,1.428575\C,0,0.,-1.213865,1.428575\C,0,0.,1.21386
 5,-1.428575\C,0,0.,-1.213865,-1.428575\N,0,0.,2.183501,2.049472\N,0,0.
 ,-2.183501,2.049472\N,0,0.,2.183501,-2.049472\N,0,0.,-2.183501,-2.0494
 72\\Version=ES64L-G16RevC.01\State=1-AG\HF=-445.089904\RMSD=1.431e-02\
 Dipole=0.,0.,0.\Quadrupole=8.5798065,-7.2591982,-1.3206083,0.,0.,0.\PG

 Normal termination of Gaussian 16 at Sat Apr  5 23:13:30 2025.
