 Gaussian 16, Revision C.01,

 ----------------------------------------------------------------------
 #t hf aug-cc-pvdz symm=none int=(grid=ultrafine) guess=(read,tcheck) s
 table=(opt,rrhf)
 ----------------------------------------------------------------------
 -----
 title
 -----
 Symbolic Z-matrix:
 Charge =  0 Multiplicity = 1

 SCF Done:  E(RHF) =  -407.083510602     A.U. after   11 cycles
 Normal termination of Gaussian 16 at Sat Apr  5 23:13:45 2025.
 Gaussian 16:  ES64L-G16RevC.01  3-Jul-2019

 ----------------------------------------------------------------------
 #t hf aug-cc-pvdz iop(5/13=1,5/36=2,99/5=2) pseudo=read geom=check gue
 ss=(read,tcheck) scf=(maxcycle=1)
 ----------------------------------------------------------------------
 -----
 title
 -----
 Structure from the checkpoint file:  "tetracyanomethane.chk"
 Charge =  0 Multiplicity = 1

                         Standard orientation:
 ---------------------------------------------------------------------
 Center     Atomic      Atomic             Coordinates (Angstroms)
 Number     Number       Type             X           Y           Z
 ---------------------------------------------------------------------
      1          6           0        0.000000    0.000000    0.000000
      2          6           0        0.856146    0.856146    0.856146
      3          6           0       -0.856146   -0.856146    0.856146
      4          6           0       -0.856146    0.856146   -0.856146
      5          6           0        0.856146   -0.856146   -0.856146
      6          7           0        1.518318    1.518318    1.518318
      7          7           0       -1.518318   -1.518318    1.518318
      8          7           0       -1.518318    1.518318   -1.518318
      9          7           0        1.518318   -1.518318   -1.518318
 ---------------------------------------------------------------------

 SCF Done:  E(RHF) =  -407.198590991     A.U. after    2 cycles

 The electronic state is 1-A1.
 Alpha  occ. eigenvalues --  -15.72794 -15.72794 -15.72794 -15.72794 -11.50383
 Alpha  occ. eigenvalues --  -11.37294 -11.37294 -11.37294 -11.37285  -1.31750
 Alpha  occ. eigenvalues --   -1.27032  -1.27032  -1.27032  -1.19521  -0.87869
 Alpha  occ. eigenvalues --   -0.87869  -0.87869  -0.63000  -0.62538  -0.62538
 Alpha  occ. eigenvalues --   -0.62538  -0.57699  -0.57699  -0.55007  -0.55007
 Alpha  occ. eigenvalues --   -0.55007  -0.53395  -0.53395  -0.53395
 Alpha virt. eigenvalues --    0.03511   0.05719   0.05719   0.05719   0.07723
 Alpha virt. eigenvalues --    0.07723   0.07723   0.09139   0.09139   0.09734
 Alpha virt. eigenvalues --    0.09734   0.09734   0.09811   0.12216   0.12216

 Mulliken charges:
               1
     1  C    1.116365
     2  C   -0.164959
     3  C   -0.164959
     4  C   -0.164959
     5  C   -0.164959
     6  N   -0.114132
     7  N   -0.114132
     8  N   -0.114132
     9  N   -0.114132
 Sum of Mulliken charges =   0.00000

 Dipole moment (field-independent basis, Debye):
    X=             -0.0000    Y=              0.0000    Z=             -0.0000  Tot=              0.0000

 Test job not archived.
 1\1\GINC-SE036\SP\RHF\Aug-CC-pVDZ\C5N4\OHZDE\05-Apr-2025\0\\#t hf aug-
 cc-pvdz iop(5/13=1,5/36=2,99/5=2) pseudo=read geom=check guess=(read,t
 check) scf=(maxcycle=1)\\title\\0,1\C,0,0.,0.,0.\C,0,0.856146,0.856146
 ,0.856146\C,0,-0.856146,-0.856146,0.856146\C,0,-0.856146,0.856146,-0.8
 56146\C,0,0.856146,-0.856146,-0.856146\N,0,1.518318,1.518318,1.518318\
 N,0,-1.518318,-1.518318,1.518318\N,0,-1.518318,1.518318,-1.518318\N,0,
 1.518318,-1.518318,-1.518318\\Version=ES64L-G16RevC.01\State=1-A1\HF=-
 407.198591\RMSD=4.381e-03\Dipole=0.,0.,0.\Quadrupole=0.,0.,0.,0.,0.,0.

 Normal termination of Gaussian 16 at Sat Apr  5 23:13:50 2025.
