 Gaussian 16, Revision C.01,

 ----------------------------------------------------------------------
 #t hf aug-cc-pvdz symm=none int=(grid=ultrafine) guess=(read,tcheck) s
 table=(opt,rrhf)
 ----------------------------------------------------------------------
 -----
 title
 -----
 Symbolic Z-matrix:
 Charge =  0 Multiplicity = 1

 SCF Done:  E(RHF) =  -592.720199721     A.U. after   13 cycles

 1\1\GINC-SE194\Stability\RHF\Aug-CC-pVDZ\C5H10S1\OHZDE\05-Apr-2025\0\\
 #t hf aug-cc-pvdz symm=none int=(grid=ultrafine) guess=(read,tcheck) s
 table=(opt,rrhf)\\title\\0,1\S,0,-1.476701,-0.452025,-0.259302\C,0,1.9
 13232,-0.302099,-0.804682\H,0,1.265426,-0.226374,-1.678866\H,0,2.68384
 4,0.46612,-0.886402\H,0,2.406718,-1.274145,-0.844759\C,0,-0.015272,-1.
 169321,0.615996\H,0,0.23235,-2.1242,0.156285\H,0,-0.282085,-1.344028,1
 .657022\C,0,1.122948,-0.146438,0.49693\H,0,1.809247,-0.288791,1.336203
 \C,0,-0.761847,1.249024,-0.31183\H,0,-1.51911,1.960559,0.008816\H,0,-0

 Normal termination of Gaussian 16 at Sat Apr  5 23:13:27 2025.
 Gaussian 16:  ES64L-G16RevC.01  3-Jul-2019

 ----------------------------------------------------------------------
 #t hf aug-cc-pvdz iop(5/13=1,5/36=2,99/5=2) pseudo=read geom=check gue
 ss=(read,tcheck) scf=(maxcycle=1)
 ----------------------------------------------------------------------
 -----
 title
 -----
 Structure from the checkpoint file:  "tetrahydro-3-methylthiophene.chk"
 Charge =  0 Multiplicity = 1

                         Standard orientation:
 ---------------------------------------------------------------------
 Center     Atomic      Atomic             Coordinates (Angstroms)
 Number     Number       Type             X           Y           Z
 ---------------------------------------------------------------------
      1         16           0       -1.476701   -0.452024   -0.259302
      2          6           0        1.913232   -0.302099   -0.804682
      3          1           0        1.265426   -0.226374   -1.678866
      4          1           0        2.683844    0.466119   -0.886402
      5          1           0        2.406718   -1.274146   -0.844759
      6          6           0       -0.015272   -1.169321    0.615996
      7          1           0        0.232349   -2.124200    0.156285
      8          1           0       -0.282085   -1.344028    1.657022
      9          6           0        1.122948   -0.146438    0.496930
     10          1           0        1.809247   -0.288791    1.336203
     11          6           0       -0.761847    1.249024   -0.311830
     12          1           0       -1.519109    1.960560    0.008816
     13          1           0       -0.481066    1.483947   -1.337013
     14          6           0        0.449983    1.229470    0.621149
     15          1           0        0.115459    1.375949    1.649963
     16          1           0        1.142170    2.039539    0.382198
 ---------------------------------------------------------------------

 SCF Done:  E(RHF) =  -592.799946995     A.U. after    2 cycles

 The electronic state is 1-A.
 Alpha  occ. eigenvalues --  -93.51403 -11.26136 -11.26024 -11.24743 -11.24018
 Alpha  occ. eigenvalues --  -11.22699  -8.81144  -6.15272  -6.15115  -6.14753
 Alpha  occ. eigenvalues --   -1.12118  -1.00184  -0.96806  -0.90691  -0.77943
 Alpha  occ. eigenvalues --   -0.76243  -0.66139  -0.63892  -0.61098  -0.56350
 Alpha  occ. eigenvalues --   -0.55247  -0.53194  -0.49428  -0.47648  -0.47283
 Alpha  occ. eigenvalues --   -0.46843  -0.41487  -0.32774
 Alpha virt. eigenvalues --    0.03230   0.04399   0.04551   0.05123   0.06564
 Alpha virt. eigenvalues --    0.06657   0.06704   0.07160   0.08181   0.09572
 Alpha virt. eigenvalues --    0.10133   0.12535   0.13632   0.14152   0.14852

 Mulliken charges:
               1
     1  S    0.468729
     2  C    0.513744
     3  H   -0.017856
     4  H   -0.082009
     5  H   -0.083828
     6  C    0.161620
     7  H   -0.122688
     8  H   -0.123987
     9  C   -0.571007
    10  H   -0.128445
    11  C   -0.005556
    12  H   -0.072571
    13  H   -0.134513
    14  C    0.429787
    15  H   -0.136365
    16  H   -0.095054
 Sum of Mulliken charges =   0.00000

 Dipole moment (field-independent basis, Debye):
    X=              2.0008    Y=              0.8509    Z=              0.7407  Tot=              2.2970

 Test job not archived.
 1\1\GINC-SE194\SP\RHF\Aug-CC-pVDZ\C5H10S1\OHZDE\05-Apr-2025\0\\#t hf a
 ug-cc-pvdz iop(5/13=1,5/36=2,99/5=2) pseudo=read geom=check guess=(rea
 d,tcheck) scf=(maxcycle=1)\\title\\0,1\S,0,-1.476701,-0.452025,-0.2593
 02\C,0,1.913232,-0.302099,-0.804682\H,0,1.265426,-0.226374,-1.678866\H
 ,0,2.683844,0.46612,-0.886402\H,0,2.406718,-1.274145,-0.844759\C,0,-0.
 015272,-1.169321,0.615996\H,0,0.23235,-2.1242,0.156285\H,0,-0.282085,-
 1.344028,1.657022\C,0,1.122948,-0.146438,0.49693\H,0,1.809247,-0.28879
 1,1.336203\C,0,-0.761847,1.249024,-0.31183\H,0,-1.51911,1.960559,0.008

 Normal termination of Gaussian 16 at Sat Apr  5 23:13:41 2025.
