 Gaussian 16, Revision C.01,

 ----------------------------------------------------------------------
 #t hf aug-cc-pvdz symm=none int=(grid=ultrafine) guess=(read,tcheck) s
 table=(opt,rrhf)
 ----------------------------------------------------------------------
 -----
 title
 -----
 Symbolic Z-matrix:
 Charge =  0 Multiplicity = 1

 SCF Done:  E(RHF) =  -637.375750960     A.U. after   16 cycles
 Normal termination of Gaussian 16 at Sat Apr  5 23:18:31 2025.
 Gaussian 16:  ES64L-G16RevC.01  3-Jul-2019

 ----------------------------------------------------------------------
 #t hf aug-cc-pvdz iop(5/13=1,5/36=2,99/5=2) pseudo=read geom=check gue
 ss=(read,tcheck) scf=(maxcycle=1)
 ----------------------------------------------------------------------
 -----
 title
 -----
 Structure from the checkpoint file:  "theophylline.chk"
 Charge =  0 Multiplicity = 1

                         Standard orientation:
 ---------------------------------------------------------------------
 Center     Atomic      Atomic             Coordinates (Angstroms)
 Number     Number       Type             X           Y           Z
 ---------------------------------------------------------------------
      1          8           0       -0.702493   -2.681831   -0.000062
      2          6           0       -0.427456   -1.502083   -0.000033
      3          6           0        0.890406   -0.915681   -0.000045
      4          6           0        1.039767    0.449836   -0.000006
      5          6           0        0.269702    2.790611    0.000072
      6          7           0        0.022247    1.356401    0.000047
      7          6           0       -1.294568    0.876674    0.000053
      8          7           0       -1.455705   -0.502781    0.000017
      9          6           0       -2.848272   -0.963109    0.000032
     10          8           0       -2.241746    1.641359    0.000089
     11          7           0        2.127187   -1.527354   -0.000091
     12          6           0        2.991264   -0.559718   -0.000081
     13          7           0        2.381227    0.689357   -0.000031
     14          1           0        4.063530   -0.659977   -0.000108
     15          1           0        2.840421    1.583267   -0.000003
     16          1           0        0.825941    3.084691    0.892129
     17          1           0       -0.692999    3.289743    0.000154
     18          1           0        0.825822    3.084747   -0.892040
     19          1           0       -3.364115   -0.590499    0.882301
     20          1           0       -2.830297   -2.046278    0.000011
     21          1           0       -3.364145   -0.590467   -0.882207
 ---------------------------------------------------------------------

 SCF Done:  E(RHF) =  -637.567792753     A.U. after    2 cycles

 The electronic state is 1-A.
 Alpha  occ. eigenvalues --  -20.55569 -20.54619 -15.72134 -15.70681 -15.68314
 Alpha  occ. eigenvalues --  -15.64366 -11.42467 -11.38302 -11.36405 -11.33540
 Alpha  occ. eigenvalues --  -11.30644 -11.27084 -11.26458  -1.39683  -1.36121
 Alpha  occ. eigenvalues --   -1.35074  -1.26809  -1.21810  -1.16944  -1.05970
 Alpha  occ. eigenvalues --   -0.99237  -0.96414  -0.88542  -0.86993  -0.85386
 Alpha  occ. eigenvalues --   -0.81350  -0.73136  -0.71455  -0.70482  -0.67924
 Alpha  occ. eigenvalues --   -0.66236  -0.64655  -0.64103  -0.62811  -0.62770
 Alpha  occ. eigenvalues --   -0.60656  -0.58371  -0.56887  -0.55511  -0.55193
 Alpha  occ. eigenvalues --   -0.49546  -0.47823  -0.45974  -0.45156  -0.43053
 Alpha  occ. eigenvalues --   -0.40999  -0.32221
 Alpha virt. eigenvalues --    0.01095   0.03040   0.03603   0.04486   0.05496
 Alpha virt. eigenvalues --    0.06754   0.06980   0.07512   0.08483   0.08861
 Alpha virt. eigenvalues --    0.09793   0.11107   0.11502   0.11963   0.12283

 Mulliken charges:
               1
     1  O   -0.490838
     2  C    0.280692
     3  C    0.773665
     4  C    0.353122
     5  C    0.843735
     6  N   -0.426153
     7  C    0.456379
     8  N   -0.489721
     9  C    0.705655
    10  O   -0.495828
    11  N   -0.791541
    12  C    0.811832
    13  N   -0.418904
    14  H   -0.278868
    15  H   -0.075251
    16  H   -0.093183
    17  H   -0.261642
    18  H   -0.093157
    19  H   -0.039894
    20  H   -0.230211
    21  H   -0.039889
 Sum of Mulliken charges =   0.00000

 Dipole moment (field-independent basis, Debye):
    X=              4.4815    Y=              6.4036    Z=              0.0001  Tot=              7.8160

 Test job not archived.
 1\1\GINC-SE155\SP\RHF\Aug-CC-pVDZ\C7H8N4O2\OHZDE\05-Apr-2025\0\\#t hf
 aug-cc-pvdz iop(5/13=1,5/36=2,99/5=2) pseudo=read geom=check guess=(re
 ad,tcheck) scf=(maxcycle=1)\\title\\0,1\O,0,-0.702493,-2.681831,-0.000
 062\C,0,-0.427456,-1.502083,-0.000033\C,0,0.890406,-0.915681,-0.000045
 \C,0,1.039767,0.449836,-0.000006\C,0,0.269702,2.790611,0.000072\N,0,0.
 022247,1.356401,0.000047\C,0,-1.294568,0.876674,0.000053\N,0,-1.455705
 ,-0.502781,0.000017\C,0,-2.848272,-0.963109,0.000032\O,0,-2.241746,1.6
 41359,0.000089\N,0,2.127187,-1.527354,-0.000091\C,0,2.991264,-0.559718

 Normal termination of Gaussian 16 at Sat Apr  5 23:18:49 2025.
