 Gaussian 16, Revision C.01,

 ----------------------------------------------------------------------
 #t hf aug-cc-pvdz symm=none int=(grid=ultrafine) guess=(read,tcheck) s
 table=(opt,rrhf)
 ----------------------------------------------------------------------
 -----
 title
 -----
 Symbolic Z-matrix:
 Charge =  0 Multiplicity = 1

 SCF Done:  E(RHF) =  -719.339388249     A.U. after   13 cycles
 Normal termination of Gaussian 16 at Sat Apr  5 23:14:20 2025.
 Gaussian 16:  ES64L-G16RevC.01  3-Jul-2019

 ----------------------------------------------------------------------
 #t hf aug-cc-pvdz iop(5/13=1,5/36=2,99/5=2) pseudo=read geom=check gue
 ss=(read,tcheck) scf=(maxcycle=1)
 ----------------------------------------------------------------------
 -----
 title
 -----
 Structure from the checkpoint file:  "thiazolidine-1-1-dioxide.chk"
 Charge =  0 Multiplicity = 1

                         Standard orientation:
 ---------------------------------------------------------------------
 Center     Atomic      Atomic             Coordinates (Angstroms)
 Number     Number       Type             X           Y           Z
 ---------------------------------------------------------------------
      1          6           0        1.834252    0.658103   -0.170078
      2          6           0        1.649901   -0.833890    0.185441
      3          6           0        0.498294    1.346797    0.118872
      4          7           0        0.326076   -1.259222   -0.291458
      5          8           0       -1.335449   -0.168992    1.339154
      6          8           0       -1.629458    0.146059   -1.144584
      7         16           0       -0.765053    0.008844    0.017322
      8          1           0        2.646117    1.108508    0.400152
      9          1           0        2.080033    0.749839   -1.228760
     10          1           0        2.410975   -1.464557   -0.268110
     11          1           0        1.690040   -0.982698    1.264866
     12          1           0        0.427121    1.743751    1.127834
     13          1           0        0.219725    2.107908   -0.603766
     14          1           0        0.308880   -1.432296   -1.291141
 ---------------------------------------------------------------------

 SCF Done:  E(RHF) =  -719.512976865     A.U. after    2 cycles

 The electronic state is 1-A.
 Alpha  occ. eigenvalues --  -93.79811 -20.56424 -20.55909 -15.66924 -11.30577
 Alpha  occ. eigenvalues --  -11.29556 -11.27894  -9.06268  -6.40889  -6.40754
 Alpha  occ. eigenvalues --   -6.40579  -1.42582  -1.30561  -1.22613  -1.07871
 Alpha  occ. eigenvalues --   -0.98913  -0.86147  -0.82628  -0.73068  -0.70491
 Alpha  occ. eigenvalues --   -0.66950  -0.66415  -0.64039  -0.61958  -0.58981
 Alpha  occ. eigenvalues --   -0.55266  -0.53930  -0.51917  -0.51227  -0.49395
 Alpha  occ. eigenvalues --   -0.46021  -0.43583
 Alpha virt. eigenvalues --    0.02267   0.03651   0.03930   0.05110   0.06576
 Alpha virt. eigenvalues --    0.06672   0.07170   0.10081   0.10723   0.12788
 Alpha virt. eigenvalues --    0.12913   0.13249   0.13946   0.14637   0.14811

 Mulliken charges:
               1
     1  C    0.101864
     2  C    0.741322
     3  C   -0.046875
     4  N   -0.902311
     5  O   -1.022161
     6  O   -1.027886
     7  S    2.662224
     8  H   -0.066921
     9  H   -0.099804
    10  H   -0.129274
    11  H   -0.180308
    12  H   -0.040687
    13  H   -0.028289
    14  H    0.039106
 Sum of Mulliken charges =  -0.00000

 Dipole moment (field-independent basis, Debye):
    X=              6.4691    Y=              1.3206    Z=             -1.1556  Tot=              6.7029

 Test job not archived.
 1\1\GINC-SE108\SP\RHF\Aug-CC-pVDZ\C3H7N1O2S1\OHZDE\05-Apr-2025\0\\#t h
 f aug-cc-pvdz iop(5/13=1,5/36=2,99/5=2) pseudo=read geom=check guess=(
 read,tcheck) scf=(maxcycle=1)\\title\\0,1\C,0,1.834252,0.658103,-0.170
 078\C,0,1.649901,-0.83389,0.185441\C,0,0.498294,1.346797,0.118872\N,0,
 0.326076,-1.259222,-0.291458\O,0,-1.335449,-0.168992,1.339154\O,0,-1.6
 29458,0.146059,-1.144584\S,0,-0.765053,0.008844,0.017322\H,0,2.646117,
 1.108508,0.400152\H,0,2.080033,0.749839,-1.22876\H,0,2.410975,-1.46455
 7,-0.26811\H,0,1.69004,-0.982698,1.264866\H,0,0.427121,1.743751,1.1278

 Normal termination of Gaussian 16 at Sat Apr  5 23:14:27 2025.
