 Gaussian 16, Revision C.01,

 ----------------------------------------------------------------------
 #t hf aug-cc-pvdz symm=none int=(grid=ultrafine) guess=(read,tcheck) s
 table=(opt,rrhf)
 ----------------------------------------------------------------------
 -----
 title
 -----
 Symbolic Z-matrix:
 Charge =  0 Multiplicity = 1

 SCF Done:  E(RHF) =  -981.993859735     A.U. after   15 cycles
 Normal termination of Gaussian 16 at Sat Apr  5 23:13:56 2025.
 Gaussian 16:  ES64L-G16RevC.01  3-Jul-2019

 ----------------------------------------------------------------------
 #t hf aug-cc-pvdz iop(5/13=1,5/36=2,99/5=2) pseudo=read geom=check gue
 ss=(read,tcheck) scf=(maxcycle=1)
 ----------------------------------------------------------------------
 -----
 title
 -----
 Structure from the checkpoint file:  "thiadiazolidine-4-thione.chk"
 Charge =  0 Multiplicity = 1

                         Standard orientation:
 ---------------------------------------------------------------------
 Center     Atomic      Atomic             Coordinates (Angstroms)
 Number     Number       Type             X           Y           Z
 ---------------------------------------------------------------------
      1         16           0       -1.849048   -0.498034   -0.251110
      2         16           0        2.347895   -0.118777   -0.102268
      3          7           0        0.029899    1.184602    0.018376
      4          7           0       -1.384596    1.156257    0.116381
      5          6           0        0.716388    0.030291    0.085786
      6          6           0       -0.237505   -1.118129    0.367886
      7          1           0        0.445368    2.022351   -0.358482
      8          1           0       -1.620549    1.333484    1.090140
      9          1           0        0.061019   -2.005332   -0.179311
     10          1           0       -0.257812   -1.340511    1.436386
 ---------------------------------------------------------------------

 SCF Done:  E(RHF) =  -982.088569042     A.U. after    2 cycles

 The electronic state is 1-A.
 Alpha  occ. eigenvalues --  -93.59066 -93.49670 -15.71919 -15.71754 -11.38011
 Alpha  occ. eigenvalues --  -11.30903  -8.88512  -8.79593  -6.22654  -6.22432
 Alpha  occ. eigenvalues --   -6.22003  -6.13838  -6.13310  -6.13184  -1.33575
 Alpha  occ. eigenvalues --   -1.13381  -1.08124  -0.94973  -0.87457  -0.82955
 Alpha  occ. eigenvalues --   -0.73388  -0.66656  -0.63562  -0.61709  -0.55366
 Alpha  occ. eigenvalues --   -0.51988  -0.49835  -0.46235  -0.37752  -0.34258
 Alpha  occ. eigenvalues --   -0.33373
 Alpha virt. eigenvalues --    0.02915   0.04077   0.04421   0.05932   0.07395
 Alpha virt. eigenvalues --    0.07898   0.09188   0.09647   0.10721   0.12798
 Alpha virt. eigenvalues --    0.13785   0.14428   0.15130   0.15313   0.16561

 Mulliken charges:
               1
     1  S    0.768992
     2  S   -0.062395
     3  N   -0.253907
     4  N   -0.595101
     5  C    0.230347
     6  C   -0.327759
     7  H   -0.014068
     8  H    0.158883
     9  H    0.049978
    10  H    0.045030
 Sum of Mulliken charges =  -0.00000

 Dipole moment (field-independent basis, Debye):
    X=             -2.8316    Y=              0.5655    Z=              1.5987  Tot=              3.3006

 Test job not archived.
 1\1\GINC-SE028\SP\RHF\Aug-CC-pVDZ\C2H4N2S2\OHZDE\05-Apr-2025\0\\#t hf
 aug-cc-pvdz iop(5/13=1,5/36=2,99/5=2) pseudo=read geom=check guess=(re
 ad,tcheck) scf=(maxcycle=1)\\title\\0,1\S,0,-1.849048,-0.498034,-0.251
 11\S,0,2.347895,-0.118777,-0.102268\N,0,0.029899,1.184602,0.018376\N,0
 ,-1.384596,1.156257,0.116381\C,0,0.716388,0.030291,0.085786\C,0,-0.237
 505,-1.118129,0.367886\H,0,0.445368,2.022351,-0.358482\H,0,-1.620549,1
 .333484,1.09014\H,0,0.061019,-2.005332,-0.179311\H,0,-0.257812,-1.3405
 11,1.436386\\Version=ES64L-G16RevC.01\State=1-A\HF=-982.088569\RMSD=5.

 Normal termination of Gaussian 16 at Sat Apr  5 23:14:01 2025.
