 Gaussian 16, Revision C.01,

 ----------------------------------------------------------------------
 #t hf aug-cc-pvdz symm=none int=(grid=ultrafine) guess=(read,tcheck) s
 table=(opt,rrhf)
 ----------------------------------------------------------------------
 -----
 title
 -----
 Symbolic Z-matrix:
 Charge =  0 Multiplicity = 1

 SCF Done:  E(RHF) =  -567.331525453     A.U. after   15 cycles
 Normal termination of Gaussian 16 at Sat Apr  5 23:13:47 2025.
 Gaussian 16:  ES64L-G16RevC.01  3-Jul-2019

 ----------------------------------------------------------------------
 #t hf aug-cc-pvdz iop(5/13=1,5/36=2,99/5=2) pseudo=read geom=check gue
 ss=(read,tcheck) scf=(maxcycle=1)
 ----------------------------------------------------------------------
 -----
 title
 -----
 Structure from the checkpoint file:  "thiazole.chk"
 Charge =  0 Multiplicity = 1

                         Standard orientation:
 ---------------------------------------------------------------------
 Center     Atomic      Atomic             Coordinates (Angstroms)
 Number     Number       Type             X           Y           Z
 ---------------------------------------------------------------------
      1          6           0        0.639432   -1.264100   -0.000000
      2          6           0        1.220264   -0.033712    0.000000
      3          6           0       -1.203295   -0.069611   -0.000000
      4          7           0       -0.732370   -1.277174   -0.000000
      5         16           0        0.000000    1.184691    0.000000
      6          1           0        1.176233   -2.200416   -0.000000
      7          1           0        2.266607    0.216808    0.000000
      8          1           0       -2.254655    0.173318   -0.000000
 ---------------------------------------------------------------------

 SCF Done:  E(RHF) =  -567.403725766     A.U. after    2 cycles

 The electronic state is 1-A'.
 Alpha  occ. eigenvalues --  -93.57985 -15.64187 -11.32410 -11.28396 -11.28040
 Alpha  occ. eigenvalues --   -8.87858  -6.21937  -6.21836  -6.21485  -1.26038
 Alpha  occ. eigenvalues --   -1.05518  -1.00205  -0.80701  -0.77660  -0.70184
 Alpha  occ. eigenvalues --   -0.60306  -0.57340  -0.56507  -0.50829  -0.42980
 Alpha  occ. eigenvalues --   -0.39214  -0.34912
 Alpha virt. eigenvalues --    0.03507   0.04014   0.04959   0.08246   0.09072
 Alpha virt. eigenvalues --    0.09795   0.10061   0.12378   0.12785   0.12971
 Alpha virt. eigenvalues --    0.13605   0.14137   0.15254   0.16259   0.17193

 Mulliken charges:
               1
     1  C    0.672429
     2  C    0.058035
     3  C    0.055446
     4  N   -0.450909
     5  S    0.512535
     6  H   -0.237352
     7  H   -0.362335
     8  H   -0.247849
 Sum of Mulliken charges =  -0.00000

 Dipole moment (field-independent basis, Debye):
    X=              0.9181    Y=              1.1175    Z=              0.0000  Tot=              1.4463

 Test job not archived.
 1\1\GINC-SE106\SP\RHF\Aug-CC-pVDZ\C3H3N1S1\OHZDE\05-Apr-2025\0\\#t hf
 aug-cc-pvdz iop(5/13=1,5/36=2,99/5=2) pseudo=read geom=check guess=(re
 ad,tcheck) scf=(maxcycle=1)\\title\\0,1\C,0,0.639432,-1.2641,0.\C,0,1.
 220264,-0.033712,0.\C,0,-1.203295,-0.069611,0.\N,0,-0.73237,-1.277174,
 0.\S,0,0.,1.184691,0.\H,0,1.176233,-2.200416,0.\H,0,2.266607,0.216808,
 0.\H,0,-2.254655,0.173318,0.\\Version=ES64L-G16RevC.01\State=1-A'\HF=-
 567.4037258\RMSD=6.939e-03\Dipole=0.3611963,0.4396579,0.\Quadrupole=3.
 9499194,-1.5487642,-2.4011552,-2.6083726,0.,0.\PG=CS [SG(C3H3N1S1)]\\@

 Normal termination of Gaussian 16 at Sat Apr  5 23:13:50 2025.
