 Gaussian 16, Revision C.01,

 ----------------------------------------------------------------------
 #t hf aug-cc-pvdz symm=none int=(grid=ultrafine) guess=(read,tcheck) s
 table=(opt,rrhf)
 ----------------------------------------------------------------------
 -----
 title
 -----
 Symbolic Z-matrix:
 Charge =  0 Multiplicity = 1

 SCF Done:  E(RHF) =  -514.615397578     A.U. after   12 cycles
 Normal termination of Gaussian 16 at Sat Apr  5 23:13:47 2025.
 Gaussian 16:  ES64L-G16RevC.01  3-Jul-2019

 ----------------------------------------------------------------------
 #t hf aug-cc-pvdz iop(5/13=1,5/36=2,99/5=2) pseudo=read geom=check gue
 ss=(read,tcheck) scf=(maxcycle=1)
 ----------------------------------------------------------------------
 -----
 title
 -----
 Structure from the checkpoint file:  "thietane.chk"
 Charge =  0 Multiplicity = 1

                         Standard orientation:
 ---------------------------------------------------------------------
 Center     Atomic      Atomic             Coordinates (Angstroms)
 Number     Number       Type             X           Y           Z
 ---------------------------------------------------------------------
      1         16           0        0.340727    1.046092    0.000000
      2          6           0       -0.205833   -0.304647    1.150622
      3          6           0       -0.205833   -0.304647   -1.150622
      4          6           0       -0.205833   -1.328854   -0.000000
      5          1           0       -1.195905   -0.094659    1.550789
      6          1           0        0.484953   -0.493732    1.967693
      7          1           0       -1.195905   -0.094659   -1.550789
      8          1           0        0.484953   -0.493732   -1.967693
      9          1           0       -1.043401   -2.027484   -0.000000
     10          1           0        0.718680   -1.904316   -0.000000
 ---------------------------------------------------------------------

 SCF Done:  E(RHF) =  -514.672043332     A.U. after    2 cycles

 The electronic state is 1-A'.
 Alpha  occ. eigenvalues --  -93.52011 -11.26837 -11.26830 -11.25077  -8.81735
 Alpha  occ. eigenvalues --   -6.15773  -6.15740  -6.15304  -1.11631  -0.92067
 Alpha  occ. eigenvalues --   -0.89765  -0.75732  -0.65982  -0.62191  -0.57281
 Alpha  occ. eigenvalues --   -0.51765  -0.50947  -0.46266  -0.40562  -0.33408
 Alpha virt. eigenvalues --    0.03574   0.04535   0.04846   0.05527   0.06973
 Alpha virt. eigenvalues --    0.07375   0.08847   0.11604   0.12129   0.12644
 Alpha virt. eigenvalues --    0.13554   0.15807   0.15935   0.16472   0.17160

 Mulliken charges:
               1
     1  S    0.361957
     2  C    0.093473
     3  C    0.093473
     4  C    0.310583
     5  H   -0.138008
     6  H   -0.175631
     7  H   -0.138008
     8  H   -0.175631
     9  H   -0.116558
    10  H   -0.115653
 Sum of Mulliken charges =  -0.00000

 Dipole moment (field-independent basis, Debye):
    X=             -0.7855    Y=             -2.0593    Z=              0.0000  Tot=              2.2040

 Test job not archived.
 1\1\GINC-SE158\SP\RHF\Aug-CC-pVDZ\C3H6S1\OHZDE\05-Apr-2025\0\\#t hf au
 g-cc-pvdz iop(5/13=1,5/36=2,99/5=2) pseudo=read geom=check guess=(read
 ,tcheck) scf=(maxcycle=1)\\title\\0,1\S,0,0.340727,1.046092,0.\C,0,-0.
 205833,-0.304647,1.150622\C,0,-0.205833,-0.304647,-1.150622\C,0,-0.205
 833,-1.328854,0.\H,0,-1.195905,-0.094659,1.550789\H,0,0.484953,-0.4937
 32,1.967693\H,0,-1.195905,-0.094659,-1.550789\H,0,0.484953,-0.493732,-
 1.967693\H,0,-1.043401,-2.027484,0.\H,0,0.71868,-1.904316,0.\\Version=
 ES64L-G16RevC.01\State=1-A'\HF=-514.6720433\RMSD=8.504e-03\Dipole=-0.3

 Normal termination of Gaussian 16 at Sat Apr  5 23:13:49 2025.
