 Gaussian 16, Revision C.01,

 ----------------------------------------------------------------------
 #t hf aug-cc-pvdz symm=none int=(grid=ultrafine) guess=(read,tcheck) s
 table=(opt,rrhf)
 ----------------------------------------------------------------------
 -----
 title
 -----
 Symbolic Z-matrix:
 Charge =  0 Multiplicity = 1

 SCF Done:  E(RHF) =  -475.577453953     A.U. after   12 cycles
 Normal termination of Gaussian 16 at Sat Apr  5 23:13:46 2025.
 Gaussian 16:  ES64L-G16RevC.01  3-Jul-2019

 ----------------------------------------------------------------------
 #t hf aug-cc-pvdz iop(5/13=1,5/36=2,99/5=2) pseudo=read geom=check gue
 ss=(read,tcheck) scf=(maxcycle=1)
 ----------------------------------------------------------------------
 -----
 title
 -----
 Structure from the checkpoint file:  "thiirane.chk"
 Charge =  0 Multiplicity = 1

                         Standard orientation:
 ---------------------------------------------------------------------
 Center     Atomic      Atomic             Coordinates (Angstroms)
 Number     Number       Type             X           Y           Z
 ---------------------------------------------------------------------
      1         16           0        0.000000    0.000000    0.871858
      2          6           0        0.000000    0.738462   -0.803990
      3          6           0       -0.000000   -0.738462   -0.803990
      4          1           0       -0.912020    1.251798   -1.075460
      5          1           0        0.912020    1.251798   -1.075460
      6          1           0        0.912020   -1.251798   -1.075460
      7          1           0       -0.912020   -1.251798   -1.075460
 ---------------------------------------------------------------------

 SCF Done:  E(RHF) =  -475.623066843     A.U. after    2 cycles

 The electronic state is 1-A1.
 Alpha  occ. eigenvalues --  -93.52516 -11.28774 -11.28689  -8.82261  -6.16386
 Alpha  occ. eigenvalues --   -6.16111  -6.15759  -1.13057  -0.84705  -0.82514
 Alpha  occ. eigenvalues --   -0.67632  -0.61413  -0.54809  -0.44325  -0.42371
 Alpha  occ. eigenvalues --   -0.34438
 Alpha virt. eigenvalues --    0.03667   0.04692   0.04909   0.07051   0.07108
 Alpha virt. eigenvalues --    0.11444   0.11856   0.12913   0.13461   0.14630
 Alpha virt. eigenvalues --    0.14984   0.17108   0.17495   0.19714   0.19761

 Mulliken charges:
               1
     1  S    0.113054
     2  C    0.430133
     3  C    0.430133
     4  H   -0.243330
     5  H   -0.243330
     6  H   -0.243330
     7  H   -0.243330
 Sum of Mulliken charges =  -0.00000

 Dipole moment (field-independent basis, Debye):
    X=              0.0000    Y=             -0.0000    Z=             -2.2284  Tot=              2.2284

 Test job not archived.
 1\1\GINC-SE177\SP\RHF\Aug-CC-pVDZ\C2H4S1\OHZDE\05-Apr-2025\0\\#t hf au
 g-cc-pvdz iop(5/13=1,5/36=2,99/5=2) pseudo=read geom=check guess=(read
 ,tcheck) scf=(maxcycle=1)\\title\\0,1\S,0,0.,0.,0.871858\C,0,0.,0.7384
 62,-0.80399\C,0,0.,-0.738462,-0.80399\H,0,-0.91202,1.251798,-1.07546\H
 ,0,0.91202,1.251798,-1.07546\H,0,0.91202,-1.251798,-1.07546\H,0,-0.912
 02,-1.251798,-1.07546\\Version=ES64L-G16RevC.01\State=1-A1\HF=-475.623
 0668\RMSD=9.742e-03\Dipole=0.,0.,-0.8767206\Quadrupole=-0.5173818,1.02
 75704,-0.5101885,0.,0.,0.\PG=C02V [C2(S1),SGV(C2),X(H4)]\\@

 Normal termination of Gaussian 16 at Sat Apr  5 23:13:48 2025.
