 Gaussian 16, Revision C.01,

 ----------------------------------------------------------------------
 #t hf aug-cc-pvdz symm=none int=(grid=ultrafine) guess=(read,tcheck) s
 table=(opt,rrhf)
 ----------------------------------------------------------------------
 -----
 title
 -----
 Symbolic Z-matrix:
 Charge =  0 Multiplicity = 1

 SCF Done:  E(RHF) =  -436.534001007     A.U. after   12 cycles
 Normal termination of Gaussian 16 at Sat Apr  5 23:14:22 2025.
 Gaussian 16:  ES64L-G16RevC.01  3-Jul-2019

 ----------------------------------------------------------------------
 #t hf aug-cc-pvdz iop(5/13=1,5/36=2,99/5=2) pseudo=read geom=check gue
 ss=(read,tcheck) scf=(maxcycle=1)
 ----------------------------------------------------------------------
 -----
 title
 -----
 Structure from the checkpoint file:  "thioformaldehyde.chk"
 Charge =  0 Multiplicity = 1

                         Standard orientation:
 ---------------------------------------------------------------------
 Center     Atomic      Atomic             Coordinates (Angstroms)
 Number     Number       Type             X           Y           Z
 ---------------------------------------------------------------------
      1         16           0        0.000000   -0.000000    0.585088
      2          6           0        0.000000    0.000000   -1.025466
      3          1           0        0.000000    0.920769   -1.604308
      4          1           0       -0.000000   -0.920769   -1.604308
 ---------------------------------------------------------------------

 SCF Done:  E(RHF) =  -436.566350180     A.U. after    2 cycles

 The electronic state is 1-A1.
 Alpha  occ. eigenvalues --  -93.53767 -11.33161  -8.83635  -6.17716  -6.17459
 Alpha  occ. eigenvalues --   -6.17114  -1.05723  -0.80996  -0.64797  -0.54085
 Alpha  occ. eigenvalues --   -0.41985  -0.35078
 Alpha virt. eigenvalues --    0.03363   0.03533   0.05211   0.07432   0.11455
 Alpha virt. eigenvalues --    0.12523   0.14570   0.16308   0.16448   0.18090
 Alpha virt. eigenvalues --    0.24543   0.26726   0.29409   0.30947   0.31217

 Mulliken charges:
               1
     1  S    0.169738
     2  C    0.064549
     3  H   -0.117143
     4  H   -0.117143
 Sum of Mulliken charges =  -0.00000

 Dipole moment (field-independent basis, Debye):
    X=              0.0000    Y=              0.0000    Z=             -2.0880  Tot=              2.0880

 Test job not archived.
 1\1\GINC-SE188\SP\RHF\Aug-CC-pVDZ\C1H2S1\OHZDE\05-Apr-2025\0\\#t hf au
 g-cc-pvdz iop(5/13=1,5/36=2,99/5=2) pseudo=read geom=check guess=(read
 ,tcheck) scf=(maxcycle=1)\\title\\0,1\S,0,0.,0.,0.585088\C,0,0.,0.,-1.
 025466\H,0,0.,0.920769,-1.604308\H,0,0.,-0.920769,-1.604308\\Version=E
 S64L-G16RevC.01\State=1-A1\HF=-436.5663502\RMSD=5.772e-03\Dipole=0.,0.
 ,-0.8214766\Quadrupole=-0.7301354,-1.0805041,1.8106395,0.,0.,0.\PG=C02
 V [C2(C1S1),SGV(H2)]\\@

 Normal termination of Gaussian 16 at Sat Apr  5 23:15:55 2025.
