 Gaussian 16, Revision C.01,

 ----------------------------------------------------------------------
 #t hf aug-cc-pvdz symm=none int=(grid=ultrafine) guess=(read,tcheck) s
 table=(opt,rrhf)
 ----------------------------------------------------------------------
 -----
 title
 -----
 Symbolic Z-matrix:
 Charge =  0 Multiplicity = 1

 SCF Done:  E(RHF) =  -551.328392568     A.U. after   13 cycles
 Normal termination of Gaussian 16 at Sat Apr  5 23:14:25 2025.
 Gaussian 16:  ES64L-G16RevC.01  3-Jul-2019

 ----------------------------------------------------------------------
 #t hf aug-cc-pvdz iop(5/13=1,5/36=2,99/5=2) pseudo=read geom=check gue
 ss=(read,tcheck) scf=(maxcycle=1)
 ----------------------------------------------------------------------
 -----
 title
 -----
 Structure from the checkpoint file:  "thiophene.chk"
 Charge =  0 Multiplicity = 1

                         Standard orientation:
 ---------------------------------------------------------------------
 Center     Atomic      Atomic             Coordinates (Angstroms)
 Number     Number       Type             X           Y           Z
 ---------------------------------------------------------------------
      1          6           0        0.000000    0.711523   -1.267123
      2          6           0       -0.000000   -0.711523   -1.267123
      3          6           0        0.000000    1.238059   -0.009487
      4          6           0       -0.000000   -1.238059   -0.009487
      5         16           0        0.000000    0.000000    1.192594
      6          1           0        0.000000    1.314467   -2.162845
      7          1           0       -0.000000   -1.314467   -2.162845
      8          1           0        0.000000    2.274447    0.281757
      9          1           0       -0.000000   -2.274447    0.281757
 ---------------------------------------------------------------------

 SCF Done:  E(RHF) =  -551.398075111     A.U. after    2 cycles

 The electronic state is 1-A1.
 Alpha  occ. eigenvalues --  -93.56377 -11.27268 -11.27243 -11.24917 -11.24828
 Alpha  occ. eigenvalues --   -8.86221  -6.20323  -6.20200  -6.19852  -1.16194
 Alpha  occ. eigenvalues --   -0.98301  -0.97720  -0.76977  -0.75360  -0.70340
 Alpha  occ. eigenvalues --   -0.58368  -0.55786  -0.52985  -0.52497  -0.47394
 Alpha  occ. eigenvalues --   -0.34760  -0.33340
 Alpha virt. eigenvalues --    0.03586   0.04188   0.04777   0.05994   0.08577
 Alpha virt. eigenvalues --    0.09692   0.11997   0.12190   0.13944   0.14248
 Alpha virt. eigenvalues --    0.14402   0.14472   0.14543   0.14713   0.15782

 Mulliken charges:
               1
     1  C    0.346172
     2  C    0.346172
     3  C   -0.101954
     4  C   -0.101954
     5  S    0.818771
     6  H   -0.315340
     7  H   -0.315340
     8  H   -0.338264
     9  H   -0.338264
 Sum of Mulliken charges =  -0.00000

 Dipole moment (field-independent basis, Debye):
    X=              0.0000    Y=              0.0000    Z=             -0.7789  Tot=              0.7789

 Test job not archived.
 1\1\GINC-SE183\SP\RHF\Aug-CC-pVDZ\C4H4S1\OHZDE\05-Apr-2025\0\\#t hf au
 g-cc-pvdz iop(5/13=1,5/36=2,99/5=2) pseudo=read geom=check guess=(read
 ,tcheck) scf=(maxcycle=1)\\title\\0,1\C,0,0.,0.711523,-1.267123\C,0,0.
 ,-0.711523,-1.267123\C,0,0.,1.238059,-0.009487\C,0,0.,-1.238059,-0.009
 487\S,0,0.,0.,1.192594\H,0,0.,1.314467,-2.162845\H,0,0.,-1.314467,-2.1
 62845\H,0,0.,2.274447,0.281757\H,0,0.,-2.274447,0.281757\\Version=ES64
 L-G16RevC.01\State=1-A1\HF=-551.3980751\RMSD=1.256e-02\Dipole=0.,0.,-0
 .3064386\Quadrupole=-4.1188067,3.4290098,0.6897969,0.,0.,0.\PG=C02V [C

 Normal termination of Gaussian 16 at Sat Apr  5 23:15:55 2025.
