 Gaussian 16, Revision C.01,

 ----------------------------------------------------------------------
 #t hf aug-cc-pvdz symm=none int=(grid=ultrafine) guess=(read,tcheck) s
 table=(opt,rrhf)
 ----------------------------------------------------------------------
 -----
 title
 -----
 Symbolic Z-matrix:
 Charge =  0 Multiplicity = 1

 SCF Done:  E(RHF) =  -1354.37379971     A.U. after   13 cycles

 1\1\GINC-SE185\Stability\RHF\Aug-CC-pVDZ\C1Cl2S1\OHZDE\05-Apr-2025\0\\
 #t hf aug-cc-pvdz symm=none int=(grid=ultrafine) guess=(read,tcheck) s
 table=(opt,rrhf)\\title\\0,1\Cl,0,0.,1.435076,-0.846417\C,0,0.,0.,0.14
 2885\Cl,0,0.,-1.435076,-0.846417\S,0,0.,0.,1.745054\\Version=ES64L-G16
 RevC.01\HF=-1354.3737997\RMSD=4.840e-09\Dipole=0.,0.,-0.246575\Quadrup
 ole=-0.0715766,0.0661268,0.0054497,0.,0.,0.\PG=Unknown\\@
 The archive entry for this job was punched.

 Normal termination of Gaussian 16 at Sat Apr  5 23:14:21 2025.
 Gaussian 16:  ES64L-G16RevC.01  3-Jul-2019

 ----------------------------------------------------------------------
 #t hf aug-cc-pvdz iop(5/13=1,5/36=2,99/5=2) pseudo=read geom=check gue
 ss=(read,tcheck) scf=(maxcycle=1)
 ----------------------------------------------------------------------
 -----
 title
 -----
 Structure from the checkpoint file:  "thiophosgene.chk"
 Charge =  0 Multiplicity = 1

                         Standard orientation:
 ---------------------------------------------------------------------
 Center     Atomic      Atomic             Coordinates (Angstroms)
 Number     Number       Type             X           Y           Z
 ---------------------------------------------------------------------
      1         17           0        0.000000    1.435076   -0.846417
      2          6           0        0.000000   -0.000000    0.142885
      3         17           0       -0.000000   -1.435076   -0.846417
      4         16           0        0.000000   -0.000000    1.745054
 ---------------------------------------------------------------------

 SCF Done:  E(RHF) =  -1354.44342841     A.U. after    2 cycles

 The electronic state is 1-A1.
 Alpha  occ. eigenvalues -- -103.71267-103.71267 -93.56246 -11.45783 -10.74589
 Alpha  occ. eigenvalues --  -10.74572  -8.86213  -8.40307  -8.40298  -8.39957
 Alpha  occ. eigenvalues --   -8.39955  -8.39941  -8.39938  -6.20356  -6.19953
 Alpha  occ. eigenvalues --   -6.19687  -1.26773  -1.18097  -1.04768  -0.78345
 Alpha  occ. eigenvalues --   -0.65798  -0.61214  -0.59468  -0.51624  -0.50966
 Alpha  occ. eigenvalues --   -0.49183  -0.41512  -0.38421
 Alpha virt. eigenvalues --    0.01130   0.05798   0.07591   0.08216   0.10253
 Alpha virt. eigenvalues --    0.11770   0.12458   0.14005   0.14693   0.15502
 Alpha virt. eigenvalues --    0.17333   0.17477   0.18224   0.18684   0.19028

 Mulliken charges:
               1
     1  Cl   0.000454
     2  C   -0.452839
     3  Cl   0.000454
     4  S    0.451932
 Sum of Mulliken charges =  -0.00000

 Dipole moment (field-independent basis, Debye):
    X=              0.0000    Y=             -0.0000    Z=             -0.3177  Tot=              0.3177

 Test job not archived.
 1\1\GINC-SE185\SP\RHF\Aug-CC-pVDZ\C1Cl2S1\OHZDE\05-Apr-2025\0\\#t hf a
 ug-cc-pvdz iop(5/13=1,5/36=2,99/5=2) pseudo=read geom=check guess=(rea
 d,tcheck) scf=(maxcycle=1)\\title\\0,1\Cl,0,0.,1.435076,-0.846417\C,0,
 0.,0.,0.142885\Cl,0,0.,-1.435076,-0.846417\S,0,0.,0.,1.745054\\Version
 =ES64L-G16RevC.01\State=1-A1\HF=-1354.4434284\RMSD=5.187e-03\Dipole=0.
 ,0.,-0.1249796\Quadrupole=-0.1838033,-0.103305,0.2871083,0.,0.,0.\PG=C
 02V [C2(C1S1),SGV(Cl2)]\\@

 Normal termination of Gaussian 16 at Sat Apr  5 23:14:22 2025.
