 Gaussian 16, Revision C.01,

 ----------------------------------------------------------------------
 #t hf aug-cc-pvdz symm=none int=(grid=ultrafine) guess=(read,tcheck) s
 table=(opt,rrhf)
 ----------------------------------------------------------------------
 -----
 title
 -----
 Symbolic Z-matrix:
 Charge =  0 Multiplicity = 1

 SCF Done:  E(RHF) =  -626.108765979     A.U. after   14 cycles
 Normal termination of Gaussian 16 at Sat Apr  5 23:14:32 2025.
 Gaussian 16:  ES64L-G16RevC.01  3-Jul-2019

 ----------------------------------------------------------------------
 #t hf aug-cc-pvdz iop(5/13=1,5/36=2,99/5=2) pseudo=read geom=check gue
 ss=(read,tcheck) scf=(maxcycle=1)
 ----------------------------------------------------------------------
 -----
 title
 -----
 Structure from the checkpoint file:  "thiophene-1-oxide.chk"
 Charge =  0 Multiplicity = 1

                         Standard orientation:
 ---------------------------------------------------------------------
 Center     Atomic      Atomic             Coordinates (Angstroms)
 Number     Number       Type             X           Y           Z
 ---------------------------------------------------------------------
      1          6           0        0.034055    1.616595    0.729797
      2          6           0        0.034055    1.616595   -0.729797
      3          6           0        0.034055    0.388734    1.266356
      4          6           0        0.034055    0.388734   -1.266356
      5          8           0       -0.701492   -1.975378    0.000000
      6         16           0        0.285648   -0.844573    0.000000
      7          1           0        0.053237    2.529935    1.308036
      8          1           0        0.053237    2.529935   -1.308036
      9          1           0        0.058892    0.096185    2.302731
     10          1           0        0.058892    0.096185   -2.302731
 ---------------------------------------------------------------------

 SCF Done:  E(RHF) =  -626.220766809     A.U. after    2 cycles

 The electronic state is 1-A'.
 Alpha  occ. eigenvalues --  -93.67063 -20.53081 -11.29100 -11.29099 -11.28931
 Alpha  occ. eigenvalues --  -11.28876  -8.95475  -6.29803  -6.29581  -6.29278
 Alpha  occ. eigenvalues --   -1.30886  -1.16944  -1.01864  -0.96496  -0.79390
 Alpha  occ. eigenvalues --   -0.78144  -0.72921  -0.62037  -0.60743  -0.59165
 Alpha  occ. eigenvalues --   -0.58828  -0.57222  -0.48502  -0.45371  -0.37769
 Alpha  occ. eigenvalues --   -0.36514
 Alpha virt. eigenvalues --    0.02644   0.03733   0.04056   0.04950   0.05712
 Alpha virt. eigenvalues --    0.08524   0.10922   0.11907   0.12826   0.13086
 Alpha virt. eigenvalues --    0.13188   0.13318   0.14230   0.15077   0.15472

 Mulliken charges:
               1
     1  C    0.294884
     2  C    0.294884
     3  C    0.041562
     4  C    0.041562
     5  O   -1.046125
     6  S    1.599096
     7  H   -0.312763
     8  H   -0.312763
     9  H   -0.300169
    10  H   -0.300169
 Sum of Mulliken charges =  -0.00000

 Dipole moment (field-independent basis, Debye):
    X=              1.7640    Y=              5.0605    Z=             -0.0000  Tot=              5.3591

 Test job not archived.
 1\1\GINC-SE168\SP\RHF\Aug-CC-pVDZ\C4H4O1S1\OHZDE\05-Apr-2025\0\\#t hf
 aug-cc-pvdz iop(5/13=1,5/36=2,99/5=2) pseudo=read geom=check guess=(re
 ad,tcheck) scf=(maxcycle=1)\\title\\0,1\C,0,1.612095,-0.729797,0.12525
 4\C,0,1.612095,0.729797,0.125254\C,0,0.390198,-1.266356,0.004379\C,0,0
 .390198,1.266356,0.004379\O,0,-2.03484,0.,0.503621\S,0,-0.81235,0.,-0.
 367403\H,0,2.522887,-1.308036,0.196077\H,0,2.522887,1.308036,0.196077\
 H,0,0.101515,-2.302731,-0.049137\H,0,0.101515,2.302731,-0.049137\\Vers
 ion=ES64L-G16RevC.01\State=1-A'\HF=-626.2207668\RMSD=1.082e-02\Dipole=

 Normal termination of Gaussian 16 at Sat Apr  5 23:15:56 2025.
