 Gaussian 16, Revision C.01,

 ----------------------------------------------------------------------
 #t hf aug-cc-pvdz symm=none int=(grid=ultrafine) guess=(read,tcheck) s
 table=(opt,rrhf)
 ----------------------------------------------------------------------
 -----
 title
 -----
 Symbolic Z-matrix:
 Charge =  0 Multiplicity = 1

 SCF Done:  E(RHF) =  -514.629403675     A.U. after   12 cycles
 Normal termination of Gaussian 16 at Sat Apr  5 23:14:25 2025.
 Gaussian 16:  ES64L-G16RevC.01  3-Jul-2019

 ----------------------------------------------------------------------
 #t hf aug-cc-pvdz iop(5/13=1,5/36=2,99/5=2) pseudo=read geom=check gue
 ss=(read,tcheck) scf=(maxcycle=1)
 ----------------------------------------------------------------------
 -----
 title
 -----
 Structure from the checkpoint file:  "thioacetone.chk"
 Charge =  0 Multiplicity = 1

                         Standard orientation:
 ---------------------------------------------------------------------
 Center     Atomic      Atomic             Coordinates (Angstroms)
 Number     Number       Type             X           Y           Z
 ---------------------------------------------------------------------
      1          6           0        0.000000    0.000000   -0.255900
      2         16           0        0.000000    0.000000    1.375571
      3          6           0        0.000000    1.266131   -1.062046
      4          6           0       -0.000000   -1.266131   -1.062046
      5          1           0        0.000000    2.147096   -0.427764
      6          1           0       -0.000000   -2.147096   -0.427764
      7          1           0        0.875313    1.291889   -1.718417
      8          1           0       -0.875313    1.291889   -1.718417
      9          1           0       -0.875313   -1.291889   -1.718417
     10          1           0        0.875313   -1.291889   -1.718417
 ---------------------------------------------------------------------

 SCF Done:  E(RHF) =  -514.685493739     A.U. after    2 cycles

 The electronic state is 1-A1.
 Alpha  occ. eigenvalues --  -93.50819 -11.33380 -11.25376 -11.25368  -8.80732
 Alpha  occ. eigenvalues --   -6.14897  -6.14533  -6.14287  -1.11028  -0.96637
 Alpha  occ. eigenvalues --   -0.94020  -0.72008  -0.61926  -0.61420  -0.61157
 Alpha  occ. eigenvalues --   -0.56295  -0.53324  -0.49503  -0.38142  -0.33192
 Alpha virt. eigenvalues --    0.03051   0.04354   0.04778   0.06144   0.06969
 Alpha virt. eigenvalues --    0.07467   0.07590   0.08812   0.10635   0.13387
 Alpha virt. eigenvalues --    0.14494   0.14599   0.16551   0.16727   0.16872

 Mulliken charges:
               1
     1  C   -0.707764
     2  S    0.046560
     3  C    0.304927
     4  C    0.304927
     5  H   -0.067520
     6  H   -0.067520
     7  H    0.046597
     8  H    0.046597
     9  H    0.046597
    10  H    0.046597
 Sum of Mulliken charges =  -0.00000

 Dipole moment (field-independent basis, Debye):
    X=              0.0000    Y=              0.0000    Z=             -3.2888  Tot=              3.2888

 Test job not archived.
 1\1\GINC-SE036\SP\RHF\Aug-CC-pVDZ\C3H6S1\OHZDE\05-Apr-2025\0\\#t hf au
 g-cc-pvdz iop(5/13=1,5/36=2,99/5=2) pseudo=read geom=check guess=(read
 ,tcheck) scf=(maxcycle=1)\\title\\0,1\C,0,0.,0.,-0.2559\S,0,0.,0.,1.37
 5571\C,0,0.,1.266131,-1.062046\C,0,0.,-1.266131,-1.062046\H,0,0.,2.147
 096,-0.427764\H,0,0.,-2.147096,-0.427764\H,0,0.875313,1.291889,-1.7184
 17\H,0,-0.875313,1.291889,-1.718417\H,0,-0.875313,-1.291889,-1.718417\
 H,0,0.875313,-1.291889,-1.718417\\Version=ES64L-G16RevC.01\State=1-A1\
 HF=-514.6854937\RMSD=6.447e-03\Dipole=0.,0.,-1.2939216\Quadrupole=0.08

 Normal termination of Gaussian 16 at Sat Apr  5 23:15:56 2025.
