 Gaussian 16, Revision C.01,

 ----------------------------------------------------------------------
 #t hf aug-cc-pvdz symm=none int=(grid=ultrafine) guess=(read,tcheck) s
 table=(opt,rrhf)
 ----------------------------------------------------------------------
 -----
 title
 -----
 Symbolic Z-matrix:
 Charge =  0 Multiplicity = 1

 SCF Done:  E(RHF) =  -717.092722531     A.U. after   15 cycles
 Normal termination of Gaussian 16 at Sat Apr  5 23:14:34 2025.
 Gaussian 16:  ES64L-G16RevC.01  3-Jul-2019

 ----------------------------------------------------------------------
 #t hf aug-cc-pvdz iop(5/13=1,5/36=2,99/5=2) pseudo=read geom=check gue
 ss=(read,tcheck) scf=(maxcycle=1)
 ----------------------------------------------------------------------
 -----
 title
 -----
 Structure from the checkpoint file:  "thiocyanatoacetic_acid.chk"
 Charge =  0 Multiplicity = 1

                         Standard orientation:
 ---------------------------------------------------------------------
 Center     Atomic      Atomic             Coordinates (Angstroms)
 Number     Number       Type             X           Y           Z
 ---------------------------------------------------------------------
      1         16           0       -0.904941   -0.785080   -0.000054
      2          8           0        2.696807    0.929615    0.000054
      3          8           0        1.923496   -1.150439   -0.000102
      4          7           0       -3.304099    0.760189    0.000086
      5          6           0        0.294332    0.611111    0.000040
      6          6           0        1.693547    0.022896   -0.000011
      7          6           0       -2.320544    0.152967    0.000030
      8          1           0        0.138262    1.224382    0.886861
      9          1           0        0.138251    1.224511   -0.886690
     10          1           0        2.364788    1.835806    0.000127
 ---------------------------------------------------------------------

 SCF Done:  E(RHF) =  -717.212723032     A.U. after    2 cycles

 The electronic state is 1-A.
 Alpha  occ. eigenvalues --  -93.61773 -20.66275 -20.60042 -15.66310 -11.44313
 Alpha  occ. eigenvalues --  -11.34376 -11.32148  -8.91337  -6.25539  -6.25232
 Alpha  occ. eigenvalues --   -6.24843  -1.45979  -1.37262  -1.21601  -1.11758
 Alpha  occ. eigenvalues --   -0.99106  -0.88060  -0.77233  -0.72081  -0.71305
 Alpha  occ. eigenvalues --   -0.69232  -0.63664  -0.62480  -0.57081  -0.54922
 Alpha  occ. eigenvalues --   -0.53626  -0.53148  -0.51270  -0.46881  -0.39713
 Alpha virt. eigenvalues --    0.01411   0.04214   0.04904   0.06395   0.07706
 Alpha virt. eigenvalues --    0.09933   0.10361   0.10412   0.10785   0.12356
 Alpha virt. eigenvalues --    0.12444   0.13119   0.13977   0.14455   0.15255

 Mulliken charges:
               1
     1  S    0.845381
     2  O   -0.492618
     3  O   -0.386445
     4  N   -0.196615
     5  C   -0.227397
     6  C    0.667092
     7  C   -0.391964
     8  H   -0.006345
     9  H   -0.006343
    10  H    0.195252
 Sum of Mulliken charges =  -0.00000

 Dipole moment (field-independent basis, Debye):
    X=              1.7545    Y=              3.4516    Z=              0.0002  Tot=              3.8720

 Test job not archived.
 1\1\GINC-SE104\SP\RHF\Aug-CC-pVDZ\C3H3N1O2S1\OHZDE\05-Apr-2025\0\\#t h
 f aug-cc-pvdz iop(5/13=1,5/36=2,99/5=2) pseudo=read geom=check guess=(
 read,tcheck) scf=(maxcycle=1)\\title\\0,1\S,0,-0.904941,-0.78508,-0.00
 0054\O,0,2.696807,0.929615,0.000054\O,0,1.923496,-1.150439,-0.000102\N
 ,0,-3.304099,0.760189,0.000086\C,0,0.294332,0.611111,0.00004\C,0,1.693
 547,0.022896,-0.000011\C,0,-2.320544,0.152967,0.00003\H,0,0.138262,1.2
 24382,0.886861\H,0,0.138251,1.224511,-0.88669\H,0,2.364788,1.835806,0.
 000127\\Version=ES64L-G16RevC.01\State=1-A\HF=-717.212723\RMSD=4.461e-

 Normal termination of Gaussian 16 at Sat Apr  5 23:15:56 2025.
