 Gaussian 16, Revision C.01,

 ----------------------------------------------------------------------
 #t hf aug-cc-pvdz symm=none int=(grid=ultrafine) guess=(read,tcheck) s
 table=(opt,rrhf)
 ----------------------------------------------------------------------
 -----
 title
 -----
 Symbolic Z-matrix:
 Charge =  0 Multiplicity = 1

 SCF Done:  E(RHF) =  -475.583038844     A.U. after   13 cycles
 Normal termination of Gaussian 16 at Sat Apr  5 23:13:44 2025.
 Gaussian 16:  ES64L-G16RevC.01  3-Jul-2019

 ----------------------------------------------------------------------
 #t hf aug-cc-pvdz iop(5/13=1,5/36=2,99/5=2) pseudo=read geom=check gue
 ss=(read,tcheck) scf=(maxcycle=1)
 ----------------------------------------------------------------------
 -----
 title
 -----
 Structure from the checkpoint file:  "thioacetaldehyde.chk"
 Charge =  0 Multiplicity = 1

                         Standard orientation:
 ---------------------------------------------------------------------
 Center     Atomic      Atomic             Coordinates (Angstroms)
 Number     Number       Type             X           Y           Z
 ---------------------------------------------------------------------
      1          6           0        0.000000    0.619383    0.000000
      2          6           0       -1.485214    0.718099    0.000000
      3         16           0        0.874031   -0.744703    0.000000
      4          1           0        0.520354    1.577729    0.000000
      5          1           0       -1.957612   -0.260850    0.000000
      6          1           0       -1.817979    1.286739    0.874315
      7          1           0       -1.817979    1.286739   -0.874315
 ---------------------------------------------------------------------

 SCF Done:  E(RHF) =  -475.627434918     A.U. after    2 cycles

 The electronic state is 1-A'.
 Alpha  occ. eigenvalues --  -93.52114 -11.33230 -11.25873  -8.82010  -6.16146
 Alpha  occ. eigenvalues --   -6.15819  -6.15528  -1.08858  -0.95446  -0.77151
 Alpha  occ. eigenvalues --   -0.63347  -0.59725  -0.57315  -0.51124  -0.39688
 Alpha  occ. eigenvalues --   -0.34051
 Alpha virt. eigenvalues --    0.03146   0.04876   0.04902   0.05633   0.06322
 Alpha virt. eigenvalues --    0.08972   0.11194   0.13374   0.13737   0.14583
 Alpha virt. eigenvalues --    0.15969   0.16177   0.17301   0.17875   0.18019

 Mulliken charges:
               1
     1  C   -0.057851
     2  C    0.251212
     3  S    0.089692
     4  H   -0.265196
     5  H   -0.051281
     6  H    0.016712
     7  H    0.016712
 Sum of Mulliken charges =   0.00000

 Dipole moment (field-independent basis, Debye):
    X=             -1.8638    Y=              2.1683    Z=             -0.0000  Tot=              2.8592

 Test job not archived.
 1\1\GINC-SE185\SP\RHF\Aug-CC-pVDZ\C2H4S1\OHZDE\05-Apr-2025\0\\#t hf au
 g-cc-pvdz iop(5/13=1,5/36=2,99/5=2) pseudo=read geom=check guess=(read
 ,tcheck) scf=(maxcycle=1)\\title\\0,1\C,0,0.,0.619383,0.\C,0,-1.485214
 ,0.718099,0.\S,0,0.874031,-0.744703,0.\H,0,0.520354,1.577729,0.\H,0,-1
 .957612,-0.26085,0.\H,0,-1.817979,1.286739,0.874315\H,0,-1.817979,1.28
 6739,-0.874315\\Version=ES64L-G16RevC.01\State=1-A'\HF=-475.6274349\RM
 SD=6.542e-03\Dipole=-0.7332649,0.8530833,0.\Quadrupole=-0.4896616,0.73
 49816,-0.24532,-0.4709754,0.,0.\PG=CS [SG(C2H2S1),X(H2)]\\@

 Normal termination of Gaussian 16 at Sat Apr  5 23:13:46 2025.
