 Gaussian 16, Revision C.01,

 ----------------------------------------------------------------------
 #t hf aug-cc-pvdz symm=none int=(grid=ultrafine) guess=(read,tcheck) s
 table=(opt,rrhf)
 ----------------------------------------------------------------------
 -----
 title
 -----
 Symbolic Z-matrix:
 Charge =  0 Multiplicity = 1

 SCF Done:  E(RHF) =  -1002.65333637     A.U. after   15 cycles
 Normal termination of Gaussian 16 at Sat Apr  5 23:14:33 2025.
 Gaussian 16:  ES64L-G16RevC.01  3-Jul-2019

 ----------------------------------------------------------------------
 #t hf aug-cc-pvdz iop(5/13=1,5/36=2,99/5=2) pseudo=read geom=check gue
 ss=(read,tcheck) scf=(maxcycle=1)
 ----------------------------------------------------------------------
 -----
 title
 -----
 Structure from the checkpoint file:  "thiocyanatomethylsulfanylacetylene.chk"
 Charge =  0 Multiplicity = 1

                         Standard orientation:
 ---------------------------------------------------------------------
 Center     Atomic      Atomic             Coordinates (Angstroms)
 Number     Number       Type             X           Y           Z
 ---------------------------------------------------------------------
      1         16           0       -1.101935    0.129883    0.766287
      2         16           0        1.586860   -1.013699    0.024402
      3          7           0       -3.556241    0.444182   -0.651748
      4          6           0       -0.110750   -0.717112   -0.552454
      5          6           0       -2.556688    0.312656   -0.085241
      6          6           0        2.264315    0.527879   -0.112470
      7          6           0        2.817305    1.593553   -0.189220
      8          1           0       -0.109558   -0.111181   -1.451631
      9          1           0       -0.538550   -1.696769   -0.745449
     10          1           0        3.297908    2.537882   -0.255392
 ---------------------------------------------------------------------

 SCF Done:  E(RHF) =  -1002.76040542     A.U. after    2 cycles

 The electronic state is 1-A.
 Alpha  occ. eigenvalues --  -93.60983 -93.60503 -15.65893 -11.35146 -11.31741
 Alpha  occ. eigenvalues --  -11.29035 -11.27393  -8.90609  -8.90095  -6.24813
 Alpha  occ. eigenvalues --   -6.24494  -6.24310  -6.24132  -6.24038  -6.23672
 Alpha  occ. eigenvalues --   -1.21100  -1.13270  -1.06824  -1.00524  -0.90420
 Alpha  occ. eigenvalues --   -0.74822  -0.69705  -0.68439  -0.62793  -0.57247
 Alpha  occ. eigenvalues --   -0.54977  -0.53323  -0.52587  -0.49693  -0.46480
 Alpha  occ. eigenvalues --   -0.42317  -0.39196  -0.36549
 Alpha virt. eigenvalues --    0.03044   0.03742   0.05508   0.06513   0.07188
 Alpha virt. eigenvalues --    0.08115   0.09081   0.09749   0.10214   0.10605
 Alpha virt. eigenvalues --    0.11577   0.12234   0.12953   0.14047   0.14371

 Mulliken charges:
               1
     1  S    0.726024
     2  S    0.538097
     3  N   -0.180651
     4  C   -0.268643
     5  C   -0.410468
     6  C   -0.414034
     7  C    0.591432
     8  H   -0.082801
     9  H   -0.101151
    10  H   -0.397804
 Sum of Mulliken charges =  -0.00000

 Dipole moment (field-independent basis, Debye):
    X=              3.2549    Y=             -0.3389    Z=             -0.1087  Tot=              3.2743

 Test job not archived.
 1\1\GINC-SE165\SP\RHF\Aug-CC-pVDZ\C4H3N1S2\OHZDE\05-Apr-2025\0\\#t hf
 aug-cc-pvdz iop(5/13=1,5/36=2,99/5=2) pseudo=read geom=check guess=(re
 ad,tcheck) scf=(maxcycle=1)\\title\\0,1\S,0,-1.101935,0.129883,0.76628
 7\S,0,1.58686,-1.013699,0.024402\N,0,-3.556241,0.444182,-0.651748\C,0,
 -0.11075,-0.717112,-0.552454\C,0,-2.556688,0.312656,-0.085241\C,0,2.26
 4315,0.527879,-0.11247\C,0,2.817305,1.593553,-0.18922\H,0,-0.109558,-0
 .111181,-1.451631\H,0,-0.53855,-1.696769,-0.745449\H,0,3.297908,2.5378
 82,-0.255392\\Version=ES64L-G16RevC.01\State=1-A\HF=-1002.7604054\RMSD

 Normal termination of Gaussian 16 at Sat Apr  5 23:15:58 2025.
