 Gaussian 16, Revision C.01,

 ----------------------------------------------------------------------
 #t hf aug-cc-pvdz symm=none int=(grid=ultrafine) guess=(read,tcheck) s
 table=(opt,rrhf)
 ----------------------------------------------------------------------
 -----
 title
 -----
 Symbolic Z-matrix:
 Charge =  0 Multiplicity = 1

 SCF Done:  E(RHF) =  -601.677377111     A.U. after   13 cycles
 Normal termination of Gaussian 16 at Sat Apr  5 23:14:25 2025.
 Gaussian 16:  ES64L-G16RevC.01  3-Jul-2019

 ----------------------------------------------------------------------
 #t hf aug-cc-pvdz iop(5/13=1,5/36=2,99/5=2) pseudo=read geom=check gue
 ss=(read,tcheck) scf=(maxcycle=1)
 ----------------------------------------------------------------------
 -----
 title
 -----
 Structure from the checkpoint file:  "thiosemicarbazide.chk"
 Charge =  0 Multiplicity = 1

                         Standard orientation:
 ---------------------------------------------------------------------
 Center     Atomic      Atomic             Coordinates (Angstroms)
 Number     Number       Type             X           Y           Z
 ---------------------------------------------------------------------
      1         16           0       -1.756434   -0.365803   -0.000188
      2          7           0        0.863151   -0.693485    0.000281
      3          7           0        0.167197    1.487661   -0.000079
      4          7           0        2.197899   -0.268846    0.000181
      5          6           0       -0.173325    0.187895    0.000004
      6          1           0        0.618610   -1.671311    0.000117
      7          1           0        1.137120    1.757055    0.000069
      8          1           0       -0.566962    2.169753   -0.000192
      9          1           0        2.678241   -0.603657    0.827164
     10          1           0        2.678150   -0.603667   -0.826856
 ---------------------------------------------------------------------

 SCF Done:  E(RHF) =  -601.758247168     A.U. after    2 cycles

 The electronic state is 1-A.
 Alpha  occ. eigenvalues --  -93.46214 -15.69464 -15.68875 -15.66077 -11.38563
 Alpha  occ. eigenvalues --   -8.76162  -6.10424  -6.09829  -6.09796  -1.31504
 Alpha  occ. eigenvalues --   -1.20954  -1.08475  -0.93633  -0.82932  -0.73891
 Alpha  occ. eigenvalues --   -0.72363  -0.71679  -0.67112  -0.56048  -0.50056
 Alpha  occ. eigenvalues --   -0.46625  -0.41951  -0.31525  -0.31323
 Alpha virt. eigenvalues --    0.02124   0.03399   0.04179   0.05230   0.07568
 Alpha virt. eigenvalues --    0.10181   0.12764   0.12857   0.14418   0.14701
 Alpha virt. eigenvalues --    0.15022   0.15341   0.17640   0.17690   0.17791

 Mulliken charges:
               1
     1  S   -0.123052
     2  N   -0.114063
     3  N   -0.192260
     4  N   -0.311058
     5  C    0.556039
     6  H   -0.026131
     7  H    0.003464
     8  H    0.006582
     9  H    0.100250
    10  H    0.100229
 Sum of Mulliken charges =  -0.00000

 Dipole moment (field-independent basis, Debye):
    X=              6.2126    Y=              0.6286    Z=              0.0002  Tot=              6.2443

 Test job not archived.
 1\1\GINC-SE185\SP\RHF\Aug-CC-pVDZ\C1H5N3S1\OHZDE\05-Apr-2025\0\\#t hf
 aug-cc-pvdz iop(5/13=1,5/36=2,99/5=2) pseudo=read geom=check guess=(re
 ad,tcheck) scf=(maxcycle=1)\\title\\0,1\S,0,-1.756434,-0.365803,-0.000
 188\N,0,0.863151,-0.693485,0.000281\N,0,0.167197,1.487661,-0.000079\N,
 0,2.197899,-0.268846,0.000181\C,0,-0.173325,0.187895,0.000004\H,0,0.61
 861,-1.671311,0.000117\H,0,1.13712,1.757055,0.000069\H,0,-0.566962,2.1
 69753,-0.000192\H,0,2.678241,-0.603657,0.827164\H,0,2.67815,-0.603667,
 -0.826856\\Version=ES64L-G16RevC.01\State=1-A\HF=-601.7582472\RMSD=4.4

 Normal termination of Gaussian 16 at Sat Apr  5 23:15:56 2025.
