 Gaussian 16, Revision C.01,

 ----------------------------------------------------------------------
 #t hf aug-cc-pvdz symm=none int=(grid=ultrafine) guess=(read,tcheck) s
 table=(opt,rrhf)
 ----------------------------------------------------------------------
 -----
 title
 -----
 Symbolic Z-matrix:
 Charge =  0 Multiplicity = 1

 SCF Done:  E(RHF) =  -628.496406938     A.U. after   14 cycles
 Normal termination of Gaussian 16 at Sat Apr  5 23:14:46 2025.
 Gaussian 16:  ES64L-G16RevC.01  3-Jul-2019

 ----------------------------------------------------------------------
 #t hf aug-cc-pvdz iop(5/13=1,5/36=2,99/5=2) pseudo=read geom=check gue
 ss=(read,tcheck) scf=(maxcycle=1)
 ----------------------------------------------------------------------
 -----
 title
 -----
 Structure from the checkpoint file:  "thiolane-1-oxide.chk"
 Charge =  0 Multiplicity = 1

                         Standard orientation:
 ---------------------------------------------------------------------
 Center     Atomic      Atomic             Coordinates (Angstroms)
 Number     Number       Type             X           Y           Z
 ---------------------------------------------------------------------
      1          6           0        1.387883   -0.811681    0.479852
      2          6           0        1.678206    0.633320    0.061765
      3          6           0        0.258573   -1.279223   -0.428050
      4          6           0        0.330813    1.347067   -0.089120
      5          8           0       -1.798582   -0.049524    0.835116
      6         16           0       -1.000813    0.079000   -0.439396
      7          1           0        2.269473   -1.447421    0.387147
      8          1           0        1.059693   -0.849628    1.519688
      9          1           0        2.312291    1.147646    0.784708
     10          1           0        2.210285    0.636735   -0.891921
     11          1           0        0.589748   -1.411400   -1.460234
     12          1           0       -0.266523   -2.172907   -0.098828
     13          1           0       -0.021164    1.794675    0.838932
     14          1           0        0.315011    2.097602   -0.876757
 ---------------------------------------------------------------------

 SCF Done:  E(RHF) =  -628.606829503     A.U. after    2 cycles

 The electronic state is 1-A.
 Alpha  occ. eigenvalues --  -93.64658 -20.51011 -11.27406 -11.27308 -11.25812
 Alpha  occ. eigenvalues --  -11.25429  -8.93075  -6.27332  -6.27139  -6.26888
 Alpha  occ. eigenvalues --   -1.28717  -1.11980  -0.99805  -0.96076  -0.81529
 Alpha  occ. eigenvalues --   -0.79066  -0.67762  -0.66532  -0.62529  -0.58383
 Alpha  occ. eigenvalues --   -0.55947  -0.54809  -0.52534  -0.51550  -0.50709
 Alpha  occ. eigenvalues --   -0.49596  -0.41333  -0.36994
 Alpha virt. eigenvalues --    0.02856   0.04167   0.04211   0.05210   0.06287
 Alpha virt. eigenvalues --    0.06936   0.07195   0.07549   0.09118   0.12358
 Alpha virt. eigenvalues --    0.12855   0.13788   0.13947   0.14484   0.14730

 Mulliken charges:
               1
     1  C    0.243665
     2  C    0.200049
     3  C   -0.040721
     4  C    0.009411
     5  O   -1.086441
     6  S    1.247166
     7  H   -0.051813
     8  H   -0.122960
     9  H   -0.089655
    10  H   -0.153405
    11  H   -0.034304
    12  H   -0.047773
    13  H   -0.046792
    14  H   -0.026427
 Sum of Mulliken charges =  -0.00000

 Dipole moment (field-independent basis, Debye):
    X=              4.5925    Y=              0.1458    Z=             -2.2890  Tot=              5.1334

 Test job not archived.
 1\1\GINC-SE115\SP\RHF\Aug-CC-pVDZ\C4H8O1S1\OHZDE\05-Apr-2025\0\\#t hf
 aug-cc-pvdz iop(5/13=1,5/36=2,99/5=2) pseudo=read geom=check guess=(re
 ad,tcheck) scf=(maxcycle=1)\\title\\0,1\C,0,1.387883,-0.811682,0.47985
 2\C,0,1.678206,0.633319,0.061765\C,0,0.258572,-1.279223,-0.42805\C,0,0
 .330814,1.347067,-0.08912\O,0,-1.798582,-0.049523,0.835116\S,0,-1.0008
 13,0.079,-0.439396\H,0,2.269472,-1.447422,0.387147\H,0,1.059693,-0.849
 628,1.519688\H,0,2.312291,1.147645,0.784708\H,0,2.210285,0.636734,-0.8
 91921\H,0,0.589747,-1.4114,-1.460234\H,0,-0.266524,-2.172907,-0.098828

 Normal termination of Gaussian 16 at Sat Apr  5 23:15:58 2025.
