 Gaussian 16, Revision C.01,

 ----------------------------------------------------------------------
 #t hf aug-cc-pvdz symm=none int=(grid=ultrafine) guess=(read,tcheck) s
 table=(opt,rrhf)
 ----------------------------------------------------------------------
 -----
 title
 -----
 Symbolic Z-matrix:
 Charge =  0 Multiplicity = 1

 SCF Done:  E(RHF) =  -721.183348667     A.U. after   16 cycles
 Normal termination of Gaussian 16 at Sat Apr  5 23:15:18 2025.
 Gaussian 16:  ES64L-G16RevC.01  3-Jul-2019

 ----------------------------------------------------------------------
 #t hf aug-cc-pvdz iop(5/13=1,5/36=2,99/5=2) pseudo=read geom=check gue
 ss=(read,tcheck) scf=(maxcycle=1)
 ----------------------------------------------------------------------
 -----
 title
 -----
 Structure from the checkpoint file:  "thiobenzamide.chk"
 Charge =  0 Multiplicity = 1

                         Standard orientation:
 ---------------------------------------------------------------------
 Center     Atomic      Atomic             Coordinates (Angstroms)
 Number     Number       Type             X           Y           Z
 ---------------------------------------------------------------------
      1          7           0       -1.772399    1.554665    0.469600
      2          6           0       -1.366140    0.325170    0.092859
      3         16           0       -2.456819   -0.860510   -0.315837
      4          6           0        0.106704    0.129865    0.044612
      5          6           0        0.966492    1.187191   -0.276202
      6          6           0        2.340741    0.991999   -0.324842
      7          6           0        2.877285   -0.257721   -0.040450
      8          6           0        2.030458   -1.315064    0.278402
      9          6           0        0.657396   -1.126729    0.311776
     10          1           0       -2.760372    1.733207    0.530743
     11          1           0       -1.135771    2.217677    0.877192
     12          1           0        0.563130    2.157313   -0.533805
     13          1           0        2.990082    1.814218   -0.593305
     14          1           0        3.947644   -0.409333   -0.073904
     15          1           0        2.441819   -2.290833    0.498199
     16          1           0       -0.008244   -1.945015    0.544143
 ---------------------------------------------------------------------

 SCF Done:  E(RHF) =  -721.296076064     A.U. after    2 cycles

 The electronic state is 1-A.
 Alpha  occ. eigenvalues --  -93.48025 -15.67511 -11.36596 -11.27274 -11.26898
 Alpha  occ. eigenvalues --  -11.26448 -11.26055 -11.26045 -11.25734  -8.77957
 Alpha  occ. eigenvalues --   -6.12203  -6.11695  -6.11587  -1.24279  -1.16206
 Alpha  occ. eigenvalues --   -1.05130  -1.03037  -0.97503  -0.86978  -0.84569
 Alpha  occ. eigenvalues --   -0.78968  -0.75084  -0.70887  -0.67082  -0.64834
 Alpha  occ. eigenvalues --   -0.61822  -0.60997  -0.55091  -0.54160  -0.51829
 Alpha  occ. eigenvalues --   -0.50858  -0.49304  -0.36871  -0.35855  -0.32991
 Alpha  occ. eigenvalues --   -0.31743
 Alpha virt. eigenvalues --    0.02539   0.03348   0.04049   0.04784   0.05282
 Alpha virt. eigenvalues --    0.06240   0.06611   0.07388   0.09434   0.10190
 Alpha virt. eigenvalues --    0.11285   0.11542   0.12489   0.12794   0.13536

 Mulliken charges:
               1
     1  N   -0.239241
     2  C   -0.034921
     3  S   -0.125335
     4  C    1.299743
     5  C    0.130702
     6  C    0.516667
     7  C    0.299238
     8  C    0.639486
     9  C   -0.077778
    10  H    0.025596
    11  H   -0.016150
    12  H   -0.611598
    13  H   -0.435766
    14  H   -0.432646
    15  H   -0.421737
    16  H   -0.516261
 Sum of Mulliken charges =   0.00000

 Dipole moment (field-independent basis, Debye):
    X=              3.1397    Y=              3.4284    Z=              1.4699  Tot=              4.8757

 Test job not archived.
 1\1\GINC-SE085\SP\RHF\Aug-CC-pVDZ\C7H7N1S1\OHZDE\05-Apr-2025\0\\#t hf
 aug-cc-pvdz iop(5/13=1,5/36=2,99/5=2) pseudo=read geom=check guess=(re
 ad,tcheck) scf=(maxcycle=1)\\title\\0,1\N,0,-1.772399,1.554665,0.4696\
 C,0,-1.36614,0.32517,0.092859\S,0,-2.456819,-0.86051,-0.315837\C,0,0.1
 06704,0.129865,0.044612\C,0,0.966492,1.187191,-0.276202\C,0,2.340741,0
 .991999,-0.324842\C,0,2.877285,-0.257721,-0.04045\C,0,2.030458,-1.3150
 64,0.278402\C,0,0.657396,-1.126729,0.311776\H,0,-2.760372,1.733207,0.5
 30743\H,0,-1.135771,2.217677,0.877192\H,0,0.56313,2.157313,-0.533805\H

 Normal termination of Gaussian 16 at Sat Apr  5 23:16:11 2025.
