 Gaussian 16, Revision C.01,

 ----------------------------------------------------------------------
 #t hf aug-cc-pvdz symm=none int=(grid=ultrafine) guess=(read,tcheck) s
 table=(opt,rrhf)
 ----------------------------------------------------------------------
 -----
 title
 -----
 Symbolic Z-matrix:
 Charge =  0 Multiplicity = 1

 SCF Done:  E(RHF) =  -546.672110546     A.U. after   12 cycles
 Normal termination of Gaussian 16 at Sat Apr  5 23:14:22 2025.
 Gaussian 16:  ES64L-G16RevC.01  3-Jul-2019

 ----------------------------------------------------------------------
 #t hf aug-cc-pvdz iop(5/13=1,5/36=2,99/5=2) pseudo=read geom=check gue
 ss=(read,tcheck) scf=(maxcycle=1)
 ----------------------------------------------------------------------
 -----
 title
 -----
 Structure from the checkpoint file:  "thiourea.chk"
 Charge =  0 Multiplicity = 1

                         Standard orientation:
 ---------------------------------------------------------------------
 Center     Atomic      Atomic             Coordinates (Angstroms)
 Number     Number       Type             X           Y           Z
 ---------------------------------------------------------------------
      1          6           0       -0.000000    0.000000   -0.316883
      2         16           0        0.000000   -0.000000    1.353097
      3          7           0       -0.000000    1.146987   -1.046835
      4          7           0       -0.000000   -1.146987   -1.046835
      5          1           0        0.128543    2.000926   -0.533905
      6          1           0        0.285536    1.143343   -2.012373
      7          1           0       -0.128543   -2.000926   -0.533905
      8          1           0       -0.285536   -1.143343   -2.012373
 ---------------------------------------------------------------------

 SCF Done:  E(RHF) =  -546.736903322     A.U. after    2 cycles

 The electronic state is 1-A.
 Alpha  occ. eigenvalues --  -93.47115 -15.67102 -15.67098 -11.39550  -8.77078
 Alpha  occ. eigenvalues --   -6.11325  -6.10757  -6.10691  -1.27810  -1.16477
 Alpha  occ. eigenvalues --   -0.96857  -0.82513  -0.74803  -0.72683  -0.65809
 Alpha  occ. eigenvalues --   -0.57993  -0.50995  -0.43704  -0.32536  -0.32117
 Alpha virt. eigenvalues --    0.02069   0.03522   0.05493   0.07001   0.10167
 Alpha virt. eigenvalues --    0.10557   0.12886   0.13195   0.15369   0.15695
 Alpha virt. eigenvalues --    0.16624   0.17079   0.17765   0.18018   0.19084

 Mulliken charges:
               1
     1  C    0.510087
     2  S   -0.055669
     3  N   -0.209562
     4  N   -0.209562
     5  H    0.045456
     6  H   -0.063103
     7  H    0.045456
     8  H   -0.063103
 Sum of Mulliken charges =  -0.00000

 Dipole moment (field-independent basis, Debye):
    X=             -0.0000    Y=             -0.0000    Z=             -5.5277  Tot=              5.5277

 Test job not archived.
 1\1\GINC-SE194\SP\RHF\Aug-CC-pVDZ\C1H4N2S1\OHZDE\05-Apr-2025\0\\#t hf
 aug-cc-pvdz iop(5/13=1,5/36=2,99/5=2) pseudo=read geom=check guess=(re
 ad,tcheck) scf=(maxcycle=1)\\title\\0,1\C,0,0.,0.,-0.316883\S,0,0.,0.,
 1.353097\N,0,0.,1.146987,-1.046835\N,0,0.,-1.146987,-1.046835\H,0,0.12
 8543,2.000926,-0.533905\H,0,0.285536,1.143343,-2.012373\H,0,-0.128543,
 -2.000926,-0.533905\H,0,-0.285536,-1.143343,-2.012373\\Version=ES64L-G
 16RevC.01\State=1-A\HF=-546.7369033\RMSD=3.966e-03\Dipole=0.,0.,-2.174
 752\Quadrupole=-3.7600446,3.0739965,0.6860482,1.5844734,0.,0.\PG=C02 [

 Normal termination of Gaussian 16 at Sat Apr  5 23:15:54 2025.
