 Gaussian 16, Revision C.01,

 ----------------------------------------------------------------------
 #t hf aug-cc-pvdz symm=none int=(grid=ultrafine) guess=(read,tcheck) s
 table=(opt,rrhf)
 ----------------------------------------------------------------------
 -----
 title
 -----
 Symbolic Z-matrix:
 Charge =  0 Multiplicity = 1

 SCF Done:  E(RHF) =  -703.348216690     A.U. after   12 cycles
 Normal termination of Gaussian 16 at Sat Apr  5 23:14:50 2025.
 Gaussian 16:  ES64L-G16RevC.01  3-Jul-2019

 ----------------------------------------------------------------------
 #t hf aug-cc-pvdz iop(5/13=1,5/36=2,99/5=2) pseudo=read geom=check gue
 ss=(read,tcheck) scf=(maxcycle=1)
 ----------------------------------------------------------------------
 -----
 title
 -----
 Structure from the checkpoint file:  "thiolane-1-1-dioxide.chk"
 Charge =  0 Multiplicity = 1

                         Standard orientation:
 ---------------------------------------------------------------------
 Center     Atomic      Atomic             Coordinates (Angstroms)
 Number     Number       Type             X           Y           Z
 ---------------------------------------------------------------------
      1          6           0        0.000000    0.770224   -1.780388
      2          6           0       -0.000000   -0.770224   -1.780388
      3          6           0       -0.597986    1.220604   -0.448931
      4          6           0        0.597986   -1.220604   -0.448931
      5          8           0       -1.137264   -0.551302    1.517439
      6          8           0        1.137264    0.551302    1.517439
      7         16           0       -0.000000   -0.000000    0.784354
      8          1           0        1.022518    1.140282   -1.873334
      9          1           0       -0.569407    1.169658   -2.618789
     10          1           0       -1.022518   -1.140282   -1.873334
     11          1           0        0.569407   -1.169658   -2.618789
     12          1           0       -0.277102    2.202041   -0.111847
     13          1           0       -1.683808    1.153218   -0.434458
     14          1           0        0.277102   -2.202041   -0.111847
     15          1           0        1.683808   -1.153218   -0.434458
 ---------------------------------------------------------------------

 SCF Done:  E(RHF) =  -703.512516319     A.U. after    2 cycles

 The electronic state is 1-A.
 Alpha  occ. eigenvalues --  -93.76985 -20.55162 -20.55160 -11.28758 -11.28746
 Alpha  occ. eigenvalues --  -11.27436 -11.27385  -9.03802  -6.38411  -6.38219
 Alpha  occ. eigenvalues --   -6.38108  -1.40330  -1.29072  -1.14024  -1.02356
 Alpha  occ. eigenvalues --   -0.96694  -0.83925  -0.80146  -0.70467  -0.69735
 Alpha  occ. eigenvalues --   -0.64929  -0.64285  -0.62849  -0.62460  -0.56671
 Alpha  occ. eigenvalues --   -0.54636  -0.53270  -0.52856  -0.49832  -0.48978
 Alpha  occ. eigenvalues --   -0.48203  -0.42986
 Alpha virt. eigenvalues --    0.02508   0.03853   0.04200   0.04815   0.06396
 Alpha virt. eigenvalues --    0.06511   0.06704   0.07637   0.10008   0.12506
 Alpha virt. eigenvalues --    0.13032   0.13326   0.13607   0.14232   0.14376

 Mulliken charges:
               1
     1  C    0.211477
     2  C    0.211477
     3  C   -0.035107
     4  C   -0.035107
     5  O   -1.120131
     6  O   -1.120131
     7  S    2.466792
     8  H   -0.132868
     9  H   -0.069250
    10  H   -0.132868
    11  H   -0.069250
    12  H   -0.028692
    13  H   -0.058825
    14  H   -0.028692
    15  H   -0.058825
 Sum of Mulliken charges =  -0.00000

 Dipole moment (field-independent basis, Debye):
    X=              0.0000    Y=             -0.0000    Z=             -6.2770  Tot=              6.2770

 Test job not archived.
 1\1\GINC-SE106\SP\RHF\Aug-CC-pVDZ\C4H8O2S1\OHZDE\05-Apr-2025\0\\#t hf
 aug-cc-pvdz iop(5/13=1,5/36=2,99/5=2) pseudo=read geom=check guess=(re
 ad,tcheck) scf=(maxcycle=1)\\title\\0,1\C,0,0.,0.770224,-1.780388\C,0,
 0.,-0.770224,-1.780388\C,0,-0.597986,1.220604,-0.448931\C,0,0.597986,-
 1.220604,-0.448931\O,0,-1.137264,-0.551302,1.517439\O,0,1.137264,0.551
 302,1.517439\S,0,0.,0.,0.784354\H,0,1.022518,1.140282,-1.873334\H,0,-0
 .569407,1.169658,-2.618789\H,0,-1.022518,-1.140282,-1.873334\H,0,0.569
 407,-1.169658,-2.618789\H,0,-0.277102,2.202041,-0.111847\H,0,-1.683808

 Normal termination of Gaussian 16 at Sat Apr  5 23:15:57 2025.
