 Gaussian 16, Revision C.01,

 ----------------------------------------------------------------------
 #t hf aug-cc-pvdz symm=none int=(grid=ultrafine) guess=(read,tcheck) s
 table=(opt,rrhf)
 ----------------------------------------------------------------------
 -----
 title
 -----
 Symbolic Z-matrix:
 Charge =  0 Multiplicity = 1

 SCF Done:  E(RHF) =  -435.835308164     A.U. after   14 cycles
 Normal termination of Gaussian 16 at Sat Apr  5 23:15:14 2025.
 Gaussian 16:  ES64L-G16RevC.01  3-Jul-2019

 ----------------------------------------------------------------------
 #t hf aug-cc-pvdz iop(5/13=1,5/36=2,99/5=2) pseudo=read geom=check gue
 ss=(read,tcheck) scf=(maxcycle=1)
 ----------------------------------------------------------------------
 -----
 title
 -----
 Structure from the checkpoint file:  "threonine.chk"
 Charge =  0 Multiplicity = 1

                         Standard orientation:
 ---------------------------------------------------------------------
 Center     Atomic      Atomic             Coordinates (Angstroms)
 Number     Number       Type             X           Y           Z
 ---------------------------------------------------------------------
      1          7           0       -0.051147    1.703848    0.244380
      2          6           0       -0.043314    0.431492   -0.483504
      3          6           0       -1.376086   -0.303235   -0.228367
      4          8           0       -1.530938   -1.479219   -0.435919
      5          8           0       -2.351637    0.487074    0.227525
      6          1           0       -1.928124    1.363089    0.369080
      7          6           0        1.141533   -0.499575   -0.166921
      8          8           0        1.167043   -0.778126    1.238261
      9          6           0        2.485110    0.099679   -0.539476
     10          1           0       -0.035888    0.649255   -1.555103
     11          1           0        0.984216   -1.425674   -0.722324
     12          1           0        0.509733   -1.457032    1.425652
     13          1           0        3.279834   -0.613026   -0.325853
     14          1           0        2.518013    0.345316   -1.601845
     15          1           0        2.686599    1.005623    0.033605
     16          1           0        0.347974    1.576034    1.168534
     17          1           0        0.476463    2.421484   -0.231731
 ---------------------------------------------------------------------

 SCF Done:  E(RHF) =  -435.971164946     A.U. after    2 cycles

 The electronic state is 1-A.
 Alpha  occ. eigenvalues --  -20.61491 -20.58636 -20.55952 -15.64711 -11.39596
 Alpha  occ. eigenvalues --  -11.30988 -11.30399 -11.24205  -1.41961  -1.33894
 Alpha  occ. eigenvalues --   -1.32843  -1.19156  -1.04162  -0.96618  -0.84799
 Alpha  occ. eigenvalues --   -0.81675  -0.75227  -0.73112  -0.70835  -0.68416
 Alpha  occ. eigenvalues --   -0.64331  -0.63219  -0.61405  -0.60382  -0.56659
 Alpha  occ. eigenvalues --   -0.55648  -0.54742  -0.50787  -0.49661  -0.49045
 Alpha  occ. eigenvalues --   -0.47273  -0.42214
 Alpha virt. eigenvalues --    0.02521   0.03866   0.04166   0.04706   0.06538
 Alpha virt. eigenvalues --    0.06788   0.06878   0.07450   0.08335   0.11003
 Alpha virt. eigenvalues --    0.12561   0.12718   0.13475   0.14385   0.14945

 Mulliken charges:
               1
     1  N   -0.579364
     2  C    0.067986
     3  C    0.705233
     4  O   -0.488536
     5  O   -0.482758
     6  H    0.266255
     7  C    0.413910
     8  O   -0.643314
     9  C    0.635428
    10  H   -0.002351
    11  H   -0.212905
    12  H    0.175515
    13  H   -0.009730
    14  H    0.011486
    15  H   -0.044431
    16  H    0.123015
    17  H    0.064560
 Sum of Mulliken charges =  -0.00000

 Dipole moment (field-independent basis, Debye):
    X=              3.2689    Y=              3.3887    Z=             -0.9532  Tot=              4.8039

 Test job not archived.
 1\1\GINC-SE196\SP\RHF\Aug-CC-pVDZ\C4H9N1O3\OHZDE\05-Apr-2025\0\\#t hf
 aug-cc-pvdz iop(5/13=1,5/36=2,99/5=2) pseudo=read geom=check guess=(re
 ad,tcheck) scf=(maxcycle=1)\\title\\0,1\N,0,-0.051147,1.703848,0.24438
 \C,0,-0.043314,0.431492,-0.483504\C,0,-1.376086,-0.303235,-0.228367\O,
 0,-1.530938,-1.479219,-0.435919\O,0,-2.351637,0.487074,0.227525\H,0,-1
 .928124,1.363089,0.36908\C,0,1.141533,-0.499575,-0.166921\O,0,1.167043
 ,-0.778126,1.238261\C,0,2.48511,0.099679,-0.539476\H,0,-0.035888,0.649
 255,-1.555103\H,0,0.984216,-1.425674,-0.722324\H,0,0.509733,-1.457032,

 Normal termination of Gaussian 16 at Sat Apr  5 23:15:58 2025.
