 Gaussian 16, Revision C.01,

 ----------------------------------------------------------------------
 #t hf aug-cc-pvdz symm=none int=(grid=ultrafine) guess=(read,tcheck) s
 table=(opt,rrhf)
 ----------------------------------------------------------------------
 -----
 title
 -----
 Symbolic Z-matrix:
 Charge =  0 Multiplicity = 1

 SCF Done:  E(RHF) =  -451.573625131     A.U. after   15 cycles
 Normal termination of Gaussian 16 at Sat Apr  5 23:15:11 2025.
 Gaussian 16:  ES64L-G16RevC.01  3-Jul-2019

 ----------------------------------------------------------------------
 #t hf aug-cc-pvdz iop(5/13=1,5/36=2,99/5=2) pseudo=read geom=check gue
 ss=(read,tcheck) scf=(maxcycle=1)
 ----------------------------------------------------------------------
 -----
 title
 -----
 Structure from the checkpoint file:  "thymine.chk"
 Charge =  0 Multiplicity = 1

                         Standard orientation:
 ---------------------------------------------------------------------
 Center     Atomic      Atomic             Coordinates (Angstroms)
 Number     Number       Type             X           Y           Z
 ---------------------------------------------------------------------
      1          7           0       -0.726579    1.028726   -0.000001
      2          6           0        0.669751    0.895487    0.000064
      3          8           0        1.378069    1.884236    0.000131
      4          6           0        1.153712   -0.486497    0.000042
      5          6           0        2.632341   -0.716781    0.000106
      6          6           0        0.240400   -1.474972   -0.000038
      7          7           0       -1.115294   -1.239106   -0.000094
      8          6           0       -1.675291    0.026086   -0.000082
      9          8           0       -2.872270    0.222918   -0.000137
     10          1           0       -1.085233    1.972913    0.000012
     11          1           0        3.096734   -0.258658    0.874392
     12          1           0        2.863608   -1.781203    0.000091
     13          1           0        3.096819   -0.258616   -0.874114
     14          1           0        0.522304   -2.518618   -0.000059
     15          1           0       -1.773003   -2.000335   -0.000157
 ---------------------------------------------------------------------

 SCF Done:  E(RHF) =  -451.712305269     A.U. after    2 cycles

 The electronic state is 1-A.
 Alpha  occ. eigenvalues --  -20.55860 -20.55838 -15.70096 -15.68904 -11.42881
 Alpha  occ. eigenvalues --  -11.39117 -11.33837 -11.26908 -11.24868  -1.39708
 Alpha  occ. eigenvalues --   -1.36732  -1.27568  -1.20755  -1.09894  -0.96729
 Alpha  occ. eigenvalues --   -0.91510  -0.89212  -0.77406  -0.77185  -0.71061
 Alpha  occ. eigenvalues --   -0.68510  -0.67067  -0.65509  -0.62731  -0.59802
 Alpha  occ. eigenvalues --   -0.57566  -0.56729  -0.55767  -0.51679  -0.49417
 Alpha  occ. eigenvalues --   -0.46379  -0.44148  -0.35699
 Alpha virt. eigenvalues --    0.01980   0.03639   0.04668   0.05199   0.06069
 Alpha virt. eigenvalues --    0.07059   0.07926   0.08579   0.09204   0.10978
 Alpha virt. eigenvalues --    0.11871   0.12565   0.12663   0.13669   0.14507

 Mulliken charges:
               1
     1  N   -0.490586
     2  C    0.221314
     3  O   -0.548855
     4  C   -0.109923
     5  C    0.430940
     6  C    1.233970
     7  N   -0.545459
     8  C    0.687310
     9  O   -0.453135
    10  H   -0.020951
    11  H    0.079532
    12  H   -0.128941
    13  H    0.079537
    14  H   -0.401569
    15  H   -0.033184
 Sum of Mulliken charges =  -0.00000

 Dipole moment (field-independent basis, Debye):
    X=              1.2225    Y=             -4.9261    Z=             -0.0001  Tot=              5.0755

 Test job not archived.
 1\1\GINC-SE231\SP\RHF\Aug-CC-pVDZ\C5H6N2O2\OHZDE\05-Apr-2025\0\\#t hf
 aug-cc-pvdz iop(5/13=1,5/36=2,99/5=2) pseudo=read geom=check guess=(re
 ad,tcheck) scf=(maxcycle=1)\\title\\0,1\N,0,-0.726579,1.028726,-0.0000
 01\C,0,0.669751,0.895487,0.000064\O,0,1.378069,1.884236,0.000131\C,0,1
 .153712,-0.486497,0.000042\C,0,2.632341,-0.716781,0.000106\C,0,0.2404,
 -1.474972,-0.000038\N,0,-1.115294,-1.239106,-0.000094\C,0,-1.675291,0.
 026086,-0.000082\O,0,-2.87227,0.222918,-0.000137\H,0,-1.085233,1.97291
 3,0.000012\H,0,3.096734,-0.258658,0.874392\H,0,2.863608,-1.781203,0.00

 Normal termination of Gaussian 16 at Sat Apr  5 23:16:00 2025.
