 Gaussian 16, Revision C.01,

 ----------------------------------------------------------------------
 #t hf aug-cc-pvdz symm=none int=(grid=ultrafine) guess=(read,tcheck) s
 table=(opt,rrhf)
 ----------------------------------------------------------------------
 -----
 title
 -----
 Symbolic Z-matrix:
 Charge =  0 Multiplicity = 1

 SCF Done:  E(RHF) =  -269.768836385     A.U. after   14 cycles
 Normal termination of Gaussian 16 at Sat Apr  5 23:14:56 2025.
 Gaussian 16:  ES64L-G16RevC.01  3-Jul-2019

 ----------------------------------------------------------------------
 #t hf aug-cc-pvdz iop(5/13=1,5/36=2,99/5=2) pseudo=read geom=check gue
 ss=(read,tcheck) scf=(maxcycle=1)
 ----------------------------------------------------------------------
 -----
 title
 -----
 Structure from the checkpoint file:  "toluene.chk"
 Charge =  0 Multiplicity = 1

                         Standard orientation:
 ---------------------------------------------------------------------
 Center     Atomic      Atomic             Coordinates (Angstroms)
 Number     Number       Type             X           Y           Z
 ---------------------------------------------------------------------
      1          6           0       -1.897971   -0.000097    0.008691
      2          6           0       -1.196697    1.200136    0.001975
      3          6           0       -1.196435   -1.200271    0.001973
      4          6           0        0.193419    1.197285   -0.008982
      5          6           0        0.193595   -1.197195   -0.008976
      6          6           0        0.910843    0.000147   -0.011486
      7          6           0        2.417290    0.000075    0.009328
      8          1           0       -2.979553   -0.000212    0.014466
      9          1           0       -1.731919    2.140543    0.001706
     10          1           0       -1.731521   -2.140756    0.001687
     11          1           0        0.729597    2.138337   -0.018405
     12          1           0        0.729920   -2.138174   -0.018405
     13          1           0        2.822376   -0.877771   -0.494005
     14          1           0        2.822189    0.887290   -0.477332
     15          1           0        2.794646   -0.009730    1.035147
 ---------------------------------------------------------------------

 SCF Done:  E(RHF) =  -269.850588456     A.U. after    2 cycles

 The electronic state is 1-A.
 Alpha  occ. eigenvalues --  -11.24896 -11.24170 -11.24154 -11.23746 -11.23677
 Alpha  occ. eigenvalues --  -11.23671 -11.23357  -1.14410  -1.03850  -1.00690
 Alpha  occ. eigenvalues --   -0.93124  -0.82712  -0.80054  -0.69818  -0.63955
 Alpha  occ. eigenvalues --   -0.63377  -0.58802  -0.57879  -0.57193  -0.54289
 Alpha  occ. eigenvalues --   -0.49211  -0.49131  -0.48904  -0.33802  -0.32749
 Alpha virt. eigenvalues --    0.03516   0.04022   0.04201   0.05598   0.05848
 Alpha virt. eigenvalues --    0.05870   0.07609   0.08699   0.10673   0.10705
 Alpha virt. eigenvalues --    0.11431   0.13072   0.13524   0.14316   0.14506

 Mulliken charges:
               1
     1  C    0.479922
     2  C    0.250729
     3  C    0.250630
     4  C    0.616216
     5  C    0.612704
     6  C   -0.078296
     7  C    0.380195
     8  H   -0.433869
     9  H   -0.449429
    10  H   -0.449655
    11  H   -0.542793
    12  H   -0.543325
    13  H   -0.085534
    14  H   -0.091349
    15  H    0.083854
 Sum of Mulliken charges =   0.00000

 Dipole moment (field-independent basis, Debye):
    X=              0.4053    Y=             -0.0009    Z=              0.0297  Tot=              0.4064

 Test job not archived.
 1\1\GINC-SE040\SP\RHF\Aug-CC-pVDZ\C7H8\OHZDE\05-Apr-2025\0\\#t hf aug-
 cc-pvdz iop(5/13=1,5/36=2,99/5=2) pseudo=read geom=check guess=(read,t
 check) scf=(maxcycle=1)\\title\\0,1\C,0,-1.897971,-0.000097,0.008691\C
 ,0,-1.196697,1.200136,0.001975\C,0,-1.196435,-1.200271,0.001973\C,0,0.
 193419,1.197285,-0.008982\C,0,0.193595,-1.197195,-0.008976\C,0,0.91084
 3,0.000147,-0.011486\C,0,2.41729,0.000075,0.009328\H,0,-2.979553,-0.00
 0212,0.014466\H,0,-1.731919,2.140543,0.001706\H,0,-1.731521,-2.140756,
 0.001687\H,0,0.729597,2.138337,-0.018405\H,0,0.72992,-2.138174,-0.0184

 Normal termination of Gaussian 16 at Sat Apr  5 23:15:59 2025.
