 Gaussian 16, Revision C.01,

 ----------------------------------------------------------------------
 #t hf aug-cc-pvdz symm=none int=(grid=ultrafine) guess=(read,tcheck) s
 table=(opt,rrhf)
 ----------------------------------------------------------------------
 -----
 title
 -----
 Symbolic Z-matrix:
 Charge =  0 Multiplicity = 1

 SCF Done:  E(RHF) =  -234.196325459     A.U. after   11 cycles
 Normal termination of Gaussian 16 at Sat Apr  5 23:14:58 2025.
 Gaussian 16:  ES64L-G16RevC.01  3-Jul-2019

 ----------------------------------------------------------------------
 #t hf aug-cc-pvdz iop(5/13=1,5/36=2,99/5=2) pseudo=read geom=check gue
 ss=(read,tcheck) scf=(maxcycle=1)
 ----------------------------------------------------------------------
 -----
 title
 -----
 Structure from the checkpoint file:  "trans-1-2-dimethylcyclobutane.chk"
 Charge =  0 Multiplicity = 1

                         Standard orientation:
 ---------------------------------------------------------------------
 Center     Atomic      Atomic             Coordinates (Angstroms)
 Number     Number       Type             X           Y           Z
 ---------------------------------------------------------------------
      1          6           0       -0.126624    0.767713   -0.173969
      2          6           0        0.126624   -0.767713   -0.173969
      3          6           0        0.126624    0.763654    1.356240
      4          6           0       -0.126624   -0.763654    1.356240
      5          6           0        0.714435    1.661716   -1.066390
      6          6           0       -0.714435   -1.661716   -1.066390
      7          1           0       -1.188759    0.949185   -0.364152
      8          1           0        1.188759   -0.949185   -0.364152
      9          1           0        1.167412    0.999661    1.584849
     10          1           0       -0.514312    1.387012    1.978811
     11          1           0       -1.167412   -0.999661    1.584849
     12          1           0        0.514312   -1.387012    1.978811
     13          1           0        1.780030    1.498868   -0.888391
     14          1           0        0.519941    1.467661   -2.123812
     15          1           0        0.505264    2.718063   -0.882589
     16          1           0       -1.780030   -1.498868   -0.888391
     17          1           0       -0.519941   -1.467661   -2.123812
     18          1           0       -0.505264   -2.718063   -0.882589
 ---------------------------------------------------------------------

 SCF Done:  E(RHF) =  -234.270038514     A.U. after    2 cycles

 The electronic state is 1-A.
 Alpha  occ. eigenvalues --  -11.22687 -11.22643 -11.22089 -11.22045 -11.21823
 Alpha  occ. eigenvalues --  -11.21823  -1.12368  -0.98265  -0.96493  -0.84479
 Alpha  occ. eigenvalues --   -0.83048  -0.74019  -0.62559  -0.62552  -0.58569
 Alpha  occ. eigenvalues --   -0.56519  -0.56379  -0.54660  -0.50892  -0.49856
 Alpha  occ. eigenvalues --   -0.45442  -0.44800  -0.42131  -0.41751
 Alpha virt. eigenvalues --    0.03681   0.04348   0.04635   0.04694   0.06599
 Alpha virt. eigenvalues --    0.06623   0.06773   0.06872   0.06912   0.09147
 Alpha virt. eigenvalues --    0.09397   0.09522   0.12713   0.13200   0.13917

 Mulliken charges:
               1
     1  C   -0.492216
     2  C   -0.492216
     3  C    0.680853
     4  C    0.680853
     5  C    0.525203
     6  C    0.525203
     7  H   -0.258069
     8  H   -0.258069
     9  H   -0.228713
    10  H   -0.163185
    11  H   -0.228713
    12  H   -0.163185
    13  H   -0.025936
    14  H   -0.015585
    15  H   -0.022352
    16  H   -0.025936
    17  H   -0.015585
    18  H   -0.022352
 Sum of Mulliken charges =  -0.00000

 Dipole moment (field-independent basis, Debye):
    X=             -0.0000    Y=             -0.0000    Z=             -0.0721  Tot=              0.0721

 Test job not archived.
 1\1\GINC-SE042\SP\RHF\Aug-CC-pVDZ\C6H12\OHZDE\05-Apr-2025\0\\#t hf aug
 -cc-pvdz iop(5/13=1,5/36=2,99/5=2) pseudo=read geom=check guess=(read,
 tcheck) scf=(maxcycle=1)\\title\\0,1\C,0,-0.126624,0.767713,-0.173969\
 C,0,0.126624,-0.767713,-0.173969\C,0,0.126624,0.763654,1.35624\C,0,-0.
 126624,-0.763654,1.35624\C,0,0.714435,1.661716,-1.06639\C,0,-0.714435,
 -1.661716,-1.06639\H,0,-1.188759,0.949185,-0.364152\H,0,1.188759,-0.94
 9185,-0.364152\H,0,1.167412,0.999661,1.584849\H,0,-0.514312,1.387012,1
 .978811\H,0,-1.167412,-0.999661,1.584849\H,0,0.514312,-1.387012,1.9788

 Normal termination of Gaussian 16 at Sat Apr  5 23:15:57 2025.
