 Gaussian 16, Revision C.01,

 ----------------------------------------------------------------------
 #t hf aug-cc-pvdz symm=none int=(grid=ultrafine) guess=(read,tcheck) s
 table=(opt,rrhf)
 ----------------------------------------------------------------------
 -----
 title
 -----
 Symbolic Z-matrix:
 Charge =  0 Multiplicity = 1

 SCF Done:  E(RHF) =  -389.229299258     A.U. after   11 cycles
 Normal termination of Gaussian 16 at Sat Apr  5 23:18:55 2025.
 Gaussian 16:  ES64L-G16RevC.01  3-Jul-2019

 ----------------------------------------------------------------------
 #t hf aug-cc-pvdz iop(5/13=1,5/36=2,99/5=2) pseudo=read geom=check gue
 ss=(read,tcheck) scf=(maxcycle=1)
 ----------------------------------------------------------------------
 -----
 title
 -----
 Structure from the checkpoint file:  "trans-decalin.chk"
 Charge =  0 Multiplicity = 1

                         Standard orientation:
 ---------------------------------------------------------------------
 Center     Atomic      Atomic             Coordinates (Angstroms)
 Number     Number       Type             X           Y           Z
 ---------------------------------------------------------------------
      1          6           0       -0.225728    0.731655    2.543314
      2          6           0        0.225728   -0.731655    2.543314
      3          6           0        0.225728    1.456661    1.272775
      4          6           0       -0.225728   -1.456661    1.272775
      5          6           0       -0.231499    0.735086    0.000000
      6          6           0        0.231499   -0.735086    0.000000
      7          6           0        0.225728    1.456661   -1.272775
      8          6           0       -0.225728    0.731655   -2.543314
      9          6           0        0.225728   -0.731655   -2.543314
     10          6           0       -0.225728   -1.456661   -1.272775
     11          1           0        0.156998    1.245982   -3.427820
     12          1           0       -0.156998   -1.245982    3.427820
     13          1           0        0.150668   -2.483241   -1.270085
     14          1           0       -0.156998   -1.245982   -3.427820
     15          1           0        1.318123   -0.770907   -2.610688
     16          1           0       -0.150668    2.483241    1.270085
     17          1           0        0.156998    1.245982    3.427820
     18          1           0       -0.150668    2.483241   -1.270085
     19          1           0        0.150668   -2.483241    1.270085
     20          1           0       -1.318123    0.770907    2.610688
     21          1           0        1.319276    1.529769   -1.266570
     22          1           0        1.319276    1.529769    1.266570
     23          1           0        1.318123   -0.770907    2.610688
     24          1           0       -1.318123    0.770907   -2.610688
     25          1           0       -1.319276   -1.529769    1.266570
     26          1           0       -1.319276   -1.529769   -1.266570
     27          1           0       -1.330699    0.726592    0.000000
     28          1           0        1.330699   -0.726592    0.000000
 ---------------------------------------------------------------------

 SCF Done:  E(RHF) =  -389.344814360     A.U. after    2 cycles

 The electronic state is 1-AG.
 Alpha  occ. eigenvalues --  -11.22206 -11.22157 -11.22027 -11.22027 -11.21977
 Alpha  occ. eigenvalues --  -11.21976 -11.21836 -11.21833 -11.21825 -11.21817
 Alpha  occ. eigenvalues --   -1.12372  -1.06346  -1.01923  -0.98532  -0.95564
 Alpha  occ. eigenvalues --   -0.85151  -0.82170  -0.80594  -0.75642  -0.75146
 Alpha  occ. eigenvalues --   -0.63758  -0.62858  -0.61698  -0.59594  -0.59366
 Alpha  occ. eigenvalues --   -0.58262  -0.56783  -0.52342  -0.51581  -0.49856
 Alpha  occ. eigenvalues --   -0.49625  -0.49062  -0.47717  -0.46627  -0.46021
 Alpha  occ. eigenvalues --   -0.45159  -0.44348  -0.40838  -0.40389
 Alpha virt. eigenvalues --    0.03591   0.03857   0.04051   0.04202   0.05432
 Alpha virt. eigenvalues --    0.05790   0.06156   0.06297   0.06601   0.07776
 Alpha virt. eigenvalues --    0.08024   0.08303   0.08520   0.08864   0.08988

 Mulliken charges:
               1
     1  C    0.453124
     2  C    0.453124
     3  C    0.653567
     4  C    0.653567
     5  C   -1.024379
     6  C   -1.024379
     7  C    0.653567
     8  C    0.453124
     9  C    0.453124
    10  C    0.653567
    11  H   -0.112116
    12  H   -0.112116
    13  H   -0.168327
    14  H   -0.112116
    15  H   -0.098647
    16  H   -0.168327
    17  H   -0.112116
    18  H   -0.168327
    19  H   -0.168327
    20  H   -0.098647
    21  H   -0.086572
    22  H   -0.086572
    23  H   -0.098647
    24  H   -0.098647
    25  H   -0.086572
    26  H   -0.086572
    27  H   -0.257677
    28  H   -0.257677
 Sum of Mulliken charges =  -0.00000

 Dipole moment (field-independent basis, Debye):
    X=             -0.0000    Y=             -0.0000    Z=              0.0000  Tot=              0.0000

 Test job not archived.
 1\1\GINC-SE146\SP\RHF\Aug-CC-pVDZ\C10H18\OHZDE\05-Apr-2025\0\\#t hf au
 g-cc-pvdz iop(5/13=1,5/36=2,99/5=2) pseudo=read geom=check guess=(read
 ,tcheck) scf=(maxcycle=1)\\title\\0,1\C,0,-0.225728,0.731655,2.543314\
 C,0,0.225728,-0.731655,2.543314\C,0,0.225728,1.456661,1.272775\C,0,-0.
 225728,-1.456661,1.272775\C,0,-0.231499,0.735086,0.\C,0,0.231499,-0.73
 5086,0.\C,0,0.225728,1.456661,-1.272775\C,0,-0.225728,0.731655,-2.5433
 14\C,0,0.225728,-0.731655,-2.543314\C,0,-0.225728,-1.456661,-1.272775\
 H,0,0.156998,1.245982,-3.42782\H,0,-0.156998,-1.245982,3.42782\H,0,0.1

 Normal termination of Gaussian 16 at Sat Apr  5 23:19:12 2025.
