 Gaussian 16, Revision C.01,

 ----------------------------------------------------------------------
 #t hf aug-cc-pvdz symm=none int=(grid=ultrafine) guess=(read,tcheck) s
 table=(opt,rrhf)
 ----------------------------------------------------------------------
 -----
 title
 -----
 Symbolic Z-matrix:
 Charge =  0 Multiplicity = 1

 SCF Done:  E(RHF) =  -350.164330512     A.U. after   12 cycles
 Normal termination of Gaussian 16 at Sat Apr  5 23:16:52 2025.
 Gaussian 16:  ES64L-G16RevC.01  3-Jul-2019

 ----------------------------------------------------------------------
 #t hf aug-cc-pvdz iop(5/13=1,5/36=2,99/5=2) pseudo=read geom=check gue
 ss=(read,tcheck) scf=(maxcycle=1)
 ----------------------------------------------------------------------
 -----
 title
 -----
 Structure from the checkpoint file:  "trans-2-3-dimethylnorborane.chk"
 Charge =  0 Multiplicity = 1

                         Standard orientation:
 ---------------------------------------------------------------------
 Center     Atomic      Atomic             Coordinates (Angstroms)
 Number     Number       Type             X           Y           Z
 ---------------------------------------------------------------------
      1          6           0        0.707742   -0.940168    1.191925
      2          6           0        0.805573    0.571081    0.911672
      3          6           0        0.286298   -1.294617   -0.248550
      4          6           0        1.813009    0.594515   -0.256246
      5          6           0       -0.630377    0.862567    0.409362
      6          6           0       -0.961973   -0.400731   -0.457716
      7          6           0        1.455724   -0.696655   -1.057146
      8          1           0       -0.041153   -1.191218    1.943754
      9          1           0        1.658013   -1.391146    1.482484
     10          1           0        1.098896    1.197400    1.754117
     11          1           0        0.105962   -2.349691   -0.452928
     12          1           0        2.832978    0.547501    0.127018
     13          6           0       -2.278499   -1.071176   -0.071401
     14          1           0        2.300532   -1.386094   -1.086752
     15          1           0       -1.280255    0.846643    1.290316
     16          1           0        1.172461   -0.486382   -2.089154
     17          6           0       -0.854203    2.196159   -0.296344
     18          1           0        1.744295    1.498504   -0.859168
     19          1           0       -1.027284   -0.113838   -1.511063
     20          1           0       -3.112889   -0.370708   -0.150666
     21          1           0       -2.254833   -1.436327    0.957417
     22          1           0       -2.497120   -1.920640   -0.721600
     23          1           0       -0.581866    3.037107    0.345146
     24          1           0       -1.905142    2.317448   -0.566598
     25          1           0       -0.272369    2.275590   -1.215659
 ---------------------------------------------------------------------

 SCF Done:  E(RHF) =  -350.268232178     A.U. after    2 cycles

 The electronic state is 1-A.
 Alpha  occ. eigenvalues --  -11.22479 -11.22397 -11.22370 -11.22320 -11.21945
 Alpha  occ. eigenvalues --  -11.21869 -11.21732 -11.21730 -11.21727  -1.15284
 Alpha  occ. eigenvalues --   -1.02790  -1.00024  -0.95078  -0.92588  -0.86246
 Alpha  occ. eigenvalues --   -0.79579  -0.75128  -0.71773  -0.67210  -0.64388
 Alpha  occ. eigenvalues --   -0.61827  -0.57636  -0.56861  -0.54945  -0.54871
 Alpha  occ. eigenvalues --   -0.52463  -0.50664  -0.49175  -0.48692  -0.47606
 Alpha  occ. eigenvalues --   -0.45546  -0.45283  -0.42722  -0.42231  -0.41301
 Alpha virt. eigenvalues --    0.03479   0.04147   0.04167   0.04445   0.05762
 Alpha virt. eigenvalues --    0.06101   0.06212   0.06324   0.06423   0.08325
 Alpha virt. eigenvalues --    0.08463   0.08593   0.08958   0.09252   0.09292

 Mulliken charges:
               1
     1  C    0.999653
     2  C    0.076520
     3  C    0.250813
     4  C    0.470831
     5  C   -0.185616
     6  C   -0.459499
     7  C    0.507415
     8  H   -0.203885
     9  H   -0.231820
    10  H   -0.312081
    11  H   -0.377015
    12  H   -0.152882
    13  C    0.645190
    14  H   -0.172156
    15  H   -0.322964
    16  H   -0.195180
    17  C    0.628355
    18  H   -0.235945
    19  H   -0.431364
    20  H   -0.032298
    21  H   -0.008866
    22  H   -0.084515
    23  H   -0.083255
    24  H   -0.029800
    25  H   -0.059635
 Sum of Mulliken charges =  -0.00000

 Dipole moment (field-independent basis, Debye):
    X=              0.0192    Y=             -0.0081    Z=              0.0524  Tot=              0.0564

 Test job not archived.
 1\1\GINC-SE179\SP\RHF\Aug-CC-pVDZ\C9H16\OHZDE\05-Apr-2025\0\\#t hf aug
 -cc-pvdz iop(5/13=1,5/36=2,99/5=2) pseudo=read geom=check guess=(read,
 tcheck) scf=(maxcycle=1)\\title\\0,1\C,0,0.707742,-0.940168,1.191925\C
 ,0,0.805573,0.571081,0.911672\C,0,0.286298,-1.294617,-0.24855\C,0,1.81
 3009,0.594515,-0.256246\C,0,-0.630377,0.862567,0.409362\C,0,-0.961973,
 -0.400731,-0.457716\C,0,1.455724,-0.696655,-1.057146\H,0,-0.041153,-1.
 191218,1.943754\H,0,1.658013,-1.391146,1.482484\H,0,1.098896,1.1974,1.
 754117\H,0,0.105962,-2.349691,-0.452928\H,0,2.832978,0.547501,0.127018

 Normal termination of Gaussian 16 at Sat Apr  5 23:17:09 2025.
