 Gaussian 16, Revision C.01,

 ----------------------------------------------------------------------
 #t hf aug-cc-pvdz symm=none int=(grid=ultrafine) guess=(read,tcheck) s
 table=(opt,rrhf)
 ----------------------------------------------------------------------
 -----
 title
 -----
 Symbolic Z-matrix:
 Charge =  0 Multiplicity = 1

 SCF Done:  E(RHF) =  -234.194674659     A.U. after   11 cycles
 Normal termination of Gaussian 16 at Sat Apr  5 23:14:54 2025.
 Gaussian 16:  ES64L-G16RevC.01  3-Jul-2019

 ----------------------------------------------------------------------
 #t hf aug-cc-pvdz iop(5/13=1,5/36=2,99/5=2) pseudo=read geom=check gue
 ss=(read,tcheck) scf=(maxcycle=1)
 ----------------------------------------------------------------------
 -----
 title
 -----
 Structure from the checkpoint file:  "trans-1-3-dimethylcyclobutane.chk"
 Charge =  0 Multiplicity = 1

                         Standard orientation:
 ---------------------------------------------------------------------
 Center     Atomic      Atomic             Coordinates (Angstroms)
 Number     Number       Type             X           Y           Z
 ---------------------------------------------------------------------
      1          6           0        0.244705    0.078242    1.082742
      2          6           0        0.244705    0.078242   -1.082742
      3          6           0        0.834997   -0.869296    0.000000
      4          6           0       -0.656207    0.731128   -0.000000
      5          6           0        0.244705   -2.272702    0.000000
      6          6           0       -0.820584    2.239722   -0.000000
      7          1           0       -0.252168   -0.391852    1.932537
      8          1           0        0.988396    0.780747    1.462896
      9          1           0       -0.252168   -0.391852   -1.932537
     10          1           0        0.988396    0.780747   -1.462896
     11          1           0        1.923688   -0.935418    0.000000
     12          1           0       -1.640735    0.259122   -0.000000
     13          1           0       -0.847355   -2.246577   -0.000000
     14          1           0        0.151583    2.738338   -0.000000
     15          1           0        0.561618   -2.832501   -0.882519
     16          1           0        0.561618   -2.832501    0.882519
     17          1           0       -1.368402    2.579864   -0.881781
     18          1           0       -1.368402    2.579864    0.881781
 ---------------------------------------------------------------------

 SCF Done:  E(RHF) =  -234.268245285     A.U. after    2 cycles

 The electronic state is 1-A'.
 Alpha  occ. eigenvalues --  -11.22820 -11.22778 -11.21906 -11.21860 -11.21855
 Alpha  occ. eigenvalues --  -11.21810  -1.12210  -0.99683  -0.92842  -0.89054
 Alpha  occ. eigenvalues --   -0.80814  -0.72264  -0.64395  -0.63645  -0.58553
 Alpha  occ. eigenvalues --   -0.55730  -0.55235  -0.53550  -0.52894  -0.49880
 Alpha  occ. eigenvalues --   -0.44910  -0.44573  -0.42304  -0.41584
 Alpha virt. eigenvalues --    0.03569   0.04310   0.04629   0.04692   0.06338
 Alpha virt. eigenvalues --    0.06536   0.06697   0.06817   0.07217   0.09031
 Alpha virt. eigenvalues --    0.09232   0.09520   0.12228   0.13549   0.14197

 Mulliken charges:
               1
     1  C    0.852809
     2  C    0.852809
     3  C   -0.413690
     4  C   -0.680733
     5  C    0.520930
     6  C    0.501545
     7  H   -0.209922
     8  H   -0.208637
     9  H   -0.209922
    10  H   -0.208637
    11  H   -0.328016
    12  H   -0.262804
    13  H   -0.068090
    14  H   -0.037828
    15  H   -0.047813
    16  H   -0.047813
    17  H   -0.002094
    18  H   -0.002094
 Sum of Mulliken charges =  -0.00000

 Dipole moment (field-independent basis, Debye):
    X=             -0.0033    Y=             -0.0186    Z=              0.0000  Tot=              0.0188

 Test job not archived.
 1\1\GINC-SE053\SP\RHF\Aug-CC-pVDZ\C6H12\OHZDE\05-Apr-2025\0\\#t hf aug
 -cc-pvdz iop(5/13=1,5/36=2,99/5=2) pseudo=read geom=check guess=(read,
 tcheck) scf=(maxcycle=1)\\title\\0,1\C,0,0.244705,0.078242,1.082742\C,
 0,0.244705,0.078242,-1.082742\C,0,0.834997,-0.869296,0.\C,0,-0.656207,
 0.731128,0.\C,0,0.244705,-2.272702,0.\C,0,-0.820584,2.239722,0.\H,0,-0
 .252168,-0.391852,1.932537\H,0,0.988396,0.780747,1.462896\H,0,-0.25216
 8,-0.391852,-1.932537\H,0,0.988396,0.780747,-1.462896\H,0,1.923688,-0.
 935418,0.\H,0,-1.640735,0.259122,0.\H,0,-0.847355,-2.246577,0.\H,0,0.1

 Normal termination of Gaussian 16 at Sat Apr  5 23:15:58 2025.
