 Gaussian 16, Revision C.01,

 ----------------------------------------------------------------------
 #t hf aug-cc-pvdz symm=none int=(grid=ultrafine) guess=(read,tcheck) s
 table=(opt,rrhf)
 ----------------------------------------------------------------------
 -----
 title
 -----
 Symbolic Z-matrix:
 Charge =  0 Multiplicity = 1

 SCF Done:  E(RHF) =  -229.835251525     A.U. after   14 cycles
 Normal termination of Gaussian 16 at Sat Apr  5 23:14:26 2025.
 Gaussian 16:  ES64L-G16RevC.01  3-Jul-2019

 ----------------------------------------------------------------------
 #t hf aug-cc-pvdz iop(5/13=1,5/36=2,99/5=2) pseudo=read geom=check gue
 ss=(read,tcheck) scf=(maxcycle=1)
 ----------------------------------------------------------------------
 -----
 title
 -----
 Structure from the checkpoint file:  "trans-2-butenal.chk"
 Charge =  0 Multiplicity = 1

                         Standard orientation:
 ---------------------------------------------------------------------
 Center     Atomic      Atomic             Coordinates (Angstroms)
 Number     Number       Type             X           Y           Z
 ---------------------------------------------------------------------
      1          6           0        0.000000    0.336443    0.000000
      2          6           0       -0.894961   -0.655241    0.000000
      3          6           0        1.437530    0.059783    0.000000
      4          6           0       -2.376114   -0.496353    0.000000
      5          8           0        2.302239    0.907893    0.000000
      6          1           0       -0.296890    1.379137    0.000000
      7          1           0       -0.520454   -1.676347    0.000000
      8          1           0        1.704005   -1.017594    0.000000
      9          1           0       -2.814656   -0.983507    0.874815
     10          1           0       -2.814656   -0.983507   -0.874815
     11          1           0       -2.673991    0.550880    0.000000
 ---------------------------------------------------------------------

 SCF Done:  E(RHF) =  -229.908788582     A.U. after    2 cycles

 The electronic state is 1-A'.
 Alpha  occ. eigenvalues --  -20.56478 -11.34158 -11.28521 -11.25701 -11.25269
 Alpha  occ. eigenvalues --   -1.35033  -1.10198  -0.98620  -0.83923  -0.78582
 Alpha  occ. eigenvalues --   -0.68657  -0.66002  -0.60070  -0.59642  -0.57274
 Alpha  occ. eigenvalues --   -0.54916  -0.53574  -0.43787  -0.38871
 Alpha virt. eigenvalues --    0.02866   0.04098   0.04965   0.05124   0.06669
 Alpha virt. eigenvalues --    0.07319   0.07951   0.10275   0.11385   0.12376
 Alpha virt. eigenvalues --    0.12738   0.13169   0.15214   0.15956   0.16886

 Mulliken charges:
               1
     1  C    0.603714
     2  C    0.133551
     3  C    0.507962
     4  C    0.178845
     5  O   -0.485534
     6  H   -0.422433
     7  H   -0.401428
     8  H   -0.168323
     9  H    0.077448
    10  H    0.077448
    11  H   -0.101250
 Sum of Mulliken charges =   0.00000

 Dipole moment (field-independent basis, Debye):
    X=             -4.0669    Y=             -2.6013    Z=              0.0000  Tot=              4.8276

 Test job not archived.
 1\1\GINC-SE145\SP\RHF\Aug-CC-pVDZ\C4H6O1\OHZDE\05-Apr-2025\0\\#t hf au
 g-cc-pvdz iop(5/13=1,5/36=2,99/5=2) pseudo=read geom=check guess=(read
 ,tcheck) scf=(maxcycle=1)\\title\\0,1\C,0,0.,0.336443,0.\C,0,-0.894961
 ,-0.655241,0.\C,0,1.43753,0.059783,0.\C,0,-2.376114,-0.496353,0.\O,0,2
 .302239,0.907893,0.\H,0,-0.29689,1.379137,0.\H,0,-0.520454,-1.676347,0
 .\H,0,1.704005,-1.017594,0.\H,0,-2.814656,-0.983507,0.874815\H,0,-2.81
 4656,-0.983507,-0.874815\H,0,-2.673991,0.55088,0.\\Version=ES64L-G16Re
 vC.01\State=1-A'\HF=-229.9087886\RMSD=7.605e-03\Dipole=-1.6000238,-1.0

 Normal termination of Gaussian 16 at Sat Apr  5 23:15:56 2025.
