 Gaussian 16, Revision C.01,

 ----------------------------------------------------------------------
 #t hf aug-cc-pvdz symm=none int=(grid=ultrafine) guess=(read,tcheck) s
 table=(opt,rrhf)
 ----------------------------------------------------------------------
 -----
 title
 -----
 Symbolic Z-matrix:
 Charge =  0 Multiplicity = 1

 SCF Done:  E(RHF) =  -1056.55810322     A.U. after   14 cycles
 Normal termination of Gaussian 16 at Sat Apr  5 23:14:36 2025.
 Gaussian 16:  ES64L-G16RevC.01  3-Jul-2019

 ----------------------------------------------------------------------
 #t hf aug-cc-pvdz iop(5/13=1,5/36=2,99/5=2) pseudo=read geom=check gue
 ss=(read,tcheck) scf=(maxcycle=1)
 ----------------------------------------------------------------------
 -----
 title
 -----
 Structure from the checkpoint file:  "trans-dithiocyanatoethene.chk"
 Charge =  0 Multiplicity = 1

                         Standard orientation:
 ---------------------------------------------------------------------
 Center     Atomic      Atomic             Coordinates (Angstroms)
 Number     Number       Type             X           Y           Z
 ---------------------------------------------------------------------
      1         16           0        2.050341    0.742508   -0.499891
      2         16           0       -2.050342   -0.742503   -0.499907
      3          7           0        3.923970   -0.715598    1.081612
      4          7           0       -3.923966    0.715581    1.081626
      5          6           0        0.603325   -0.276815   -0.332055
      6          6           0       -0.603328    0.276827   -0.332072
      7          6           0        3.140682   -0.141456    0.456341
      8          6           0       -3.140681    0.141447    0.456343
      9          1           0        0.769347   -1.345261   -0.318590
     10          1           0       -0.769353    1.345273   -0.318638
 ---------------------------------------------------------------------

 SCF Done:  E(RHF) =  -1056.67877168     A.U. after    2 cycles

 The electronic state is 1-A.
 Alpha  occ. eigenvalues --  -93.63389 -93.63389 -15.67336 -15.67335 -11.34477
 Alpha  occ. eigenvalues --  -11.34305 -11.33070 -11.33070  -8.93020  -8.93020
 Alpha  occ. eigenvalues --   -6.27257  -6.27229  -6.26952  -6.26938  -6.26564
 Alpha  occ. eigenvalues --   -6.26559  -1.22650  -1.22480  -1.16531  -1.08975
 Alpha  occ. eigenvalues --   -1.00502  -0.83876  -0.75679  -0.68892  -0.68306
 Alpha  occ. eigenvalues --   -0.60108  -0.57480  -0.57002  -0.56506  -0.54860
 Alpha  occ. eigenvalues --   -0.54832  -0.49288  -0.49009  -0.47506  -0.42366
 Alpha  occ. eigenvalues --   -0.37346
 Alpha virt. eigenvalues --    0.02845   0.03876   0.05371   0.06031   0.06727
 Alpha virt. eigenvalues --    0.07240   0.08703   0.09285   0.09780   0.10001
 Alpha virt. eigenvalues --    0.10215   0.10267   0.11922   0.12888   0.13264

 Mulliken charges:
               1
     1  S    0.727070
     2  S    0.727061
     3  N   -0.166994
     4  N   -0.166995
     5  C    0.284458
     6  C    0.284457
     7  C   -0.422320
     8  C   -0.422313
     9  H   -0.422217
    10  H   -0.422208
 Sum of Mulliken charges =   0.00000

 Dipole moment (field-independent basis, Debye):
    X=              0.0000    Y=              0.0000    Z=             -3.1356  Tot=              3.1356

 Test job not archived.
 1\1\GINC-SE225\SP\RHF\Aug-CC-pVDZ\C4H2N2S2\OHZDE\05-Apr-2025\0\\#t hf
 aug-cc-pvdz iop(5/13=1,5/36=2,99/5=2) pseudo=read geom=check guess=(re
 ad,tcheck) scf=(maxcycle=1)\\title\\0,1\S,0,2.050341,0.742508,-0.49989
 1\S,0,-2.050342,-0.742503,-0.499907\N,0,3.92397,-0.715598,1.081612\N,0
 ,-3.923966,0.715581,1.081626\C,0,0.603325,-0.276815,-0.332055\C,0,-0.6
 03328,0.276827,-0.332072\C,0,3.140682,-0.141456,0.456341\C,0,-3.140681
 ,0.141447,0.456343\H,0,0.769347,-1.345261,-0.31859\H,0,-0.769353,1.345
 273,-0.318638\\Version=ES64L-G16RevC.01\State=1-A\HF=-1056.6787717\RMS

 Normal termination of Gaussian 16 at Sat Apr  5 23:15:58 2025.
