 Gaussian 16, Revision C.01,

 ----------------------------------------------------------------------
 #t hf aug-cc-pvdz symm=none int=(grid=ultrafine) guess=(read,tcheck) s
 table=(opt,rrhf)
 ----------------------------------------------------------------------
 -----
 title
 -----
 Symbolic Z-matrix:
 Charge =  0 Multiplicity = 1

 SCF Done:  E(RHF) =  -231.794339857     A.U. after   12 cycles
 Normal termination of Gaussian 16 at Sat Apr  5 23:14:40 2025.
 Gaussian 16:  ES64L-G16RevC.01  3-Jul-2019

 ----------------------------------------------------------------------
 #t hf aug-cc-pvdz iop(5/13=1,5/36=2,99/5=2) pseudo=read geom=check gue
 ss=(read,tcheck) scf=(maxcycle=1)
 ----------------------------------------------------------------------
 -----
 title
 -----
 Structure from the checkpoint file:  "trans-2-3-4-hexatriene.chk"
 Charge =  0 Multiplicity = 1

                         Standard orientation:
 ---------------------------------------------------------------------
 Center     Atomic      Atomic             Coordinates (Angstroms)
 Number     Number       Type             X           Y           Z
 ---------------------------------------------------------------------
      1          6           0        1.233554   -2.804366    0.000000
      2          1           0        1.251117   -3.456614    0.877469
      3          1           0        1.251117   -3.456614   -0.877469
      4          1           0        2.138991   -2.200941    0.000000
      5          6           0       -1.233554    2.804366    0.000000
      6          1           0       -1.251117    3.456614   -0.877469
      7          1           0       -1.251117    3.456614    0.877469
      8          1           0       -2.138991    2.200941    0.000000
      9          6           0        0.001866   -1.946573    0.000000
     10          1           0       -0.953142   -2.465454    0.000000
     11          6           0       -0.001866    1.946573    0.000000
     12          1           0        0.953142    2.465454    0.000000
     13          6           0        0.001866    0.631609    0.000000
     14          6           0       -0.001866   -0.631609    0.000000
 ---------------------------------------------------------------------

 SCF Done:  E(RHF) =  -231.869733506     A.U. after    2 cycles

 The electronic state is 1-AG.
 Alpha  occ. eigenvalues --  -11.26090 -11.26079 -11.25323 -11.25064 -11.23848
 Alpha  occ. eigenvalues --  -11.23848  -1.09083  -1.05049  -0.97560  -0.90375
 Alpha  occ. eigenvalues --   -0.83783  -0.68670  -0.65962  -0.59201  -0.57838
 Alpha  occ. eigenvalues --   -0.57327  -0.57150  -0.53473  -0.52902  -0.45660
 Alpha  occ. eigenvalues --   -0.36682  -0.31141
 Alpha virt. eigenvalues --    0.03431   0.03930   0.04661   0.05780   0.05816
 Alpha virt. eigenvalues --    0.06355   0.06508   0.08362   0.08564   0.10670
 Alpha virt. eigenvalues --    0.11758   0.12299   0.13185   0.14496   0.14711

 Mulliken charges:
               1
     1  C    0.255998
     2  H    0.026421
     3  H    0.026421
     4  H   -0.151685
     5  C    0.255998
     6  H    0.026421
     7  H    0.026421
     8  H   -0.151685
     9  C    0.371400
    10  H   -0.296093
    11  C    0.371400
    12  H   -0.296093
    13  C   -0.232462
    14  C   -0.232462
 Sum of Mulliken charges =  -0.00000

 Dipole moment (field-independent basis, Debye):
    X=              0.0000    Y=              0.0000    Z=              0.0000  Tot=              0.0000

 Test job not archived.
 1\1\GINC-SE176\SP\RHF\Aug-CC-pVDZ\C6H8\OHZDE\05-Apr-2025\0\\#t hf aug-
 cc-pvdz iop(5/13=1,5/36=2,99/5=2) pseudo=read geom=check guess=(read,t
 check) scf=(maxcycle=1)\\title\\0,1\C,0,1.233554,-2.804366,0.\H,0,1.25
 1117,-3.456614,0.877469\H,0,1.251117,-3.456614,-0.877469\H,0,2.138991,
 -2.200941,0.\C,0,-1.233554,2.804366,0.\H,0,-1.251117,3.456614,-0.87746
 9\H,0,-1.251117,3.456614,0.877469\H,0,-2.138991,2.200941,0.\C,0,0.0018
 66,-1.946573,0.\H,0,-0.953142,-2.465454,0.\C,0,-0.001866,1.946573,0.\H
 ,0,0.953142,2.465454,0.\C,0,0.001866,0.631609,0.\C,0,-0.001866,-0.6316

 Normal termination of Gaussian 16 at Sat Apr  5 23:15:55 2025.
