 Gaussian 16, Revision C.01,

 ----------------------------------------------------------------------
 #t hf aug-cc-pvdz symm=none int=(grid=ultrafine) guess=(read,tcheck) s
 table=(opt,rrhf)
 ----------------------------------------------------------------------
 -----
 title
 -----
 Symbolic Z-matrix:
 Charge =  0 Multiplicity = 1

 SCF Done:  E(RHF) =  -1416.94942587     A.U. after   11 cycles

 1\1\GINC-SE047\Stability\RHF\Aug-CC-pVDZ\C1H1Cl3\OHZDE\05-Apr-2025\0\\
 #t hf aug-cc-pvdz symm=none int=(grid=ultrafine) guess=(read,tcheck) s
 table=(opt,rrhf)\\title\\0,1\C,0,0.,0.,0.456698\Cl,0,0.,1.6973,-0.0838
 52\Cl,0,-1.469905,-0.84865,-0.083852\Cl,0,1.469905,-0.84865,-0.083852\
 H,0,0.,0.,1.536281\\Version=ES64L-G16RevC.01\HF=-1416.9494259\RMSD=6.5
 46e-09\Dipole=0.,0.,0.4806629\Quadrupole=-0.5900804,-0.5900803,1.18016
 07,0.,0.,0.\PG=Unknown\\@
 The archive entry for this job was punched.

 Normal termination of Gaussian 16 at Sat Apr  5 23:14:22 2025.
 Gaussian 16:  ES64L-G16RevC.01  3-Jul-2019

 ----------------------------------------------------------------------
 #t hf aug-cc-pvdz iop(5/13=1,5/36=2,99/5=2) pseudo=read geom=check gue
 ss=(read,tcheck) scf=(maxcycle=1)
 ----------------------------------------------------------------------
 -----
 title
 -----
 Structure from the checkpoint file:  "trichloromethane.chk"
 Charge =  0 Multiplicity = 1

                         Standard orientation:
 ---------------------------------------------------------------------
 Center     Atomic      Atomic             Coordinates (Angstroms)
 Number     Number       Type             X           Y           Z
 ---------------------------------------------------------------------
      1          6           0        0.385195    0.245351    0.000000
      2         17           0       -0.982563    1.386517    0.000000
      3         17           0        0.385195   -0.760830    1.469905
      4         17           0        0.385195   -0.760830   -1.469905
      5          1           0        1.295755    0.825335    0.000000
 ---------------------------------------------------------------------

 SCF Done:  E(RHF) =  -1417.01870067     A.U. after    2 cycles

 The electronic state is 1-A'.
 Alpha  occ. eigenvalues -- -103.69392-103.69392-103.69391 -11.44695 -10.72715
 Alpha  occ. eigenvalues --  -10.72715 -10.72689  -8.38429  -8.38429  -8.38420
 Alpha  occ. eigenvalues --   -8.38089  -8.38086  -8.38086  -8.38082  -8.38082
 Alpha  occ. eigenvalues --   -8.38082  -1.26537  -1.16261  -1.16261  -0.89847
 Alpha  occ. eigenvalues --   -0.69144  -0.63933  -0.63933  -0.51797  -0.51797
 Alpha  occ. eigenvalues --   -0.48390  -0.48390  -0.47953  -0.46850
 Alpha virt. eigenvalues --    0.03924   0.06522   0.08058   0.08058   0.10402
 Alpha virt. eigenvalues --    0.13323   0.13323   0.14656   0.14656   0.15465
 Alpha virt. eigenvalues --    0.16878   0.18172   0.18172   0.18864   0.20577

 Mulliken charges:
               1
     1  C   -0.504509
     2  Cl   0.082382
     3  Cl   0.082382
     4  Cl   0.082382
     5  H    0.257361
 Sum of Mulliken charges =   0.00000

 Dipole moment (field-independent basis, Debye):
    X=              1.0591    Y=              0.6746    Z=              0.0000  Tot=              1.2557

 Test job not archived.
 1\1\GINC-SE047\SP\RHF\Aug-CC-pVDZ\C1H1Cl3\OHZDE\05-Apr-2025\0\\#t hf a
 ug-cc-pvdz iop(5/13=1,5/36=2,99/5=2) pseudo=read geom=check guess=(rea
 d,tcheck) scf=(maxcycle=1)\\title\\0,1\C,0,0.,0.,0.456698\Cl,0,0.,1.69
 73,-0.083852\Cl,0,-1.469905,-0.84865,-0.083852\Cl,0,1.469905,-0.84865,
 -0.083852\H,0,0.,0.,1.536281\\Version=ES64L-G16RevC.01\State=1-A'\HF=-
 1417.0187007\RMSD=2.883e-03\Dipole=0.,0.,0.4940126\Quadrupole=-0.59090
 2,-0.5909019,1.181804,0.,0.,0.\PG=CS [SG(C1H1Cl1),X(Cl2)]\\@

 Normal termination of Gaussian 16 at Sat Apr  5 23:15:53 2025.
