 Gaussian 16, Revision C.01,

 ----------------------------------------------------------------------
 #t hf aug-cc-pvdz symm=none int=(grid=ultrafine) guess=(read,tcheck) s
 table=(opt,rrhf)
 ----------------------------------------------------------------------
 -----
 title
 -----
 Symbolic Z-matrix:
 Charge =  0 Multiplicity = 1

 SCF Done:  E(RHF) =  -1529.67842838     A.U. after   14 cycles
 Normal termination of Gaussian 16 at Sat Apr  5 23:14:25 2025.
 Gaussian 16:  ES64L-G16RevC.01  3-Jul-2019

 ----------------------------------------------------------------------
 #t hf aug-cc-pvdz iop(5/13=1,5/36=2,99/5=2) pseudo=read geom=check gue
 ss=(read,tcheck) scf=(maxcycle=1)
 ----------------------------------------------------------------------
 -----
 title
 -----
 Structure from the checkpoint file:  "trichloroacetaldehyde.chk"
 Charge =  0 Multiplicity = 1

                         Standard orientation:
 ---------------------------------------------------------------------
 Center     Atomic      Atomic             Coordinates (Angstroms)
 Number     Number       Type             X           Y           Z
 ---------------------------------------------------------------------
      1          6           0        0.038452    0.035580    0.000000
      2          6           0        0.922994   -1.233024   -0.000000
      3          8           0        0.496614   -2.344783   -0.000000
      4         17           0       -1.683707   -0.338809    0.000000
      5         17           0        0.496614    0.961332    1.470611
      6         17           0        0.496614    0.961332   -1.470611
      7          1           0        1.996540   -0.982605   -0.000000
 ---------------------------------------------------------------------

 SCF Done:  E(RHF) =  -1529.78064125     A.U. after    2 cycles

 The electronic state is 1-A'.
 Alpha  occ. eigenvalues -- -103.70906-103.70906-103.70202 -20.62387 -11.46650
 Alpha  occ. eigenvalues --  -11.39799 -10.74186 -10.74172 -10.73506  -8.39897
 Alpha  occ. eigenvalues --   -8.39892  -8.39560  -8.39559  -8.39553  -8.39551
 Alpha  occ. eigenvalues --   -8.39234  -8.38881  -8.38874  -1.41793  -1.28065
 Alpha  occ. eigenvalues --   -1.17603  -1.17477  -0.97553  -0.82116  -0.73231
 Alpha  occ. eigenvalues --   -0.70922  -0.66787  -0.63951  -0.58352  -0.53812
 Alpha  occ. eigenvalues --   -0.52836  -0.52632  -0.49354  -0.49198  -0.47924
 Alpha  occ. eigenvalues --   -0.46902
 Alpha virt. eigenvalues --    0.03902   0.05955   0.06308   0.08025   0.08728
 Alpha virt. eigenvalues --    0.09629   0.10028   0.10870   0.13462   0.13586
 Alpha virt. eigenvalues --    0.14661   0.15993   0.16418   0.17764   0.17902

 Mulliken charges:
               1
     1  C   -0.793071
     2  C    0.963044
     3  O   -0.340159
     4  Cl   0.073674
     5  Cl   0.077078
     6  Cl   0.077078
     7  H   -0.057644
 Sum of Mulliken charges =  -0.00000

 Dipole moment (field-independent basis, Debye):
    X=              1.3661    Y=              1.4949    Z=              0.0000  Tot=              2.0251

 Test job not archived.
 1\1\GINC-SE226\SP\RHF\Aug-CC-pVDZ\C2H1Cl3O1\OHZDE\05-Apr-2025\0\\#t hf
  aug-cc-pvdz iop(5/13=1,5/36=2,99/5=2) pseudo=read geom=check guess=(r
 ead,tcheck) scf=(maxcycle=1)\\title\\0,1\C,0,0.038452,0.03558,0.\C,0,0
 .922994,-1.233024,0.\O,0,0.496614,-2.344783,0.\Cl,0,-1.683707,-0.33880
 9,0.\Cl,0,0.496614,0.961332,1.470611\Cl,0,0.496614,0.961332,-1.470611\
 H,0,1.99654,-0.982605,0.\\Version=ES64L-G16RevC.01\State=1-A'\HF=-1529
 .7806413\RMSD=4.733e-03\Dipole=0.5374536,0.5881476,0.\Quadrupole=3.403
 3093,-4.8366706,1.4333613,-0.2875034,0.,0.\PG=CS [SG(C2H1Cl1O1),X(Cl2)

 Normal termination of Gaussian 16 at Sat Apr  5 23:15:56 2025.
