 Gaussian 16, Revision C.01,

 ----------------------------------------------------------------------
 #t hf aug-cc-pvdz symm=none int=(grid=ultrafine) guess=(read,tcheck) s
 table=(opt,rrhf)
 ----------------------------------------------------------------------
 -----
 title
 -----
 Symbolic Z-matrix:
 Charge =  0 Multiplicity = 1

 SCF Done:  E(RHF) =  -270.862970729     A.U. after   12 cycles
 Normal termination of Gaussian 16 at Sat Apr  5 23:14:58 2025.
 Gaussian 16:  ES64L-G16RevC.01  3-Jul-2019

 ----------------------------------------------------------------------
 #t hf aug-cc-pvdz iop(5/13=1,5/36=2,99/5=2) pseudo=read geom=check gue
 ss=(read,tcheck) scf=(maxcycle=1)
 ----------------------------------------------------------------------
 -----
 title
 -----
 Structure from the checkpoint file:  "tricyclo4-1-0-0heptane.chk"
 Charge =  0 Multiplicity = 1

                         Standard orientation:
 ---------------------------------------------------------------------
 Center     Atomic      Atomic             Coordinates (Angstroms)
 Number     Number       Type             X           Y           Z
 ---------------------------------------------------------------------
      1          6           0       -0.000000    1.212629    0.508884
      2          6           0        1.216393    1.420165   -0.356202
      3          6           0       -0.000000    0.000000    1.437632
      4          6           0       -0.001233    0.749275   -0.932390
      5          6           0        0.001233   -0.749275   -0.932390
      6          6           0       -1.216393   -1.420165   -0.356202
      7          1           0       -0.565029    2.087185    0.799175
      8          1           0        2.090716    0.811351   -0.162580
      9          1           0        1.434669    2.428532   -0.679316
     10          1           0       -0.877843    0.008372    2.088558
     11          1           0        0.877843   -0.008372    2.088558
     12          1           0       -0.578811    1.277641   -1.680483
     13          1           0        0.578811   -1.277641   -1.680483
     14          1           0       -1.434669   -2.428532   -0.679316
     15          1           0       -2.090716   -0.811351   -0.162580
     16          6           0        0.000000   -1.212629    0.508884
     17          1           0        0.565029   -2.087185    0.799175
 ---------------------------------------------------------------------

 SCF Done:  E(RHF) =  -270.944592394     A.U. after    2 cycles

 The electronic state is 1-A.
 Alpha  occ. eigenvalues --  -11.23327 -11.23287 -11.23241 -11.23224 -11.22921
 Alpha  occ. eigenvalues --  -11.22705 -11.22703  -1.18143  -1.08877  -0.96836
 Alpha  occ. eigenvalues --   -0.85173  -0.81629  -0.75449  -0.74833  -0.69085
 Alpha  occ. eigenvalues --   -0.65291  -0.59267  -0.56949  -0.56024  -0.52917
 Alpha  occ. eigenvalues --   -0.49855  -0.47432  -0.45035  -0.42235  -0.37899
 Alpha  occ. eigenvalues --   -0.37773
 Alpha virt. eigenvalues --    0.03536   0.04141   0.04484   0.04540   0.06191
 Alpha virt. eigenvalues --    0.06473   0.06664   0.07016   0.07096   0.08856
 Alpha virt. eigenvalues --    0.11669   0.12450   0.13395   0.13911   0.14656

 Mulliken charges:
               1
     1  C    0.348180
     2  C    0.694987
     3  C    0.346855
     4  C    0.461703
     5  C    0.461703
     6  C    0.694987
     7  H   -0.386951
     8  H   -0.344569
     9  H   -0.388971
    10  H   -0.127248
    11  H   -0.127248
    12  H   -0.430559
    13  H   -0.430559
    14  H   -0.388971
    15  H   -0.344569
    16  C    0.348180
    17  H   -0.386951
 Sum of Mulliken charges =  -0.00000

 Dipole moment (field-independent basis, Debye):
    X=              0.0000    Y=             -0.0000    Z=              0.0494  Tot=              0.0494

 Test job not archived.
 1\1\GINC-SE154\SP\RHF\Aug-CC-pVDZ\C7H10\OHZDE\05-Apr-2025\0\\#t hf aug
 -cc-pvdz iop(5/13=1,5/36=2,99/5=2) pseudo=read geom=check guess=(read,
 tcheck) scf=(maxcycle=1)\\title\\0,1\C,0,0.,1.212629,0.508884\C,0,1.21
 6393,1.420165,-0.356202\C,0,0.,0.,1.437632\C,0,-0.001233,0.749275,-0.9
 3239\C,0,0.001233,-0.749275,-0.93239\C,0,-1.216393,-1.420165,-0.356202
 \H,0,-0.565029,2.087185,0.799175\H,0,2.090716,0.811351,-0.16258\H,0,1.
 434669,2.428532,-0.679316\H,0,-0.877843,0.008372,2.088558\H,0,0.877843
 ,-0.008372,2.088558\H,0,-0.578811,1.277641,-1.680483\H,0,0.578811,-1.2

 Normal termination of Gaussian 16 at Sat Apr  5 23:15:56 2025.
