 Gaussian 16, Revision C.01,

 ----------------------------------------------------------------------
 #t hf aug-cc-pvdz symm=none int=(grid=ultrafine) guess=(read,tcheck) s
 table=(opt,rrhf)
 ----------------------------------------------------------------------
 -----
 title
 -----
 Symbolic Z-matrix:
 Charge =  0 Multiplicity = 1

 SCF Done:  E(RHF) =  -1454.79832046     A.U. after   13 cycles

 1\1\GINC-SE226\Stability\RHF\Aug-CC-pVDZ\C2H1Cl3\OHZDE\05-Apr-2025\0\\
 #t hf aug-cc-pvdz symm=none int=(grid=ultrafine) guess=(read,tcheck) s
 table=(opt,rrhf)\\title\\0,1\C,0,-1.03458,-0.395303,0.\C,0,0.,0.438157
 ,0.\H,0,-2.045695,-0.022811,0.\Cl,0,-0.896263,-2.11395,0.\Cl,0,-0.2683
 66,2.154033,0.\Cl,0,1.650109,-0.053866,0.\\Version=ES64L-G16RevC.01\HF
 =-1454.7983205\RMSD=4.204e-09\Dipole=-0.3972821,0.1146717,0.\Quadrupol
 e=1.9815417,-0.8350094,-1.1465324,-0.8415904,0.,0.\PG=Unknown\\@
 The archive entry for this job was punched.

 Normal termination of Gaussian 16 at Sat Apr  5 23:14:22 2025.
 Gaussian 16:  ES64L-G16RevC.01  3-Jul-2019

 ----------------------------------------------------------------------
 #t hf aug-cc-pvdz iop(5/13=1,5/36=2,99/5=2) pseudo=read geom=check gue
 ss=(read,tcheck) scf=(maxcycle=1)
 ----------------------------------------------------------------------
 -----
 title
 -----
 Structure from the checkpoint file:  "trichloroethylene.chk"
 Charge =  0 Multiplicity = 1

                         Standard orientation:
 ---------------------------------------------------------------------
 Center     Atomic      Atomic             Coordinates (Angstroms)
 Number     Number       Type             X           Y           Z
 ---------------------------------------------------------------------
      1          6           0       -1.034580   -0.395304    0.000000
      2          6           0        0.000000    0.438157    0.000000
      3          1           0       -2.045695   -0.022812    0.000000
      4         17           0       -0.896262   -2.113951    0.000000
      5         17           0       -0.268367    2.154033    0.000000
      6         17           0        1.650109   -0.053865    0.000000
 ---------------------------------------------------------------------

 SCF Done:  E(RHF) =  -1454.88074967     A.U. after    2 cycles

 The electronic state is 1-A'.
 Alpha  occ. eigenvalues -- -103.69995-103.69915-103.69182 -11.39012 -11.33971
 Alpha  occ. eigenvalues --  -10.73271 -10.73216 -10.72464  -8.39009  -8.38957
 Alpha  occ. eigenvalues --   -8.38672  -8.38652  -8.38608  -8.38599  -8.38205
 Alpha  occ. eigenvalues --   -8.37869  -8.37865  -1.26179  -1.20091  -1.17101
 Alpha  occ. eigenvalues --   -1.01866  -0.79062  -0.69504  -0.66337  -0.59928
 Alpha  occ. eigenvalues --   -0.57866  -0.52320  -0.51584  -0.50169  -0.49470
 Alpha  occ. eigenvalues --   -0.47759  -0.38077
 Alpha virt. eigenvalues --    0.03889   0.07042   0.07154   0.08562   0.09360
 Alpha virt. eigenvalues --    0.10914   0.12781   0.13575   0.14345   0.14867
 Alpha virt. eigenvalues --    0.15605   0.15998   0.16662   0.18011   0.18415

 Mulliken charges:
               1
     1  C    0.472342
     2  C    0.247078
     3  H   -0.194405
     4  Cl  -0.175422
     5  Cl  -0.208375
     6  Cl  -0.141218
 Sum of Mulliken charges =  -0.00000

 Dipole moment (field-independent basis, Debye):
    X=             -1.0641    Y=              0.2997    Z=              0.0000  Tot=              1.1055

 Test job not archived.
 1\1\GINC-SE226\SP\RHF\Aug-CC-pVDZ\C2H1Cl3\OHZDE\05-Apr-2025\0\\#t hf a
 ug-cc-pvdz iop(5/13=1,5/36=2,99/5=2) pseudo=read geom=check guess=(rea
 d,tcheck) scf=(maxcycle=1)\\title\\0,1\C,0,-1.03458,-0.395303,0.\C,0,0
 .,0.438157,0.\H,0,-2.045695,-0.022811,0.\Cl,0,-0.896263,-2.11395,0.\Cl
 ,0,-0.268366,2.154033,0.\Cl,0,1.650109,-0.053866,0.\\Version=ES64L-G16
 RevC.01\State=1-A'\HF=-1454.8807497\RMSD=5.296e-03\Dipole=-0.4186379,0
 .1179136,0.\Quadrupole=2.0146809,-0.8662167,-1.1484642,-0.8696993,0.,0
 .\PG=CS [SG(C2H1Cl3)]\\@

 Normal termination of Gaussian 16 at Sat Apr  5 23:15:56 2025.
