 Gaussian 16, Revision C.01,

 ----------------------------------------------------------------------
 #t hf aug-cc-pvdz symm=none int=(grid=ultrafine) guess=(read,tcheck) s
 table=(opt,rrhf)
 ----------------------------------------------------------------------
 -----
 title
 -----
 Symbolic Z-matrix:
 Charge =  0 Multiplicity = 1

 SCF Done:  E(RHF) =  -309.886114306     A.U. after   12 cycles
 Normal termination of Gaussian 16 at Sat Apr  5 23:15:26 2025.
 Gaussian 16:  ES64L-G16RevC.01  3-Jul-2019

 ----------------------------------------------------------------------
 #t hf aug-cc-pvdz iop(5/13=1,5/36=2,99/5=2) pseudo=read geom=check gue
 ss=(read,tcheck) scf=(maxcycle=1)
 ----------------------------------------------------------------------
 -----
 title
 -----
 Structure from the checkpoint file:  "tricyclo3-2-1-01-5octane.chk"
 Charge =  0 Multiplicity = 1

                         Standard orientation:
 ---------------------------------------------------------------------
 Center     Atomic      Atomic             Coordinates (Angstroms)
 Number     Number       Type             X           Y           Z
 ---------------------------------------------------------------------
      1          6           0       -0.091009    0.344069    0.762763
      2          6           0       -0.091009    0.344069   -0.762763
      3          6           0       -1.274798    0.863593    0.000000
      4          6           0        1.043254    1.383282    0.782434
      5          6           0       -0.091009   -1.088216    1.246819
      6          6           0        1.043254    1.383282   -0.782434
      7          6           0       -0.091009   -1.088216   -1.246819
      8          6           0       -0.542343   -1.905205   -0.000000
      9          1           0       -2.164538    0.249662   -0.000000
     10          1           0       -1.477867    1.927933    0.000000
     11          1           0        1.969402    0.987255    1.196949
     12          1           0        0.820737    2.329837    1.278331
     13          1           0       -0.731511   -1.283950    2.109647
     14          1           0        0.926511   -1.368063    1.532126
     15          1           0        0.820737    2.329837   -1.278331
     16          1           0        1.969402    0.987255   -1.196949
     17          1           0        0.926511   -1.368063   -1.532126
     18          1           0       -0.731511   -1.283950   -2.109647
     19          1           0       -1.627719   -2.012526   -0.000000
     20          1           0       -0.132150   -2.915184   -0.000000
 ---------------------------------------------------------------------

 SCF Done:  E(RHF) =  -309.977656313     A.U. after    2 cycles

 The electronic state is 1-A'.
 Alpha  occ. eigenvalues --  -11.23113 -11.23064 -11.23027 -11.22848 -11.22843
 Alpha  occ. eigenvalues --  -11.22718 -11.22491 -11.22444  -1.19346  -1.04260
 Alpha  occ. eigenvalues --   -0.96885  -0.95726  -0.84781  -0.83568  -0.76439
 Alpha  occ. eigenvalues --   -0.67228  -0.66997  -0.63439  -0.60687  -0.56997
 Alpha  occ. eigenvalues --   -0.56833  -0.54346  -0.53531  -0.50953  -0.47830
 Alpha  occ. eigenvalues --   -0.47220  -0.45452  -0.44485  -0.39549  -0.33594
 Alpha virt. eigenvalues --    0.03657   0.04348   0.04465   0.04673   0.06148
 Alpha virt. eigenvalues --    0.06203   0.06323   0.06846   0.07008   0.08888
 Alpha virt. eigenvalues --    0.08987   0.09083   0.11353   0.12214   0.12993

 Mulliken charges:
               1
     1  C   -1.143472
     2  C   -1.143472
     3  C    1.039332
     4  C    0.797094
     5  C    0.750866
     6  C    0.797094
     7  C    0.750866
     8  C    0.362669
     9  H   -0.395674
    10  H   -0.489676
    11  H   -0.177072
    12  H   -0.178269
    13  H   -0.054337
    14  H   -0.074290
    15  H   -0.178269
    16  H   -0.177072
    17  H   -0.074290
    18  H   -0.054337
    19  H   -0.174406
    20  H   -0.183286
 Sum of Mulliken charges =  -0.00000

 Dipole moment (field-independent basis, Debye):
    X=              0.2444    Y=             -0.3700    Z=              0.0000  Tot=              0.4434

 Test job not archived.
 1\1\GINC-SE151\SP\RHF\Aug-CC-pVDZ\C8H12\OHZDE\05-Apr-2025\0\\#t hf aug
 -cc-pvdz iop(5/13=1,5/36=2,99/5=2) pseudo=read geom=check guess=(read,
 tcheck) scf=(maxcycle=1)\\title\\0,1\C,0,-0.091009,0.344069,0.762763\C
 ,0,-0.091009,0.344069,-0.762763\C,0,-1.274798,0.863593,0.\C,0,1.043254
 ,1.383282,0.782434\C,0,-0.091009,-1.088216,1.246819\C,0,1.043254,1.383
 282,-0.782434\C,0,-0.091009,-1.088216,-1.246819\C,0,-0.542343,-1.90520
 5,0.\H,0,-2.164538,0.249662,0.\H,0,-1.477867,1.927933,0.\H,0,1.969402,
 0.987255,1.196949\H,0,0.820737,2.329837,1.278331\H,0,-0.731511,-1.2839

 Normal termination of Gaussian 16 at Sat Apr  5 23:16:04 2025.
