 Gaussian 16, Revision C.01,

 ----------------------------------------------------------------------
 #t hf aug-cc-pvdz symm=none int=(grid=ultrafine) guess=(read,tcheck) s
 table=(opt,rrhf)
 ----------------------------------------------------------------------
 -----
 title
 -----
 Symbolic Z-matrix:
 Charge =  0 Multiplicity = 1

 SCF Done:  E(RHF) =  -1515.80537792     A.U. after   11 cycles

 1\1\GINC-SE045\Stability\RHF\Aug-CC-pVDZ\C1Cl3F1\OHZDE\05-Apr-2025\0\\
 #t hf aug-cc-pvdz symm=none int=(grid=ultrafine) guess=(read,tcheck) s
 table=(opt,rrhf)\\title\\0,1\C,0,0.,0.,0.251893\F,0,0.,0.,1.591574\Cl,
 0,0.,1.691025,-0.3105\Cl,0,1.46447,-0.845512,-0.3105\Cl,0,-1.46447,-0.
 845512,-0.3105\\Version=ES64L-G16RevC.01\HF=-1515.8053779\RMSD=8.710e-
 09\Dipole=0.,-0.0000011,-0.1920318\Quadrupole=0.6630389,0.6630353,-1.3
 260741,0.,0.,0.0000006\PG=Unknown\\@
 The archive entry for this job was punched.

 Normal termination of Gaussian 16 at Sat Apr  5 23:14:22 2025.
 Gaussian 16:  ES64L-G16RevC.01  3-Jul-2019

 ----------------------------------------------------------------------
 #t hf aug-cc-pvdz iop(5/13=1,5/36=2,99/5=2) pseudo=read geom=check gue
 ss=(read,tcheck) scf=(maxcycle=1)
 ----------------------------------------------------------------------
 -----
 title
 -----
 Structure from the checkpoint file:  "trichlorofluoromethane.chk"
 Charge =  0 Multiplicity = 1

                         Standard orientation:
 ---------------------------------------------------------------------
 Center     Atomic      Atomic             Coordinates (Angstroms)
 Number     Number       Type             X           Y           Z
 ---------------------------------------------------------------------
      1          6           0       -0.251893   -0.000000    0.000000
      2          9           0       -1.591574   -0.000000    0.000000
      3         17           0        0.310500    1.691025   -0.000000
      4         17           0        0.310500   -0.845512    1.464470
      5         17           0        0.310500   -0.845512   -1.464470
 ---------------------------------------------------------------------

 SCF Done:  E(RHF) =  -1515.91086861     A.U. after    2 cycles

 The electronic state is 1-A'.
 Alpha  occ. eigenvalues -- -103.70710-103.70710-103.70708 -26.19396 -11.54236
 Alpha  occ. eigenvalues --  -10.74063 -10.74063 -10.74034  -8.39776  -8.39776
 Alpha  occ. eigenvalues --   -8.39765  -8.39417  -8.39416  -8.39416  -8.39415
 Alpha  occ. eigenvalues --   -8.39414  -8.39414  -1.74434  -1.27402  -1.18049
 Alpha  occ. eigenvalues --   -1.18049  -0.95296  -0.82168  -0.82168  -0.77113
 Alpha  occ. eigenvalues --   -0.63015  -0.63015  -0.54071  -0.52670  -0.52670
 Alpha  occ. eigenvalues --   -0.49409  -0.49409  -0.48056
 Alpha virt. eigenvalues --    0.05431   0.08107   0.08107   0.08255   0.11058
 Alpha virt. eigenvalues --    0.12339   0.12339   0.14259   0.14643   0.14643
 Alpha virt. eigenvalues --    0.18540   0.18590   0.18590   0.20313   0.20313

 Mulliken charges:
               1
     1  C   -0.195206
     2  F   -0.223304
     3  Cl   0.139503
     4  Cl   0.139503
     5  Cl   0.139503
 Sum of Mulliken charges =  -0.00000

 Dipole moment (field-independent basis, Debye):
    X=              0.7262    Y=             -0.0000    Z=              0.0000  Tot=              0.7262

 Test job not archived.
 1\1\GINC-SE045\SP\RHF\Aug-CC-pVDZ\C1Cl3F1\OHZDE\05-Apr-2025\0\\#t hf a
 ug-cc-pvdz iop(5/13=1,5/36=2,99/5=2) pseudo=read geom=check guess=(rea
 d,tcheck) scf=(maxcycle=1)\\title\\0,1\C,0,0.,0.,0.251893\F,0,0.,0.,1.
 591574\Cl,0,0.,1.691025,-0.3105\Cl,0,1.46447,-0.845512,-0.3105\Cl,0,-1
 .46447,-0.845512,-0.3105\\Version=ES64L-G16RevC.01\State=1-A'\HF=-1515
 .9108686\RMSD=3.827e-03\Dipole=0.,-0.0000011,-0.2857247\Quadrupole=0.7
 887126,0.788709,-1.5774216,0.,0.,0.0000008\PG=CS [SG(C1Cl1F1),X(Cl2)]\
 \@

 Normal termination of Gaussian 16 at Sat Apr  5 23:15:54 2025.
