 Gaussian 16, Revision C.01,

 ----------------------------------------------------------------------
 #t hf aug-cc-pvdz symm=none int=(grid=ultrafine) guess=(read,tcheck) s
 table=(opt,rrhf)
 ----------------------------------------------------------------------
 -----
 title
 -----
 Symbolic Z-matrix:
 Charge =  0 Multiplicity = 1

 SCF Done:  E(RHF) =  -449.542685537     A.U. after   13 cycles
 Normal termination of Gaussian 16 at Sat Apr  5 23:14:24 2025.
 Gaussian 16:  ES64L-G16RevC.01  3-Jul-2019

 ----------------------------------------------------------------------
 #t hf aug-cc-pvdz iop(5/13=1,5/36=2,99/5=2) pseudo=read geom=check gue
 ss=(read,tcheck) scf=(maxcycle=1)
 ----------------------------------------------------------------------
 -----
 title
 -----
 Structure from the checkpoint file:  "trifluoroacetaldehyde.chk"
 Charge =  0 Multiplicity = 1

                         Standard orientation:
 ---------------------------------------------------------------------
 Center     Atomic      Atomic             Coordinates (Angstroms)
 Number     Number       Type             X           Y           Z
 ---------------------------------------------------------------------
      1          6           0        0.015025    0.360286    0.000000
      2          6           0        0.501815   -1.106329    0.000000
      3          8           0       -0.245494   -2.035813    0.000000
      4          9           0       -1.307957    0.464386    0.000000
      5          9           0        0.501815    0.987853    1.088479
      6          9           0        0.501815    0.987853   -1.088479
      7          1           0        1.601854   -1.198064    0.000000
 ---------------------------------------------------------------------

 SCF Done:  E(RHF) =  -449.701723548     A.U. after    2 cycles

 The electronic state is 1-A'.
 Alpha  occ. eigenvalues --  -26.19181 -26.19171 -26.18957 -20.63621 -11.55288
 Alpha  occ. eigenvalues --  -11.40126  -1.78749  -1.71770  -1.71587  -1.42453
 Alpha  occ. eigenvalues --   -1.08074  -0.95241  -0.90633  -0.90508  -0.82827
 Alpha  occ. eigenvalues --   -0.79590  -0.79486  -0.75571  -0.75300  -0.74107
 Alpha  occ. eigenvalues --   -0.72081  -0.68793  -0.59659  -0.50158
 Alpha virt. eigenvalues --    0.03368   0.05796   0.07482   0.08552   0.10580
 Alpha virt. eigenvalues --    0.11505   0.11606   0.11732   0.15191   0.19997
 Alpha virt. eigenvalues --    0.21048   0.22607   0.24687   0.27007   0.27766

 Mulliken charges:
               1
     1  C    0.959252
     2  C    0.300850
     3  O   -0.341403
     4  F   -0.264479
     5  F   -0.301418
     6  F   -0.301418
     7  H   -0.051384
 Sum of Mulliken charges =  -0.00000

 Dipole moment (field-independent basis, Debye):
    X=              2.2237    Y=              0.0616    Z=              0.0000  Tot=              2.2245

 Test job not archived.
 1\1\GINC-SE171\SP\RHF\Aug-CC-pVDZ\C2H1F3O1\OHZDE\05-Apr-2025\0\\#t hf
 aug-cc-pvdz iop(5/13=1,5/36=2,99/5=2) pseudo=read geom=check guess=(re
 ad,tcheck) scf=(maxcycle=1)\\title\\0,1\C,0,0.015025,0.360286,0.\C,0,0
 .501815,-1.106329,0.\O,0,-0.245494,-2.035813,0.\F,0,-1.307957,0.464386
 ,0.\F,0,0.501815,0.987853,1.088479\F,0,0.501815,0.987853,-1.088479\H,0
 ,1.601854,-1.198064,0.\\Version=ES64L-G16RevC.01\State=1-A'\HF=-449.70
 17235\RMSD=6.652e-03\Dipole=0.8748587,0.0242242,0.\Quadrupole=1.955168
 9,-2.8318064,0.8766375,-2.5851482,0.,0.\PG=CS [SG(C2H1F1O1),X(F2)]\\@

 Normal termination of Gaussian 16 at Sat Apr  5 23:15:55 2025.
