 Gaussian 16, Revision C.01,

 ----------------------------------------------------------------------
 #t hf aug-cc-pvdz symm=none int=(grid=ultrafine) guess=(read,tcheck) s
 table=(opt,rrhf)
 ----------------------------------------------------------------------
 -----
 title
 -----
 Symbolic Z-matrix:
 Charge =  0 Multiplicity = 1

 SCF Done:  E(RHF) =  -411.704647489     A.U. after   11 cycles
 Normal termination of Gaussian 16 at Sat Apr  5 23:14:22 2025.
 Gaussian 16:  ES64L-G16RevC.01  3-Jul-2019

 ----------------------------------------------------------------------
 #t hf aug-cc-pvdz iop(5/13=1,5/36=2,99/5=2) pseudo=read geom=check gue
 ss=(read,tcheck) scf=(maxcycle=1)
 ----------------------------------------------------------------------
 -----
 title
 -----
 Structure from the checkpoint file:  "trifluoromethanol.chk"
 Charge =  0 Multiplicity = 1

                         Standard orientation:
 ---------------------------------------------------------------------
 Center     Atomic      Atomic             Coordinates (Angstroms)
 Number     Number       Type             X           Y           Z
 ---------------------------------------------------------------------
      1          6           0        0.001401    0.023882    0.000000
      2          8           0       -1.039480    0.879467    0.000000
      3          9           0        1.127698    0.728595    0.000000
      4          9           0        0.001401   -0.784388    1.081319
      5          9           0        0.001401   -0.784388   -1.081319
      6          1           0       -1.867070    0.382602    0.000000
 ---------------------------------------------------------------------

 SCF Done:  E(RHF) =  -411.855001733     A.U. after    2 cycles

 The electronic state is 1-A'.
 Alpha  occ. eigenvalues --  -26.18111 -26.17740 -26.17728 -20.65454 -11.59139
 Alpha  occ. eigenvalues --   -1.78171  -1.70968  -1.70276  -1.42936  -1.03203
 Alpha  occ. eigenvalues --   -0.91770  -0.90382  -0.88644  -0.79443  -0.78819
 Alpha  occ. eigenvalues --   -0.74905  -0.73963  -0.73448  -0.72980  -0.65744
 Alpha  occ. eigenvalues --   -0.60362
 Alpha virt. eigenvalues --    0.03032   0.09149   0.09250   0.09260   0.13039
 Alpha virt. eigenvalues --    0.17543   0.19404   0.21240   0.23163   0.23986
 Alpha virt. eigenvalues --    0.30235   0.30600   0.30991   0.33028   0.33500

 Mulliken charges:
               1
     1  C    1.068192
     2  O   -0.438373
     3  F   -0.228764
     4  F   -0.285857
     5  F   -0.285857
     6  H    0.170660
 Sum of Mulliken charges =  -0.00000

 Dipole moment (field-independent basis, Debye):
    X=             -2.2758    Y=             -0.2209    Z=              0.0000  Tot=              2.2865

 Test job not archived.
 1\1\GINC-SE013\SP\RHF\Aug-CC-pVDZ\C1H1F3O1\OHZDE\05-Apr-2025\0\\#t hf
 aug-cc-pvdz iop(5/13=1,5/36=2,99/5=2) pseudo=read geom=check guess=(re
 ad,tcheck) scf=(maxcycle=1)\\title\\0,1\C,0,0.001401,0.023882,0.\O,0,-
 1.03948,0.879467,0.\F,0,1.127698,0.728595,0.\F,0,0.001401,-0.784388,1.
 081319\F,0,0.001401,-0.784388,-1.081319\H,0,-1.86707,0.382602,0.\\Vers
 ion=ES64L-G16RevC.01\State=1-A'\HF=-411.8550017\RMSD=6.339e-03\Dipole=
 -0.8953633,-0.0869156,0.\Quadrupole=3.3633847,-1.9628012,-1.4005835,0.
 1200939,0.,0.\PG=CS [SG(C1H1F1O1),X(F2)]\\@

 Normal termination of Gaussian 16 at Sat Apr  5 23:15:55 2025.
