 Gaussian 16, Revision C.01,

 ----------------------------------------------------------------------
 #t hf aug-cc-pvdz symm=none int=(grid=ultrafine) guess=(read,tcheck) s
 table=(opt,rrhf)
 ----------------------------------------------------------------------
 -----
 title
 -----
 Symbolic Z-matrix:
 Charge =  0 Multiplicity = 1

 SCF Done:  E(RHF) =  -428.530096294     A.U. after   12 cycles
 Normal termination of Gaussian 16 at Sat Apr  5 23:14:23 2025.
 Gaussian 16:  ES64L-G16RevC.01  3-Jul-2019

 ----------------------------------------------------------------------
 #t hf aug-cc-pvdz iop(5/13=1,5/36=2,99/5=2) pseudo=read geom=check gue
 ss=(read,tcheck) scf=(maxcycle=1)
 ----------------------------------------------------------------------
 -----
 title
 -----
 Structure from the checkpoint file:  "trifluoroacetonitrile.chk"
 Charge =  0 Multiplicity = 1

                         Standard orientation:
 ---------------------------------------------------------------------
 Center     Atomic      Atomic             Coordinates (Angstroms)
 Number     Number       Type             X           Y           Z
 ---------------------------------------------------------------------
      1          6           0        0.000000   -0.320697    0.000000
      2          6           0        0.000000    1.160968    0.000000
      3          7           0        0.000000    2.307595    0.000000
      4          9           0        1.253146   -0.784992    0.000000
      5          9           0       -0.626573   -0.784992    1.085256
      6          9           0       -0.626573   -0.784992   -1.085256
 ---------------------------------------------------------------------

 SCF Done:  E(RHF) =  -428.681108052     A.U. after    2 cycles

 The electronic state is 1-A'.
 Alpha  occ. eigenvalues --  -26.21378 -26.21378 -26.21363 -15.70779 -11.60694
 Alpha  occ. eigenvalues --  -11.34250  -1.81386  -1.74086  -1.74086  -1.25423
 Alpha  occ. eigenvalues --   -1.10595  -0.96075  -0.93171  -0.93171  -0.81846
 Alpha  occ. eigenvalues --   -0.81846  -0.77528  -0.77528  -0.76250  -0.73621
 Alpha  occ. eigenvalues --   -0.60381  -0.53344  -0.53344
 Alpha virt. eigenvalues --    0.06682   0.07189   0.08445   0.08445   0.11320
 Alpha virt. eigenvalues --    0.11320   0.12136   0.13187   0.13187   0.19613
 Alpha virt. eigenvalues --    0.22390   0.22390   0.23525   0.24265   0.24265

 Mulliken charges:
               1
     1  C    1.357788
     2  C   -0.535213
     3  N   -0.029435
     4  F   -0.264380
     5  F   -0.264380
     6  F   -0.264380
 Sum of Mulliken charges =  -0.00000

 Dipole moment (field-independent basis, Debye):
    X=             -0.0000    Y=             -0.9106    Z=             -0.0000  Tot=              0.9106

 Test job not archived.
 1\1\GINC-SE009\SP\RHF\Aug-CC-pVDZ\C2F3N1\OHZDE\05-Apr-2025\0\\#t hf au
 g-cc-pvdz iop(5/13=1,5/36=2,99/5=2) pseudo=read geom=check guess=(read
 ,tcheck) scf=(maxcycle=1)\\title\\0,1\C,0,0.,0.,-0.320697\C,0,0.,0.,1.
 160968\N,0,0.,0.,2.307595\F,0,0.,1.253146,-0.784992\F,0,1.085256,-0.62
 6573,-0.784992\F,0,-1.085256,-0.626573,-0.784992\\Version=ES64L-G16Rev
 C.01\State=1-A'\HF=-428.6811081\RMSD=7.238e-03\Dipole=0.,-0.0000002,-0
 .3582707\Quadrupole=1.3941681,1.3941667,-2.7883348,0.,0.,0.0000004\PG=
 CS [SG(C2F1N1),X(F2)]\\@

 Normal termination of Gaussian 16 at Sat Apr  5 23:15:56 2025.
