 Gaussian 16, Revision C.01,

 ----------------------------------------------------------------------
 #t hf aug-cc-pvdz symm=none int=(grid=ultrafine) guess=(read,tcheck) s
 table=(opt,rrhf)
 ----------------------------------------------------------------------
 -----
 title
 -----
 Symbolic Z-matrix:
 Charge =  0 Multiplicity = 1

 SCF Done:  E(RHF) =  -566.388597755     A.U. after   14 cycles
 Normal termination of Gaussian 16 at Sat Apr  5 23:15:17 2025.
 Gaussian 16:  ES64L-G16RevC.01  3-Jul-2019

 ----------------------------------------------------------------------
 #t hf aug-cc-pvdz iop(5/13=1,5/36=2,99/5=2) pseudo=read geom=check gue
 ss=(read,tcheck) scf=(maxcycle=1)
 ----------------------------------------------------------------------
 -----
 title
 -----
 Structure from the checkpoint file:  "trifluoromethylbenzene.chk"
 Charge =  0 Multiplicity = 1

                         Standard orientation:
 ---------------------------------------------------------------------
 Center     Atomic      Atomic             Coordinates (Angstroms)
 Number     Number       Type             X           Y           Z
 ---------------------------------------------------------------------
      1          6           0       -2.830605   -0.004894    0.011148
      2          6           0       -2.141181    1.201669    0.001644
      3          6           0       -2.130097   -1.206446    0.001574
      4          6           0       -0.751864    1.211198   -0.016805
      5          6           0       -0.742127   -1.203364   -0.017162
      6          6           0       -0.054399    0.007588   -0.027137
      7          6           0        1.449778    0.003678   -0.003578
      8          9           0        1.974663    1.157149   -0.464769
      9          9           0        1.932309   -0.167372    1.251571
     10          9           0        1.967606   -0.995256   -0.750684
     11          1           0       -3.912035   -0.009776    0.023540
     12          1           0       -2.683315    2.137140    0.005948
     13          1           0       -2.664442   -2.146382    0.005924
     14          1           0       -0.213065    2.147199   -0.028956
     15          1           0       -0.195372   -2.135445   -0.029626
 ---------------------------------------------------------------------

 SCF Done:  E(RHF) =  -566.577107339     A.U. after    2 cycles

 The electronic state is 1-A.
 Alpha  occ. eigenvalues --  -26.16288 -26.16108 -26.15656 -11.52663 -11.27918
 Alpha  occ. eigenvalues --  -11.27079 -11.27065 -11.26759 -11.26400 -11.26374
 Alpha  occ. eigenvalues --   -1.75515  -1.68667  -1.68108  -1.17707  -1.08035
 Alpha  occ. eigenvalues --   -1.03641  -0.99910  -0.89183  -0.88355  -0.87150
 Alpha  occ. eigenvalues --   -0.84488  -0.80998  -0.76744  -0.76682  -0.72414
 Alpha  occ. eigenvalues --   -0.72082  -0.72004  -0.71067  -0.66519  -0.65155
 Alpha  occ. eigenvalues --   -0.61540  -0.61000  -0.53238  -0.53037  -0.52291
 Alpha  occ. eigenvalues --   -0.37004  -0.36257
 Alpha virt. eigenvalues --    0.02920   0.03778   0.04529   0.05940   0.06331
 Alpha virt. eigenvalues --    0.08025   0.09155   0.09176   0.09484   0.11385
 Alpha virt. eigenvalues --    0.12257   0.12757   0.13531   0.13826   0.14046

 Mulliken charges:
               1
     1  C    0.305850
     2  C    0.650304
     3  C    0.647493
     4  C    0.014335
     5  C   -0.213828
     6  C    1.169503
     7  C    0.760344
     8  F   -0.320080
     9  F   -0.338632
    10  F   -0.333982
    11  H   -0.437751
    12  H   -0.428162
    13  H   -0.427426
    14  H   -0.522813
    15  H   -0.525154
 Sum of Mulliken charges =  -0.00000

 Dipole moment (field-independent basis, Debye):
    X=             -3.4897    Y=              0.0280    Z=             -0.0736  Tot=              3.4906

 Test job not archived.
 1\1\GINC-SE203\SP\RHF\Aug-CC-pVDZ\C7H5F3\OHZDE\05-Apr-2025\0\\#t hf au
 g-cc-pvdz iop(5/13=1,5/36=2,99/5=2) pseudo=read geom=check guess=(read
 ,tcheck) scf=(maxcycle=1)\\title\\0,1\C,0,-2.830605,-0.004894,0.011148
 \C,0,-2.141181,1.201669,0.001644\C,0,-2.130097,-1.206446,0.001574\C,0,
 -0.751864,1.211198,-0.016805\C,0,-0.742127,-1.203364,-0.017162\C,0,-0.
 054399,0.007588,-0.027137\C,0,1.449778,0.003678,-0.003578\F,0,1.974663
 ,1.157149,-0.464769\F,0,1.932309,-0.167372,1.251571\F,0,1.967606,-0.99
 5256,-0.750684\H,0,-3.912035,-0.009776,0.02354\H,0,-2.683315,2.13714,0

 Normal termination of Gaussian 16 at Sat Apr  5 23:16:06 2025.
