 Gaussian 16, Revision C.01,

 ----------------------------------------------------------------------
 #t hf aug-cc-pvdz symm=none int=(grid=ultrafine) guess=(read,tcheck) s
 table=(opt,rrhf)
 ----------------------------------------------------------------------
 -----
 title
 -----
 Symbolic Z-matrix:
 Charge =  0 Multiplicity = 1

 SCF Done:  E(RHF) =  -524.447135685     A.U. after   13 cycles
 Normal termination of Gaussian 16 at Sat Apr  5 23:14:26 2025.
 Gaussian 16:  ES64L-G16RevC.01  3-Jul-2019

 ----------------------------------------------------------------------
 #t hf aug-cc-pvdz iop(5/13=1,5/36=2,99/5=2) pseudo=read geom=check gue
 ss=(read,tcheck) scf=(maxcycle=1)
 ----------------------------------------------------------------------
 -----
 title
 -----
 Structure from the checkpoint file:  "trifluoroacetic_acid.chk"
 Charge =  0 Multiplicity = 1

                         Standard orientation:
 ---------------------------------------------------------------------
 Center     Atomic      Atomic             Coordinates (Angstroms)
 Number     Number       Type             X           Y           Z
 ---------------------------------------------------------------------
      1          6           0        0.085896    0.594059    0.000000
      2          6           0       -0.294386   -0.910548    0.000000
      3          8           0        0.812941   -1.659252    0.000000
      4          8           0       -1.420191   -1.307503    0.000000
      5          9           0       -1.007987    1.348927    0.000000
      6          9           0        0.812941    0.893583    1.087792
      7          9           0        0.812941    0.893583   -1.087792
      8          1           0        0.547878   -2.591865    0.000000
 ---------------------------------------------------------------------

 SCF Done:  E(RHF) =  -524.630445798     A.U. after    2 cycles

 The electronic state is 1-A'.
 Alpha  occ. eigenvalues --  -26.19051 -26.19042 -26.18818 -20.67179 -20.61952
 Alpha  occ. eigenvalues --  -11.56033 -11.45576  -1.78812  -1.71653  -1.71581
 Alpha  occ. eigenvalues --   -1.47734  -1.38439  -1.08329  -0.96000  -0.90665
 Alpha  occ. eigenvalues --   -0.90601  -0.85392  -0.79618  -0.79420  -0.76371
 Alpha  occ. eigenvalues --   -0.75271  -0.75051  -0.73925  -0.72786  -0.68662
 Alpha  occ. eigenvalues --   -0.64350  -0.54945  -0.52830
 Alpha virt. eigenvalues --    0.02837   0.07639   0.08574   0.08955   0.10320
 Alpha virt. eigenvalues --    0.11132   0.11825   0.12180   0.13254   0.18526
 Alpha virt. eigenvalues --    0.19478   0.20179   0.21393   0.25072   0.26797

 Mulliken charges:
               1
     1  C    1.060446
     2  C    0.351395
     3  O   -0.432742
     4  O   -0.360350
     5  F   -0.254002
     6  F   -0.281079
     7  F   -0.281079
     8  H    0.197412
 Sum of Mulliken charges =   0.00000

 Dipole moment (field-independent basis, Debye):
    X=              1.1830    Y=             -2.1759    Z=              0.0000  Tot=              2.4767

 Test job not archived.
 1\1\GINC-SE173\SP\RHF\Aug-CC-pVDZ\C2H1F3O2\OHZDE\05-Apr-2025\0\\#t hf
 aug-cc-pvdz iop(5/13=1,5/36=2,99/5=2) pseudo=read geom=check guess=(re
 ad,tcheck) scf=(maxcycle=1)\\title\\0,1\C,0,0.085896,0.594059,0.\C,0,-
 0.294386,-0.910548,0.\O,0,0.812941,-1.659252,0.\O,0,-1.420191,-1.30750
 3,0.\F,0,-1.007987,1.348927,0.\F,0,0.812941,0.893583,1.087792\F,0,0.81
 2941,0.893583,-1.087792\H,0,0.547878,-2.591865,0.\\Version=ES64L-G16Re
 vC.01\State=1-A'\HF=-524.6304458\RMSD=6.165e-03\Dipole=0.465445,-0.856
 0674,0.\Quadrupole=-4.4210406,4.3999483,0.0210923,-2.2508584,0.,0.\PG=

 Normal termination of Gaussian 16 at Sat Apr  5 23:15:56 2025.
