 Gaussian 16, Revision C.01,

 ----------------------------------------------------------------------
 #t hf aug-cc-pvdz symm=none int=(grid=ultrafine) guess=(read,tcheck) s
 table=(opt,rrhf)
 ----------------------------------------------------------------------
 -----
 title
 -----
 Symbolic Z-matrix:
 Charge =  0 Multiplicity = 1

 SCF Done:  E(RHF) =  -510.414028677     A.U. after   14 cycles
 Normal termination of Gaussian 16 at Sat Apr  5 23:14:22 2025.
 Gaussian 16:  ES64L-G16RevC.01  3-Jul-2019

 ----------------------------------------------------------------------
 #t hf aug-cc-pvdz iop(5/13=1,5/36=2,99/5=2) pseudo=read geom=check gue
 ss=(read,tcheck) scf=(maxcycle=1)
 ----------------------------------------------------------------------
 -----
 title
 -----
 Structure from the checkpoint file:  "trifluoromethylhypofluorite.chk"
 Charge =  0 Multiplicity = 1

                         Standard orientation:
 ---------------------------------------------------------------------
 Center     Atomic      Atomic             Coordinates (Angstroms)
 Number     Number       Type             X           Y           Z
 ---------------------------------------------------------------------
      1          6           0        0.328492    0.194175    0.000000
      2          8           0       -1.058695    0.337244    0.000000
      3          9           0        0.765646    1.447109    0.000000
      4          9           0        0.765646   -0.443615    1.077970
      5          9           0        0.765646   -0.443615   -1.077970
      6          9           0       -1.574869   -0.989103    0.000000
 ---------------------------------------------------------------------

 SCF Done:  E(RHF) =  -510.600448853     A.U. after    2 cycles

 The electronic state is 1-A'.
 Alpha  occ. eigenvalues --  -26.22517 -26.21405 -26.20775 -26.20764 -20.76500
 Alpha  occ. eigenvalues --  -11.62322  -1.81812  -1.74452  -1.73783  -1.72923
 Alpha  occ. eigenvalues --   -1.39949  -1.05685  -0.94188  -0.94062  -0.92437
 Alpha  occ. eigenvalues --   -0.83718  -0.82737  -0.80393  -0.80079  -0.77420
 Alpha  occ. eigenvalues --   -0.76987  -0.75918  -0.75776  -0.68195  -0.63049
 Alpha virt. eigenvalues --    0.06347   0.08121   0.08873   0.08952   0.10367
 Alpha virt. eigenvalues --    0.19432   0.19610   0.21912   0.22130   0.22850
 Alpha virt. eigenvalues --    0.28983   0.29957   0.30297   0.31180   0.32385

 Mulliken charges:
               1
     1  C    1.132608
     2  O   -0.170660
     3  F   -0.218337
     4  F   -0.232993
     5  F   -0.232993
     6  F   -0.277624
 Sum of Mulliken charges =  -0.00000

 Dipole moment (field-independent basis, Debye):
    X=              0.2646    Y=              0.4836    Z=              0.0000  Tot=              0.5512

 Test job not archived.
 1\1\GINC-SE202\SP\RHF\Aug-CC-pVDZ\C1F4O1\OHZDE\05-Apr-2025\0\\#t hf au
 g-cc-pvdz iop(5/13=1,5/36=2,99/5=2) pseudo=read geom=check guess=(read
 ,tcheck) scf=(maxcycle=1)\\title\\0,1\C,0,0.328492,0.194175,0.\O,0,-1.
 058695,0.337244,0.\F,0,0.765646,1.447109,0.\F,0,0.765646,-0.443615,1.0
 7797\F,0,0.765646,-0.443615,-1.07797\F,0,-1.574869,-0.989103,0.\\Versi
 on=ES64L-G16RevC.01\State=1-A'\HF=-510.6004489\RMSD=6.389e-03\Dipole=0
 .1040978,0.1902531,0.\Quadrupole=-0.1870083,0.0745997,0.1124086,-0.324
 9902,0.,0.\PG=CS [SG(C1F2O1),X(F2)]\\@

 Normal termination of Gaussian 16 at Sat Apr  5 23:15:56 2025.
