 Gaussian 16, Revision C.01,

 ----------------------------------------------------------------------
 #t hf aug-cc-pvdz symm=none int=(grid=ultrafine) guess=(read,tcheck) s
 table=(opt,rrhf)
 ----------------------------------------------------------------------
 -----
 title
 -----
 Symbolic Z-matrix:
 Charge =  0 Multiplicity = 1

 SCF Done:  E(RHF) =  -908.470910580     A.U. after   13 cycles
 Normal termination of Gaussian 16 at Sat Apr  5 23:14:25 2025.
 Gaussian 16:  ES64L-G16RevC.01  3-Jul-2019

 ----------------------------------------------------------------------
 #t hf aug-cc-pvdz iop(5/13=1,5/36=2,99/5=2) pseudo=read geom=check gue
 ss=(read,tcheck) scf=(maxcycle=1)
 ----------------------------------------------------------------------
 -----
 title
 -----
 Structure from the checkpoint file:  "trifluoroacetylchloride.chk"
 Charge =  0 Multiplicity = 1

                         Standard orientation:
 ---------------------------------------------------------------------
 Center     Atomic      Atomic             Coordinates (Angstroms)
 Number     Number       Type             X           Y           Z
 ---------------------------------------------------------------------
      1          6           0        0.542207   -0.688625    0.000000
      2          6           0        0.081178    0.798349    0.000000
      3          8           0        0.821365    1.714338    0.000000
      4          9           0        1.870099   -0.749751    0.000000
      5          9           0        0.081178   -1.316809    1.087399
      6          9           0        0.081178   -1.316809   -1.087399
      7         17           0       -1.682548    0.945722    0.000000
 ---------------------------------------------------------------------

 SCF Done:  E(RHF) =  -908.648463360     A.U. after    2 cycles

 The electronic state is 1-A'.
 Alpha  occ. eigenvalues -- -103.71498 -26.20413 -26.20403 -26.20138 -20.65925
 Alpha  occ. eigenvalues --  -11.57708 -11.46739 -10.74830  -8.40545  -8.40220
 Alpha  occ. eigenvalues --   -8.40209  -1.80256  -1.73095  -1.73017  -1.46497
 Alpha  occ. eigenvalues --   -1.21604  -1.08896  -0.95495  -0.92064  -0.91970
 Alpha  occ. eigenvalues --   -0.81483  -0.80895  -0.80684  -0.76656  -0.76627
 Alpha  occ. eigenvalues --   -0.75260  -0.71859  -0.71501  -0.64876  -0.52362
 Alpha  occ. eigenvalues --   -0.51908  -0.51641
 Alpha virt. eigenvalues --    0.05771   0.06386   0.07554   0.08424   0.09518
 Alpha virt. eigenvalues --    0.10575   0.12138   0.12423   0.12880   0.15234
 Alpha virt. eigenvalues --    0.16663   0.18542   0.20062   0.24445   0.25072

 Mulliken charges:
               1
     1  C    1.162776
     2  C   -0.112603
     3  O   -0.271673
     4  F   -0.244942
     5  F   -0.256814
     6  F   -0.256814
     7  Cl  -0.019930
 Sum of Mulliken charges =  -0.00000

 Dipole moment (field-independent basis, Debye):
    X=             -1.0355    Y=             -0.3216    Z=              0.0000  Tot=              1.0843

 Test job not archived.
 1\1\GINC-SE010\SP\RHF\Aug-CC-pVDZ\C2Cl1F3O1\OHZDE\05-Apr-2025\0\\#t hf
  aug-cc-pvdz iop(5/13=1,5/36=2,99/5=2) pseudo=read geom=check guess=(r
 ead,tcheck) scf=(maxcycle=1)\\title\\0,1\C,0,0.542207,-0.688625,0.\C,0
 ,0.081178,0.798349,0.\O,0,0.821365,1.714338,0.\F,0,1.870099,-0.749751,
 0.\F,0,0.081178,-1.316809,1.087399\F,0,0.081178,-1.316809,-1.087399\Cl
 ,0,-1.682548,0.945722,0.\\Version=ES64L-G16RevC.01\State=1-A'\HF=-908.
 6484634\RMSD=6.009e-03\Dipole=-0.4074153,-0.1265405,0.\Quadrupole=0.52
 95133,-1.8701641,1.3406508,-1.3968625,0.,0.\PG=CS [SG(C2Cl1F1O1),X(F2)

 Normal termination of Gaussian 16 at Sat Apr  5 23:15:55 2025.
