 Gaussian 16, Revision C.01,

 ----------------------------------------------------------------------
 #t hf aug-cc-pvdz symm=none int=(grid=ultrafine) guess=(read,tcheck) s
 table=(opt,rrhf)
 ----------------------------------------------------------------------
 -----
 title
 -----
 Symbolic Z-matrix:
 Charge =  0 Multiplicity = 1

 SCF Done:  E(RHF) =  -611.467292641     A.U. after   15 cycles
 Normal termination of Gaussian 16 at Sat Apr  5 23:20:34 2025.
 Gaussian 16:  ES64L-G16RevC.01  3-Jul-2019

 ----------------------------------------------------------------------
 #t hf aug-cc-pvdz iop(5/13=1,5/36=2,99/5=2) pseudo=read geom=check gue
 ss=(read,tcheck) scf=(maxcycle=1)
 ----------------------------------------------------------------------
 -----
 title
 -----
 Structure from the checkpoint file:  "trimethoxymethylbenzene.chk"
 Charge =  0 Multiplicity = 1

                         Standard orientation:
 ---------------------------------------------------------------------
 Center     Atomic      Atomic             Coordinates (Angstroms)
 Number     Number       Type             X           Y           Z
 ---------------------------------------------------------------------
      1          6           0       -3.388472   -0.000044    0.286846
      2          6           0       -2.807439    0.000148   -0.978192
      3          6           0       -2.578343   -0.000206    1.414731
      4          6           0       -1.425809    0.000177   -1.109541
      5          6           0       -1.192222   -0.000179    1.283865
      6          6           0       -0.608039    0.000014    0.021203
      7          6           0        1.023124    2.379898   -0.470319
      8          6           0        1.023043   -2.379763   -0.470812
      9          6           0        2.948244   -0.000221    1.058956
     10          6           0        0.905320    0.000039   -0.194792
     11          8           0        1.326351    1.086368   -0.980293
     12          8           0        1.326380   -1.086139   -0.980478
     13          8           0        1.520552   -0.000056    1.068131
     14          1           0       -4.465338   -0.000067    0.390194
     15          1           0       -3.431913    0.000275   -1.861615
     16          1           0       -3.022627   -0.000356    2.401202
     17          1           0       -0.970398    0.000327   -2.090355
     18          1           0       -0.562616   -0.000306    2.160548
     19          1           0        1.487995    3.084722   -1.155242
     20          1           0        1.431223    2.525679    0.531882
     21          1           0       -0.053609    2.559742   -0.444154
     22          1           0        1.430937   -2.525742    0.531445
     23          1           0        1.488048   -3.084462   -1.155774
     24          1           0       -0.053696   -2.559606   -0.444897
     25          1           0        3.344275    0.885053    0.560867
     26          1           0        3.344088   -0.886340    0.562212
     27          1           0        3.250946    0.000524    2.103146
 ---------------------------------------------------------------------

 SCF Done:  E(RHF) =  -611.657963355     A.U. after    2 cycles

 The electronic state is 1-A.
 Alpha  occ. eigenvalues --  -20.58141 -20.57662 -20.57659 -11.40755 -11.28180
 Alpha  occ. eigenvalues --  -11.27951 -11.27950 -11.24746 -11.24629 -11.24450
 Alpha  occ. eigenvalues --  -11.24404 -11.24268 -11.24252  -1.41197  -1.31141
 Alpha  occ. eigenvalues --   -1.31065  -1.14756  -1.03706  -1.01187  -0.98379
 Alpha  occ. eigenvalues --   -0.94473  -0.91053  -0.85462  -0.82897  -0.78749
 Alpha  occ. eigenvalues --   -0.73605  -0.72083  -0.71266  -0.67709  -0.65442
 Alpha  occ. eigenvalues --   -0.63665  -0.62690  -0.62023  -0.60822  -0.59623
 Alpha  occ. eigenvalues --   -0.58972  -0.57514  -0.56983  -0.54378  -0.52028
 Alpha  occ. eigenvalues --   -0.51768  -0.50568  -0.49856  -0.47446  -0.46702
 Alpha  occ. eigenvalues --   -0.46183  -0.45010  -0.34253  -0.34059
 Alpha virt. eigenvalues --    0.03196   0.03804   0.04222   0.04691   0.05289
 Alpha virt. eigenvalues --    0.05438   0.06171   0.06429   0.06499   0.07271
 Alpha virt. eigenvalues --    0.07867   0.08620   0.08909   0.09998   0.10382

 Mulliken charges:
               1
     1  C    0.951456
     2  C    0.511293
     3  C    0.235060
     4  C   -0.236728
     5  C    0.450608
     6  C    1.224037
     7  C    0.847822
     8  C    0.847806
     9  C    0.751357
    10  C    0.682616
    11  O   -0.702184
    12  O   -0.702042
    13  O   -0.713488
    14  H   -0.479109
    15  H   -0.479247
    16  H   -0.482844
    17  H   -0.663715
    18  H   -0.744768
    19  H   -0.290339
    20  H   -0.111454
    21  H   -0.084241
    22  H   -0.111547
    23  H   -0.290356
    24  H   -0.084255
    25  H   -0.042310
    26  H   -0.042404
    27  H   -0.241024
 Sum of Mulliken charges =  -0.00000

 Dipole moment (field-independent basis, Debye):
    X=             -0.4896    Y=             -0.0003    Z=              1.3799  Tot=              1.4642

 Test job not archived.
 1\1\GINC-SE202\SP\RHF\Aug-CC-pVDZ\C10H14O3\OHZDE\05-Apr-2025\0\\#t hf
 aug-cc-pvdz iop(5/13=1,5/36=2,99/5=2) pseudo=read geom=check guess=(re
 ad,tcheck) scf=(maxcycle=1)\\title\\0,1\C,0,-3.388472,-0.000044,0.2868
 46\C,0,-2.807439,0.000148,-0.978192\C,0,-2.578343,-0.000206,1.414731\C
 ,0,-1.425809,0.000177,-1.109541\C,0,-1.192222,-0.000179,1.283865\C,0,-
 0.608039,0.000014,0.021203\C,0,1.023124,2.379898,-0.470319\C,0,1.02304
 3,-2.379763,-0.470812\C,0,2.948244,-0.000221,1.058956\C,0,0.90532,0.00
 0039,-0.194792\O,0,1.326351,1.086368,-0.980293\O,0,1.32638,-1.086139,-

 Normal termination of Gaussian 16 at Sat Apr  5 23:21:07 2025.
