 Gaussian 16, Revision C.01,

 ----------------------------------------------------------------------
 #t hf aug-cc-pvdz symm=none int=(grid=ultrafine) guess=(read,tcheck) s
 table=(opt,rrhf)
 ----------------------------------------------------------------------
 -----
 title
 -----
 Symbolic Z-matrix:
 Charge =  0 Multiplicity = 1

 SCF Done:  E(RHF) =  -381.899539883     A.U. after   12 cycles

 1\1\GINC-SE046\Stability\RHF\Aug-CC-pVDZ\C4H10O3\OHZDE\05-Apr-2025\0\\
 #t hf aug-cc-pvdz symm=none int=(grid=ultrafine) guess=(read,tcheck) s
 table=(opt,rrhf)\\title\\0,1\C,0,0.000002,-0.367307,0.256085\O,0,-0.00
 0002,0.965131,0.702169\C,0,-0.000007,1.95647,-0.327711\O,0,-1.098087,-
 0.677695,-0.536994\C,0,-2.334659,-0.671033,0.163443\O,0,1.098092,-0.67
 7688,-0.536995\C,0,2.334663,-0.671026,0.163443\H,0,0.000003,-0.955286,
 1.185152\H,0,-0.000019,2.916553,0.181998\H,0,0.887101,1.876333,-0.9574
 16\H,0,-0.887109,1.876316,-0.957423\H,0,-2.319311,-1.383477,0.994703\H

 Normal termination of Gaussian 16 at Sat Apr  5 23:16:33 2025.
 Gaussian 16:  ES64L-G16RevC.01  3-Jul-2019

 ----------------------------------------------------------------------
 #t hf aug-cc-pvdz iop(5/13=1,5/36=2,99/5=2) pseudo=read geom=check gue
 ss=(read,tcheck) scf=(maxcycle=1)
 ----------------------------------------------------------------------
 -----
 title
 -----
 Structure from the checkpoint file:  "trimethylorthoformate.chk"
 Charge =  0 Multiplicity = 1

                         Standard orientation:
 ---------------------------------------------------------------------
 Center     Atomic      Atomic             Coordinates (Angstroms)
 Number     Number       Type             X           Y           Z
 ---------------------------------------------------------------------
      1          6           0        0.000002   -0.367307    0.256085
      2          8           0       -0.000002    0.965131    0.702169
      3          6           0       -0.000007    1.956470   -0.327711
      4          8           0       -1.098087   -0.677695   -0.536994
      5          6           0       -2.334659   -0.671033    0.163443
      6          8           0        1.098092   -0.677688   -0.536995
      7          6           0        2.334663   -0.671026    0.163443
      8          1           0        0.000003   -0.955286    1.185152
      9          1           0       -0.000019    2.916553    0.181998
     10          1           0        0.887101    1.876333   -0.957416
     11          1           0       -0.887109    1.876316   -0.957423
     12          1           0       -2.319311   -1.383477    0.994703
     13          1           0       -2.574558    0.320771    0.552376
     14          1           0       -3.094725   -0.974563   -0.551733
     15          1           0        2.574558    0.320777    0.552383
     16          1           0        2.319318   -1.383476    0.994698
     17          1           0        3.094731   -0.974549   -0.551734
 ---------------------------------------------------------------------

 SCF Done:  E(RHF) =  -382.027467893     A.U. after    2 cycles

 The electronic state is 1-A.
 Alpha  occ. eigenvalues --  -20.57995 -20.57993 -20.57793 -11.39633 -11.28679
 Alpha  occ. eigenvalues --  -11.28679 -11.27919  -1.41164  -1.31874  -1.30997
 Alpha  occ. eigenvalues --   -0.99590  -0.94730  -0.91693  -0.82641  -0.73240
 Alpha  occ. eigenvalues --   -0.72017  -0.71163  -0.65076  -0.62572  -0.61255
 Alpha  occ. eigenvalues --   -0.60085  -0.58364  -0.56215  -0.53858  -0.52455
 Alpha  occ. eigenvalues --   -0.48220  -0.46715  -0.46163  -0.46005
 Alpha virt. eigenvalues --    0.03487   0.04456   0.04639   0.05204   0.06349
 Alpha virt. eigenvalues --    0.06408   0.06521   0.07662   0.08586   0.09563
 Alpha virt. eigenvalues --    0.11412   0.13128   0.13867   0.14863   0.15282

 Mulliken charges:
               1
     1  C    1.382258
     2  O   -0.703956
     3  C    0.732483
     4  O   -0.618131
     5  C    0.698097
     6  O   -0.618129
     7  C    0.698095
     8  H   -0.489288
     9  H   -0.219097
    10  H   -0.075147
    11  H   -0.075145
    12  H   -0.042105
    13  H   -0.055640
    14  H   -0.258276
    15  H   -0.055637
    16  H   -0.042106
    17  H   -0.258277
 Sum of Mulliken charges =  -0.00000

 Dipole moment (field-independent basis, Debye):
    X=             -0.0000    Y=              0.4501    Z=              1.2939  Tot=              1.3700

 Test job not archived.
 1\1\GINC-SE046\SP\RHF\Aug-CC-pVDZ\C4H10O3\OHZDE\05-Apr-2025\0\\#t hf a
 ug-cc-pvdz iop(5/13=1,5/36=2,99/5=2) pseudo=read geom=check guess=(rea
 d,tcheck) scf=(maxcycle=1)\\title\\0,1\C,0,0.000002,-0.367307,0.256085
 \O,0,-0.000002,0.965131,0.702169\C,0,-0.000007,1.95647,-0.327711\O,0,-
 1.098087,-0.677695,-0.536994\C,0,-2.334659,-0.671033,0.163443\O,0,1.09
 8092,-0.677688,-0.536995\C,0,2.334663,-0.671026,0.163443\H,0,0.000003,
 -0.955286,1.185152\H,0,-0.000019,2.916553,0.181998\H,0,0.887101,1.8763
 33,-0.957416\H,0,-0.887109,1.876316,-0.957423\H,0,-2.319311,-1.383477,

 Normal termination of Gaussian 16 at Sat Apr  5 23:16:39 2025.
