 Gaussian 16, Revision C.01,

 ----------------------------------------------------------------------
 #t hf aug-cc-pvdz symm=none int=(grid=ultrafine) guess=(read,tcheck) s
 table=(opt,rrhf)
 ----------------------------------------------------------------------
 -----
 title
 -----
 Symbolic Z-matrix:
 Charge =  0 Multiplicity = 1

 SCF Done:  E(RHF) =  -264.609222603     A.U. after   14 cycles
 Normal termination of Gaussian 16 at Sat Apr  5 23:16:03 2025.
 Gaussian 16:  ES64L-G16RevC.01  3-Jul-2019

 ----------------------------------------------------------------------
 #t hf aug-cc-pvdz iop(5/13=1,5/36=2,99/5=2) pseudo=read geom=check gue
 ss=(read,tcheck) scf=(maxcycle=1)
 ----------------------------------------------------------------------
 -----
 title
 -----
 Structure from the checkpoint file:  "trioxidanylmethane.chk"
 Charge =  0 Multiplicity = 1

                         Standard orientation:
 ---------------------------------------------------------------------
 Center     Atomic      Atomic             Coordinates (Angstroms)
 Number     Number       Type             X           Y           Z
 ---------------------------------------------------------------------
      1          8           0        0.614839   -0.531311    0.412981
      2          8           0       -0.558693   -0.562512   -0.398497
      3          8           0        1.453969    0.529309   -0.061717
      4          6           0       -1.474009    0.413749    0.097467
      5          1           0        1.911049    0.100315   -0.801444
      6          1           0       -1.737810    0.202807    1.133973
      7          1           0       -2.351255    0.313601   -0.540435
      8          1           0       -1.058850    1.416901    0.000969
 ---------------------------------------------------------------------

 SCF Done:  E(RHF) =  -264.696960263     A.U. after    2 cycles

 The electronic state is 1-A.
 Alpha  occ. eigenvalues --  -20.70765 -20.65604 -20.65310 -11.29717  -1.48917
 Alpha  occ. eigenvalues --   -1.33569  -1.14075  -0.92967  -0.76105  -0.71808
 Alpha  occ. eigenvalues --   -0.71097  -0.64816  -0.61127  -0.57794  -0.52186
 Alpha  occ. eigenvalues --   -0.51188  -0.48810
 Alpha virt. eigenvalues --    0.03653   0.04849   0.05905   0.06309   0.10337
 Alpha virt. eigenvalues --    0.13676   0.14554   0.15178   0.16604   0.17532
 Alpha virt. eigenvalues --    0.19835   0.22088   0.23182   0.24148   0.25645

 Mulliken charges:
               1
     1  O   -0.165767
     2  O   -0.398072
     3  O   -0.199726
     4  C    0.832648
     5  H    0.240115
     6  H   -0.078410
     7  H   -0.151104
     8  H   -0.079684
 Sum of Mulliken charges =   0.00000

 Dipole moment (field-independent basis, Debye):
    X=             -0.6939    Y=              0.8053    Z=             -0.9249  Tot=              1.4090

 Test job not archived.
 1\1\GINC-SE158\SP\RHF\Aug-CC-pVDZ\C1H4O3\OHZDE\05-Apr-2025\0\\#t hf au
 g-cc-pvdz iop(5/13=1,5/36=2,99/5=2) pseudo=read geom=check guess=(read
 ,tcheck) scf=(maxcycle=1)\\title\\0,1\O,0,0.614839,-0.531311,0.412981\
 O,0,-0.558693,-0.562512,-0.398497\O,0,1.453969,0.529309,-0.061717\C,0,
 -1.474009,0.413749,0.097467\H,0,1.911049,0.100315,-0.801444\H,0,-1.737
 81,0.202807,1.133973\H,0,-2.351255,0.313601,-0.540435\H,0,-1.05885,1.4
 16901,0.000969\\Version=ES64L-G16RevC.01\State=1-A\HF=-264.6969603\RMS
 D=2.450e-03\Dipole=-0.2729989,0.3168097,-0.3638892\Quadrupole=2.941661

 Normal termination of Gaussian 16 at Sat Apr  5 23:16:05 2025.
