 Gaussian 16, Revision C.01,

 ----------------------------------------------------------------------
 #t hf aug-cc-pvdz symm=none int=(grid=ultrafine) guess=(read,tcheck) s
 table=(opt,rrhf)
 ----------------------------------------------------------------------
 -----
 title
 -----
 Symbolic Z-matrix:
 Charge =  0 Multiplicity = 1

 SCF Done:  E(RHF) =  -347.667266665     A.U. after   12 cycles
 Normal termination of Gaussian 16 at Sat Apr  5 23:18:03 2025.
 Gaussian 16:  ES64L-G16RevC.01  3-Jul-2019

 ----------------------------------------------------------------------
 #t hf aug-cc-pvdz iop(5/13=1,5/36=2,99/5=2) pseudo=read geom=check gue
 ss=(read,tcheck) scf=(maxcycle=1)
 ----------------------------------------------------------------------
 -----
 title
 -----
 Structure from the checkpoint file:  "trispiro2-0-0-2-1-1nonane.chk"
 Charge =  0 Multiplicity = 1

                         Standard orientation:
 ---------------------------------------------------------------------
 Center     Atomic      Atomic             Coordinates (Angstroms)
 Number     Number       Type             X           Y           Z
 ---------------------------------------------------------------------
      1          6           0        0.000000    2.646312   -0.153625
      2          6           0       -0.783823    1.911812   -1.237462
      3          6           0       -0.502659    1.272733    0.068369
      4          6           0        0.000000    0.000000    0.571930
      5          6           0       -1.280621    0.550204    1.125888
      6          6           0        0.502659   -1.272733    0.068369
      7          6           0        1.280621   -0.550204    1.125888
      8          6           0        0.783823   -1.911812   -1.237462
      9          6           0       -0.000000   -2.646312   -0.153625
     10          1           0        1.061695    2.787753   -0.310710
     11          1           0       -0.492162    3.465471    0.354450
     12          1           0       -1.792102    2.247544   -1.442544
     13          1           0       -0.237243    1.571736   -2.107218
     14          1           0       -1.270911    0.951885    2.132470
     15          1           0       -2.207587    0.066955    0.838743
     16          1           0        1.270911   -0.951885    2.132470
     17          1           0        2.207587   -0.066955    0.838743
     18          1           0        0.237243   -1.571736   -2.107218
     19          1           0        1.792102   -2.247544   -1.442544
     20          1           0        0.492162   -3.465471    0.354450
     21          1           0       -1.061695   -2.787753   -0.310710
 ---------------------------------------------------------------------

 SCF Done:  E(RHF) =  -347.775175022     A.U. after    2 cycles

 The electronic state is 1-A.
 Alpha  occ. eigenvalues --  -11.24484 -11.24382 -11.24360 -11.23330 -11.23327
 Alpha  occ. eigenvalues --  -11.23323 -11.23323 -11.23280 -11.23280  -1.18437
 Alpha  occ. eigenvalues --   -1.13595  -1.06932  -1.00773  -0.82477  -0.82319
 Alpha  occ. eigenvalues --   -0.79171  -0.76593  -0.70783  -0.67608  -0.64472
 Alpha  occ. eigenvalues --   -0.64218  -0.61159  -0.60566  -0.52979  -0.51571
 Alpha  occ. eigenvalues --   -0.51541  -0.48334  -0.45889  -0.43169  -0.43024
 Alpha  occ. eigenvalues --   -0.38535  -0.37827  -0.37386
 Alpha virt. eigenvalues --    0.03658   0.04012   0.04366   0.04464   0.05799
 Alpha virt. eigenvalues --    0.06121   0.06174   0.06507   0.07133   0.08399
 Alpha virt. eigenvalues --    0.08687   0.08816   0.11298   0.11709   0.11770

 Mulliken charges:
               1
     1  C    0.719405
     2  C    0.727367
     3  C   -0.353395
     4  C   -0.426421
     5  C    0.493578
     6  C   -0.353395
     7  C    0.493578
     8  C    0.727367
     9  C    0.719405
    10  H   -0.266361
    11  H   -0.239377
    12  H   -0.242427
    13  H   -0.262442
    14  H   -0.177354
    15  H   -0.185785
    16  H   -0.177354
    17  H   -0.185785
    18  H   -0.262442
    19  H   -0.242427
    20  H   -0.239377
    21  H   -0.266361
 Sum of Mulliken charges =   0.00000

 Dipole moment (field-independent basis, Debye):
    X=             -0.0000    Y=              0.0000    Z=             -0.0023  Tot=              0.0023

 Test job not archived.
 1\1\GINC-SE028\SP\RHF\Aug-CC-pVDZ\C9H12\OHZDE\05-Apr-2025\0\\#t hf aug
 -cc-pvdz iop(5/13=1,5/36=2,99/5=2) pseudo=read geom=check guess=(read,
 tcheck) scf=(maxcycle=1)\\title\\0,1\C,0,0.,2.646312,-0.153625\C,0,-0.
 783823,1.911812,-1.237462\C,0,-0.502659,1.272733,0.068369\C,0,0.,0.,0.
 57193\C,0,-1.280621,0.550204,1.125888\C,0,0.502659,-1.272733,0.068369\
 C,0,1.280621,-0.550204,1.125888\C,0,0.783823,-1.911812,-1.237462\C,0,0
 .,-2.646312,-0.153625\H,0,1.061695,2.787753,-0.31071\H,0,-0.492162,3.4
 65471,0.35445\H,0,-1.792102,2.247544,-1.442544\H,0,-0.237243,1.571736,

 Normal termination of Gaussian 16 at Sat Apr  5 23:18:10 2025.
