 Gaussian 16, Revision C.01,

 ----------------------------------------------------------------------
 #t hf aug-cc-pvdz symm=none int=(grid=ultrafine) guess=(read,tcheck) s
 table=(opt,rrhf)
 ----------------------------------------------------------------------
 -----
 title
 -----
 Symbolic Z-matrix:
 Charge =  0 Multiplicity = 1

 SCF Done:  E(RHF) =  -347.667436243     A.U. after   11 cycles
 Normal termination of Gaussian 16 at Sat Apr  5 23:18:00 2025.
 Gaussian 16:  ES64L-G16RevC.01  3-Jul-2019

 ----------------------------------------------------------------------
 #t hf aug-cc-pvdz iop(5/13=1,5/36=2,99/5=2) pseudo=read geom=check gue
 ss=(read,tcheck) scf=(maxcycle=1)
 ----------------------------------------------------------------------
 -----
 title
 -----
 Structure from the checkpoint file:  "trispiro2-0-2-0-2-0nonane.chk"
 Charge =  0 Multiplicity = 1

                         Standard orientation:
 ---------------------------------------------------------------------
 Center     Atomic      Atomic             Coordinates (Angstroms)
 Number     Number       Type             X           Y           Z
 ---------------------------------------------------------------------
      1          6           0        0.000000   -0.000000    0.851770
      2          6           0        0.000000    0.737655   -0.425885
      3          6           0       -0.000000   -0.737655   -0.425885
      4          6           0        0.763078    1.836386   -1.060238
      5          6           0       -0.763078    1.836386   -1.060238
      6          6           0       -0.763078    0.000000    2.120476
      7          6           0        0.763078   -0.000000    2.120476
      8          6           0       -0.763078   -1.836386   -1.060238
      9          6           0        0.763078   -1.836386   -1.060238
     10          1           0        1.266347    2.551440   -0.422252
     11          1           0        1.266347    1.641401   -1.998486
     12          1           0       -1.266347    1.641401   -1.998486
     13          1           0       -1.266347    2.551440   -0.422252
     14          1           0       -1.266347   -0.910039    2.420738
     15          1           0       -1.266347    0.910039    2.420738
     16          1           0        1.266347    0.910039    2.420738
     17          1           0        1.266347   -0.910039    2.420738
     18          1           0       -1.266347   -2.551440   -0.422252
     19          1           0       -1.266347   -1.641401   -1.998486
     20          1           0        1.266347   -1.641401   -1.998486
     21          1           0        1.266347   -2.551440   -0.422252
 ---------------------------------------------------------------------

 SCF Done:  E(RHF) =  -347.775403974     A.U. after    2 cycles

 The electronic state is 1-A1.
 Alpha  occ. eigenvalues --  -11.24490 -11.24412 -11.24412 -11.23340 -11.23340
 Alpha  occ. eigenvalues --  -11.23340 -11.23307 -11.23307 -11.23297  -1.18774
 Alpha  occ. eigenvalues --   -1.10767  -1.10767  -0.98845  -0.83454  -0.81673
 Alpha  occ. eigenvalues --   -0.81673  -0.72552  -0.72552  -0.67597  -0.65645
 Alpha  occ. eigenvalues --   -0.65645  -0.62450  -0.53878  -0.51919  -0.51919
 Alpha  occ. eigenvalues --   -0.51115  -0.50454  -0.50454  -0.43895  -0.39040
 Alpha  occ. eigenvalues --   -0.39040  -0.37993  -0.37993
 Alpha virt. eigenvalues --    0.03658   0.04139   0.04139   0.04586   0.06124
 Alpha virt. eigenvalues --    0.06124   0.06147   0.06147   0.08082   0.08319
 Alpha virt. eigenvalues --    0.08319   0.10609   0.10711   0.11696   0.11878

 Mulliken charges:
               1
     1  C   -0.465626
     2  C   -0.465626
     3  C   -0.465626
     4  C    0.700290
     5  C    0.700290
     6  C    0.700292
     7  C    0.700292
     8  C    0.700290
     9  C    0.700290
    10  H   -0.233739
    11  H   -0.233739
    12  H   -0.233739
    13  H   -0.233739
    14  H   -0.233739
    15  H   -0.233739
    16  H   -0.233739
    17  H   -0.233739
    18  H   -0.233739
    19  H   -0.233739
    20  H   -0.233739
    21  H   -0.233739
 Sum of Mulliken charges =  -0.00000

 Dipole moment (field-independent basis, Debye):
    X=             -0.0000    Y=             -0.0000    Z=              0.0000  Tot=              0.0000

 Test job not archived.
 1\1\GINC-SE050\SP\RHF\Aug-CC-pVDZ\C9H12\OHZDE\05-Apr-2025\0\\#t hf aug
 -cc-pvdz iop(5/13=1,5/36=2,99/5=2) pseudo=read geom=check guess=(read,
 tcheck) scf=(maxcycle=1)\\title\\0,1\C,0,0.,0.85177,0.\C,0,0.737655,-0
 .425885,0.\C,0,-0.737655,-0.425885,0.\C,0,1.836386,-1.060238,0.763078\
 C,0,1.836386,-1.060238,-0.763078\C,0,0.,2.120476,-0.763078\C,0,0.,2.12
 0476,0.763078\C,0,-1.836386,-1.060238,-0.763078\C,0,-1.836386,-1.06023
 8,0.763078\H,0,2.55144,-0.422252,1.266347\H,0,1.641401,-1.998486,1.266
 347\H,0,1.641401,-1.998486,-1.266347\H,0,2.55144,-0.422252,-1.266347\H

 Normal termination of Gaussian 16 at Sat Apr  5 23:18:10 2025.
