 Gaussian 16, Revision C.01,

 ----------------------------------------------------------------------
 #t hf aug-cc-pvdz symm=none int=(grid=ultrafine) guess=(read,tcheck) s
 table=(opt,rrhf)
 ----------------------------------------------------------------------
 -----
 title
 -----
 Symbolic Z-matrix:
 Charge =  0 Multiplicity = 1

 SCF Done:  E(RHF) =  -682.275027963     A.U. after   17 cycles
 Normal termination of Gaussian 16 at Sat Apr  5 23:24:29 2025.
 Gaussian 16:  ES64L-G16RevC.01  3-Jul-2019

 ----------------------------------------------------------------------
 #t hf aug-cc-pvdz iop(5/13=1,5/36=2,99/5=2) pseudo=read geom=check gue
 ss=(read,tcheck) scf=(maxcycle=1)
 ----------------------------------------------------------------------
 -----
 title
 -----
 Structure from the checkpoint file:  "tryptophan.chk"
 Charge =  0 Multiplicity = 1

                         Standard orientation:
 ---------------------------------------------------------------------
 Center     Atomic      Atomic             Coordinates (Angstroms)
 Number     Number       Type             X           Y           Z
 ---------------------------------------------------------------------
      1          7           0        2.144383    0.943689    1.387392
      2          6           0        1.971739   -0.048913    0.317057
      3          6           0        3.347538   -0.585408   -0.126533
      4          8           0        3.499669   -1.288634   -1.089817
      5          8           0        4.357944   -0.224123    0.675223
      6          1           0        3.948061    0.342244    1.365987
      7          6           0        1.161509    0.438981   -0.901876
      8          6           0       -0.257433    0.783250   -0.580119
      9          6           0       -0.805706    2.035533   -0.532908
     10          7           0       -2.138822    1.958860   -0.185729
     11          6           0       -2.481917    0.638427   -0.006198
     12          6           0       -1.318044   -0.133672   -0.246754
     13          6           0       -1.401983   -1.529651   -0.146912
     14          6           0       -2.612554   -2.107991    0.190616
     15          6           0       -3.751206   -1.320897    0.431315
     16          6           0       -3.702578    0.059180    0.334532
     17          1           0        1.461495   -0.911416    0.750748
     18          1           0        1.667652    1.311632   -1.324861
     19          1           0        1.212237   -0.340971   -1.662152
     20          1           0       -0.349483    2.989906   -0.737807
     21          1           0       -2.764965    2.739256   -0.115895
     22          1           0       -0.538307   -2.151734   -0.341881
     23          1           0       -2.688793   -3.183992    0.266850
     24          1           0       -4.683614   -1.802505    0.692328
     25          1           0       -4.582950    0.662376    0.513597
     26          1           0        2.105789    1.887369    1.020285
     27          1           0        1.416855    0.869019    2.084595
 ---------------------------------------------------------------------

 SCF Done:  E(RHF) =  -682.477090933     A.U. after    2 cycles

 The electronic state is 1-A.
 Alpha  occ. eigenvalues --  -20.60609 -20.54839 -15.67725 -15.64348 -11.38555
 Alpha  occ. eigenvalues --  -11.30001 -11.29044 -11.28695 -11.25514 -11.25049
 Alpha  occ. eigenvalues --  -11.24982 -11.24809 -11.24528 -11.24422 -11.23971
 Alpha  occ. eigenvalues --   -1.40894  -1.31934  -1.27879  -1.19024  -1.13286
 Alpha  occ. eigenvalues --   -1.08251  -1.01751  -1.00235  -0.98045  -0.90390
 Alpha  occ. eigenvalues --   -0.85533  -0.82138  -0.81512  -0.77608  -0.74187
 Alpha  occ. eigenvalues --   -0.73762  -0.69224  -0.67924  -0.67100  -0.66373
 Alpha  occ. eigenvalues --   -0.63455  -0.62395  -0.61899  -0.61140  -0.60385
 Alpha  occ. eigenvalues --   -0.59592  -0.57282  -0.55771  -0.54608  -0.53491
 Alpha  occ. eigenvalues --   -0.51302  -0.49222  -0.48149  -0.47850  -0.46805
 Alpha  occ. eigenvalues --   -0.42487  -0.39095  -0.31448  -0.29713
 Alpha virt. eigenvalues --    0.01867   0.02909   0.03434   0.04226   0.04868
 Alpha virt. eigenvalues --    0.05348   0.06203   0.06592   0.07025   0.07585
 Alpha virt. eigenvalues --    0.08066   0.09165   0.09868   0.10364   0.11150

 Mulliken charges:
               1
     1  N   -0.516929
     2  C    0.024976
     3  C    0.679807
     4  O   -0.486816
     5  O   -0.489763
     6  H    0.271274
     7  C    0.431091
     8  C    0.214634
     9  C    1.105365
    10  N   -0.687085
    11  C   -0.427167
    12  C   -0.309470
    13  C    0.981126
    14  C    0.043769
    15  C    0.623074
    16  C    1.244249
    17  H   -0.066892
    18  H   -0.120895
    19  H   -0.019934
    20  H   -0.433880
    21  H   -0.120489
    22  H   -0.585284
    23  H   -0.513555
    24  H   -0.466986
    25  H   -0.537274
    26  H    0.081545
    27  H    0.081507
 Sum of Mulliken charges =  -0.00000

 Dipole moment (field-independent basis, Debye):
    X=             -5.0440    Y=              5.0785    Z=              2.6392  Tot=              7.6288

 Test job not archived.
 1\1\GINC-SE108\SP\RHF\Aug-CC-pVDZ\C11H12N2O2\OHZDE\05-Apr-2025\0\\#t h
 f aug-cc-pvdz iop(5/13=1,5/36=2,99/5=2) pseudo=read geom=check guess=(
 read,tcheck) scf=(maxcycle=1)\\title\\0,1\N,0,2.144383,0.943689,1.3873
 92\C,0,1.971739,-0.048913,0.317057\C,0,3.347538,-0.585408,-0.126533\O,
 0,3.499669,-1.288634,-1.089817\O,0,4.357944,-0.224123,0.675223\H,0,3.9
 48061,0.342244,1.365987\C,0,1.161509,0.438981,-0.901876\C,0,-0.257433,
 0.78325,-0.580119\C,0,-0.805706,2.035533,-0.532908\N,0,-2.138822,1.958
 86,-0.185729\C,0,-2.481917,0.638427,-0.006198\C,0,-1.318044,-0.133672,

 Normal termination of Gaussian 16 at Sat Apr  5 23:24:59 2025.
