 Gaussian 16, Revision C.01,

 ----------------------------------------------------------------------
 #t hf aug-cc-pvdz symm=none int=(grid=ultrafine) guess=(read,tcheck) s
 table=(opt,rrhf)
 ----------------------------------------------------------------------
 -----
 title
 -----
 Symbolic Z-matrix:
 Charge =  0 Multiplicity = 1

 SCF Done:  E(RHF) =  -626.364421262     A.U. after   16 cycles
 Normal termination of Gaussian 16 at Sat Apr  5 23:21:15 2025.
 Gaussian 16:  ES64L-G16RevC.01  3-Jul-2019

 ----------------------------------------------------------------------
 #t hf aug-cc-pvdz iop(5/13=1,5/36=2,99/5=2) pseudo=read geom=check gue
 ss=(read,tcheck) scf=(maxcycle=1)
 ----------------------------------------------------------------------
 -----
 title
 -----
 Structure from the checkpoint file:  "tyrosine.chk"
 Charge =  0 Multiplicity = 1

                         Standard orientation:
 ---------------------------------------------------------------------
 Center     Atomic      Atomic             Coordinates (Angstroms)
 Number     Number       Type             X           Y           Z
 ---------------------------------------------------------------------
      1          6           0        0.892185    0.423300   -1.115386
      2          6           0        1.127635   -1.387733    0.424444
      3          6           0        2.194801    0.827052   -0.845555
      4          6           0        2.427792   -0.998183    0.705423
      5          6           0        0.332695   -0.688148   -0.487319
      6          6           0        2.965844    0.116591    0.068362
      7          6           0       -2.186401    0.883216    0.310248
      8          6           0       -1.089329   -1.109749   -0.762062
      9          6           0       -2.127374   -0.636628    0.291467
     10          7           0       -3.490056   -1.105655    0.051276
     11          8           0       -2.617114    1.551395   -0.596087
     12          8           0        4.254274    0.460267    0.375386
     13          8           0       -1.697499    1.415760    1.446528
     14          1           0        0.304511    0.985498   -1.829904
     15          1           0        0.725773   -2.261652    0.922750
     16          1           0        2.610134    1.691457   -1.350405
     17          1           0        3.037227   -1.547870    1.408931
     18          1           0       -1.411636   -0.739805   -1.736775
     19          1           0       -1.153616   -2.200087   -0.793954
     20          1           0       -1.814661   -0.977674    1.277619
     21          1           0       -3.514304   -2.114400   -0.027753
     22          1           0       -3.850384   -0.712728   -0.810813
     23          1           0        4.512609    1.239394   -0.126667
     24          1           0       -1.759650    2.379779    1.363694
 ---------------------------------------------------------------------

 SCF Done:  E(RHF) =  -626.553905731     A.U. after    2 cycles

 The electronic state is 1-A.
 Alpha  occ. eigenvalues --  -20.62849 -20.60797 -20.56712 -15.61933 -11.40022
 Alpha  occ. eigenvalues --  -11.31641 -11.29112 -11.25281 -11.25264 -11.25076
 Alpha  occ. eigenvalues --  -11.24797 -11.24716 -11.24255  -1.42921  -1.37002
 Alpha  occ. eigenvalues --   -1.33068  -1.17619  -1.14929  -1.05040  -1.02118
 Alpha  occ. eigenvalues --   -0.97913  -0.91688  -0.85806  -0.82576  -0.79724
 Alpha  occ. eigenvalues --   -0.75117  -0.73389  -0.71778  -0.68585  -0.66380
 Alpha  occ. eigenvalues --   -0.66152  -0.64133  -0.62276  -0.60969  -0.60039
 Alpha  occ. eigenvalues --   -0.59968  -0.59459  -0.57811  -0.56181  -0.53595
 Alpha  occ. eigenvalues --   -0.51695  -0.50501  -0.49553  -0.48797  -0.46720
 Alpha  occ. eigenvalues --   -0.40170  -0.35145  -0.31865
 Alpha virt. eigenvalues --    0.02937   0.03237   0.04062   0.04409   0.05166
 Alpha virt. eigenvalues --    0.05494   0.06143   0.07072   0.07736   0.08464
 Alpha virt. eigenvalues --    0.09168   0.10346   0.10385   0.10776   0.11636

 Mulliken charges:
               1
     1  C    0.379944
     2  C    0.454747
     3  C    0.488002
     4  C    0.497751
     5  C    0.895779
     6  C    0.342865
     7  C    0.583591
     8  C    0.416698
     9  C    0.464598
    10  N   -0.319050
    11  O   -0.529778
    12  O   -0.569589
    13  O   -0.543312
    14  H   -0.682519
    15  H   -0.691432
    16  H   -0.578900
    17  H   -0.502562
    18  H   -0.077558
    19  H   -0.105189
    20  H   -0.266890
    21  H   -0.010570
    22  H    0.038980
    23  H    0.129660
    24  H    0.184733
 Sum of Mulliken charges =  -0.00000

 Dipole moment (field-independent basis, Debye):
    X=              1.0948    Y=             -0.4900    Z=             -0.6659  Tot=              1.3719

 Test job not archived.
 1\1\GINC-SE185\SP\RHF\Aug-CC-pVDZ\C9H11N1O3\OHZDE\05-Apr-2025\0\\#t hf
  aug-cc-pvdz iop(5/13=1,5/36=2,99/5=2) pseudo=read geom=check guess=(r
 ead,tcheck) scf=(maxcycle=1)\\title\\0,1\C,0,0.892185,0.4233,-1.115386
 \C,0,1.127635,-1.387733,0.424444\C,0,2.194801,0.827052,-0.845555\C,0,2
 .427792,-0.998183,0.705423\C,0,0.332695,-0.688148,-0.487319\C,0,2.9658
 44,0.116591,0.068362\C,0,-2.186401,0.883216,0.310248\C,0,-1.089329,-1.
 109749,-0.762062\C,0,-2.127374,-0.636628,0.291467\N,0,-3.490056,-1.105
 655,0.051276\O,0,-2.617114,1.551395,-0.596087\O,0,4.254274,0.460267,0.

 Normal termination of Gaussian 16 at Sat Apr  5 23:21:37 2025.
