 Gaussian 16, Revision C.01,

 ----------------------------------------------------------------------
 #t hf aug-cc-pvdz symm=none int=(grid=ultrafine) guess=(read,tcheck) s
 table=(opt,rrhf)
 ----------------------------------------------------------------------
 -----
 title
 -----
 Symbolic Z-matrix:
 Charge =  0 Multiplicity = 1

 SCF Done:  E(RHF) =  -504.299603313     A.U. after   13 cycles
 Normal termination of Gaussian 16 at Sat Apr  5 23:22:59 2025.
 Gaussian 16:  ES64L-G16RevC.01  3-Jul-2019

 ----------------------------------------------------------------------
 #t hf aug-cc-pvdz iop(5/13=1,5/36=2,99/5=2) pseudo=read geom=check gue
 ss=(read,tcheck) scf=(maxcycle=1)
 ----------------------------------------------------------------------
 -----
 title
 -----
 Structure from the checkpoint file:  "undecan-2-one.chk"
 Charge =  0 Multiplicity = 1

                         Standard orientation:
 ---------------------------------------------------------------------
 Center     Atomic      Atomic             Coordinates (Angstroms)
 Number     Number       Type             X           Y           Z
 ---------------------------------------------------------------------
      1          6           0       -4.806157    0.164946   -0.005623
      2          6           0       -6.062810   -0.680870    0.015204
      3          6           0        6.725592   -0.280291   -0.006395
      4          6           0       -3.487345   -0.589442   -0.010665
      5          6           0        5.426775    0.524067    0.007880
      6          6           0       -2.245230    0.293358    0.007034
      7          6           0        4.172804   -0.350971   -0.004536
      8          6           0       -0.944153   -0.509724   -0.005659
      9          6           0        2.867501    0.444990    0.008804
     10          6           0        0.309146    0.366142    0.008951
     11          6           0        1.614054   -0.430731   -0.003842
     12          8           0       -4.857865    1.374419   -0.015761
     13          1           0       -6.066233   -1.383636   -0.820306
     14          1           0       -6.941478   -0.043492   -0.036220
     15          1           0       -6.097895   -1.276478    0.930151
     16          1           0        6.792162   -0.936999    0.863557
     17          1           0        6.790716   -0.908018   -0.897593
     18          1           0        7.599872    0.372101    0.003614
     19          1           0       -3.487195   -1.243242   -0.890607
     20          1           0       -3.492921   -1.273880    0.845326
     21          1           0        5.404779    1.195795   -0.855539
     22          1           0        5.406736    1.168164    0.892173
     23          1           0       -2.273858    0.968070   -0.851145
     24          1           0       -2.275701    0.936898    0.889030
     25          1           0        4.193680   -0.996496   -0.889181
     26          1           0        4.195186   -1.023399    0.859786
     27          1           0       -0.922432   -1.183317    0.857933
     28          1           0       -0.922105   -1.154301   -0.891131
     29          1           0        2.847599    1.090299    0.893334
     30          1           0        2.846263    1.117212   -0.855399
     31          1           0        0.287614    1.010598    0.893780
     32          1           0        0.287855    1.038888   -0.854540
     33          1           0        1.635068   -1.102846    0.860594
     34          1           0        1.634146   -1.076122   -0.888446
 ---------------------------------------------------------------------

 SCF Done:  E(RHF) =  -504.458257985     A.U. after    2 cycles

 The electronic state is 1-A.
 Alpha  occ. eigenvalues --  -20.55804 -11.33964 -11.24480 -11.24306 -11.22777
 Alpha  occ. eigenvalues --  -11.22723 -11.22410 -11.22384 -11.22319 -11.22233
 Alpha  occ. eigenvalues --  -11.22176 -11.21944  -1.35026  -1.08830  -1.06940
 Alpha  occ. eigenvalues --   -1.03924  -1.00902  -0.97501  -0.92233  -0.86150
 Alpha  occ. eigenvalues --   -0.80916  -0.78931  -0.78537  -0.73734  -0.66603
 Alpha  occ. eigenvalues --   -0.65938  -0.64970  -0.63352  -0.62439  -0.59658
 Alpha  occ. eigenvalues --   -0.59291  -0.57760  -0.56748  -0.56256  -0.55078
 Alpha  occ. eigenvalues --   -0.53256  -0.52680  -0.50440  -0.49836  -0.49281
 Alpha  occ. eigenvalues --   -0.49192  -0.47264  -0.47110  -0.46304  -0.46008
 Alpha  occ. eigenvalues --   -0.45994  -0.44129  -0.41557
 Alpha virt. eigenvalues --    0.02984   0.03489   0.04241   0.04246   0.04520
 Alpha virt. eigenvalues --    0.05094   0.05342   0.06045   0.06440   0.06621
 Alpha virt. eigenvalues --    0.06640   0.07961   0.08035   0.08246   0.08427

 Mulliken charges:
               1
     1  C    0.010146
     2  C    0.561530
     3  C    0.689217
     4  C    0.147402
     5  C    0.565514
     6  C    0.429723
     7  C    0.267321
     8  C    0.459708
     9  C    0.241903
    10  C    0.187946
    11  C    0.304897
    12  O   -0.538747
    13  H    0.025947
    14  H   -0.082208
    15  H    0.036784
    16  H   -0.097251
    17  H   -0.097870
    18  H   -0.069223
    19  H   -0.056003
    20  H   -0.066431
    21  H   -0.174458
    22  H   -0.174495
    23  H   -0.190169
    24  H   -0.195210
    25  H   -0.201287
    26  H   -0.203000
    27  H   -0.229999
    28  H   -0.224995
    29  H   -0.220312
    30  H   -0.218767
    31  H   -0.218283
    32  H   -0.221098
    33  H   -0.222156
    34  H   -0.226072
 Sum of Mulliken charges =  -0.00000

 Dipole moment (field-independent basis, Debye):
    X=              0.3449    Y=             -3.2724    Z=              0.0340  Tot=              3.2907

 Test job not archived.
 1\1\GINC-SE025\SP\RHF\Aug-CC-pVDZ\C11H22O1\OHZDE\05-Apr-2025\0\\#t hf
 aug-cc-pvdz iop(5/13=1,5/36=2,99/5=2) pseudo=read geom=check guess=(re
 ad,tcheck) scf=(maxcycle=1)\\title\\0,1\C,0,-4.806157,0.164946,-0.0056
 23\C,0,-6.06281,-0.68087,0.015204\C,0,6.725592,-0.280291,-0.006395\C,0
 ,-3.487345,-0.589442,-0.010665\C,0,5.426775,0.524067,0.00788\C,0,-2.24
 523,0.293358,0.007034\C,0,4.172804,-0.350971,-0.004536\C,0,-0.944153,-
 0.509724,-0.005659\C,0,2.867501,0.44499,0.008804\C,0,0.309146,0.366142
 ,0.008951\C,0,1.614054,-0.430731,-0.003842\O,0,-4.857865,1.374419,-0.0

 Normal termination of Gaussian 16 at Sat Apr  5 23:23:28 2025.
