 Gaussian 16, Revision C.01,

 ----------------------------------------------------------------------
 #t hf aug-cc-pvdz symm=none int=(grid=ultrafine) guess=(read,tcheck) s
 table=(opt,rrhf)
 ----------------------------------------------------------------------
 -----
 title
 -----
 Symbolic Z-matrix:
 Charge =  0 Multiplicity = 1

 SCF Done:  E(RHF) =  -412.513384412     A.U. after   14 cycles
 Normal termination of Gaussian 16 at Sat Apr  5 23:16:33 2025.
 Gaussian 16:  ES64L-G16RevC.01  3-Jul-2019

 ----------------------------------------------------------------------
 #t hf aug-cc-pvdz iop(5/13=1,5/36=2,99/5=2) pseudo=read geom=check gue
 ss=(read,tcheck) scf=(maxcycle=1)
 ----------------------------------------------------------------------
 -----
 title
 -----
 Structure from the checkpoint file:  "uracil.chk"
 Charge =  0 Multiplicity = 1

                         Standard orientation:
 ---------------------------------------------------------------------
 Center     Atomic      Atomic             Coordinates (Angstroms)
 Number     Number       Type             X           Y           Z
 ---------------------------------------------------------------------
      1          6           0       -1.137324    0.318072    0.000000
      2          8           0       -2.279401    1.022074    0.000000
      3          6           0       -1.190713   -1.078014    0.000000
      4          6           0        0.031924   -1.715471    0.000000
      5          7           0        1.199468   -1.061094    0.000000
      6          6           0        1.110451    0.264069    0.000000
      7          8           0        2.256714    0.960746    0.000000
      8          7           0        0.000000    0.995036    0.000000
      9          1           0       -2.038605    1.959714    0.000000
     10          1           0       -2.128722   -1.608922    0.000000
     11          1           0        0.091249   -2.797105    0.000000
     12          1           0        2.975267    0.314212    0.000000
 ---------------------------------------------------------------------

 SCF Done:  E(RHF) =  -412.638498137     A.U. after    2 cycles

 The electronic state is 1-A'.
 Alpha  occ. eigenvalues --  -20.63221 -20.62291 -15.63713 -15.63319 -11.40175
 Alpha  occ. eigenvalues --  -11.38515 -11.32013 -11.24971  -1.41620  -1.40701
 Alpha  occ. eigenvalues --   -1.27256  -1.17414  -1.06221  -0.91403  -0.90226
 Alpha  occ. eigenvalues --   -0.81158  -0.75764  -0.71782  -0.66466  -0.66460
 Alpha  occ. eigenvalues --   -0.65043  -0.62249  -0.60893  -0.58906  -0.52447
 Alpha  occ. eigenvalues --   -0.49701  -0.42724  -0.42445  -0.36198
 Alpha virt. eigenvalues --    0.03200   0.03935   0.04153   0.05909   0.07984
 Alpha virt. eigenvalues --    0.09476   0.10608   0.10993   0.11960   0.12267
 Alpha virt. eigenvalues --    0.12760   0.13479   0.13853   0.14883   0.14970

 Mulliken charges:
               1
     1  C    0.372820
     2  O   -0.516910
     3  C    0.904991
     4  C    0.491294
     5  N   -0.526684
     6  C    0.657270
     7  O   -0.491844
     8  N   -0.511583
     9  H    0.163277
    10  H   -0.386835
    11  H   -0.310107
    12  H    0.154311
 Sum of Mulliken charges =  -0.00000

 Dipole moment (field-independent basis, Debye):
    X=             -0.4861    Y=             -1.4049    Z=              0.0000  Tot=              1.4866

 Test job not archived.
 1\1\GINC-SE106\SP\RHF\Aug-CC-pVDZ\C4H4N2O2\OHZDE\05-Apr-2025\0\\#t hf
 aug-cc-pvdz iop(5/13=1,5/36=2,99/5=2) pseudo=read geom=check guess=(re
 ad,tcheck) scf=(maxcycle=1)\\title\\0,1\C,0,-1.137324,0.318072,0.\O,0,
 -2.279401,1.022074,0.\C,0,-1.190713,-1.078014,0.\C,0,0.031924,-1.71547
 1,0.\N,0,1.199468,-1.061094,0.\C,0,1.110451,0.264069,0.\O,0,2.256714,0
 .960746,0.\N,0,0.,0.995036,0.\H,0,-2.038605,1.959714,0.\H,0,-2.128722,
 -1.608922,0.\H,0,0.091249,-2.797105,0.\H,0,2.975267,0.314212,0.\\Versi
 on=ES64L-G16RevC.01\State=1-A'\HF=-412.6384981\RMSD=5.932e-03\Dipole=-

 Normal termination of Gaussian 16 at Sat Apr  5 23:16:40 2025.
