 Gaussian 16, Revision C.01,

 ----------------------------------------------------------------------
 #t hf aug-cc-pvdz symm=none int=(grid=ultrafine) guess=(read,tcheck) s
 table=(opt,rrhf)
 ----------------------------------------------------------------------
 -----
 title
 -----
 Symbolic Z-matrix:
 Charge =  0 Multiplicity = 1

 SCF Done:  E(RHF) =  -321.922520356     A.U. after   13 cycles
 Normal termination of Gaussian 16 at Sat Apr  5 23:16:35 2025.
 Gaussian 16:  ES64L-G16RevC.01  3-Jul-2019

 ----------------------------------------------------------------------
 #t hf aug-cc-pvdz iop(5/13=1,5/36=2,99/5=2) pseudo=read geom=check gue
 ss=(read,tcheck) scf=(maxcycle=1)
 ----------------------------------------------------------------------
 -----
 title
 -----
 Structure from the checkpoint file:  "urethane.chk"
 Charge =  0 Multiplicity = 1

                         Standard orientation:
 ---------------------------------------------------------------------
 Center     Atomic      Atomic             Coordinates (Angstroms)
 Number     Number       Type             X           Y           Z
 ---------------------------------------------------------------------
      1          6           0        2.562959   -0.246263    0.024431
      2          1           0        2.684739   -0.856591   -0.869433
      3          1           0        3.378057    0.477039    0.064926
      4          1           0        2.630633   -0.894805    0.896772
      5          6           0        1.233789    0.476855    0.001020
      6          1           0        1.104781    1.083961    0.900241
      7          1           0        1.171235    1.127632   -0.877417
      8          8           0        0.198136   -0.516463   -0.060443
      9          7           0       -1.408351    1.154815    0.055718
     10          1           0       -0.750537    1.856650   -0.229457
     11          1           0       -2.382975    1.377652   -0.044925
     12          6           0       -1.116122   -0.185256   -0.006501
     13          8           0       -1.955791   -1.049445    0.017389
 ---------------------------------------------------------------------

 SCF Done:  E(RHF) =  -322.028177439     A.U. after    2 cycles

 The electronic state is 1-A.
 Alpha  occ. eigenvalues --  -20.61463 -20.53485 -15.65985 -11.42002 -11.31891
 Alpha  occ. eigenvalues --  -11.24449  -1.41773  -1.32212  -1.18568  -1.04720
 Alpha  occ. eigenvalues --   -0.88794  -0.82336  -0.77054  -0.70884  -0.70371
 Alpha  occ. eigenvalues --   -0.64454  -0.61256  -0.59333  -0.56646  -0.53725
 Alpha  occ. eigenvalues --   -0.52632  -0.48253  -0.46863  -0.43214
 Alpha virt. eigenvalues --    0.02367   0.03720   0.04537   0.05018   0.06320
 Alpha virt. eigenvalues --    0.07340   0.07667   0.11229   0.11380   0.12142
 Alpha virt. eigenvalues --    0.13297   0.13743   0.15873   0.16064   0.16276

 Mulliken charges:
               1
     1  C    0.142967
     2  H   -0.016386
     3  H   -0.003540
     4  H   -0.012747
     5  C    0.782117
     6  H   -0.211725
     7  H   -0.260238
     8  O   -0.596683
     9  N   -0.111396
    10  H    0.043723
    11  H    0.001090
    12  C    0.692138
    13  O   -0.449318
 Sum of Mulliken charges =  -0.00000

 Dipole moment (field-independent basis, Debye):
    X=              2.9425    Y=              5.0453    Z=             -0.5155  Tot=              5.8634

 Test job not archived.
 1\1\GINC-SE173\SP\RHF\Aug-CC-pVDZ\C3H7N1O2\OHZDE\05-Apr-2025\0\\#t hf
 aug-cc-pvdz iop(5/13=1,5/36=2,99/5=2) pseudo=read geom=check guess=(re
 ad,tcheck) scf=(maxcycle=1)\\title\\0,1\C,0,2.562959,-0.246263,0.02443
 1\H,0,2.684739,-0.856591,-0.869433\H,0,3.378057,0.477039,0.064926\H,0,
 2.630633,-0.894805,0.896772\C,0,1.233789,0.476855,0.00102\H,0,1.104781
 ,1.083961,0.900241\H,0,1.171235,1.127632,-0.877417\O,0,0.198136,-0.516
 463,-0.060443\N,0,-1.408351,1.154815,0.055718\H,0,-0.750537,1.85665,-0
 .229457\H,0,-2.382975,1.377652,-0.044925\C,0,-1.116122,-0.185256,-0.00

 Normal termination of Gaussian 16 at Sat Apr  5 23:16:39 2025.
