 Gaussian 16, Revision C.01,

 ----------------------------------------------------------------------
 #t hf aug-cc-pvdz symm=none int=(grid=ultrafine) guess=(read,tcheck) s
 table=(opt,rrhf)
 ----------------------------------------------------------------------
 -----
 title
 -----
 Symbolic Z-matrix:
 Charge =  0 Multiplicity = 1

 SCF Done:  E(RHF) =  -399.994186036     A.U. after   14 cycles
 Normal termination of Gaussian 16 at Sat Apr  5 23:17:22 2025.
 Gaussian 16:  ES64L-G16RevC.01  3-Jul-2019

 ----------------------------------------------------------------------
 #t hf aug-cc-pvdz iop(5/13=1,5/36=2,99/5=2) pseudo=read geom=check gue
 ss=(read,tcheck) scf=(maxcycle=1)
 ----------------------------------------------------------------------
 -----
 title
 -----
 Structure from the checkpoint file:  "valine.chk"
 Charge =  0 Multiplicity = 1

                         Standard orientation:
 ---------------------------------------------------------------------
 Center     Atomic      Atomic             Coordinates (Angstroms)
 Number     Number       Type             X           Y           Z
 ---------------------------------------------------------------------
      1          7           0       -0.204180    1.865921   -0.165122
      2          6           0       -0.044385    0.433011   -0.462275
      3          6           0       -1.370928   -0.271392   -0.129443
      4          8           0       -1.723843   -1.301180   -0.637826
      5          8           0       -2.103030    0.357938    0.804964
      6          1           0       -1.646282    1.209604    0.969437
      7          6           0        1.128185   -0.162775    0.360267
      8          6           0        2.465222    0.464609   -0.056758
      9          6           0        1.217327   -1.687377    0.244479
     10          1           0        0.147500    0.235377   -1.520887
     11          1           0        0.941461    0.092091    1.408810
     12          1           0        3.277525    0.032580    0.528053
     13          1           0        2.673618    0.266976   -1.110595
     14          1           0        2.508562    1.543790    0.096919
     15          1           0        0.318428   -2.184121    0.600700
     16          1           0        1.371984   -1.994000   -0.791577
     17          1           0        2.062337   -2.049689    0.830873
     18          1           0        0.683380    2.321499   -0.008696
     19          1           0       -0.666802    2.353922   -0.921910
 ---------------------------------------------------------------------

 SCF Done:  E(RHF) =  -400.119461052     A.U. after    2 cycles

 The electronic state is 1-A.
 Alpha  occ. eigenvalues --  -20.60862 -20.55075 -15.64475 -11.38666 -11.29835
 Alpha  occ. eigenvalues --  -11.26291 -11.24446 -11.22768  -1.41059  -1.32120
 Alpha  occ. eigenvalues --   -1.19268  -1.07727  -0.95963  -0.93513  -0.82763
 Alpha  occ. eigenvalues --   -0.80632  -0.73384  -0.69519  -0.68322  -0.64639
 Alpha  occ. eigenvalues --   -0.63429  -0.61426  -0.59760  -0.57686  -0.55657
 Alpha  occ. eigenvalues --   -0.54728  -0.50861  -0.49800  -0.49510  -0.47503
 Alpha  occ. eigenvalues --   -0.45537  -0.42647
 Alpha virt. eigenvalues --    0.02477   0.03549   0.04043   0.04857   0.06220
 Alpha virt. eigenvalues --    0.06382   0.06638   0.07572   0.07703   0.09168
 Alpha virt. eigenvalues --    0.09611   0.11498   0.12535   0.13206   0.13759

 Mulliken charges:
               1
     1  N   -0.373380
     2  C    0.607932
     3  C    0.696722
     4  O   -0.498986
     5  O   -0.531956
     6  H    0.270208
     7  C   -1.334073
     8  C    0.910409
     9  C    0.843406
    10  H   -0.116971
    11  H   -0.180064
    12  H   -0.025576
    13  H   -0.020813
    14  H   -0.177974
    15  H   -0.050544
    16  H   -0.001713
    17  H   -0.062387
    18  H    0.033916
    19  H    0.011844
 Sum of Mulliken charges =  -0.00000

 Dipole moment (field-independent basis, Debye):
    X=              4.2064    Y=              3.9246    Z=             -0.2339  Tot=              5.7577

 Test job not archived.
 1\1\GINC-SE183\SP\RHF\Aug-CC-pVDZ\C5H11N1O2\OHZDE\05-Apr-2025\0\\#t hf
  aug-cc-pvdz iop(5/13=1,5/36=2,99/5=2) pseudo=read geom=check guess=(r
 ead,tcheck) scf=(maxcycle=1)\\title\\0,1\N,0,-0.20418,1.865921,-0.1651
 22\C,0,-0.044385,0.433011,-0.462275\C,0,-1.370928,-0.271392,-0.129443\
 O,0,-1.723843,-1.30118,-0.637826\O,0,-2.10303,0.357938,0.804964\H,0,-1
 .646282,1.209604,0.969437\C,0,1.128185,-0.162775,0.360267\C,0,2.465222
 ,0.464609,-0.056758\C,0,1.217327,-1.687377,0.244479\H,0,0.1475,0.23537
 7,-1.520887\H,0,0.941461,0.092091,1.40881\H,0,3.277525,0.03258,0.52805

 Normal termination of Gaussian 16 at Sat Apr  5 23:17:30 2025.
