 Gaussian 16, Revision C.01,

 ----------------------------------------------------------------------
 #t hf aug-cc-pvdz symm=none int=(grid=ultrafine) guess=(read,tcheck) s
 table=(opt,rrhf)
 ----------------------------------------------------------------------
 -----
 title
 -----
 Symbolic Z-matrix:
 Charge =  0 Multiplicity = 1

 SCF Done:  E(RHF) =  -854.805087485     A.U. after   16 cycles
 Normal termination of Gaussian 16 at Sat Apr  5 23:18:15 2025.
 Gaussian 16:  ES64L-G16RevC.01  3-Jul-2019

 ----------------------------------------------------------------------
 #t hf aug-cc-pvdz iop(5/13=1,5/36=2,99/5=2) pseudo=read geom=check gue
 ss=(read,tcheck) scf=(maxcycle=1)
 ----------------------------------------------------------------------
 -----
 title
 -----
 Structure from the checkpoint file:  "vinylsulfonylbenzene.chk"
 Charge =  0 Multiplicity = 1

                         Standard orientation:
 ---------------------------------------------------------------------
 Center     Atomic      Atomic             Coordinates (Angstroms)
 Number     Number       Type             X           Y           Z
 ---------------------------------------------------------------------
      1          6           0       -2.760426   -1.207325    1.207306
      2          6           0       -1.942526   -0.170313    1.165936
      3         16           0       -1.209568    0.357864   -0.377660
      4          8           0       -1.661482   -0.546197   -1.429486
      5          8           0       -1.432644    1.796435   -0.478409
      6          6           0        0.549958    0.093229   -0.128571
      7          6           0        1.327317    1.134136    0.365938
      8          6           0        2.688495    0.926492    0.555460
      9          6           0        3.254893   -0.306208    0.249360
     10          6           0        2.466154   -1.336958   -0.253252
     11          6           0        1.104750   -1.142081   -0.445145
     12          1           0       -2.971203   -1.781796    0.315349
     13          1           0       -3.245923   -1.496562    2.129835
     14          1           0       -1.694653    0.461090    2.008205
     15          1           0        0.872163    2.091493    0.574475
     16          1           0        3.306169    1.729235    0.933931
     17          1           0        4.315074   -0.462595    0.395508
     18          1           0        2.912325   -2.289975   -0.502003
     19          1           0        0.480456   -1.924459   -0.851784
 ---------------------------------------------------------------------

 SCF Done:  E(RHF) =  -855.014674959     A.U. after    2 cycles

 The electronic state is 1-A.
 Alpha  occ. eigenvalues --  -93.78405 -20.55688 -20.55465 -11.28987 -11.28865
 Alpha  occ. eigenvalues --  -11.28318 -11.27561 -11.27543 -11.27284 -11.26695
 Alpha  occ. eigenvalues --  -11.26679  -9.05041  -6.39686  -6.39476  -6.39407
 Alpha  occ. eigenvalues --   -1.41144  -1.29860  -1.17540  -1.08965  -1.05058
 Alpha  occ. eigenvalues --   -1.03952  -0.92805  -0.85855  -0.84943  -0.78759
 Alpha  occ. eigenvalues --   -0.74315  -0.70810  -0.67762  -0.67433  -0.65879
 Alpha  occ. eigenvalues --   -0.64512  -0.63069  -0.62091  -0.58122  -0.55366
 Alpha  occ. eigenvalues --   -0.53900  -0.52696  -0.51875  -0.50734  -0.49246
 Alpha  occ. eigenvalues --   -0.45340  -0.42961  -0.37086  -0.36522
 Alpha virt. eigenvalues --    0.02782   0.03362   0.03750   0.04897   0.05298
 Alpha virt. eigenvalues --    0.05961   0.06688   0.07160   0.07716   0.08941
 Alpha virt. eigenvalues --    0.09652   0.09830   0.11185   0.11675   0.12766

 Mulliken charges:
               1
     1  C    0.542989
     2  C    0.054703
     3  S    2.967668
     4  O   -1.174108
     5  O   -1.153138
     6  C    0.432617
     7  C   -0.104856
     8  C    0.619489
     9  C    0.480908
    10  C    0.534883
    11  C    0.058148
    12  H   -0.238187
    13  H   -0.237052
    14  H   -0.418753
    15  H   -0.530451
    16  H   -0.432844
    17  H   -0.439335
    18  H   -0.437156
    19  H   -0.525524
 Sum of Mulliken charges =  -0.00000

 Dipole moment (field-independent basis, Debye):
    X=              2.9778    Y=             -2.6099    Z=              4.2607  Tot=              5.8166

 Test job not archived.
 1\1\GINC-SE199\SP\RHF\Aug-CC-pVDZ\C8H8O2S1\OHZDE\05-Apr-2025\0\\#t hf
 aug-cc-pvdz iop(5/13=1,5/36=2,99/5=2) pseudo=read geom=check guess=(re
 ad,tcheck) scf=(maxcycle=1)\\title\\0,1\C,0,-2.760426,-1.207325,1.2073
 06\C,0,-1.942526,-0.170313,1.165936\S,0,-1.209568,0.357864,-0.37766\O,
 0,-1.661482,-0.546197,-1.429486\O,0,-1.432644,1.796435,-0.478409\C,0,0
 .549958,0.093229,-0.128571\C,0,1.327317,1.134136,0.365938\C,0,2.688495
 ,0.926492,0.55546\C,0,3.254893,-0.306208,0.24936\C,0,2.466154,-1.33695
 8,-0.253252\C,0,1.10475,-1.142081,-0.445145\H,0,-2.971203,-1.781796,0.

 Normal termination of Gaussian 16 at Sat Apr  5 23:18:28 2025.
