 Gaussian 16, Revision C.01,

 ----------------------------------------------------------------------
 #t hf aug-cc-pvdz symm=none int=(grid=ultrafine) guess=(read,tcheck) s
 table=(opt,rrhf)
 ----------------------------------------------------------------------
 -----
 title
 -----
 Symbolic Z-matrix:
 Charge =  0 Multiplicity = 1

 SCF Done:  E(RHF) =  -229.794607548     A.U. after   13 cycles
 Normal termination of Gaussian 16 at Sat Apr  5 23:16:21 2025.
 Gaussian 16:  ES64L-G16RevC.01  3-Jul-2019

 ----------------------------------------------------------------------
 #t hf aug-cc-pvdz iop(5/13=1,5/36=2,99/5=2) pseudo=read geom=check gue
 ss=(read,tcheck) scf=(maxcycle=1)
 ----------------------------------------------------------------------
 -----
 title
 -----
 Structure from the checkpoint file:  "vinyl_ether.chk"
 Charge =  0 Multiplicity = 1

                         Standard orientation:
 ---------------------------------------------------------------------
 Center     Atomic      Atomic             Coordinates (Angstroms)
 Number     Number       Type             X           Y           Z
 ---------------------------------------------------------------------
      1          8           0        0.000000   -0.000000    0.327847
      2          6           0        0.000000    1.173022   -0.371331
      3          6           0       -0.000000   -1.173022   -0.371331
      4          6           0        0.000000    2.350479    0.235228
      5          6           0       -0.000000   -2.350479    0.235228
      6          1           0        0.000000    1.065115   -1.450457
      7          1           0       -0.000000   -1.065115   -1.450457
      8          1           0        0.000000    3.252035   -0.356369
      9          1           0        0.000000    2.435055    1.312056
     10          1           0       -0.000000   -3.252035   -0.356369
     11          1           0       -0.000000   -2.435055    1.312056
 ---------------------------------------------------------------------

 SCF Done:  E(RHF) =  -229.871469692     A.U. after    2 cycles

 The electronic state is 1-A1.
 Alpha  occ. eigenvalues --  -20.61982 -11.31607 -11.31573 -11.23168 -11.23166
 Alpha  occ. eigenvalues --   -1.39741  -1.07124  -1.00204  -0.83409  -0.81699
 Alpha  occ. eigenvalues --   -0.71506  -0.66648  -0.64002  -0.59593  -0.59327
 Alpha  occ. eigenvalues --   -0.54765  -0.52814  -0.40049  -0.33655
 Alpha virt. eigenvalues --    0.03565   0.04340   0.04663   0.06122   0.06272
 Alpha virt. eigenvalues --    0.08563   0.10085   0.10751   0.11149   0.11588
 Alpha virt. eigenvalues --    0.14050   0.14850   0.15665   0.16262   0.17545

 Mulliken charges:
               1
     1  O   -0.582431
     2  C    0.458616
     3  C    0.458616
     4  C    0.822209
     5  C    0.822209
     6  H   -0.396362
     7  H   -0.396362
     8  H   -0.248012
     9  H   -0.345236
    10  H   -0.248012
    11  H   -0.345236
 Sum of Mulliken charges =  -0.00000

 Dipole moment (field-independent basis, Debye):
    X=             -0.0000    Y=              0.0000    Z=             -1.4476  Tot=              1.4476

 Test job not archived.
 1\1\GINC-SE194\SP\RHF\Aug-CC-pVDZ\C4H6O1\OHZDE\05-Apr-2025\0\\#t hf au
 g-cc-pvdz iop(5/13=1,5/36=2,99/5=2) pseudo=read geom=check guess=(read
 ,tcheck) scf=(maxcycle=1)\\title\\0,1\O,0,0.,0.,0.327847\C,0,0.,1.1730
 22,-0.371331\C,0,0.,-1.173022,-0.371331\C,0,0.,2.350479,0.235228\C,0,0
 .,-2.350479,0.235228\H,0,0.,1.065115,-1.450457\H,0,0.,-1.065115,-1.450
 457\H,0,0.,3.252035,-0.356369\H,0,0.,2.435055,1.312056\H,0,0.,-3.25203
 5,-0.356369\H,0,0.,-2.435055,1.312056\\Version=ES64L-G16RevC.01\State=
 1-A1\HF=-229.8714697\RMSD=6.303e-03\Dipole=0.,0.,-0.5695222\Quadrupole

 Normal termination of Gaussian 16 at Sat Apr  5 23:16:24 2025.
