 Gaussian 16, Revision C.01,

 ----------------------------------------------------------------------
 #t hf aug-cc-pvdz symm=none int=(grid=ultrafine) guess=(read,tcheck) s
 table=(opt,rrhf)
 ----------------------------------------------------------------------
 -----
 title
 -----
 Symbolic Z-matrix:
 Charge =  0 Multiplicity = 1

 SCF Done:  E(RHF) =  -304.710222036     A.U. after   14 cycles
 Normal termination of Gaussian 16 at Sat Apr  5 23:16:26 2025.
 Gaussian 16:  ES64L-G16RevC.01  3-Jul-2019

 ----------------------------------------------------------------------
 #t hf aug-cc-pvdz iop(5/13=1,5/36=2,99/5=2) pseudo=read geom=check gue
 ss=(read,tcheck) scf=(maxcycle=1)
 ----------------------------------------------------------------------
 -----
 title
 -----
 Structure from the checkpoint file:  "vinyl_acetate.chk"
 Charge =  0 Multiplicity = 1

                         Standard orientation:
 ---------------------------------------------------------------------
 Center     Atomic      Atomic             Coordinates (Angstroms)
 Number     Number       Type             X           Y           Z
 ---------------------------------------------------------------------
      1          6           0       -1.357401    1.261636   -0.000015
      2          6           0       -1.021256   -0.208745    0.000007
      3          8           0        0.300018   -0.575884   -0.000304
      4          6           0        1.343345    0.319637    0.000014
      5          6           0        2.594789   -0.109974    0.000104
      6          8           0       -1.841186   -1.081285    0.000173
      7          1           0       -0.954127    1.760057    0.881924
      8          1           0       -0.953586    1.760128   -0.881661
      9          1           0       -2.438358    1.353144   -0.000324
     10          1           0        1.083879    1.367562    0.000051
     11          1           0        2.832057   -1.163725    0.000004
     12          1           0        3.402610    0.604869    0.000394
 ---------------------------------------------------------------------

 SCF Done:  E(RHF) =  -304.810297830     A.U. after    2 cycles

 The electronic state is 1-A.
 Alpha  occ. eigenvalues --  -20.63509 -20.56825 -11.41034 -11.32652 -11.27096
 Alpha  occ. eigenvalues --  -11.24610  -1.43380  -1.34725  -1.05959  -1.02752
 Alpha  occ. eigenvalues --   -0.87255  -0.79426  -0.72616  -0.68881  -0.68164
 Alpha  occ. eigenvalues --   -0.62875  -0.61322  -0.59552  -0.57508  -0.54476
 Alpha  occ. eigenvalues --   -0.52128  -0.47579  -0.37596
 Alpha virt. eigenvalues --    0.02776   0.04018   0.05068   0.05080   0.06196
 Alpha virt. eigenvalues --    0.08449   0.09004   0.09641   0.12118   0.12200
 Alpha virt. eigenvalues --    0.12533   0.13513   0.14214   0.15158   0.15448

 Mulliken charges:
               1
     1  C    0.308337
     2  C    0.407949
     3  O   -0.586909
     4  C    0.661141
     5  C    0.707251
     6  O   -0.449835
     7  H    0.106555
     8  H    0.106414
     9  H   -0.179868
    10  H   -0.504182
    11  H   -0.356411
    12  H   -0.220443
 Sum of Mulliken charges =  -0.00000

 Dipole moment (field-independent basis, Debye):
    X=              1.8278    Y=              4.2654    Z=              0.0001  Tot=              4.6405

 Test job not archived.
 1\1\GINC-SE190\SP\RHF\Aug-CC-pVDZ\C4H6O2\OHZDE\05-Apr-2025\0\\#t hf au
 g-cc-pvdz iop(5/13=1,5/36=2,99/5=2) pseudo=read geom=check guess=(read
 ,tcheck) scf=(maxcycle=1)\\title\\0,1\C,0,-1.357401,1.261636,-0.000015
 \C,0,-1.021256,-0.208745,0.000007\O,0,0.300018,-0.575884,-0.000304\C,0
 ,1.343345,0.319637,0.000014\C,0,2.594789,-0.109974,0.000104\O,0,-1.841
 186,-1.081285,0.000173\H,0,-0.954127,1.760057,0.881924\H,0,-0.953586,1
 .760128,-0.881661\H,0,-2.438358,1.353144,-0.000324\H,0,1.083879,1.3675
 62,0.000051\H,0,2.832057,-1.163725,0.000004\H,0,3.40261,0.604869,0.000

 Normal termination of Gaussian 16 at Sat Apr  5 23:16:30 2025.
