 Gaussian 16, Revision C.01,

 ----------------------------------------------------------------------
 #t hf aug-cc-pvdz symm=none int=(grid=ultrafine) guess=(read,tcheck) s
 table=(opt,rrhf)
 ----------------------------------------------------------------------
 -----
 title
 -----
 Symbolic Z-matrix:
 Charge =  0 Multiplicity = 1

 SCF Done:  E(RHF) =  -413.686810378     A.U. after   13 cycles
 Normal termination of Gaussian 16 at Sat Apr  5 22:50:07 2025.
 Gaussian 16:  ES64L-G16RevC.01  3-Jul-2019

 ----------------------------------------------------------------------
 #t hf aug-cc-pvdz iop(5/13=1,5/36=2,99/5=2) pseudo=read geom=check gue
 ss=(read,tcheck) scf=(maxcycle=1)
 ----------------------------------------------------------------------
 -----
 title
 -----
 Structure from the checkpoint file:  "Z-1-3-3-trifluoropropene.chk"
 Charge =  0 Multiplicity = 1

                         Standard orientation:
 ---------------------------------------------------------------------
 Center     Atomic      Atomic             Coordinates (Angstroms)
 Number     Number       Type             X           Y           Z
 ---------------------------------------------------------------------
      1          6           0       -0.795540   -1.498083    0.000000
      2          9           0        0.356729   -2.191946    0.000000
      3          1           0       -1.660114   -2.146002    0.000000
      4          6           0       -0.829762   -0.177917   -0.000000
      5          1           0       -1.791395    0.315467   -0.000000
      6          6           0        0.375366    0.693448   -0.000000
      7          1           0        1.319452    0.152643    0.000000
      8          9           0        0.356729    1.516706    1.098964
      9          9           0        0.356729    1.516706   -1.098964
 ---------------------------------------------------------------------

 SCF Done:  E(RHF) =  -413.832522006     A.U. after    2 cycles

 The electronic state is 1-A'.
 Alpha  occ. eigenvalues --  -26.16197 -26.13694 -26.13686 -11.43459 -11.37153
 Alpha  occ. eigenvalues --  -11.27582  -1.70202  -1.69847  -1.65330  -1.11627
 Alpha  occ. eigenvalues --   -0.99876  -0.89028  -0.83149  -0.81045  -0.80745
 Alpha  occ. eigenvalues --   -0.79644  -0.77408  -0.72984  -0.69930  -0.69425
 Alpha  occ. eigenvalues --   -0.66278  -0.62421  -0.55504  -0.42491
 Alpha virt. eigenvalues --    0.03098   0.04755   0.05002   0.09341   0.09703
 Alpha virt. eigenvalues --    0.09723   0.10579   0.13018   0.13660   0.14652
 Alpha virt. eigenvalues --    0.15237   0.16023   0.16255   0.16412   0.21585

 Mulliken charges:
               1
     1  C    0.671712
     2  F   -0.312669
     3  H   -0.220400
     4  C    0.238059
     5  H   -0.307151
     6  C    0.929541
     7  H   -0.246604
     8  F   -0.376244
     9  F   -0.376244
 Sum of Mulliken charges =   0.00000

 Dipole moment (field-independent basis, Debye):
    X=             -1.8095    Y=             -2.0944    Z=             -0.0000  Tot=              2.7678

 Test job not archived.
 1\1\GINC-SE183\SP\RHF\Aug-CC-pVDZ\C3H3F3\OHZDE\05-Apr-2025\0\\#t hf au
 g-cc-pvdz iop(5/13=1,5/36=2,99/5=2) pseudo=read geom=check guess=(read
 ,tcheck) scf=(maxcycle=1)\\title\\0,1\C,0,-0.79554,-1.498083,0.\F,0,0.
 356729,-2.191946,0.\H,0,-1.660114,-2.146002,0.\C,0,-0.829762,-0.177917
 ,0.\H,0,-1.791395,0.315467,0.\C,0,0.375366,0.693448,0.\H,0,1.319452,0.
 152643,0.\F,0,0.356729,1.516706,1.098964\F,0,0.356729,1.516706,-1.0989
 64\\Version=ES64L-G16RevC.01\State=1-A'\HF=-413.832522\RMSD=8.301e-03\
 Dipole=-0.7119055,-0.824006,0.\Quadrupole=4.53577,-2.5395631,-1.996206

 Normal termination of Gaussian 16 at Sat Apr  5 22:50:10 2025.
