 Gaussian 16, Revision C.01,

 ----------------------------------------------------------------------
 #t hf aug-cc-pvdz symm=none int=(grid=ultrafine) guess=(read,tcheck) s
 table=(opt,rrhf)
 ----------------------------------------------------------------------
 -----
 title
 -----
 Symbolic Z-matrix:
 Charge =  0 Multiplicity = 1

 SCF Done:  E(RHF) =  -275.762537542     A.U. after   11 cycles
 Normal termination of Gaussian 16 at Sat Apr  5 22:48:56 2025.
 Gaussian 16:  ES64L-G16RevC.01  3-Jul-2019

 ----------------------------------------------------------------------
 #t hf aug-cc-pvdz iop(5/13=1,5/36=2,99/5=2) pseudo=read geom=check gue
 ss=(read,tcheck) scf=(maxcycle=1)
 ----------------------------------------------------------------------
 -----
 title
 -----
 Structure from the checkpoint file:  "Z-1-2-difluoroethene.chk"
 Charge =  0 Multiplicity = 1

                         Standard orientation:
 ---------------------------------------------------------------------
 Center     Atomic      Atomic             Coordinates (Angstroms)
 Number     Number       Type             X           Y           Z
 ---------------------------------------------------------------------
      1          6           0        0.000000    0.660572    0.578468
      2          6           0       -0.000000   -0.660572    0.578468
      3          9           0        0.000000    1.383039   -0.550638
      4          9           0       -0.000000   -1.383039   -0.550638
      5          1           0        0.000000    1.245818    1.484934
      6          1           0       -0.000000   -1.245818    1.484934
 ---------------------------------------------------------------------

 SCF Done:  E(RHF) =  -275.862012716     A.U. after    2 cycles

 The electronic state is 1-A1.
 Alpha  occ. eigenvalues --  -26.14876 -26.14872 -11.35164 -11.34990  -1.69230
 Alpha  occ. eigenvalues --   -1.68346  -1.08083  -0.90242  -0.81818  -0.80353
 Alpha  occ. eigenvalues --   -0.77127  -0.75623  -0.75124  -0.65007  -0.61147
 Alpha  occ. eigenvalues --   -0.40590
 Alpha virt. eigenvalues --    0.03225   0.04719   0.08711   0.10392   0.10645
 Alpha virt. eigenvalues --    0.10743   0.12458   0.15567   0.15914   0.18689
 Alpha virt. eigenvalues --    0.22038   0.23701   0.25386   0.27332   0.29134

 Mulliken charges:
               1
     1  C    0.516746
     2  C    0.516746
     3  F   -0.310777
     4  F   -0.310777
     5  H   -0.205970
     6  H   -0.205970
 Sum of Mulliken charges =   0.00000

 Dipole moment (field-independent basis, Debye):
    X=              0.0000    Y=             -0.0000    Z=              3.0910  Tot=              3.0910

 Test job not archived.
 1\1\GINC-SE158\SP\RHF\Aug-CC-pVDZ\C2H2F2\OHZDE\05-Apr-2025\0\\#t hf au
 g-cc-pvdz iop(5/13=1,5/36=2,99/5=2) pseudo=read geom=check guess=(read
 ,tcheck) scf=(maxcycle=1)\\title\\0,1\C,0,0.,0.660572,0.578468\C,0,0.,
 -0.660572,0.578468\F,0,0.,1.383039,-0.550638\F,0,0.,-1.383039,-0.55063
 8\H,0,0.,1.245818,1.484934\H,0,0.,-1.245818,1.484934\\Version=ES64L-G1
 6RevC.01\State=1-A1\HF=-275.8620127\RMSD=8.584e-03\Dipole=0.,0.,1.2160
 744\Quadrupole=-0.6916022,-0.7216894,1.4132915,0.,0.,0.\PG=C02V [SGV(C
 2H2F2)]\\@

 Normal termination of Gaussian 16 at Sat Apr  5 22:50:00 2025.
