 Gaussian 16, Revision C.01,

 ----------------------------------------------------------------------
 #t hf aug-cc-pvdz symm=none int=(grid=ultrafine) guess=(read,tcheck) s
 table=(opt,rrhf)
 ----------------------------------------------------------------------
 -----
 title
 -----
 Symbolic Z-matrix:
 Charge =  0 Multiplicity = 1

 SCF Done:  E(RHF) =  -995.886330505     A.U. after   12 cycles

 1\1\GINC-SE115\Stability\RHF\Aug-CC-pVDZ\C2H2Cl2\OHZDE\05-Apr-2025\0\\
 #t hf aug-cc-pvdz symm=none int=(grid=ultrafine) guess=(read,tcheck) s
 table=(opt,rrhf)\\title\\0,1\C,0,0.,0.661946,0.959662\C,0,0.,-0.661946
 ,0.959662\Cl,0,0.,1.660082,-0.449807\Cl,0,0.,-1.660082,-0.449807\H,0,0
 .,1.210752,1.888744\H,0,0.,-1.210752,1.888744\\Version=ES64L-G16RevC.0
 1\HF=-995.8863305\RMSD=2.675e-09\Dipole=0.,0.,0.8701898\Quadrupole=-1.
 9216419,-1.0964816,3.0181235,0.,0.,0.\PG=Unknown\\@
 The archive entry for this job was punched.

 Normal termination of Gaussian 16 at Sat Apr  5 22:48:57 2025.
 Gaussian 16:  ES64L-G16RevC.01  3-Jul-2019

 ----------------------------------------------------------------------
 #t hf aug-cc-pvdz iop(5/13=1,5/36=2,99/5=2) pseudo=read geom=check gue
 ss=(read,tcheck) scf=(maxcycle=1)
 ----------------------------------------------------------------------
 -----
 title
 -----
 Structure from the checkpoint file:  "Z-1-2-dichloroethene.chk"
 Charge =  0 Multiplicity = 1

                         Standard orientation:
 ---------------------------------------------------------------------
 Center     Atomic      Atomic             Coordinates (Angstroms)
 Number     Number       Type             X           Y           Z
 ---------------------------------------------------------------------
      1          6           0        0.000000    0.661946    0.959662
      2          6           0       -0.000000   -0.661946    0.959662
      3         17           0        0.000000    1.660082   -0.449807
      4         17           0       -0.000000   -1.660082   -0.449807
      5          1           0        0.000000    1.210752    1.888744
      6          1           0       -0.000000   -1.210752    1.888744
 ---------------------------------------------------------------------

 SCF Done:  E(RHF) =  -995.950306726     A.U. after    2 cycles

 The electronic state is 1-A1.
 Alpha  occ. eigenvalues -- -103.68086-103.68085 -11.32893 -11.32716 -10.71384
 Alpha  occ. eigenvalues --  -10.71379  -8.37123  -8.37117  -8.36792  -8.36790
 Alpha  occ. eigenvalues --   -8.36789  -8.36787  -1.22010  -1.17746  -1.02267
 Alpha  occ. eigenvalues --   -0.79557  -0.70832  -0.63238  -0.56259  -0.55792
 Alpha  occ. eigenvalues --   -0.50265  -0.48515  -0.47289  -0.37999
 Alpha virt. eigenvalues --    0.03270   0.04850   0.07219   0.09302   0.10093
 Alpha virt. eigenvalues --    0.11664   0.13794   0.14302   0.14517   0.15533
 Alpha virt. eigenvalues --    0.15820   0.16162   0.17115   0.17512   0.19735

 Mulliken charges:
               1
     1  C    0.463214
     2  C    0.463214
     3  Cl  -0.201681
     4  Cl  -0.201681
     5  H   -0.261533
     6  H   -0.261533
 Sum of Mulliken charges =  -0.00000

 Dipole moment (field-independent basis, Debye):
    X=              0.0000    Y=              0.0000    Z=              2.2988  Tot=              2.2988

 Test job not archived.
 1\1\GINC-SE115\SP\RHF\Aug-CC-pVDZ\C2H2Cl2\OHZDE\05-Apr-2025\0\\#t hf a
 ug-cc-pvdz iop(5/13=1,5/36=2,99/5=2) pseudo=read geom=check guess=(rea
 d,tcheck) scf=(maxcycle=1)\\title\\0,1\C,0,0.,0.661946,0.959662\C,0,0.
 ,-0.661946,0.959662\Cl,0,0.,1.660082,-0.449807\Cl,0,0.,-1.660082,-0.44
 9807\H,0,0.,1.210752,1.888744\H,0,0.,-1.210752,1.888744\\Version=ES64L
 -G16RevC.01\State=1-A1\HF=-995.9503067\RMSD=5.565e-03\Dipole=0.,0.,0.9
 044068\Quadrupole=-1.9403152,-1.1517696,3.0920848,0.,0.,0.\PG=C02V [SG
 V(C2H2Cl2)]\\@

 Normal termination of Gaussian 16 at Sat Apr  5 22:50:00 2025.
