 Gaussian 16, Revision C.01,

 ----------------------------------------------------------------------
 #t hf aug-cc-pvdz symm=none int=(grid=ultrafine) guess=(read,tcheck) s
 table=(opt,rrhf)
 ----------------------------------------------------------------------
 -----
 title
 -----
 Symbolic Z-matrix:
 Charge =  0 Multiplicity = 1

 SCF Done:  E(RHF) =  -233.013004451     A.U. after   14 cycles
 Normal termination of Gaussian 16 at Sat Apr  5 22:49:24 2025.
 Gaussian 16:  ES64L-G16RevC.01  3-Jul-2019

 ----------------------------------------------------------------------
 #t hf aug-cc-pvdz iop(5/13=1,5/36=2,99/5=2) pseudo=read geom=check gue
 ss=(read,tcheck) scf=(maxcycle=1)
 ----------------------------------------------------------------------
 -----
 title
 -----
 Structure from the checkpoint file:  "Z-1-3-hexadiene.chk"
 Charge =  0 Multiplicity = 1

                         Standard orientation:
 ---------------------------------------------------------------------
 Center     Atomic      Atomic             Coordinates (Angstroms)
 Number     Number       Type             X           Y           Z
 ---------------------------------------------------------------------
      1          1           0       -2.046077    1.260629    0.000000
      2          6           0       -1.219389    0.555593    0.000000
      3          1           0        0.021554    2.201006    0.000000
      4          6           0        0.000000    1.114678    0.000000
      5          1           0        1.392911   -0.573551    0.000000
      6          6           0        1.319865    0.504047    0.000000
      7          1           0        3.420124    0.739387    0.000000
      8          1           0        2.436778    2.299849    0.000000
      9          6           0        2.450226    1.216544    0.000000
     10          1           0       -2.367696   -0.977943    0.864681
     11          1           0       -2.367696   -0.977943   -0.864681
     12          6           0       -1.702301   -0.867901    0.000000
     13          1           0       -1.238007   -2.971360    0.000000
     14          1           0       -0.064100   -2.005323   -0.883366
     15          1           0       -0.064100   -2.005323    0.883366
     16          6           0       -0.702350   -2.021198    0.000000
 ---------------------------------------------------------------------

 SCF Done:  E(RHF) =  -233.087325214     A.U. after    2 cycles

 The electronic state is 1-A'.
 Alpha  occ. eigenvalues --  -11.24394 -11.24245 -11.24149 -11.23654 -11.23338
 Alpha  occ. eigenvalues --  -11.22816  -1.09080  -1.04007  -0.97622  -0.87913
 Alpha  occ. eigenvalues --   -0.79513  -0.73147  -0.65075  -0.62445  -0.61769
 Alpha  occ. eigenvalues --   -0.57398  -0.56661  -0.52569  -0.50679  -0.49492
 Alpha  occ. eigenvalues --   -0.46681  -0.43552  -0.31361
 Alpha virt. eigenvalues --    0.03445   0.04036   0.04352   0.05384   0.05867
 Alpha virt. eigenvalues --    0.06137   0.07582   0.07795   0.08498   0.09506
 Alpha virt. eigenvalues --    0.10295   0.12254   0.13231   0.14046   0.14500

 Mulliken charges:
               1
     1  H   -0.491142
     2  C   -0.315602
     3  H   -0.511805
     4  C    0.434655
     5  H   -0.741363
     6  C    0.679878
     7  H   -0.357357
     8  H   -0.346901
     9  C    0.906982
    10  H    0.083059
    11  H    0.083059
    12  C   -0.101435
    13  H   -0.187178
    14  H    0.036286
    15  H    0.036286
    16  C    0.792576
 Sum of Mulliken charges =   0.00000

 Dipole moment (field-independent basis, Debye):
    X=             -0.5647    Y=             -0.5107    Z=             -0.0000  Tot=              0.7614

 Test job not archived.
 1\1\GINC-SE225\SP\RHF\Aug-CC-pVDZ\C6H10\OHZDE\05-Apr-2025\0\\#t hf aug
 -cc-pvdz iop(5/13=1,5/36=2,99/5=2) pseudo=read geom=check guess=(read,
 tcheck) scf=(maxcycle=1)\\title\\0,1\H,0,-2.046077,1.260629,0.\C,0,-1.
 219389,0.555593,0.\H,0,0.021554,2.201006,0.\C,0,0.,1.114678,0.\H,0,1.3
 92911,-0.573551,0.\C,0,1.319865,0.504047,0.\H,0,3.420124,0.739387,0.\H
 ,0,2.436778,2.299849,0.\C,0,2.450226,1.216544,0.\H,0,-2.367696,-0.9779
 43,0.864681\H,0,-2.367696,-0.977943,-0.864681\C,0,-1.702301,-0.867901,
 0.\H,0,-1.238007,-2.97136,0.\H,0,-0.0641,-2.005323,-0.883366\H,0,-0.06

 Normal termination of Gaussian 16 at Sat Apr  5 22:50:03 2025.
