 Gaussian 16, Revision C.01,

 ----------------------------------------------------------------------
 #t hf aug-cc-pvdz symm=none int=(grid=ultrafine) guess=(read,tcheck) s
 table=(opt,rrhf)
 ----------------------------------------------------------------------
 -----
 title
 -----
 Symbolic Z-matrix:
 Charge =  0 Multiplicity = 1

 SCF Done:  E(RHF) =  -233.012290654     A.U. after   13 cycles
 Normal termination of Gaussian 16 at Sat Apr  5 22:49:22 2025.
 Gaussian 16:  ES64L-G16RevC.01  3-Jul-2019

 ----------------------------------------------------------------------
 #t hf aug-cc-pvdz iop(5/13=1,5/36=2,99/5=2) pseudo=read geom=check gue
 ss=(read,tcheck) scf=(maxcycle=1)
 ----------------------------------------------------------------------
 -----
 title
 -----
 Structure from the checkpoint file:  "Z-1-4-hexadiene.chk"
 Charge =  0 Multiplicity = 1

                         Standard orientation:
 ---------------------------------------------------------------------
 Center     Atomic      Atomic             Coordinates (Angstroms)
 Number     Number       Type             X           Y           Z
 ---------------------------------------------------------------------
      1          6           0       -2.336058    0.040054   -0.754448
      2          1           0       -3.277485    0.507889   -0.453946
      3          1           0       -1.772566    0.765717   -1.337617
      4          1           0       -2.599402   -0.788479   -1.416868
      5          6           0       -1.586968   -0.461683    0.442081
      6          1           0       -2.107557   -1.217663    1.022372
      7          6           0       -0.380120   -0.094692    0.868817
      8          1           0        0.005574   -0.582736    1.758463
      9          6           0        0.533363    0.933703    0.270646
     10          1           0        0.042346    1.473818   -0.542976
     11          1           0        0.746217    1.697623    1.028760
     12          6           0        1.855390    0.410014   -0.232532
     13          1           0        2.574553    1.177611   -0.503227
     14          6           0        2.197298   -0.864315   -0.374253
     15          1           0        3.172382   -1.142407   -0.750747
     16          1           0        1.518518   -1.669861   -0.126075
 ---------------------------------------------------------------------

 SCF Done:  E(RHF) =  -233.086816329     A.U. after    2 cycles

 The electronic state is 1-A.
 Alpha  occ. eigenvalues --  -11.24265 -11.23998 -11.23678 -11.23254 -11.23017
 Alpha  occ. eigenvalues --  -11.22579  -1.09001  -1.03807  -0.96048  -0.90165
 Alpha  occ. eigenvalues --   -0.77303  -0.71163  -0.66156  -0.64097  -0.59373
 Alpha  occ. eigenvalues --   -0.56807  -0.56148  -0.54610  -0.52304  -0.49839
 Alpha  occ. eigenvalues --   -0.46980  -0.36468  -0.34955
 Alpha virt. eigenvalues --    0.03541   0.04220   0.04621   0.04914   0.06144
 Alpha virt. eigenvalues --    0.06290   0.06848   0.07322   0.08238   0.09633
 Alpha virt. eigenvalues --    0.11399   0.12928   0.13241   0.13861   0.14396

 Mulliken charges:
               1
     1  C    0.309361
     2  H    0.068824
     3  H   -0.170000
     4  H    0.072376
     5  C   -0.111641
     6  H   -0.415942
     7  C    0.909938
     8  H   -0.455721
     9  C   -0.053048
    10  H   -0.024697
    11  H    0.092293
    12  C    0.374761
    13  H   -0.405943
    14  C    0.425329
    15  H   -0.318065
    16  H   -0.297826
 Sum of Mulliken charges =   0.00000

 Dipole moment (field-independent basis, Debye):
    X=             -0.3643    Y=              0.3749    Z=             -0.1650  Tot=              0.5482

 Test job not archived.
 1\1\GINC-SE009\SP\RHF\Aug-CC-pVDZ\C6H10\OHZDE\05-Apr-2025\0\\#t hf aug
 -cc-pvdz iop(5/13=1,5/36=2,99/5=2) pseudo=read geom=check guess=(read,
 tcheck) scf=(maxcycle=1)\\title\\0,1\C,0,-2.336058,0.040054,-0.754448\
 H,0,-3.277485,0.507889,-0.453946\H,0,-1.772566,0.765717,-1.337617\H,0,
 -2.599402,-0.788479,-1.416868\C,0,-1.586968,-0.461683,0.442081\H,0,-2.
 107557,-1.217663,1.022372\C,0,-0.38012,-0.094692,0.868817\H,0,0.005574
 ,-0.582736,1.758463\C,0,0.533363,0.933703,0.270646\H,0,0.042346,1.4738
 18,-0.542976\H,0,0.746217,1.697623,1.02876\C,0,1.85539,0.410014,-0.232

 Normal termination of Gaussian 16 at Sat Apr  5 22:50:04 2025.
