 Gaussian 16, Revision C.01,

 ----------------------------------------------------------------------
 #t hf aug-cc-pvdz symm=none int=(grid=ultrafine) guess=(read,tcheck) s
 table=(opt,rrhf)
 ----------------------------------------------------------------------
 -----
 title
 -----
 Symbolic Z-matrix:
 Charge =  0 Multiplicity = 1

 SCF Done:  E(RHF) =  -231.834679926     A.U. after   13 cycles
 Normal termination of Gaussian 16 at Sat Apr  5 22:50:21 2025.
 Gaussian 16:  ES64L-G16RevC.01  3-Jul-2019

 ----------------------------------------------------------------------
 #t hf aug-cc-pvdz iop(5/13=1,5/36=2,99/5=2) pseudo=read geom=check gue
 ss=(read,tcheck) scf=(maxcycle=1)
 ----------------------------------------------------------------------
 -----
 title
 -----
 Structure from the checkpoint file:  "Z-1-3-5-hexatriene.chk"
 Charge =  0 Multiplicity = 1

                         Standard orientation:
 ---------------------------------------------------------------------
 Center     Atomic      Atomic             Coordinates (Angstroms)
 Number     Number       Type             X           Y           Z
 ---------------------------------------------------------------------
      1          6           0        0.000000    0.674455    0.756935
      2          6           0       -0.000000   -0.674455    0.756935
      3          6           0        0.000000    1.546499   -0.398566
      4          6           0       -0.000000   -1.546499   -0.398566
      5          6           0        0.000000    2.881171   -0.319932
      6          6           0       -0.000000   -2.881171   -0.319932
      7          1           0        0.000000    1.175747    1.719147
      8          1           0       -0.000000   -1.175747    1.719147
      9          1           0        0.000000    1.087294   -1.380064
     10          1           0       -0.000000   -1.087294   -1.380064
     11          1           0        0.000000    3.391009    0.635734
     12          1           0       -0.000000   -3.391009    0.635734
     13          1           0        0.000000    3.500756   -1.205438
     14          1           0       -0.000000   -3.500756   -1.205438
 ---------------------------------------------------------------------

 SCF Done:  E(RHF) =  -231.907580739     A.U. after    2 cycles

 The electronic state is 1-A1.
 Alpha  occ. eigenvalues --  -11.25051 -11.25051 -11.24930 -11.24787 -11.24202
 Alpha  occ. eigenvalues --  -11.24202  -1.10442  -1.05330  -0.98392  -0.84702
 Alpha  occ. eigenvalues --   -0.79841  -0.73203  -0.68056  -0.64146  -0.60523
 Alpha  occ. eigenvalues --   -0.57111  -0.55247  -0.53126  -0.48549  -0.47260
 Alpha  occ. eigenvalues --   -0.40035  -0.29984
 Alpha virt. eigenvalues --    0.03635   0.03814   0.04259   0.05723   0.05938
 Alpha virt. eigenvalues --    0.07197   0.07676   0.08429   0.10021   0.10256
 Alpha virt. eigenvalues --    0.12124   0.12179   0.12422   0.12880   0.14584

 Mulliken charges:
               1
     1  C    0.102924
     2  C    0.102924
     3  C    0.712952
     4  C    0.712952
     5  C    0.923245
     6  C    0.923245
     7  H   -0.531777
     8  H   -0.531777
     9  H   -0.512215
    10  H   -0.512215
    11  H   -0.330836
    12  H   -0.330836
    13  H   -0.364293
    14  H   -0.364293
 Sum of Mulliken charges =  -0.00000

 Dipole moment (field-independent basis, Debye):
    X=             -0.0000    Y=              0.0000    Z=             -0.0254  Tot=              0.0254

 Test job not archived.
 1\1\GINC-SE185\SP\RHF\Aug-CC-pVDZ\C6H8\OHZDE\05-Apr-2025\0\\#t hf aug-
 cc-pvdz iop(5/13=1,5/36=2,99/5=2) pseudo=read geom=check guess=(read,t
 check) scf=(maxcycle=1)\\title\\0,1\C,0,0.,0.674455,0.756935\C,0,0.,-0
 .674455,0.756935\C,0,0.,1.546499,-0.398566\C,0,0.,-1.546499,-0.398566\
 C,0,0.,2.881171,-0.319932\C,0,0.,-2.881171,-0.319932\H,0,0.,1.175747,1
 .719147\H,0,0.,-1.175747,1.719147\H,0,0.,1.087294,-1.380064\H,0,0.,-1.
 087294,-1.380064\H,0,0.,3.391009,0.635734\H,0,0.,-3.391009,0.635734\H,
 0,0.,3.500756,-1.205438\H,0,0.,-3.500756,-1.205438\\Version=ES64L-G16R

 Normal termination of Gaussian 16 at Sat Apr  5 22:50:24 2025.
