 Gaussian 16, Revision C.01,

 ----------------------------------------------------------------------
 #t hf aug-cc-pvdz symm=none int=(grid=ultrafine) guess=(read,tcheck) s
 table=(opt,rrhf)
 ----------------------------------------------------------------------
 -----
 title
 -----
 Symbolic Z-matrix:
 Charge =  0 Multiplicity = 1

 SCF Done:  E(RHF) =  -576.010760503     A.U. after   13 cycles

 1\1\GINC-SE010\Stability\RHF\Aug-CC-pVDZ\C3H5Cl1\OHZDE\05-Apr-2025\0\\
 #t hf aug-cc-pvdz symm=none int=(grid=ultrafine) guess=(read,tcheck) s
 table=(opt,rrhf)\\title\\0,1\C,0,0.,0.915171,0.\C,0,-1.234906,0.436582
 ,0.\C,0,-1.665685,-0.992435,0.\Cl,0,1.445564,-0.071997,0.\H,0,0.228804
 ,1.968959,0.\H,0,-2.020171,1.186064,0.\H,0,-0.816904,-1.671987,0.\H,0,
 -2.281387,-1.207498,0.876786\H,0,-2.281387,-1.207498,-0.876786\\Versio
 n=ES64L-G16RevC.01\HF=-576.0107605\RMSD=5.148e-09\Dipole=-0.762029,0.1
 95387,0.\Quadrupole=0.3076342,1.4838421,-1.7914763,0.0968318,0.,0.\PG=

 Normal termination of Gaussian 16 at Sat Apr  5 22:50:04 2025.
 Gaussian 16:  ES64L-G16RevC.01  3-Jul-2019

 ----------------------------------------------------------------------
 #t hf aug-cc-pvdz iop(5/13=1,5/36=2,99/5=2) pseudo=read geom=check gue
 ss=(read,tcheck) scf=(maxcycle=1)
 ----------------------------------------------------------------------
 -----
 title
 -----
 Structure from the checkpoint file:  "Z-1-chloro-1-propene.chk"
 Charge =  0 Multiplicity = 1

                         Standard orientation:
 ---------------------------------------------------------------------
 Center     Atomic      Atomic             Coordinates (Angstroms)
 Number     Number       Type             X           Y           Z
 ---------------------------------------------------------------------
      1          6           0       -0.000000    0.915171    0.000000
      2          6           0       -1.234906    0.436582    0.000000
      3          6           0       -1.665685   -0.992435    0.000000
      4         17           0        1.445564   -0.071997    0.000000
      5          1           0        0.228804    1.968959    0.000000
      6          1           0       -2.020171    1.186064    0.000000
      7          1           0       -0.816904   -1.671987    0.000000
      8          1           0       -2.281387   -1.207498    0.876786
      9          1           0       -2.281387   -1.207498   -0.876786
 ---------------------------------------------------------------------

 SCF Done:  E(RHF) =  -576.068242048     A.U. after    2 cycles

 The electronic state is 1-A'.
 Alpha  occ. eigenvalues -- -103.66117 -11.30080 -11.26289 -11.24238 -10.69409
 Alpha  occ. eigenvalues --   -8.35139  -8.34842  -8.34828  -1.17897  -1.05727
 Alpha  occ. eigenvalues --   -0.94055  -0.75863  -0.68170  -0.60000  -0.58420
 Alpha  occ. eigenvalues --   -0.54975  -0.51481  -0.50790  -0.46108  -0.36569
 Alpha virt. eigenvalues --    0.03343   0.04527   0.05395   0.05784   0.07275
 Alpha virt. eigenvalues --    0.09479   0.12033   0.12101   0.13457   0.14493
 Alpha virt. eigenvalues --    0.15074   0.15217   0.15935   0.16882   0.17409

 Mulliken charges:
               1
     1  C    0.042042
     2  C    0.708879
     3  C    0.264947
     4  Cl  -0.326486
     5  H   -0.349371
     6  H   -0.356641
     7  H   -0.046083
     8  H    0.031356
     9  H    0.031356
 Sum of Mulliken charges =  -0.00000

 Dipole moment (field-independent basis, Debye):
    X=             -2.0108    Y=              0.5180    Z=              0.0000  Tot=              2.0764

 Test job not archived.
 1\1\GINC-SE010\SP\RHF\Aug-CC-pVDZ\C3H5Cl1\OHZDE\05-Apr-2025\0\\#t hf a
 ug-cc-pvdz iop(5/13=1,5/36=2,99/5=2) pseudo=read geom=check guess=(rea
 d,tcheck) scf=(maxcycle=1)\\title\\0,1\C,0,0.,0.915171,0.\C,0,-1.23490
 6,0.436582,0.\C,0,-1.665685,-0.992435,0.\Cl,0,1.445564,-0.071997,0.\H,
 0,0.228804,1.968959,0.\H,0,-2.020171,1.186064,0.\H,0,-0.816904,-1.6719
 87,0.\H,0,-2.281387,-1.207498,0.876786\H,0,-2.281387,-1.207498,-0.8767
 86\\Version=ES64L-G16RevC.01\State=1-A'\HF=-576.068242\RMSD=5.887e-03\
 Dipole=-0.7911,0.2037878,0.\Quadrupole=0.3124959,1.5011748,-1.8136707,

 Normal termination of Gaussian 16 at Sat Apr  5 22:50:07 2025.
