 Gaussian 16, Revision C.01,

 ----------------------------------------------------------------------
 #t hf aug-cc-pvdz symm=none int=(grid=ultrafine) guess=(read,tcheck) s
 table=(opt,rrhf)
 ----------------------------------------------------------------------
 -----
 title
 -----
 Symbolic Z-matrix:
 Charge =  0 Multiplicity = 1

 SCF Done:  E(RHF) =  -413.667789967     A.U. after   13 cycles
 Normal termination of Gaussian 16 at Sat Apr  5 22:50:07 2025.
 Gaussian 16:  ES64L-G16RevC.01  3-Jul-2019

 ----------------------------------------------------------------------
 #t hf aug-cc-pvdz iop(5/13=1,5/36=2,99/5=2) pseudo=read geom=check gue
 ss=(read,tcheck) scf=(maxcycle=1)
 ----------------------------------------------------------------------
 -----
 title
 -----
 Structure from the checkpoint file:  "Z-1-2-3-trifluoropropene.chk"
 Charge =  0 Multiplicity = 1

                         Standard orientation:
 ---------------------------------------------------------------------
 Center     Atomic      Atomic             Coordinates (Angstroms)
 Number     Number       Type             X           Y           Z
 ---------------------------------------------------------------------
      1          6           0       -0.894816   -0.631696    0.000000
      2          1           0       -0.633553   -1.676755    0.000000
      3          9           0       -2.212388   -0.376299    0.000000
      4          6           0        0.000000    0.341550    0.000000
      5          9           0       -0.371902    1.637064    0.000000
      6          6           0        1.486201    0.188572    0.000000
      7          9           0        1.834576   -1.152835    0.000000
      8          1           0        1.916333    0.657416    0.888334
      9          1           0        1.916333    0.657416   -0.888334
 ---------------------------------------------------------------------

 SCF Done:  E(RHF) =  -413.812990945     A.U. after    2 cycles

 The electronic state is 1-A'.
 Alpha  occ. eigenvalues --  -26.15860 -26.14846 -26.13655 -11.36156 -11.35949
 Alpha  occ. eigenvalues --  -11.34920  -1.69897  -1.68505  -1.66935  -1.11151
 Alpha  occ. eigenvalues --   -1.00533  -0.88964  -0.82370  -0.81542  -0.78864
 Alpha  occ. eigenvalues --   -0.76699  -0.76162  -0.75437  -0.75155  -0.71713
 Alpha  occ. eigenvalues --   -0.63718  -0.59233  -0.58365  -0.40085
 Alpha virt. eigenvalues --    0.03480   0.04608   0.05091   0.07628   0.10039
 Alpha virt. eigenvalues --    0.10794   0.10867   0.12847   0.13479   0.15294
 Alpha virt. eigenvalues --    0.15451   0.16216   0.16730   0.17499   0.19152

 Mulliken charges:
               1
     1  C    0.717302
     2  H   -0.204560
     3  F   -0.330540
     4  C   -0.153066
     5  F   -0.341216
     6  C    0.677115
     7  F   -0.364647
     8  H   -0.000194
     9  H   -0.000194
 Sum of Mulliken charges =  -0.00000

 Dipole moment (field-independent basis, Debye):
    X=              2.0097    Y=             -0.0489    Z=              0.0000  Tot=              2.0103

 Test job not archived.
 1\1\GINC-SE050\SP\RHF\Aug-CC-pVDZ\C3H3F3\OHZDE\05-Apr-2025\0\\#t hf au
 g-cc-pvdz iop(5/13=1,5/36=2,99/5=2) pseudo=read geom=check guess=(read
 ,tcheck) scf=(maxcycle=1)\\title\\0,1\C,0,-0.894816,-0.631696,0.\H,0,-
 0.633553,-1.676755,0.\F,0,-2.212388,-0.376299,0.\C,0,0.,0.34155,0.\F,0
 ,-0.371902,1.637064,0.\C,0,1.486201,0.188572,0.\F,0,1.834576,-1.152835
 ,0.\H,0,1.916333,0.657416,0.888334\H,0,1.916333,0.657416,-0.888334\\Ve
 rsion=ES64L-G16RevC.01\State=1-A'\HF=-413.8129909\RMSD=8.365e-03\Dipol
 e=0.7906768,-0.0192531,0.\Quadrupole=-1.6445195,-0.1267323,1.7712518,3

 Normal termination of Gaussian 16 at Sat Apr  5 22:50:11 2025.
