 Gaussian 16, Revision C.01,

 ----------------------------------------------------------------------
 #t hf aug-cc-pvdz symm=none int=(grid=ultrafine) guess=(read,tcheck) s
 table=(opt,rrhf)
 ----------------------------------------------------------------------
 -----
 title
 -----
 Symbolic Z-matrix:
 Charge =  0 Multiplicity = 1

 SCF Done:  E(RHF) =  -382.805913548     A.U. after   14 cycles

 1\1\GINC-SE041\Stability\RHF\Aug-CC-pVDZ\C6H10O2\OHZDE\05-Apr-2025\0\\
 #t hf aug-cc-pvdz symm=none int=(grid=ultrafine) guess=(read,tcheck) s
 table=(opt,rrhf)\\title\\0,1\C,0,-1.951735,-0.180434,0.100405\C,0,-0.8
 83932,0.542857,-0.210248\C,0,1.381983,-0.09468,0.182826\C,0,-2.041959,
 -1.672002,0.148175\C,0,-0.803865,2.031933,-0.270242\C,0,2.547078,-0.77
 727,-0.480474\O,0,1.391725,0.406289,1.275264\O,0,0.290604,-0.118487,-0
 .630137\H,0,-2.849211,0.374513,0.346595\H,0,-2.835495,-2.034166,-0.509
 96\H,0,-1.110051,-2.145591,-0.151752\H,0,-2.289315,-2.012966,1.156589\

 Normal termination of Gaussian 16 at Sat Apr  5 22:49:50 2025.
 Gaussian 16:  ES64L-G16RevC.01  3-Jul-2019

 ----------------------------------------------------------------------
 #t hf aug-cc-pvdz iop(5/13=1,5/36=2,99/5=2) pseudo=read geom=check gue
 ss=(read,tcheck) scf=(maxcycle=1)
 ----------------------------------------------------------------------
 -----
 title
 -----
 Structure from the checkpoint file:  "Z-1-methylprop-1-enyl_acetate.chk"
 Charge =  0 Multiplicity = 1

                         Standard orientation:
 ---------------------------------------------------------------------
 Center     Atomic      Atomic             Coordinates (Angstroms)
 Number     Number       Type             X           Y           Z
 ---------------------------------------------------------------------
      1          6           0       -1.951735   -0.180434    0.100405
      2          6           0       -0.883932    0.542857   -0.210248
      3          6           0        1.381983   -0.094680    0.182826
      4          6           0       -2.041959   -1.672002    0.148175
      5          6           0       -0.803865    2.031933   -0.270242
      6          6           0        2.547078   -0.777270   -0.480474
      7          8           0        1.391725    0.406289    1.275264
      8          8           0        0.290604   -0.118487   -0.630137
      9          1           0       -2.849211    0.374513    0.346595
     10          1           0       -2.835495   -2.034166   -0.509960
     11          1           0       -1.110051   -2.145591   -0.151752
     12          1           0       -2.289315   -2.012966    1.156589
     13          1           0       -1.765809    2.473463   -0.017477
     14          1           0       -0.524541    2.360081   -1.274356
     15          1           0       -0.054472    2.408994    0.426265
     16          1           0        2.828171   -0.232808   -1.382252
     17          1           0        2.270172   -1.786382   -0.783928
     18          1           0        3.386497   -0.809977    0.206602
 ---------------------------------------------------------------------

 SCF Done:  E(RHF) =  -382.929585257     A.U. after    2 cycles

 The electronic state is 1-A.
 Alpha  occ. eigenvalues --  -20.61960 -20.56333 -11.39956 -11.30379 -11.25390
 Alpha  occ. eigenvalues --  -11.23752 -11.23451 -11.23235  -1.42294  -1.33217
 Alpha  occ. eigenvalues --   -1.08586  -1.01626  -0.98935  -0.90032  -0.83901
 Alpha  occ. eigenvalues --   -0.72662  -0.70076  -0.68859  -0.65958  -0.61889
 Alpha  occ. eigenvalues --   -0.60338  -0.58641  -0.57343  -0.56363  -0.55991
 Alpha  occ. eigenvalues --   -0.53901  -0.52849  -0.51264  -0.48510  -0.46988
 Alpha  occ. eigenvalues --   -0.35255
 Alpha virt. eigenvalues --    0.03319   0.04143   0.04290   0.05289   0.06018
 Alpha virt. eigenvalues --    0.06155   0.06569   0.07207   0.08590   0.08885
 Alpha virt. eigenvalues --    0.10821   0.12033   0.13280   0.13286   0.13865

 Mulliken charges:
               1
     1  C    0.263149
     2  C    0.218057
     3  C    0.304149
     4  C    0.214203
     5  C    0.225961
     6  C    0.309771
     7  O   -0.451708
     8  O   -0.680560
     9  H   -0.417642
    10  H    0.037617
    11  H   -0.180577
    12  H    0.089665
    13  H   -0.111427
    14  H    0.065147
    15  H    0.073275
    16  H    0.030114
    17  H    0.020144
    18  H   -0.009338
 Sum of Mulliken charges =   0.00000

 Dipole moment (field-independent basis, Debye):
    X=             -0.2136    Y=             -0.7356    Z=             -1.9456  Tot=              2.0909

 Test job not archived.
 1\1\GINC-SE041\SP\RHF\Aug-CC-pVDZ\C6H10O2\OHZDE\05-Apr-2025\0\\#t hf a
 ug-cc-pvdz iop(5/13=1,5/36=2,99/5=2) pseudo=read geom=check guess=(rea
 d,tcheck) scf=(maxcycle=1)\\title\\0,1\C,0,-1.951735,-0.180434,0.10040
 5\C,0,-0.883932,0.542857,-0.210248\C,0,1.381983,-0.09468,0.182826\C,0,
 -2.041959,-1.672002,0.148175\C,0,-0.803865,2.031933,-0.270242\C,0,2.54
 7078,-0.77727,-0.480474\O,0,1.391725,0.406289,1.275264\O,0,0.290604,-0
 .118487,-0.630137\H,0,-2.849211,0.374513,0.346595\H,0,-2.835495,-2.034
 166,-0.50996\H,0,-1.110051,-2.145591,-0.151752\H,0,-2.289315,-2.012966

 Normal termination of Gaussian 16 at Sat Apr  5 22:50:06 2025.
