 Gaussian 16, Revision C.01,

 ----------------------------------------------------------------------
 #t hf aug-cc-pvdz symm=none int=(grid=ultrafine) guess=(read,tcheck) s
 table=(opt,rrhf)
 ----------------------------------------------------------------------
 -----
 title
 -----
 Symbolic Z-matrix:
 Charge =  0 Multiplicity = 1

 SCF Done:  E(RHF) =  -195.164476386     A.U. after   12 cycles
 Normal termination of Gaussian 16 at Sat Apr  5 22:50:18 2025.
 Gaussian 16:  ES64L-G16RevC.01  3-Jul-2019

 ----------------------------------------------------------------------
 #t hf aug-cc-pvdz iop(5/13=1,5/36=2,99/5=2) pseudo=read geom=check gue
 ss=(read,tcheck) scf=(maxcycle=1)
 ----------------------------------------------------------------------
 -----
 title
 -----
 Structure from the checkpoint file:  "Z-2-pentene.chk"
 Charge =  0 Multiplicity = 1

                         Standard orientation:
 ---------------------------------------------------------------------
 Center     Atomic      Atomic             Coordinates (Angstroms)
 Number     Number       Type             X           Y           Z
 ---------------------------------------------------------------------
      1          6           0        1.302290    0.615163   -0.139445
      2          6           0        0.013355    0.809181    0.136131
      3          6           0        2.074570   -0.668347   -0.088094
      4          6           0       -2.202655   -0.271676   -0.404781
      5          6           0       -1.010350   -0.203515    0.558717
      6          1           0        1.881490    1.484329   -0.436504
      7          1           0       -0.366648    1.822918    0.039577
      8          1           0        2.535067   -0.880542   -1.056528
      9          1           0        1.460917   -1.524351    0.185335
     10          1           0        2.891800   -0.598641    0.634949
     11          1           0       -2.954741   -0.977143   -0.048720
     12          1           0       -1.884282   -0.587950   -1.398923
     13          1           0       -2.681767    0.703861   -0.505963
     14          1           0       -1.381230    0.065717    1.553563
     15          1           0       -0.563862   -1.193034    0.658048
 ---------------------------------------------------------------------

 SCF Done:  E(RHF) =  -195.228595442     A.U. after    2 cycles

 The electronic state is 1-A.
 Alpha  occ. eigenvalues --  -11.23261 -11.23126 -11.22889 -11.22783 -11.22314
 Alpha  occ. eigenvalues --   -1.07700  -1.00943  -0.92581  -0.84344  -0.72215
 Alpha  occ. eigenvalues --   -0.65810  -0.59950  -0.59009  -0.56518  -0.53484
 Alpha  occ. eigenvalues --   -0.52099  -0.51494  -0.48658  -0.46303  -0.34515
 Alpha virt. eigenvalues --    0.03592   0.04342   0.04681   0.05082   0.06255
 Alpha virt. eigenvalues --    0.06651   0.06902   0.07772   0.08720   0.09606
 Alpha virt. eigenvalues --    0.12586   0.13231   0.13715   0.14099   0.15492

 Mulliken charges:
               1
     1  C    0.025969
     2  C    0.514463
     3  C    0.249501
     4  C    0.317884
     5  C    0.060489
     6  H   -0.414736
     7  H   -0.463793
     8  H    0.078524
     9  H   -0.171114
    10  H    0.073463
    11  H   -0.091669
    12  H   -0.088298
    13  H   -0.064690
    14  H    0.056586
    15  H   -0.082579
 Sum of Mulliken charges =   0.00000

 Dipole moment (field-independent basis, Debye):
    X=             -0.0011    Y=             -0.2884    Z=              0.0682  Tot=              0.2964

 Test job not archived.
 1\1\GINC-SE176\SP\RHF\Aug-CC-pVDZ\C5H10\OHZDE\05-Apr-2025\0\\#t hf aug
 -cc-pvdz iop(5/13=1,5/36=2,99/5=2) pseudo=read geom=check guess=(read,
 tcheck) scf=(maxcycle=1)\\title\\0,1\C,0,1.30229,0.615163,-0.139445\C,
 0,0.013355,0.809181,0.136131\C,0,2.07457,-0.668347,-0.088094\C,0,-2.20
 2655,-0.271676,-0.404781\C,0,-1.01035,-0.203515,0.558717\H,0,1.88149,1
 .484329,-0.436504\H,0,-0.366648,1.822918,0.039577\H,0,2.535067,-0.8805
 41,-1.056528\H,0,1.460917,-1.524351,0.185335\H,0,2.8918,-0.59864,0.634
 949\H,0,-2.954741,-0.977144,-0.04872\H,0,-1.884282,-0.58795,-1.398923\

 Normal termination of Gaussian 16 at Sat Apr  5 22:50:22 2025.
