 Gaussian 16, Revision C.01,

 ----------------------------------------------------------------------
 #t hf aug-cc-pvdz symm=none int=(grid=ultrafine) guess=(read,tcheck) s
 table=(opt,rrhf)
 ----------------------------------------------------------------------
 -----
 title
 -----
 Symbolic Z-matrix:
 Charge =  0 Multiplicity = 1

 SCF Done:  E(RHF) =  -720.433861626     A.U. after   16 cycles
 Normal termination of Gaussian 16 at Sat Apr  5 22:50:12 2025.
 Gaussian 16:  ES64L-G16RevC.01  3-Jul-2019

 ----------------------------------------------------------------------
 #t hf aug-cc-pvdz iop(5/13=1,5/36=2,99/5=2) pseudo=read geom=check gue
 ss=(read,tcheck) scf=(maxcycle=1)
 ----------------------------------------------------------------------
 -----
 title
 -----
 Structure from the checkpoint file:  "Z-2-chloro-2-butenedinitrile.chk"
 Charge =  0 Multiplicity = 1

                         Standard orientation:
 ---------------------------------------------------------------------
 Center     Atomic      Atomic             Coordinates (Angstroms)
 Number     Number       Type             X           Y           Z
 ---------------------------------------------------------------------
      1         17           0       -0.219933    1.550529   -0.000002
      2          7           0       -2.880130   -0.962984    0.000001
      3          7           0        3.077266   -0.391223    0.000000
      4          6           0       -0.432054   -0.165225    0.000000
      5          6           0        0.591544   -1.033696    0.000001
      6          6           0       -1.783875   -0.609615    0.000001
      7          6           0        1.955445   -0.655823    0.000001
      8          1           0        0.372561   -2.093385    0.000003
 ---------------------------------------------------------------------

 SCF Done:  E(RHF) =  -720.529462670     A.U. after    2 cycles

 The electronic state is 1-A.
 Alpha  occ. eigenvalues -- -103.72695 -15.69244 -15.68348 -11.41257 -11.35777
 Alpha  occ. eigenvalues --  -11.33553 -11.32700 -10.75955  -8.41695  -8.41344
 Alpha  occ. eigenvalues --   -8.41335  -1.27422  -1.23455  -1.22558  -1.12345
 Alpha  occ. eigenvalues --   -0.97234  -0.79367  -0.76538  -0.65381  -0.61868
 Alpha  occ. eigenvalues --   -0.59418  -0.58382  -0.53607  -0.53413  -0.52171
 Alpha  occ. eigenvalues --   -0.51167  -0.49959  -0.41495
 Alpha virt. eigenvalues --    0.00569   0.02596   0.06059   0.06839   0.08168
 Alpha virt. eigenvalues --    0.08385   0.09756   0.09939   0.11604   0.12037
 Alpha virt. eigenvalues --    0.12948   0.13334   0.13595   0.14685   0.15827

 Mulliken charges:
               1
     1  Cl  -0.246808
     2  N   -0.058840
     3  N   -0.030925
     4  C    0.767823
     5  C    1.773661
     6  C   -0.798402
     7  C   -1.022980
     8  H   -0.383530
 Sum of Mulliken charges =  -0.00000

 Dipole moment (field-independent basis, Debye):
    X=             -0.2155    Y=             -0.7711    Z=              0.0000  Tot=              0.8007

 Test job not archived.
 1\1\GINC-SE108\SP\RHF\Aug-CC-pVDZ\C4H1Cl1N2\OHZDE\05-Apr-2025\0\\#t hf
  aug-cc-pvdz iop(5/13=1,5/36=2,99/5=2) pseudo=read geom=check guess=(r
 ead,tcheck) scf=(maxcycle=1)\\title\\0,1\Cl,0,-0.219933,1.550529,-0.00
 0002\N,0,-2.88013,-0.962984,0.000001\N,0,3.077266,-0.391223,0.\C,0,-0.
 432054,-0.165225,0.\C,0,0.591544,-1.033696,0.000001\C,0,-1.783875,-0.6
 09615,0.000001\C,0,1.955445,-0.655823,0.000001\H,0,0.372561,-2.093385,
 0.000003\\Version=ES64L-G16RevC.01\State=1-A\HF=-720.5294627\RMSD=7.00
 7e-03\Dipole=-0.0847696,-0.3033813,0.000001\Quadrupole=-11.5884463,7.4

 Normal termination of Gaussian 16 at Sat Apr  5 22:50:16 2025.
