 Gaussian 16, Revision C.01,

 ----------------------------------------------------------------------
 #t hf aug-cc-pvdz symm=none int=(grid=ultrafine) guess=(read,tcheck) s
 table=(opt,rrhf)
 ----------------------------------------------------------------------
 -----
 title
 -----
 Symbolic Z-matrix:
 Charge =  0 Multiplicity = 1

 SCF Done:  E(RHF) =  -156.125980711     A.U. after   11 cycles
 Normal termination of Gaussian 16 at Sat Apr  5 22:49:00 2025.
 Gaussian 16:  ES64L-G16RevC.01  3-Jul-2019

 ----------------------------------------------------------------------
 #t hf aug-cc-pvdz iop(5/13=1,5/36=2,99/5=2) pseudo=read geom=check gue
 ss=(read,tcheck) scf=(maxcycle=1)
 ----------------------------------------------------------------------
 -----
 title
 -----
 Structure from the checkpoint file:  "Z-2-butene.chk"
 Charge =  0 Multiplicity = 1

                         Standard orientation:
 ---------------------------------------------------------------------
 Center     Atomic      Atomic             Coordinates (Angstroms)
 Number     Number       Type             X           Y           Z
 ---------------------------------------------------------------------
      1          6           0        0.000000    0.665985    0.661718
      2          6           0       -0.000000   -0.665985    0.661718
      3          6           0        0.000000    1.586665   -0.520621
      4          6           0       -0.000000   -1.586665   -0.520621
      5          1           0        0.000000    1.161212    1.627911
      6          1           0       -0.000000   -1.161212    1.627911
      7          1           0        0.000000    1.057812   -1.471692
      8          1           0       -0.000000   -1.057812   -1.471692
      9          1           0       -0.875737    2.240903   -0.501401
     10          1           0        0.875737    2.240903   -0.501401
     11          1           0        0.875737   -2.240903   -0.501401
     12          1           0       -0.875737   -2.240903   -0.501401
 ---------------------------------------------------------------------

 SCF Done:  E(RHF) =  -156.178021508     A.U. after    2 cycles

 The electronic state is 1-A1.
 Alpha  occ. eigenvalues --  -11.23289 -11.23126 -11.22784 -11.22782  -1.06897
 Alpha  occ. eigenvalues --   -0.97426  -0.89360  -0.72204  -0.65629  -0.57493
 Alpha  occ. eigenvalues --   -0.57451  -0.55510  -0.53838  -0.51564  -0.47416
 Alpha  occ. eigenvalues --   -0.34536
 Alpha virt. eigenvalues --    0.03594   0.04629   0.04889   0.05757   0.06502
 Alpha virt. eigenvalues --    0.06908   0.07214   0.09604   0.11939   0.13590
 Alpha virt. eigenvalues --    0.13954   0.14950   0.14966   0.15744   0.16617

 Mulliken charges:
               1
     1  C    0.175978
     2  C    0.175978
     3  C    0.234306
     4  C    0.234306
     5  H   -0.411139
     6  H   -0.411139
     7  H   -0.141604
     8  H   -0.141604
     9  H    0.071230
    10  H    0.071230
    11  H    0.071230
    12  H    0.071230
 Sum of Mulliken charges =  -0.00000

 Dipole moment (field-independent basis, Debye):
    X=              0.0000    Y=             -0.0000    Z=             -0.2592  Tot=              0.2592

 Test job not archived.
 1\1\GINC-SE198\SP\RHF\Aug-CC-pVDZ\C4H8\OHZDE\05-Apr-2025\0\\#t hf aug-
 cc-pvdz iop(5/13=1,5/36=2,99/5=2) pseudo=read geom=check guess=(read,t
 check) scf=(maxcycle=1)\\title\\0,1\C,0,0.,0.665985,0.661718\C,0,0.,-0
 .665985,0.661718\C,0,0.,1.586665,-0.520621\C,0,0.,-1.586665,-0.520621\
 H,0,0.,1.161212,1.627911\H,0,0.,-1.161212,1.627911\H,0,0.,1.057812,-1.
 471692\H,0,0.,-1.057812,-1.471692\H,0,-0.875737,2.240903,-0.501401\H,0
 ,0.875737,2.240903,-0.501401\H,0,0.875737,-2.240903,-0.501401\H,0,-0.8
 75737,-2.240903,-0.501401\\Version=ES64L-G16RevC.01\State=1-A1\HF=-156

 Normal termination of Gaussian 16 at Sat Apr  5 22:50:01 2025.
