 Gaussian 16, Revision C.01,

 ----------------------------------------------------------------------
 #t hf aug-cc-pvdz symm=none int=(grid=ultrafine) guess=(read,tcheck) s
 table=(opt,rrhf)
 ----------------------------------------------------------------------
 -----
 title
 -----
 Symbolic Z-matrix:
 Charge =  0 Multiplicity = 1

 SCF Done:  E(RHF) =  -208.833737472     A.U. after   14 cycles
 Normal termination of Gaussian 16 at Sat Apr  5 22:49:08 2025.
 Gaussian 16:  ES64L-G16RevC.01  3-Jul-2019

 ----------------------------------------------------------------------
 #t hf aug-cc-pvdz iop(5/13=1,5/36=2,99/5=2) pseudo=read geom=check gue
 ss=(read,tcheck) scf=(maxcycle=1)
 ----------------------------------------------------------------------
 -----
 title
 -----
 Structure from the checkpoint file:  "Z-2-butenenitrile.chk"
 Charge =  0 Multiplicity = 1

                         Standard orientation:
 ---------------------------------------------------------------------
 Center     Atomic      Atomic             Coordinates (Angstroms)
 Number     Number       Type             X           Y           Z
 ---------------------------------------------------------------------
      1          6           0       -1.222725    0.248264    0.000000
      2          7           0       -2.224302   -0.323411    0.000000
      3          6           0        0.000000    0.979779    0.000000
      4          1           0       -0.097533    2.057310    0.000000
      5          6           0        1.206868    0.404586    0.000000
      6          1           0        2.065769    1.066361    0.000000
      7          6           0        1.490613   -1.057531    0.000000
      8          1           0        0.580711   -1.654271    0.000000
      9          1           0        2.086316   -1.328056    0.875372
     10          1           0        2.086316   -1.328056   -0.875372
 ---------------------------------------------------------------------

 SCF Done:  E(RHF) =  -208.898289676     A.U. after    2 cycles

 The electronic state is 1-A'.
 Alpha  occ. eigenvalues --  -15.63828 -11.29590 -11.28852 -11.28675 -11.25771
 Alpha  occ. eigenvalues --   -1.19512  -1.10881  -0.98506  -0.84735  -0.70238
 Alpha  occ. eigenvalues --   -0.67501  -0.59923  -0.56761  -0.55722  -0.53652
 Alpha  occ. eigenvalues --   -0.51066  -0.46462  -0.38220
 Alpha virt. eigenvalues --    0.02595   0.03969   0.05033   0.05176   0.07347
 Alpha virt. eigenvalues --    0.08259   0.09321   0.11137   0.12444   0.13088
 Alpha virt. eigenvalues --    0.13636   0.13723   0.14935   0.15330   0.16574

 Mulliken charges:
               1
     1  C   -0.661788
     2  N   -0.183577
     3  C    1.047080
     4  H   -0.335999
     5  C    0.193957
     6  H   -0.381628
     7  C    0.252575
     8  H   -0.068440
     9  H    0.068910
    10  H    0.068910
 Sum of Mulliken charges =   0.00000

 Dipole moment (field-independent basis, Debye):
    X=              4.4075    Y=              1.1672    Z=             -0.0000  Tot=              4.5595

 Test job not archived.
 1\1\GINC-SE012\SP\RHF\Aug-CC-pVDZ\C4H5N1\OHZDE\05-Apr-2025\0\\#t hf au
 g-cc-pvdz iop(5/13=1,5/36=2,99/5=2) pseudo=read geom=check guess=(read
 ,tcheck) scf=(maxcycle=1)\\title\\0,1\C,0,-1.222725,0.248264,0.\N,0,-2
 .224302,-0.323411,0.\C,0,0.,0.979779,0.\H,0,-0.097533,2.05731,0.\C,0,1
 .206868,0.404586,0.\H,0,2.065769,1.066361,0.\C,0,1.490613,-1.057531,0.
 \H,0,0.580711,-1.654271,0.\H,0,2.086316,-1.328056,0.875372\H,0,2.08631
 6,-1.328056,-0.875372\\Version=ES64L-G16RevC.01\State=1-A'\HF=-208.898
 2897\RMSD=6.641e-03\Dipole=1.7340596,0.4592149,0.\Quadrupole=-3.158746

 Normal termination of Gaussian 16 at Sat Apr  5 22:50:02 2025.
