 Gaussian 16, Revision C.01,

 ----------------------------------------------------------------------
 #t hf aug-cc-pvdz symm=none int=(grid=ultrafine) guess=(read,tcheck) s
 table=(opt,rrhf)
 ----------------------------------------------------------------------
 -----
 title
 -----
 Symbolic Z-matrix:
 Charge =  0 Multiplicity = 1

 SCF Done:  E(RHF) =  -615.054824022     A.U. after   13 cycles

 1\1\GINC-SE107\Stability\RHF\Aug-CC-pVDZ\C4H7Cl1\OHZDE\05-Apr-2025\0\\
 #t hf aug-cc-pvdz symm=none int=(grid=ultrafine) guess=(read,tcheck) s
 table=(opt,rrhf)\\title\\0,1\H,0,0.296999,2.638501,0.\Cl,0,-1.282302,-
 0.692895,0.\C,0,1.865985,-1.198419,0.\C,0,-0.5273,1.925834,0.\H,0,-1.1
 48337,2.109135,0.878732\H,0,-1.148337,2.109135,-0.878732\C,0,0.,0.5283
 12,0.\C,0,1.27958,0.174679,0.\H,0,1.985598,0.999563,0.\H,0,1.099594,-1
 .969354,0.\H,0,2.502012,-1.345103,-0.876739\H,0,2.502012,-1.345103,0.8
 76739\\Version=ES64L-G16RevC.01\HF=-615.054824\RMSD=4.464e-09\Dipole=0

 Normal termination of Gaussian 16 at Sat Apr  5 22:49:04 2025.
 Gaussian 16:  ES64L-G16RevC.01  3-Jul-2019

 ----------------------------------------------------------------------
 #t hf aug-cc-pvdz iop(5/13=1,5/36=2,99/5=2) pseudo=read geom=check gue
 ss=(read,tcheck) scf=(maxcycle=1)
 ----------------------------------------------------------------------
 -----
 title
 -----
 Structure from the checkpoint file:  "Z-2-chloro-2-butene.chk"
 Charge =  0 Multiplicity = 1

                         Standard orientation:
 ---------------------------------------------------------------------
 Center     Atomic      Atomic             Coordinates (Angstroms)
 Number     Number       Type             X           Y           Z
 ---------------------------------------------------------------------
      1          1           0        0.296999    2.638501    0.000000
      2         17           0       -1.282302   -0.692895    0.000000
      3          6           0        1.865985   -1.198419    0.000000
      4          6           0       -0.527300    1.925834    0.000000
      5          1           0       -1.148337    2.109135    0.878732
      6          1           0       -1.148337    2.109135   -0.878732
      7          6           0        0.000000    0.528312    0.000000
      8          6           0        1.279580    0.174679    0.000000
      9          1           0        1.985598    0.999563    0.000000
     10          1           0        1.099594   -1.969354    0.000000
     11          1           0        2.502012   -1.345103   -0.876739
     12          1           0        2.502012   -1.345103    0.876739
 ---------------------------------------------------------------------

 SCF Done:  E(RHF) =  -615.124038023     A.U. after    2 cycles

 The electronic state is 1-A'.
 Alpha  occ. eigenvalues -- -103.65515 -11.30481 -11.25226 -11.24658 -11.23691
 Alpha  occ. eigenvalues --  -10.68815  -8.34539  -8.34256  -8.34236  -1.17915
 Alpha  occ. eigenvalues --   -1.05756  -0.99645  -0.89858  -0.73051  -0.64580
 Alpha  occ. eigenvalues --   -0.62136  -0.59946  -0.57004  -0.54390  -0.53583
 Alpha  occ. eigenvalues --   -0.50482  -0.48821  -0.45585  -0.35455
 Alpha virt. eigenvalues --    0.03362   0.04245   0.05242   0.05451   0.06908
 Alpha virt. eigenvalues --    0.07044   0.07596   0.10947   0.11354   0.12253
 Alpha virt. eigenvalues --    0.12729   0.14901   0.15450   0.15841   0.16261

 Mulliken charges:
               1
     1  H   -0.090468
     2  Cl  -0.408259
     3  C    0.129523
     4  C    0.322714
     5  H    0.069102
     6  H    0.069102
     7  C   -0.571500
     8  C    0.767252
     9  H   -0.409930
    10  H   -0.039924
    11  H    0.081195
    12  H    0.081195
 Sum of Mulliken charges =  -0.00000

 Dipole moment (field-independent basis, Debye):
    X=              1.6368    Y=              1.2648    Z=              0.0000  Tot=              2.0685

 Test job not archived.
 1\1\GINC-SE107\SP\RHF\Aug-CC-pVDZ\C4H7Cl1\OHZDE\05-Apr-2025\0\\#t hf a
 ug-cc-pvdz iop(5/13=1,5/36=2,99/5=2) pseudo=read geom=check guess=(rea
 d,tcheck) scf=(maxcycle=1)\\title\\0,1\H,0,0.296999,2.638501,0.\Cl,0,-
 1.282302,-0.692895,0.\C,0,1.865985,-1.198419,0.\C,0,-0.5273,1.925834,0
 .\H,0,-1.148337,2.109135,0.878732\H,0,-1.148337,2.109135,-0.878732\C,0
 ,0.,0.528312,0.\C,0,1.27958,0.174679,0.\H,0,1.985598,0.999563,0.\H,0,1
 .099594,-1.969354,0.\H,0,2.502012,-1.345103,-0.876739\H,0,2.502012,-1.
 345103,0.876739\\Version=ES64L-G16RevC.01\State=1-A'\HF=-615.124038\RM

 Normal termination of Gaussian 16 at Sat Apr  5 22:50:02 2025.
