 Gaussian 16, Revision C.01,

 ----------------------------------------------------------------------
 #t hf aug-cc-pvdz symm=none int=(grid=ultrafine) guess=(read,tcheck) s
 table=(opt,rrhf)
 ----------------------------------------------------------------------
 -----
 title
 -----
 Symbolic Z-matrix:
 Charge =  0 Multiplicity = 1

 SCF Done:  E(RHF) =  -247.872397343     A.U. after   14 cycles
 Normal termination of Gaussian 16 at Sat Apr  5 22:50:19 2025.
 Gaussian 16:  ES64L-G16RevC.01  3-Jul-2019

 ----------------------------------------------------------------------
 #t hf aug-cc-pvdz iop(5/13=1,5/36=2,99/5=2) pseudo=read geom=check gue
 ss=(read,tcheck) scf=(maxcycle=1)
 ----------------------------------------------------------------------
 -----
 title
 -----
 Structure from the checkpoint file:  "Z-2-pentenenitrile.chk"
 Charge =  0 Multiplicity = 1

                         Standard orientation:
 ---------------------------------------------------------------------
 Center     Atomic      Atomic             Coordinates (Angstroms)
 Number     Number       Type             X           Y           Z
 ---------------------------------------------------------------------
      1          6           0       -1.766341   -0.115464   -0.079800
      2          7           0       -2.492129   -1.010435   -0.031960
      3          6           0       -0.894931    1.009998   -0.149808
      4          1           0       -1.357106    1.941241   -0.450071
      5          6           0        0.411013    0.955887    0.131841
      6          1           0        0.972979    1.879716    0.039002
      7          6           0        1.185347   -0.249154    0.551313
      8          1           0        0.526822   -1.114981    0.622590
      9          1           0        1.581474   -0.068108    1.556020
     10          6           0        2.357367   -0.548639   -0.394504
     11          1           0        2.000836   -0.775983   -1.399184
     12          1           0        3.038423    0.301062   -0.463225
     13          1           0        2.926753   -1.405678   -0.035660
 ---------------------------------------------------------------------

 SCF Done:  E(RHF) =  -247.949023251     A.U. after    2 cycles

 The electronic state is 1-A.
 Alpha  occ. eigenvalues --  -15.63732 -11.29167 -11.28773 -11.28574 -11.25925
 Alpha  occ. eigenvalues --  -11.24523  -1.19427  -1.11450  -1.02867  -0.90198
 Alpha  occ. eigenvalues --   -0.83122  -0.69748  -0.68441  -0.62162  -0.58673
 Alpha  occ. eigenvalues --   -0.55068  -0.54460  -0.51921  -0.51375  -0.50613
 Alpha  occ. eigenvalues --   -0.46257  -0.38073
 Alpha virt. eigenvalues --    0.02718   0.03697   0.04610   0.04776   0.06510
 Alpha virt. eigenvalues --    0.06981   0.08053   0.08406   0.10189   0.11270
 Alpha virt. eigenvalues --    0.11988   0.13142   0.13743   0.14708   0.15178

 Mulliken charges:
               1
     1  C   -0.634556
     2  N   -0.186503
     3  C    1.011941
     4  H   -0.347678
     5  C    0.490597
     6  H   -0.416787
     7  C   -0.026187
     8  H   -0.080433
     9  H    0.067426
    10  C    0.323719
    11  H   -0.069278
    12  H   -0.059030
    13  H   -0.073231
 Sum of Mulliken charges =  -0.00000

 Dipole moment (field-independent basis, Debye):
    X=              3.7503    Y=              2.6189    Z=              0.0970  Tot=              4.5752

 Test job not archived.
 1\1\GINC-SE187\SP\RHF\Aug-CC-pVDZ\C5H7N1\OHZDE\05-Apr-2025\0\\#t hf au
 g-cc-pvdz iop(5/13=1,5/36=2,99/5=2) pseudo=read geom=check guess=(read
 ,tcheck) scf=(maxcycle=1)\\title\\0,1\C,0,-1.766341,-0.115464,-0.0798\
 N,0,-2.492129,-1.010435,-0.03196\C,0,-0.894931,1.009998,-0.149808\H,0,
 -1.357106,1.941241,-0.450071\C,0,0.411013,0.955887,0.131841\H,0,0.9729
 79,1.879716,0.039002\C,0,1.185347,-0.249154,0.551313\H,0,0.526822,-1.1
 14981,0.62259\H,0,1.581474,-0.068108,1.55602\C,0,2.357367,-0.548639,-0
 .394504\H,0,2.000836,-0.775983,-1.399184\H,0,3.038423,0.301062,-0.4632

 Normal termination of Gaussian 16 at Sat Apr  5 22:50:23 2025.
