 Gaussian 16, Revision C.01,

 ----------------------------------------------------------------------
 #t hf aug-cc-pvdz symm=none int=(grid=ultrafine) guess=(read,tcheck) s
 table=(opt,rrhf)
 ----------------------------------------------------------------------
 -----
 title
 -----
 Symbolic Z-matrix:
 Charge =  0 Multiplicity = 1

 SCF Done:  E(RHF) =  -461.592765502     A.U. after   15 cycles
 Normal termination of Gaussian 16 at Sat Apr  5 22:50:21 2025.
 Gaussian 16:  ES64L-G16RevC.01  3-Jul-2019

 ----------------------------------------------------------------------
 #t hf aug-cc-pvdz iop(5/13=1,5/36=2,99/5=2) pseudo=read geom=check gue
 ss=(read,tcheck) scf=(maxcycle=1)
 ----------------------------------------------------------------------
 -----
 title
 -----
 Structure from the checkpoint file:  "Z-3-amino-2-4-difluorobut-2-enenitrile.chk"
 Charge =  0 Multiplicity = 1

                         Standard orientation:
 ---------------------------------------------------------------------
 Center     Atomic      Atomic             Coordinates (Angstroms)
 Number     Number       Type             X           Y           Z
 ---------------------------------------------------------------------
      1          9           0        2.712836   -0.183297   -0.382192
      2          9           0       -0.780636    1.809141   -0.002362
      3          7           0        0.499090   -1.575311    0.231574
      4          7           0       -3.035226   -0.748871   -0.138204
      5          6           0        0.398551   -0.217436    0.121358
      6          6           0        1.691625    0.542189    0.236949
      7          6           0       -0.771372    0.445989    0.008802
      8          6           0       -2.034053   -0.175673   -0.069809
      9          1           0        1.624059    1.515903   -0.239488
     10          1           0        1.970850    0.661136    1.285812
     11          1           0        1.376086   -1.979329   -0.052815
     12          1           0       -0.316350   -2.131455    0.030091
 ---------------------------------------------------------------------

 SCF Done:  E(RHF) =  -461.742337433     A.U. after    2 cycles

 The electronic state is 1-A.
 Alpha  occ. eigenvalues --  -26.15693 -26.14459 -15.67554 -15.65794 -11.36854
 Alpha  occ. eigenvalues --  -11.36342 -11.35573 -11.30578  -1.69165  -1.67546
 Alpha  occ. eigenvalues --   -1.25208  -1.20668  -1.08582  -1.02399  -0.88853
 Alpha  occ. eigenvalues --   -0.82813  -0.81648  -0.78544  -0.77234  -0.75301
 Alpha  occ. eigenvalues --   -0.74707  -0.71021  -0.67886  -0.60725  -0.59302
 Alpha  occ. eigenvalues --   -0.56126  -0.54953  -0.49989  -0.48966  -0.35429
 Alpha virt. eigenvalues --    0.02800   0.03699   0.04867   0.06057   0.07859
 Alpha virt. eigenvalues --    0.08581   0.09676   0.10630   0.10878   0.12030
 Alpha virt. eigenvalues --    0.13451   0.13715   0.13881   0.15257   0.15950

 Mulliken charges:
               1
     1  F   -0.412476
     2  F   -0.359514
     3  N   -0.354895
     4  N   -0.127956
     5  C    0.001510
     6  C    0.833927
     7  C    1.182179
     8  C   -0.729975
     9  H   -0.072764
    10  H    0.031178
    11  H    0.000429
    12  H    0.008356
 Sum of Mulliken charges =  -0.00000

 Dipole moment (field-independent basis, Debye):
    X=              3.4982    Y=             -0.6494    Z=              0.6775  Tot=              3.6219

 Test job not archived.
 1\1\GINC-SE188\SP\RHF\Aug-CC-pVDZ\C4H4F2N2\OHZDE\05-Apr-2025\0\\#t hf
 aug-cc-pvdz iop(5/13=1,5/36=2,99/5=2) pseudo=read geom=check guess=(re
 ad,tcheck) scf=(maxcycle=1)\\title\\0,1\F,0,2.712836,-0.183297,-0.3821
 92\F,0,-0.780636,1.809141,-0.002362\N,0,0.49909,-1.575311,0.231574\N,0
 ,-3.035226,-0.748871,-0.138204\C,0,0.398551,-0.217436,0.121358\C,0,1.6
 91625,0.542189,0.236949\C,0,-0.771372,0.445989,0.008802\C,0,-2.034053,
 -0.175673,-0.069809\H,0,1.624059,1.515903,-0.239488\H,0,1.97085,0.6611
 36,1.285812\H,0,1.376086,-1.979329,-0.052815\H,0,-0.31635,-2.131455,0.

 Normal termination of Gaussian 16 at Sat Apr  5 22:50:27 2025.
