 Gaussian 16, Revision C.01,

 ----------------------------------------------------------------------
 #t hf aug-cc-pvdz symm=none int=(grid=ultrafine) guess=(read,tcheck) s
 table=(opt,rrhf)
 ----------------------------------------------------------------------
 -----
 title
 -----
 Symbolic Z-matrix:
 Charge =  0 Multiplicity = 1

 SCF Done:  E(RHF) =  -192.769988134     A.U. after   14 cycles
 Normal termination of Gaussian 16 at Sat Apr  5 22:50:07 2025.
 Gaussian 16:  ES64L-G16RevC.01  3-Jul-2019

 ----------------------------------------------------------------------
 #t hf aug-cc-pvdz iop(5/13=1,5/36=2,99/5=2) pseudo=read geom=check gue
 ss=(read,tcheck) scf=(maxcycle=1)
 ----------------------------------------------------------------------
 -----
 title
 -----
 Structure from the checkpoint file:  "Z-3-penten-1-yne.chk"
 Charge =  0 Multiplicity = 1

                         Standard orientation:
 ---------------------------------------------------------------------
 Center     Atomic      Atomic             Coordinates (Angstroms)
 Number     Number       Type             X           Y           Z
 ---------------------------------------------------------------------
      1          1           0        3.165275   -0.906366    0.000000
      2          6           0        2.248373   -0.372188    0.000000
      3          6           0        1.205752    0.228394    0.000000
      4          1           0        0.114647    2.056770    0.000000
      5          6           0        0.000000    0.978779    0.000000
      6          1           0       -2.064969    1.154769    0.000000
      7          6           0       -1.233830    0.458318    0.000000
      8          1           0       -0.691320   -1.620929    0.000000
      9          1           0       -2.183701   -1.244462    0.875775
     10          1           0       -2.183701   -1.244462   -0.875775
     11          6           0       -1.579666   -0.992523    0.000000
 ---------------------------------------------------------------------

 SCF Done:  E(RHF) =  -192.832690413     A.U. after    2 cycles

 The electronic state is 1-A'.
 Alpha  occ. eigenvalues --  -11.26305 -11.25893 -11.24873 -11.23800 -11.23746
 Alpha  occ. eigenvalues --   -1.09553  -1.01791  -0.94738  -0.81209  -0.71184
 Alpha  occ. eigenvalues --   -0.66949  -0.63436  -0.57800  -0.54058  -0.52055
 Alpha  occ. eigenvalues --   -0.45849  -0.39675  -0.33595
 Alpha virt. eigenvalues --    0.03442   0.04044   0.04645   0.05908   0.05975
 Alpha virt. eigenvalues --    0.07629   0.09576   0.10760   0.11480   0.11727
 Alpha virt. eigenvalues --    0.12843   0.13938   0.14677   0.14908   0.15873

 Mulliken charges:
               1
     1  H   -0.456886
     2  C    0.654623
     3  C   -0.450340
     4  H   -0.400680
     5  C    0.673694
     6  H   -0.400141
     7  C    0.102362
     8  H   -0.061243
     9  H    0.056069
    10  H    0.056069
    11  C    0.226471
 Sum of Mulliken charges =  -0.00000

 Dipole moment (field-independent basis, Debye):
    X=             -0.9730    Y=             -0.2388    Z=              0.0000  Tot=              1.0019

 Test job not archived.
 1\1\GINC-SE221\SP\RHF\Aug-CC-pVDZ\C5H6\OHZDE\05-Apr-2025\0\\#t hf aug-
 cc-pvdz iop(5/13=1,5/36=2,99/5=2) pseudo=read geom=check guess=(read,t
 check) scf=(maxcycle=1)\\title\\0,1\H,0,3.165275,-0.906366,0.\C,0,2.24
 8373,-0.372188,0.\C,0,1.205752,0.228394,0.\H,0,0.114647,2.05677,0.\C,0
 ,0.,0.978779,0.\H,0,-2.064969,1.154769,0.\C,0,-1.23383,0.458318,0.\H,0
 ,-0.69132,-1.620929,0.\H,0,-2.183701,-1.244462,0.875775\H,0,-2.183701,
 -1.244462,-0.875775\C,0,-1.579666,-0.992523,0.\\Version=ES64L-G16RevC.
 01\State=1-A'\HF=-192.8326904\RMSD=8.876e-03\Dipole=-0.3828153,-0.0939

 Normal termination of Gaussian 16 at Sat Apr  5 22:50:11 2025.
