 Gaussian 16, Revision C.01,

 ----------------------------------------------------------------------
 #t hf aug-cc-pvdz symm=none int=(grid=ultrafine) guess=(read,tcheck) s
 table=(opt,rrhf)
 ----------------------------------------------------------------------
 -----
 title
 -----
 Symbolic Z-matrix:
 Charge =  0 Multiplicity = 1

 SCF Done:  E(RHF) =  -234.204392313     A.U. after   13 cycles
 Normal termination of Gaussian 16 at Sat Apr  5 22:50:37 2025.
 Gaussian 16:  ES64L-G16RevC.01  3-Jul-2019

 ----------------------------------------------------------------------
 #t hf aug-cc-pvdz iop(5/13=1,5/36=2,99/5=2) pseudo=read geom=check gue
 ss=(read,tcheck) scf=(maxcycle=1)
 ----------------------------------------------------------------------
 -----
 title
 -----
 Structure from the checkpoint file:  "Z-3-methyl-2-pentene.chk"
 Charge =  0 Multiplicity = 1

                         Standard orientation:
 ---------------------------------------------------------------------
 Center     Atomic      Atomic             Coordinates (Angstroms)
 Number     Number       Type             X           Y           Z
 ---------------------------------------------------------------------
      1          6           0        1.701604   -1.275001   -0.436236
      2          1           0        2.374174   -0.561889   -0.914203
      3          1           0        2.313484   -2.070904   -0.008931
      4          1           0        1.074007   -1.711323   -1.214157
      5          6           0        0.842683   -0.605101    0.647356
      6          1           0        1.502107   -0.227760    1.434975
      7          1           0        0.212380   -1.360114    1.116333
      8          6           0        0.743877    1.839260   -0.066279
      9          1           0        0.096872    2.613381   -0.477032
     10          1           0        1.149562    2.202250    0.882755
     11          1           0        1.594614    1.719062   -0.742276
     12          6           0       -2.193807   -0.745612   -0.035612
     13          1           0       -3.043183   -0.530327    0.618671
     14          1           0       -2.614514   -1.013203   -1.008980
     15          1           0       -1.686431   -1.625328    0.355250
     16          6           0        0.004778    0.540753    0.128637
     17          6           0       -1.296904    0.449290   -0.156534
     18          1           0       -1.786454    1.344617   -0.530396
 ---------------------------------------------------------------------

 SCF Done:  E(RHF) =  -234.280500226     A.U. after    2 cycles

 The electronic state is 1-A.
 Alpha  occ. eigenvalues --  -11.23381 -11.22898 -11.22491 -11.22355 -11.22312
 Alpha  occ. eigenvalues --  -11.22302  -1.09128  -1.00552  -0.97110  -0.88124
 Alpha  occ. eigenvalues --   -0.84423  -0.70105  -0.64383  -0.60804  -0.58648
 Alpha  occ. eigenvalues --   -0.57253  -0.55702  -0.54200  -0.52117  -0.51222
 Alpha  occ. eigenvalues --   -0.50635  -0.48113  -0.45482  -0.33287
 Alpha virt. eigenvalues --    0.03577   0.04274   0.04475   0.04873   0.06109
 Alpha virt. eigenvalues --    0.06583   0.06638   0.07395   0.07913   0.09012
 Alpha virt. eigenvalues --    0.09414   0.10167   0.12231   0.13276   0.13799

 Mulliken charges:
               1
     1  C    0.386421
     2  H   -0.125099
     3  H   -0.092579
     4  H   -0.092540
     5  C    0.280908
     6  H   -0.073305
     7  H   -0.044577
     8  C    0.265662
     9  H   -0.193825
    10  H    0.053954
    11  H   -0.011412
    12  C    0.233926
    13  H    0.064393
    14  H    0.099044
    15  H   -0.194575
    16  C   -0.074400
    17  C    0.035257
    18  H   -0.517253
 Sum of Mulliken charges =  -0.00000

 Dipole moment (field-independent basis, Debye):
    X=              0.1619    Y=             -0.1583    Z=              0.0646  Tot=              0.2355

 Test job not archived.
 1\1\GINC-SE220\SP\RHF\Aug-CC-pVDZ\C6H12\OHZDE\05-Apr-2025\0\\#t hf aug
 -cc-pvdz iop(5/13=1,5/36=2,99/5=2) pseudo=read geom=check guess=(read,
 tcheck) scf=(maxcycle=1)\\title\\0,1\C,0,1.701604,-1.275001,-0.436236\
 H,0,2.374174,-0.561889,-0.914203\H,0,2.313484,-2.070904,-0.008931\H,0,
 1.074007,-1.711323,-1.214157\C,0,0.842683,-0.605101,0.647356\H,0,1.502
 107,-0.22776,1.434975\H,0,0.21238,-1.360114,1.116333\C,0,0.743877,1.83
 926,-0.066279\H,0,0.096872,2.613381,-0.477032\H,0,1.149562,2.20225,0.8
 82755\H,0,1.594614,1.719062,-0.742276\C,0,-2.193807,-0.745612,-0.03561

 Normal termination of Gaussian 16 at Sat Apr  5 22:50:43 2025.
