 Gaussian 16, Revision C.01,

 ----------------------------------------------------------------------
 #t hf aug-cc-pvdz symm=none int=(grid=ultrafine) guess=(read,tcheck) s
 table=(opt,rrhf)
 ----------------------------------------------------------------------
 -----
 title
 -----
 Symbolic Z-matrix:
 Charge =  0 Multiplicity = 1

 SCF Done:  E(RHF) =  -337.684491499     A.U. after   13 cycles
 Normal termination of Gaussian 16 at Sat Apr  5 22:50:11 2025.
 Gaussian 16:  ES64L-G16RevC.01  3-Jul-2019

 ----------------------------------------------------------------------
 #t hf aug-cc-pvdz iop(5/13=1,5/36=2,99/5=2) pseudo=read geom=check gue
 ss=(read,tcheck) scf=(maxcycle=1)
 ----------------------------------------------------------------------
 -----
 title
 -----
 Structure from the checkpoint file:  "Z-azodioxymethane.chk"
 Charge =  0 Multiplicity = 1

                         Standard orientation:
 ---------------------------------------------------------------------
 Center     Atomic      Atomic             Coordinates (Angstroms)
 Number     Number       Type             X           Y           Z
 ---------------------------------------------------------------------
      1          7           0       -0.000879    0.657327   -0.156908
      2          7           0        0.000879   -0.657327   -0.156908
      3          8           0        0.011007    1.297461   -1.232955
      4          8           0       -0.011007   -1.297461   -1.232955
      5          6           0        0.000879    1.397974    1.121153
      6          6           0       -0.000879   -1.397974    1.121153
      7          1           0       -0.261515    2.413654    0.851840
      8          1           0       -0.729762    0.994639    1.816917
      9          1           0        0.995166    1.380452    1.566321
     10          1           0        0.261515   -2.413654    0.851840
     11          1           0        0.729762   -0.994639    1.816917
     12          1           0       -0.995166   -1.380452    1.566321
 ---------------------------------------------------------------------

 SCF Done:  E(RHF) =  -337.790865246     A.U. after    2 cycles

 The electronic state is 1-A.
 Alpha  occ. eigenvalues --  -20.56109 -20.56108 -15.83786 -15.83710 -11.32500
 Alpha  occ. eigenvalues --  -11.32497  -1.49393  -1.37878  -1.20071  -1.06206
 Alpha  occ. eigenvalues --   -1.02787  -0.81266  -0.77677  -0.74737  -0.71356
 Alpha  occ. eigenvalues --   -0.64467  -0.63158  -0.62696  -0.61656  -0.60432
 Alpha  occ. eigenvalues --   -0.52632  -0.47318  -0.46573  -0.33197
 Alpha virt. eigenvalues --    0.01560   0.03369   0.03662   0.05652   0.06367
 Alpha virt. eigenvalues --    0.07672   0.08648   0.08912   0.11214   0.13652
 Alpha virt. eigenvalues --    0.13709   0.14060   0.15087   0.16846   0.16897

 Mulliken charges:
               1
     1  N    0.178830
     2  N    0.178830
     3  O   -0.727751
     4  O   -0.727751
     5  C    0.767454
     6  C    0.767454
     7  H   -0.173478
     8  H   -0.018908
     9  H   -0.026148
    10  H   -0.173478
    11  H   -0.018908
    12  H   -0.026148
 Sum of Mulliken charges =  -0.00000

 Dipole moment (field-independent basis, Debye):
    X=             -0.0000    Y=             -0.0000    Z=              8.2806  Tot=              8.2806

 Test job not archived.
 1\1\GINC-SE222\SP\RHF\Aug-CC-pVDZ\C2H6N2O2\OHZDE\05-Apr-2025\0\\#t hf
 aug-cc-pvdz iop(5/13=1,5/36=2,99/5=2) pseudo=read geom=check guess=(re
 ad,tcheck) scf=(maxcycle=1)\\title\\0,1\N,0,-0.000879,0.657327,-0.1569
 08\N,0,0.000879,-0.657327,-0.156908\O,0,0.011007,1.297461,-1.232955\O,
 0,-0.011007,-1.297461,-1.232955\C,0,0.000879,1.397974,1.121153\C,0,-0.
 000879,-1.397974,1.121153\H,0,-0.261515,2.413654,0.85184\H,0,-0.729762
 ,0.994639,1.816917\H,0,0.995166,1.380452,1.566321\H,0,0.261515,-2.4136
 54,0.85184\H,0,0.729762,-0.994639,1.816917\H,0,-0.995166,-1.380452,1.5

 Normal termination of Gaussian 16 at Sat Apr  5 22:50:14 2025.
