 Gaussian 16, Revision C.01,

 ----------------------------------------------------------------------
 #t hf aug-cc-pvdz symm=none int=(grid=ultrafine) guess=(read,tcheck) s
 table=(opt,rrhf)
 ----------------------------------------------------------------------
 -----
 title
 -----
 Symbolic Z-matrix:
 Charge =  0 Multiplicity = 1

 SCF Done:  E(RHF) =  -188.077583983     A.U. after   11 cycles
 Normal termination of Gaussian 16 at Sat Apr  5 22:48:59 2025.
 Gaussian 16:  ES64L-G16RevC.01  3-Jul-2019

 ----------------------------------------------------------------------
 #t hf aug-cc-pvdz iop(5/13=1,5/36=2,99/5=2) pseudo=read geom=check gue
 ss=(read,tcheck) scf=(maxcycle=1)
 ----------------------------------------------------------------------
 -----
 title
 -----
 Structure from the checkpoint file:  "Z-dimethyldiazine.chk"
 Charge =  0 Multiplicity = 1

                         Standard orientation:
 ---------------------------------------------------------------------
 Center     Atomic      Atomic             Coordinates (Angstroms)
 Number     Number       Type             X           Y           Z
 ---------------------------------------------------------------------
      1          6           0        0.000000    1.361719    0.498953
      2          7           0        0.000000    0.616634   -0.777570
      3          7           0       -0.000000   -0.616634   -0.777570
      4          6           0       -0.000000   -1.361719    0.498953
      5          1           0        0.885227    1.126165    1.094742
      6          1           0       -0.885227    1.126165    1.094742
      7          1           0        0.000000    2.420611    0.259791
      8          1           0        0.885227   -1.126165    1.094742
      9          1           0       -0.885227   -1.126165    1.094742
     10          1           0       -0.000000   -2.420611    0.259791
 ---------------------------------------------------------------------

 SCF Done:  E(RHF) =  -188.135091596     A.U. after    2 cycles

 The electronic state is 1-A1.
 Alpha  occ. eigenvalues --  -15.68505 -15.68378 -11.27033 -11.27031  -1.31185
 Alpha  occ. eigenvalues --   -1.03301  -0.97116  -0.76388  -0.66735  -0.64972
 Alpha  occ. eigenvalues --   -0.64191  -0.57381  -0.56468  -0.50003  -0.45491
 Alpha  occ. eigenvalues --   -0.36077
 Alpha virt. eigenvalues --    0.02946   0.04027   0.05100   0.06112   0.07625
 Alpha virt. eigenvalues --    0.07922   0.09478   0.12515   0.12645   0.14209
 Alpha virt. eigenvalues --    0.15870   0.16502   0.16646   0.18315   0.18999

 Mulliken charges:
               1
     1  C    0.653998
     2  N   -0.415706
     3  N   -0.415706
     4  C    0.653998
     5  H    0.011991
     6  H    0.011991
     7  H   -0.262274
     8  H    0.011991
     9  H    0.011991
    10  H   -0.262274
 Sum of Mulliken charges =  -0.00000

 Dipole moment (field-independent basis, Debye):
    X=             -0.0000    Y=              0.0000    Z=              3.3223  Tot=              3.3223

 Test job not archived.
 1\1\GINC-SE222\SP\RHF\Aug-CC-pVDZ\C2H6N2\OHZDE\05-Apr-2025\0\\#t hf au
 g-cc-pvdz iop(5/13=1,5/36=2,99/5=2) pseudo=read geom=check guess=(read
 ,tcheck) scf=(maxcycle=1)\\title\\0,1\C,0,0.,1.361719,0.498953\N,0,0.,
 0.616634,-0.77757\N,0,0.,-0.616634,-0.77757\C,0,0.,-1.361719,0.498953\
 H,0,0.885227,1.126165,1.094742\H,0,-0.885227,1.126165,1.094742\H,0,0.,
 2.420611,0.259791\H,0,0.885227,-1.126165,1.094742\H,0,-0.885227,-1.126
 165,1.094742\H,0,0.,-2.420611,0.259791\\Version=ES64L-G16RevC.01\State
 =1-A1\HF=-188.1350916\RMSD=2.540e-03\Dipole=0.,0.,1.307099\Quadrupole=

 Normal termination of Gaussian 16 at Sat Apr  5 22:50:01 2025.
