 Gaussian 16, Revision C.01,

 ----------------------------------------------------------------------
 #t hf aug-cc-pvdz symm=none int=(grid=ultrafine) guess=(read,tcheck) s
 table=(opt,rrhf)
 ----------------------------------------------------------------------
 -----
 title
 -----
 Symbolic Z-matrix:
 Charge =  0 Multiplicity = 1

 SCF Done:  E(RHF) =  -234.203448611     A.U. after   13 cycles
 Normal termination of Gaussian 16 at Sat Apr  5 22:50:35 2025.
 Gaussian 16:  ES64L-G16RevC.01  3-Jul-2019

 ----------------------------------------------------------------------
 #t hf aug-cc-pvdz iop(5/13=1,5/36=2,99/5=2) pseudo=read geom=check gue
 ss=(read,tcheck) scf=(maxcycle=1)
 ----------------------------------------------------------------------
 -----
 title
 -----
 Structure from the checkpoint file:  "Z-hex-2-ene.chk"
 Charge =  0 Multiplicity = 1

                         Standard orientation:
 ---------------------------------------------------------------------
 Center     Atomic      Atomic             Coordinates (Angstroms)
 Number     Number       Type             X           Y           Z
 ---------------------------------------------------------------------
      1          6           0        2.504241    0.931319   -0.085192
      2          6           0        1.998142   -0.478800   -0.128417
      3          6           0        0.769296   -0.918216    0.140008
      4          6           0       -0.434805   -0.119302    0.542445
      5          6           0       -1.601727   -0.257472   -0.447654
      6          6           0       -2.851525    0.501404   -0.006889
      7          1           0        1.734783    1.651980    0.184380
      8          1           0        3.319775    1.027195    0.636764
      9          1           0        2.913879    1.224357   -1.055460
     10          1           0        2.738677   -1.220567   -0.412233
     11          1           0        0.595713   -1.987355    0.051531
     12          1           0       -0.185051    0.936381    0.659414
     13          1           0       -0.776153   -0.463279    1.525879
     14          1           0       -1.278423    0.098753   -1.429077
     15          1           0       -1.840844   -1.317309   -0.573189
     16          1           0       -3.661297    0.386912   -0.728721
     17          1           0       -3.213611    0.139892    0.957916
     18          1           0       -2.649176    1.569437    0.096993
 ---------------------------------------------------------------------

 SCF Done:  E(RHF) =  -234.279535544     A.U. after    2 cycles

 The electronic state is 1-A.
 Alpha  occ. eigenvalues --  -11.23236 -11.22887 -11.22822 -11.22762 -11.22732
 Alpha  occ. eigenvalues --  -11.22129  -1.08162  -1.03217  -0.95635  -0.89379
 Alpha  occ. eigenvalues --   -0.80720  -0.72331  -0.66177  -0.61433  -0.59484
 Alpha  occ. eigenvalues --   -0.57021  -0.56035  -0.53759  -0.52557  -0.50370
 Alpha  occ. eigenvalues --   -0.48213  -0.47064  -0.46112  -0.34439
 Alpha virt. eigenvalues --    0.03519   0.04240   0.04453   0.04872   0.06048
 Alpha virt. eigenvalues --    0.06217   0.06506   0.07149   0.08143   0.08688
 Alpha virt. eigenvalues --    0.09224   0.10184   0.12663   0.12861   0.13842

 Mulliken charges:
               1
     1  C    0.274762
     2  C   -0.022870
     3  C    0.795870
     4  C    0.126556
     5  C    0.012342
     6  C    0.414128
     7  H   -0.163199
     8  H    0.067057
     9  H    0.081513
    10  H   -0.422109
    11  H   -0.495802
    12  H   -0.197148
    13  H    0.004001
    14  H   -0.118603
    15  H   -0.140474
    16  H   -0.070186
    17  H   -0.060794
    18  H   -0.085046
 Sum of Mulliken charges =  -0.00000

 Dipole moment (field-independent basis, Debye):
    X=             -0.0779    Y=              0.2441    Z=             -0.0146  Tot=              0.2567

 Test job not archived.
 1\1\GINC-SE223\SP\RHF\Aug-CC-pVDZ\C6H12\OHZDE\05-Apr-2025\0\\#t hf aug
 -cc-pvdz iop(5/13=1,5/36=2,99/5=2) pseudo=read geom=check guess=(read,
 tcheck) scf=(maxcycle=1)\\title\\0,1\C,0,2.504241,0.931319,-0.085192\C
 ,0,1.998142,-0.4788,-0.128417\C,0,0.769296,-0.918216,0.140008\C,0,-0.4
 34805,-0.119302,0.542445\C,0,-1.601727,-0.257472,-0.447654\C,0,-2.8515
 25,0.501404,-0.006889\H,0,1.734783,1.65198,0.18438\H,0,3.319775,1.0271
 95,0.636764\H,0,2.913879,1.224357,-1.05546\H,0,2.738677,-1.220567,-0.4
 12233\H,0,0.595713,-1.987355,0.051531\H,0,-0.185051,0.936381,0.659414\

 Normal termination of Gaussian 16 at Sat Apr  5 22:50:40 2025.
