 Gaussian 16, Revision C.01,

 ----------------------------------------------------------------------
 #t hf aug-cc-pvdz symm=none int=(grid=ultrafine) guess=(read,tcheck) s
 table=(opt,rrhf)
 ----------------------------------------------------------------------
 -----
 title
 -----
 Symbolic Z-matrix:
 Charge =  0 Multiplicity = 1

 SCF Done:  E(RHF) =  -229.407254613     A.U. after   13 cycles
 Normal termination of Gaussian 16 at Sat Apr  5 22:49:03 2025.
 Gaussian 16:  ES64L-G16RevC.01  3-Jul-2019

 ----------------------------------------------------------------------
 #t hf aug-cc-pvdz iop(5/13=1,5/36=2,99/5=2) pseudo=read geom=check gue
 ss=(read,tcheck) scf=(maxcycle=1)
 ----------------------------------------------------------------------
 -----
 title
 -----
 Structure from the checkpoint file:  "Z-hexa-1-5-diyne-3-ene.chk"
 Charge =  0 Multiplicity = 1

                         Standard orientation:
 ---------------------------------------------------------------------
 Center     Atomic      Atomic             Coordinates (Angstroms)
 Number     Number       Type             X           Y           Z
 ---------------------------------------------------------------------
      1          6           0        0.000000    0.673836    1.076580
      2          6           0       -0.000000   -0.673836    1.076580
      3          6           0        0.000000    1.493940   -0.073575
      4          6           0       -0.000000   -1.493940   -0.073575
      5          1           0        0.000000    1.184203    2.032282
      6          1           0       -0.000000   -1.184203    2.032282
      7          6           0        0.000000    2.225403   -1.028515
      8          6           0       -0.000000   -2.225403   -1.028515
      9          1           0        0.000000    2.859977   -1.879220
     10          1           0       -0.000000   -2.859977   -1.879220
 ---------------------------------------------------------------------

 SCF Done:  E(RHF) =  -229.480896944     A.U. after    2 cycles

 The electronic state is 1-A1.
 Alpha  occ. eigenvalues --  -11.28742 -11.28593 -11.25720 -11.25716 -11.25084
 Alpha  occ. eigenvalues --  -11.25082  -1.11611  -1.04174  -1.00078  -0.88172
 Alpha  occ. eigenvalues --   -0.76287  -0.71892  -0.69583  -0.65988  -0.58696
 Alpha  occ. eigenvalues --   -0.50234  -0.42849  -0.40904  -0.40426  -0.33235
 Alpha virt. eigenvalues --    0.03461   0.03858   0.04002   0.05531   0.05962
 Alpha virt. eigenvalues --    0.09796   0.09952   0.10281   0.11183   0.11788
 Alpha virt. eigenvalues --    0.12048   0.13857   0.14073   0.14493   0.15554

 Mulliken charges:
               1
     1  C    0.550036
     2  C    0.550036
     3  C   -0.442599
     4  C   -0.442599
     5  H   -0.394778
     6  H   -0.394778
     7  C    0.796279
     8  C    0.796279
     9  H   -0.508938
    10  H   -0.508938
 Sum of Mulliken charges =  -0.00000

 Dipole moment (field-independent basis, Debye):
    X=              0.0000    Y=              0.0000    Z=              0.1788  Tot=              0.1788

 Test job not archived.
 1\1\GINC-SE151\SP\RHF\Aug-CC-pVDZ\C6H4\OHZDE\05-Apr-2025\0\\#t hf aug-
 cc-pvdz iop(5/13=1,5/36=2,99/5=2) pseudo=read geom=check guess=(read,t
 check) scf=(maxcycle=1)\\title\\0,1\C,0,0.,0.673836,1.07658\C,0,0.,-0.
 673836,1.07658\C,0,0.,1.49394,-0.073575\C,0,0.,-1.49394,-0.073575\H,0,
 0.,1.184203,2.032282\H,0,0.,-1.184203,2.032282\C,0,0.,2.225403,-1.0285
 15\C,0,0.,-2.225403,-1.028515\H,0,0.,2.859977,-1.87922\H,0,0.,-2.85997
 7,-1.87922\\Version=ES64L-G16RevC.01\State=1-A1\HF=-229.4808969\RMSD=1
 .251e-02\Dipole=0.,0.,0.0703266\Quadrupole=-4.8699277,0.9024555,3.9674

 Normal termination of Gaussian 16 at Sat Apr  5 22:50:01 2025.
