                         Program Version 5.0.4 -  RELEASE  -
|  1> !ri-mp2 aug-cc-pvqz aug-cc-pvqz/c tightscf
|  2> %pal nprocs 16 end
|  3>
|  4> * xyz 0 1
|  5> C      0.414691    1.407380    0.525760
|  6> N      0.414691    0.576813   -0.674955
|  7> N     -0.414691   -0.576813   -0.674955
|  8> C     -0.414691   -1.407380    0.525760
|  9> H     -1.350955   -0.279245   -0.913971
| 10> H     -0.587418    1.808180    0.689219
| 11> H      0.736630    0.902508    1.444977
| 12> H      1.084191    2.249794    0.349899
| 13> H      1.350955    0.279245   -0.913971
| 14> H     -1.084191   -2.249794    0.349899
| 15> H     -0.736630   -0.902508    1.444977
| 16> H      0.587418   -1.808180    0.689219
| 17> *
| 18>
| 19>                          ****END OF INPUT****

CARTESIAN COORDINATES (ANGSTROEM)
---------------------------------
  C      0.414691    1.407380    0.525760
  N      0.414691    0.576813   -0.674955
  N     -0.414691   -0.576813   -0.674955
  C     -0.414691   -1.407380    0.525760
  H     -1.350955   -0.279245   -0.913971
  H     -0.587418    1.808180    0.689219
  H      0.736630    0.902508    1.444977
  H      1.084191    2.249794    0.349899
  H      1.350955    0.279245   -0.913971
  H     -1.084191   -2.249794    0.349899
  H     -0.736630   -0.902508    1.444977
  H      0.587418   -1.808180    0.689219

 Total Charge           Charge          ....    0
 Multiplicity           Mult            ....    1
 Number of Electrons    NEL             ....   34
 Basis Dimension        Dim             ....  688

ORBITAL ENERGIES
----------------

  NO   OCC          E(Eh)            E(eV)
   0   2.0000     -15.564672      -423.5363
   1   2.0000     -15.564184      -423.5230
   2   2.0000     -11.241451      -305.8954
   3   2.0000     -11.241446      -305.8953
   4   2.0000      -1.273082       -34.6423
   5   2.0000      -1.075201       -29.2577
   6   2.0000      -0.928488       -25.2655
   7   2.0000      -0.855715       -23.2852
   8   2.0000      -0.662437       -18.0258
   9   2.0000      -0.660632       -17.9767
  10   2.0000      -0.607156       -16.5216
  11   2.0000      -0.593219       -16.1423
  12   2.0000      -0.547006       -14.8848
  13   2.0000      -0.542205       -14.7541
  14   2.0000      -0.512818       -13.9545
  15   2.0000      -0.384900       -10.4737
  16   2.0000      -0.371264       -10.1026
  17   0.0000       0.025989         0.7072
  18   0.0000       0.032988         0.8976
  19   0.0000       0.037077         1.0089
  20   0.0000       0.039073         1.0632
  21   0.0000       0.052968         1.4413

MULLIKEN ATOMIC CHARGES
-----------------------
   0 C :   -0.800545
   1 N :   -0.315555
   2 N :   -0.315555
   3 C :   -0.800545
   4 H :    0.235950
   5 H :    0.266374
   6 H :    0.244601
   7 H :    0.369177
   8 H :    0.235950
   9 H :    0.369177
  10 H :    0.244601
  11 H :    0.266374
Sum of atomic charges:    0.0000000

LOEWDIN ATOMIC CHARGES
----------------------
   0 C :    0.739352
   1 N :    0.724170
   2 N :    0.724170
   3 C :    0.739352
   4 H :   -0.548115
   5 H :   -0.301933
   6 H :   -0.306449
   7 H :   -0.307024
   8 H :   -0.548115
   9 H :   -0.307024
  10 H :   -0.306449
  11 H :   -0.301933

  Mayer bond orders larger than 0.100000
B(  0-C ,  1-N ) :   0.9322 B(  0-C ,  5-H ) :   0.9317 B(  0-C ,  6-H ) :   0.9612
B(  0-C ,  7-H ) :   0.8745 B(  1-N ,  2-N ) :   0.7018 B(  1-N ,  8-H ) :   0.9242
B(  2-N ,  3-C ) :   0.9322 B(  2-N ,  4-H ) :   0.9242 B(  3-C ,  9-H ) :   0.8745
B(  3-C , 10-H ) :   0.9612 B(  3-C , 11-H ) :   0.9317

MP2 TOTAL ENERGY:     -190.161737908 Eh
FINAL SINGLE POINT ENERGY      -190.161737907584

DIPOLE MOMENT
-------------
                                X             Y             Z
Electronic contribution:     -0.00000      -0.00000      -2.68618
Nuclear contribution   :      0.00000      -0.00000       3.32800
                        -----------------------------------------
Total Dipole Moment    :     -0.00000      -0.00000       0.64183
                        -----------------------------------------
Magnitude (a.u.)       :      0.64183
Magnitude (Debye)      :      1.63139

Rotational constants in cm-1:     0.502719     0.182672     0.151287
Rotational constants in MHz : 15071.135607  5476.383470  4535.458474

                             ****ORCA TERMINATED NORMALLY****
TOTAL RUN TIME: 0 days 0 hours 10 minutes 9 seconds 872 msec
