                         Program Version 5.0.4 -  RELEASE  -
|  1> !ri-mp2 aug-cc-pvqz aug-cc-pvqz/c tightscf
|  2> %pal nprocs 16 end
|  3>
|  4> * xyz 0 1
|  5> C      0.000000    1.191371    0.693954
|  6> C      0.000000    0.000000    1.397434
|  7> C      0.000000   -1.191371    0.693954
|  8> C      0.000000   -1.191371   -0.693954
|  9> C      0.000000    0.000000   -1.397434
| 10> C      0.000000    1.191371   -0.693954
| 11> F      0.000000    2.357926    1.354335
| 12> H      0.000000    0.000000    2.477199
| 13> F      0.000000   -2.357926    1.354335
| 14> F      0.000000   -2.357926   -1.354335
| 15> H      0.000000    0.000000   -2.477199
| 16> F      0.000000    2.357926   -1.354335
| 17> *
| 18>
| 19>                          ****END OF INPUT****

CARTESIAN COORDINATES (ANGSTROEM)
---------------------------------
  C      0.000000    1.191371    0.693954
  C      0.000000    0.000000    1.397434
  C      0.000000   -1.191371    0.693954
  C      0.000000   -1.191371   -0.693954
  C      0.000000    0.000000   -1.397434
  C      0.000000    1.191371   -0.693954
  F      0.000000    2.357926    1.354335
  H      0.000000    0.000000    2.477199
  F      0.000000   -2.357926    1.354335
  F      0.000000   -2.357926   -1.354335
  H      0.000000    0.000000   -2.477199
  F      0.000000    2.357926   -1.354335

 Total Charge           Charge          ....    0
 Multiplicity           Mult            ....    1
 Number of Electrons    NEL             ....   74
 Basis Dimension        Dim             ....  892

ORBITAL ENERGIES
----------------

  NO   OCC          E(Eh)            E(eV)
   0   2.0000     -26.335977      -716.6384
   1   2.0000     -26.335977      -716.6384
   2   2.0000     -26.335975      -716.6383
   3   2.0000     -26.335975      -716.6383
   4   2.0000     -11.363407      -309.2140
   5   2.0000     -11.363391      -309.2136
   6   2.0000     -11.362158      -309.1800
   7   2.0000     -11.362136      -309.1795
   8   2.0000     -11.283966      -307.0523
   9   2.0000     -11.283950      -307.0519
  10   2.0000      -1.662855       -45.2486
  11   2.0000      -1.662148       -45.2294
  12   2.0000      -1.648757       -44.8650
  13   2.0000      -1.648379       -44.8547
  14   2.0000      -1.209258       -32.9056
  15   2.0000      -1.076570       -29.2950
  16   2.0000      -1.057930       -28.7877
  17   2.0000      -0.921199       -25.0671
  18   2.0000      -0.895225       -24.3603
  19   2.0000      -0.806122       -21.9357
  20   2.0000      -0.805365       -21.9151
  21   2.0000      -0.793333       -21.5877
  22   2.0000      -0.746512       -20.3136
  23   2.0000      -0.742312       -20.1993
  24   2.0000      -0.730726       -19.8841
  25   2.0000      -0.719967       -19.5913
  26   2.0000      -0.710692       -19.3389
  27   2.0000      -0.707155       -19.2427
  28   2.0000      -0.704997       -19.1839
  29   2.0000      -0.687006       -18.6944
  30   2.0000      -0.656916       -17.8756
  31   2.0000      -0.632243       -17.2042
  32   2.0000      -0.596683       -16.2366
  33   2.0000      -0.576822       -15.6961
  34   2.0000      -0.534365       -14.5408
  35   2.0000      -0.387258       -10.5378
  36   2.0000      -0.363794        -9.8993
  37   0.0000       0.025509         0.6941
  38   0.0000       0.028222         0.7679
  39   0.0000       0.049219         1.3393
  40   0.0000       0.060737         1.6527
  41   0.0000       0.063577         1.7300

MULLIKEN ATOMIC CHARGES
-----------------------
   0 C :    0.806291
   1 C :   -0.682336
   2 C :    0.806329
   3 C :    0.806319
   4 C :   -0.682311
   5 C :    0.806297
   6 F :   -0.724599
   7 H :    0.518906
   8 F :   -0.724600
   9 F :   -0.724599
  10 H :    0.518899
  11 F :   -0.724597
Sum of atomic charges:    0.0000000

LOEWDIN ATOMIC CHARGES
----------------------
   0 C :   -0.741527
   1 C :    0.248979
   2 C :   -0.741527
   3 C :   -0.741527
   4 C :    0.248979
   5 C :   -0.741527
   6 F :    0.782970
   7 H :   -0.331866
   8 F :    0.782970
   9 F :    0.782970
  10 H :   -0.331866
  11 F :    0.782970

  Mayer bond orders larger than 0.100000
B(  0-C ,  1-C ) :   1.3783 B(  0-C ,  2-C ) :  -0.1946 B(  0-C ,  3-C ) :   0.1591
B(  0-C ,  5-C ) :   1.4865 B(  0-C ,  6-F ) :   0.1110 B(  1-C ,  2-C ) :   1.3783
B(  1-C ,  7-H ) :   0.6592 B(  2-C ,  3-C ) :   1.4865 B(  2-C ,  5-C ) :   0.1591
B(  2-C ,  8-F ) :   0.1110 B(  3-C ,  4-C ) :   1.3783 B(  3-C ,  5-C ) :  -0.1946
B(  3-C ,  9-F ) :   0.1110 B(  4-C ,  5-C ) :   1.3783 B(  4-C , 10-H ) :   0.6593
B(  5-C , 11-F ) :   0.1110

MP2 TOTAL ENERGY:     -628.448835393 Eh
FINAL SINGLE POINT ENERGY      -628.448835393287

DIPOLE MOMENT
-------------
                                X             Y             Z
Electronic contribution:     -0.00000       0.00000      -0.00000
Nuclear contribution   :      0.00000       0.00000       0.00000
                        -----------------------------------------
Total Dipole Moment    :     -0.00000       0.00000      -0.00000
                        -----------------------------------------
Magnitude (a.u.)       :      0.00000
Magnitude (Debye)      :      0.00000

Rotational constants in cm-1:     0.076002     0.034355     0.023660
Rotational constants in MHz :  2278.487078  1029.929179   709.306249

                             ****ORCA TERMINATED NORMALLY****
TOTAL RUN TIME: 0 days 0 hours 28 minutes 35 seconds 111 msec
