                         Program Version 5.0.4 -  RELEASE  -
|  1> !ri-mp2 aug-cc-pvqz aug-cc-pvqz/c tightscf
|  2> %pal nprocs 16 end
|  3> %maxcore 3800
|  4>
|  5> * xyz 0 1
|  6> C      1.195758   -1.298145   -0.004519
|  7> C     -0.164078   -1.590289   -0.001142
|  8> C      0.666857    1.027078   -0.003574
|  9> C      1.634761    0.020991   -0.004468
| 10> C     -1.127279   -0.586152    0.001431
| 11> C     -0.698001    0.753544   -0.000391
| 12> C      3.101945    0.363537    0.005491
| 13> C     -2.592222   -0.934876    0.003747
| 14> C     -1.694071    1.883282   -0.000809
| 15> H      1.916869   -2.105981   -0.008032
| 16> H     -0.483106   -2.625508   -0.001941
| 17> H      0.988228    2.062856   -0.006517
| 18> H      3.350936    1.071949   -0.786662
| 19> H      3.394831    0.823552    0.952224
| 20> H      3.716693   -0.524973   -0.134151
| 21> H     -3.103136   -0.529106    0.880359
| 22> H     -3.105416   -0.531909   -0.872848
| 23> H     -2.735435   -2.014351    0.005643
| 24> H     -1.191305    2.849145   -0.002610
| 25> H     -2.346579    1.844113   -0.876396
| 26> H     -2.344609    1.846392    0.876330
| 27> *
| 28>
| 29>                          ****END OF INPUT****

CARTESIAN COORDINATES (ANGSTROEM)
---------------------------------
  C      1.195758   -1.298145   -0.004519
  C     -0.164078   -1.590289   -0.001142
  C      0.666857    1.027078   -0.003574
  C      1.634761    0.020991   -0.004468
  C     -1.127279   -0.586152    0.001431
  C     -0.698001    0.753544   -0.000391
  C      3.101945    0.363537    0.005491
  C     -2.592222   -0.934876    0.003747
  C     -1.694071    1.883282   -0.000809
  H      1.916869   -2.105981   -0.008032
  H     -0.483106   -2.625508   -0.001941
  H      0.988228    2.062856   -0.006517
  H      3.350936    1.071949   -0.786662
  H      3.394831    0.823552    0.952224
  H      3.716693   -0.524973   -0.134151
  H     -3.103136   -0.529106    0.880359
  H     -3.105416   -0.531909   -0.872848
  H     -2.735435   -2.014351    0.005643
  H     -1.191305    2.849145   -0.002610
  H     -2.346579    1.844113   -0.876396
  H     -2.344609    1.846392    0.876330

 Total Charge           Charge          ....    0
 Multiplicity           Mult            ....    1
 Number of Electrons    NEL             ....   66
 Basis Dimension        Dim             .... 1272

ORBITAL ENERGIES
----------------

  NO   OCC          E(Eh)            E(eV)
   0   2.0000     -11.232606      -305.6547
   1   2.0000     -11.230867      -305.6074
   2   2.0000     -11.228153      -305.5336
   3   2.0000     -11.221818      -305.3612
   4   2.0000     -11.219096      -305.2871
   5   2.0000     -11.218087      -305.2597
   6   2.0000     -11.217953      -305.2560
   7   2.0000     -11.217882      -305.2541
   8   2.0000     -11.217754      -305.2506
   9   2.0000      -1.154994       -31.4290
  10   2.0000      -1.064097       -28.9555
  11   2.0000      -1.030567       -28.0432
  12   2.0000      -0.971341       -26.4315
  13   2.0000      -0.933366       -25.3982
  14   2.0000      -0.888030       -24.1645
  15   2.0000      -0.809762       -22.0347
  16   2.0000      -0.765163       -20.8211
  17   2.0000      -0.658132       -17.9087
  18   2.0000      -0.652180       -17.7467
  19   2.0000      -0.611444       -16.6382
  20   2.0000      -0.591067       -16.0838
  21   2.0000      -0.568743       -15.4763
  22   2.0000      -0.564093       -15.3497
  23   2.0000      -0.555920       -15.1274
  24   2.0000      -0.548528       -14.9262
  25   2.0000      -0.544135       -14.8067
  26   2.0000      -0.537043       -14.6137
  27   2.0000      -0.518386       -14.1060
  28   2.0000      -0.472896       -12.8681
  29   2.0000      -0.471344       -12.8259
  30   2.0000      -0.467311       -12.7162
  31   2.0000      -0.323751        -8.8097
  32   2.0000      -0.307753        -8.3744
  33   0.0000       0.025891         0.7045
  34   0.0000       0.027056         0.7362
  35   0.0000       0.028757         0.7825
  36   0.0000       0.039081         1.0635
  37   0.0000       0.039636         1.0785

MULLIKEN ATOMIC CHARGES
-----------------------
   0 C :   -0.370498
   1 C :   -0.452047
   2 C :   -0.411101
   3 C :    0.315367
   4 C :    0.530696
   5 C :    0.342296
   6 C :   -0.859164
   7 C :   -0.859593
   8 C :   -0.858643
   9 H :    0.166185
  10 H :    0.152496
  11 H :    0.268369
  12 H :    0.221690
  13 H :    0.249670
  14 H :    0.238646
  15 H :    0.178931
  16 H :    0.179970
  17 H :    0.293862
  18 H :    0.300719
  19 H :    0.187384
  20 H :    0.184764
Sum of atomic charges:   -0.0000000

LOEWDIN ATOMIC CHARGES
----------------------
   0 C :    0.354352
   1 C :    0.354887
   2 C :    0.351306
   3 C :   -0.067414
   4 C :   -0.060577
   5 C :   -0.053635
   6 C :    0.906249
   7 C :    0.900780
   8 C :    0.905244
   9 H :   -0.323349
  10 H :   -0.323310
  11 H :   -0.320399
  12 H :   -0.288165
  13 H :   -0.281703
  14 H :   -0.309629
  15 H :   -0.283693
  16 H :   -0.283564
  17 H :   -0.306742
  18 H :   -0.305454
  19 H :   -0.282560
  20 H :   -0.282624

  Mayer bond orders larger than 0.100000
B(  0-C ,  1-C ) :   1.2510 B(  0-C ,  3-C ) :   1.0862 B(  0-C ,  4-C ) :  -0.2825
B(  0-C ,  5-C ) :   0.1789 B(  0-C ,  9-H ) :   1.1588 B(  0-C , 10-H ) :  -0.2015
B(  1-C ,  2-C ) :   0.1573 B(  1-C ,  3-C ) :  -0.2120 B(  1-C ,  4-C ) :   0.9468
B(  1-C ,  9-H ) :  -0.1752 B(  1-C , 10-H ) :   1.1349 B(  2-C ,  3-C ) :   0.9667
B(  2-C ,  4-C ) :  -0.1069 B(  2-C ,  5-C ) :   1.0898 B(  2-C ,  6-C ) :  -0.2050
B(  2-C ,  8-C ) :  -0.1496 B(  2-C , 11-H ) :   0.9579 B(  3-C ,  5-C ) :  -0.4595
B(  3-C ,  6-C ) :   0.7231 B(  3-C ,  9-H ) :  -0.1139 B(  3-C , 12-H ) :  -0.1361
B(  3-C , 13-H ) :  -0.1149 B(  4-C ,  5-C ) :   0.9454 B(  4-C ,  7-C ) :   0.5194
B(  4-C , 10-H ) :  -0.1124 B(  4-C , 15-H ) :  -0.1392 B(  4-C , 16-H ) :  -0.1407
B(  4-C , 17-H ) :  -0.1152 B(  5-C ,  8-C ) :   0.6151 B(  5-C , 18-H ) :  -0.1189
B(  5-C , 19-H ) :  -0.1344 B(  5-C , 20-H ) :  -0.1226 B(  6-C , 12-H ) :   1.0542
B(  6-C , 13-H ) :   1.0133 B(  6-C , 14-H ) :   1.0364 B(  7-C , 15-H ) :   1.0846
B(  7-C , 16-H ) :   1.0832 B(  7-C , 17-H ) :   0.9911 B(  8-C , 18-H ) :   0.9837
B(  8-C , 19-H ) :   1.0675 B(  8-C , 20-H ) :   1.0656

MP2 TOTAL ENERGY:     -349.532638600 Eh
FINAL SINGLE POINT ENERGY      -349.532638600197

DIPOLE MOMENT
-------------
                                X             Y             Z
Electronic contribution:      1.90346      -2.11461      -0.02077
Nuclear contribution   :     -2.00274       2.23390       0.02619
                        -----------------------------------------
Total Dipole Moment    :     -0.09928       0.11930       0.00543
                        -----------------------------------------
Magnitude (a.u.)       :      0.15530
Magnitude (Debye)      :      0.39474

Rotational constants in cm-1:     0.098541     0.042927     0.030403
Rotational constants in MHz :  2954.189053  1286.928846   911.473004

                             ****ORCA TERMINATED NORMALLY****
TOTAL RUN TIME: 0 days 1 hours 41 minutes 20 seconds 391 msec
