                         Program Version 5.0.4 -  RELEASE  -
|  1> !ri-mp2 aug-cc-pvqz aug-cc-pvqz/c tightscf
|  2> %pal nprocs 16 end
|  3>
|  4> * xyz 0 1
|  5> Cl    -2.158879   -0.834991    0.460362
|  6> Cl    -0.993288    1.532997   -0.682534
|  7> O      0.277220   -1.678178   -0.719199
|  8> N     -0.722342    0.149580    0.402406
|  9> N      1.607764   -0.059256    0.184479
| 10> C      0.425703   -0.637266   -0.128512
| 11> C      2.825179   -0.632336   -0.375066
| 12> C      1.787743    1.109351    1.035518
| 13> H      3.457133   -1.029550    0.422266
| 14> H      2.565217   -1.434482   -1.056315
| 15> H      3.383450    0.138196   -0.910345
| 16> H      2.037010    1.992083    0.442264
| 17> H      2.608475    0.914416    1.727449
| 18> H      0.888095    1.307890    1.605352
| 19> *
| 20>
| 21>                          ****END OF INPUT****

CARTESIAN COORDINATES (ANGSTROEM)
---------------------------------
  Cl    -2.158879   -0.834991    0.460362
  Cl    -0.993288    1.532997   -0.682534
  O      0.277220   -1.678178   -0.719199
  N     -0.722342    0.149580    0.402406
  N      1.607764   -0.059256    0.184479
  C      0.425703   -0.637266   -0.128512
  C      2.825179   -0.632336   -0.375066
  C      1.787743    1.109351    1.035518
  H      3.457133   -1.029550    0.422266
  H      2.565217   -1.434482   -1.056315
  H      3.383450    0.138196   -0.910345
  H      2.037010    1.992083    0.442264
  H      2.608475    0.914416    1.727449
  H      0.888095    1.307890    1.605352

 Total Charge           Charge          ....    0
 Multiplicity           Mult            ....    1
 Number of Electrons    NEL             ....   80
 Basis Dimension        Dim             ....  924

ORBITAL ENERGIES
----------------

  NO   OCC          E(Eh)            E(eV)
   0   2.0000    -104.885839     -2854.0888
   1   2.0000    -104.874461     -2853.7792
   2   2.0000     -20.543255      -559.0104
   3   2.0000     -15.699840      -427.2144
   4   2.0000     -15.610565      -424.7851
   5   2.0000     -11.405660      -310.3638
   6   2.0000     -11.276741      -306.8557
   7   2.0000     -11.269941      -306.6707
   8   2.0000     -10.608068      -288.6602
   9   2.0000     -10.596785      -288.3532
  10   2.0000      -8.075123      -219.7353
  11   2.0000      -8.072773      -219.6713
  12   2.0000      -8.072568      -219.6657
  13   2.0000      -8.063922      -219.4305
  14   2.0000      -8.061467      -219.3637
  15   2.0000      -8.061256      -219.3579
  16   2.0000      -1.427118       -38.8339
  17   2.0000      -1.296319       -35.2746
  18   2.0000      -1.265111       -34.4254
  19   2.0000      -1.111079       -30.2340
  20   2.0000      -1.024634       -27.8817
  21   2.0000      -0.988634       -26.9021
  22   2.0000      -0.934408       -25.4265
  23   2.0000      -0.760574       -20.6963
  24   2.0000      -0.724692       -19.7199
  25   2.0000      -0.685846       -18.6628
  26   2.0000      -0.682201       -18.5636
  27   2.0000      -0.626033       -17.0352
  28   2.0000      -0.618086       -16.8190
  29   2.0000      -0.593646       -16.1539
  30   2.0000      -0.581392       -15.8205
  31   2.0000      -0.575972       -15.6730
  32   2.0000      -0.549609       -14.9556
  33   2.0000      -0.544520       -14.8171
  34   2.0000      -0.501921       -13.6580
  35   2.0000      -0.484368       -13.1803
  36   2.0000      -0.461812       -12.5666
  37   2.0000      -0.457388       -12.4462
  38   2.0000      -0.412460       -11.2236
  39   2.0000      -0.395612       -10.7651
  40   0.0000       0.021300         0.5796
  41   0.0000       0.032423         0.8823
  42   0.0000       0.034218         0.9311
  43   0.0000       0.042330         1.1518
  44   0.0000       0.050972         1.3870

MULLIKEN ATOMIC CHARGES
-----------------------
   0 Cl:   -0.045693
   1 Cl:   -0.056017
   2 O :   -0.772384
   3 N :   -0.185637
   4 N :   -0.384505
   5 C :    1.244587
   6 C :   -0.864698
   7 C :   -0.779033
   8 H :    0.324289
   9 H :    0.320091
  10 H :    0.272757
  11 H :    0.332274
  12 H :    0.288507
  13 H :    0.305460
Sum of atomic charges:    0.0000000

LOEWDIN ATOMIC CHARGES
----------------------
   0 Cl:    0.834649
   1 Cl:    0.860818
   2 O :    0.648569
   3 N :   -0.957268
   4 N :    0.340079
   5 C :   -1.383171
   6 C :    0.766573
   7 C :    0.727977
   8 H :   -0.273773
   9 H :   -0.350097
  10 H :   -0.275745
  11 H :   -0.280965
  12 H :   -0.285006
  13 H :   -0.372639

  Mayer bond orders larger than 0.100000
B(  0-Cl,  3-N ) :   0.9232 B(  1-Cl,  3-N ) :   0.9299 B(  2-O ,  4-N ) :   0.2800
B(  2-O ,  5-C ) :   1.2889 B(  3-N ,  5-C ) :   1.0903 B(  4-N ,  5-C ) :   1.3058
B(  4-N ,  6-C ) :   0.7931 B(  4-N ,  7-C ) :   0.7305 B(  6-C ,  8-H ) :   0.9298
B(  6-C ,  9-H ) :   0.9082 B(  6-C , 10-H ) :   0.9780 B(  7-C , 11-H ) :   0.9201
B(  7-C , 12-H ) :   0.9393 B(  7-C , 13-H ) :   0.9439

MP2 TOTAL ENERGY:    -1221.604818422 Eh
FINAL SINGLE POINT ENERGY     -1221.604818422322

DIPOLE MOMENT
-------------
                                X             Y             Z
Electronic contribution:    -17.46421       0.10124      -1.95634
Nuclear contribution   :     18.62150       0.82685       2.43133
                        -----------------------------------------
Total Dipole Moment    :      1.15729       0.92809       0.47499
                        -----------------------------------------
Magnitude (a.u.)       :      1.55765
Magnitude (Debye)      :      3.95924

Rotational constants in cm-1:     0.068714     0.035241     0.027673
Rotational constants in MHz :  2059.985950  1056.506706   829.612535

                             ****ORCA TERMINATED NORMALLY****
TOTAL RUN TIME: 0 days 0 hours 27 minutes 30 seconds 201 msec
