                         Program Version 5.0.4 -  RELEASE  -
|  1> !ri-mp2 aug-cc-pvqz aug-cc-pvqz/c tightscf
|  2> %pal nprocs 16 end
|  3>
|  4> * xyz 0 1
|  5> C     0.000000     1.297147    0.000000
|  6> C     0.000000     0.000000    0.783698
|  7> C     0.000000     0.000000   -0.783698
|  8> C    -1.123362    -0.648574    0.000000
|  9> C     1.123362    -0.648574    0.000000
| 10> H     0.913369     1.877008    0.000000
| 11> H    -0.913369     1.877008    0.000000
| 12> H    -2.082221    -0.147503    0.000000
| 13> H    -1.168852    -1.729505    0.000000
| 14> H     2.082221    -0.147503    0.000000
| 15> H     1.168852    -1.729505    0.000000
| 16> *
| 17>
| 18>                          ****END OF INPUT****

CARTESIAN COORDINATES (ANGSTROEM)
---------------------------------
  C      0.000000    1.297147    0.000000
  C      0.000000    0.000000    0.783698
  C      0.000000    0.000000   -0.783698
  C     -1.123362   -0.648574    0.000000
  C      1.123362   -0.648574    0.000000
  H      0.913369    1.877008    0.000000
  H     -0.913369    1.877008    0.000000
  H     -2.082221   -0.147503    0.000000
  H     -1.168852   -1.729505    0.000000
  H      2.082221   -0.147503    0.000000
  H      1.168852   -1.729505    0.000000

 Total Charge           Charge          ....    0
 Multiplicity           Mult            ....    1
 Number of Electrons    NEL             ....   36
 Basis Dimension        Dim             ....  676

ORBITAL ENERGIES
----------------

  NO   OCC          E(Eh)            E(eV)
   0   2.0000     -11.259164      -306.3774
   1   2.0000     -11.258304      -306.3540
   2   2.0000     -11.256887      -306.3155
   3   2.0000     -11.256887      -306.3155
   4   2.0000     -11.256563      -306.3067
   5   2.0000      -1.280020       -34.8311
   6   2.0000      -0.948374       -25.8066
   7   2.0000      -0.948374       -25.8066
   8   2.0000      -0.774268       -21.0689
   9   2.0000      -0.731041       -19.8926
  10   2.0000      -0.653530       -17.7834
  11   2.0000      -0.653529       -17.7834
  12   2.0000      -0.541769       -14.7423
  13   2.0000      -0.518429       -14.1072
  14   2.0000      -0.518429       -14.1072
  15   2.0000      -0.443779       -12.0758
  16   2.0000      -0.443778       -12.0758
  17   2.0000      -0.367226        -9.9927
  18   0.0000       0.027888         0.7589
  19   0.0000       0.032248         0.8775
  20   0.0000       0.032248         0.8775
  21   0.0000       0.049620         1.3502
  22   0.0000       0.049620         1.3502

MULLIKEN ATOMIC CHARGES
-----------------------
   0 C :   -0.637722
   1 C :   -0.246611
   2 C :   -0.246611
   3 C :   -0.637713
   4 C :   -0.637713
   5 H :    0.401063
   6 H :    0.401056
   7 H :    0.401058
   8 H :    0.401068
   9 H :    0.401058
  10 H :    0.401067
Sum of atomic charges:    0.0000000

LOEWDIN ATOMIC CHARGES
----------------------
   0 C :    0.540970
   1 C :    0.037023
   2 C :    0.037023
   3 C :    0.540970
   4 C :    0.540970
   5 H :   -0.282826
   6 H :   -0.282826
   7 H :   -0.282826
   8 H :   -0.282826
   9 H :   -0.282826
  10 H :   -0.282826

  Mayer bond orders larger than 0.100000
B(  0-C ,  1-C ) :   0.9879 B(  0-C ,  2-C ) :   0.9879 B(  0-C ,  5-H ) :   0.8240
B(  0-C ,  6-H ) :   0.8241 B(  1-C ,  2-C ) :   0.7549 B(  1-C ,  3-C ) :   0.9879
B(  1-C ,  4-C ) :   0.9879 B(  2-C ,  3-C ) :   0.9879 B(  2-C ,  4-C ) :   0.9879
B(  3-C ,  7-H ) :   0.8241 B(  3-C ,  8-H ) :   0.8240 B(  4-C ,  9-H ) :   0.8241
B(  4-C , 10-H ) :   0.8240

MP2 TOTAL ENERGY:     -193.655240867 Eh
FINAL SINGLE POINT ENERGY      -193.655240866565

DIPOLE MOMENT
-------------
                                X             Y             Z
Electronic contribution:     -0.00000      -0.00000       0.00000
Nuclear contribution   :      0.00000       0.00000       0.00000
                        -----------------------------------------
Total Dipole Moment    :     -0.00000       0.00000       0.00000
                        -----------------------------------------
Magnitude (a.u.)       :      0.00000
Magnitude (Debye)      :      0.00000

Rotational constants in cm-1:     0.289426     0.289426     0.193805
Rotational constants in MHz :  8676.779829  8676.775015  5810.138479

                             ****ORCA TERMINATED NORMALLY****
TOTAL RUN TIME: 0 days 0 hours 11 minutes 53 seconds 955 msec
