                         Program Version 5.0.4 -  RELEASE  -
|  1> !ri-mp2 aug-cc-pvqz aug-cc-pvqz/c tightscf
|  2> %pal nprocs 16 end
|  3> %maxcore 3800
|  4>
|  5> * xyz 0 1
|  6> C      1.134283   -0.569029        0.000000
|  7> C      1.016492   -1.932922        0.000000
|  8> C     -0.261594   -2.526193        0.000000
|  9> C     -1.387179   -1.747660        0.000000
| 10> C     -2.441560    0.487066        0.000000
| 11> C     -2.335638    1.852213        0.000000
| 12> C     -1.064302    2.461445        0.000000
| 13> C      0.074645    1.699051        0.000000
| 14> C      0.000000    0.285851        0.000000
| 15> C     -1.289332   -0.336021        0.000000
| 16> Cl     2.747884    0.124724        0.000000
| 17> H      1.904173   -2.548108        0.000000
| 18> H     -0.340512   -3.604770        0.000000
| 19> H     -2.369483   -2.201792        0.000000
| 20> H     -3.414600    0.012616        0.000000
| 21> H     -3.225734    2.466898        0.000000
| 22> H     -0.988024    3.540457        0.000000
| 23> H      1.045261    2.171590        0.000000
| 24> *
| 25>
| 26>                          ****END OF INPUT****

CARTESIAN COORDINATES (ANGSTROEM)
---------------------------------
  C      1.134283   -0.569029    0.000000
  C      1.016492   -1.932922    0.000000
  C     -0.261594   -2.526193    0.000000
  C     -1.387179   -1.747660    0.000000
  C     -2.441560    0.487066    0.000000
  C     -2.335638    1.852213    0.000000
  C     -1.064302    2.461445    0.000000
  C      0.074645    1.699051    0.000000
  C      0.000000    0.285851    0.000000
  C     -1.289332   -0.336021    0.000000
  Cl     2.747884    0.124724    0.000000
  H      1.904173   -2.548108    0.000000
  H     -0.340512   -3.604770    0.000000
  H     -2.369483   -2.201792    0.000000
  H     -3.414600    0.012616    0.000000
  H     -3.225734    2.466898    0.000000
  H     -0.988024    3.540457    0.000000
  H      1.045261    2.171590    0.000000

 Total Charge           Charge          ....    0
 Multiplicity           Mult            ....    1
 Number of Electrons    NEL             ....   84
 Basis Dimension        Dim             .... 1206

ORBITAL ENERGIES
----------------

  NO   OCC          E(Eh)            E(eV)
   0   2.0000    -104.838566     -2852.8024
   1   2.0000     -11.305124      -307.6281
   2   2.0000     -11.259139      -306.3767
   3   2.0000     -11.255552      -306.2791
   4   2.0000     -11.249065      -306.1026
   5   2.0000     -11.246729      -306.0391
   6   2.0000     -11.244849      -305.9879
   7   2.0000     -11.243775      -305.9587
   8   2.0000     -11.242589      -305.9264
   9   2.0000     -11.241783      -305.9045
  10   2.0000     -11.240610      -305.8725
  11   2.0000     -10.563904      -287.4584
  12   2.0000      -8.031008      -218.5348
  13   2.0000      -8.029342      -218.4895
  14   2.0000      -8.029274      -218.4877
  15   2.0000      -1.202459       -32.7206
  16   2.0000      -1.144928       -31.1551
  17   2.0000      -1.110219       -30.2106
  18   2.0000      -1.039919       -28.2976
  19   2.0000      -1.023004       -27.8373
  20   2.0000      -0.980692       -26.6860
  21   2.0000      -0.863522       -23.4976
  22   2.0000      -0.853630       -23.2284
  23   2.0000      -0.805826       -21.9276
  24   2.0000      -0.720975       -19.6187
  25   2.0000      -0.704576       -19.1725
  26   2.0000      -0.691523       -18.8173
  27   2.0000      -0.628504       -17.1025
  28   2.0000      -0.620285       -16.8788
  29   2.0000      -0.602422       -16.3927
  30   2.0000      -0.588331       -16.0093
  31   2.0000      -0.576685       -15.6924
  32   2.0000      -0.561028       -15.2663
  33   2.0000      -0.536372       -14.5954
  34   2.0000      -0.507117       -13.7993
  35   2.0000      -0.494622       -13.4594
  36   2.0000      -0.488626       -13.2962
  37   2.0000      -0.453990       -12.3537
  38   2.0000      -0.451626       -12.2894
  39   2.0000      -0.384424       -10.4607
  40   2.0000      -0.332321        -9.0429
  41   2.0000      -0.297280        -8.0894
  42   0.0000       0.023427         0.6375
  43   0.0000       0.025248         0.6870
  44   0.0000       0.030121         0.8196
  45   0.0000       0.038028         1.0348
  46   0.0000       0.040850         1.1116

MULLIKEN ATOMIC CHARGES
-----------------------
   0 C :   -0.300632
   1 C :   -0.353387
   2 C :   -0.317420
   3 C :   -0.407510
   4 C :   -0.407390
   5 C :   -0.441118
   6 C :   -0.451440
   7 C :   -0.496008
   8 C :    0.908789
   9 C :    0.806116
  10 Cl:   -0.415153
  11 H :    0.394018
  12 H :    0.244085
  13 H :    0.213972
  14 H :    0.177953
  15 H :    0.275271
  16 H :    0.233664
  17 H :    0.336189
Sum of atomic charges:   -0.0000000

LOEWDIN ATOMIC CHARGES
----------------------
   0 C :   -0.786073
   1 C :    0.203780
   2 C :    0.346678
   3 C :    0.354916
   4 C :    0.355098
   5 C :    0.356618
   6 C :    0.354920
   7 C :    0.304062
   8 C :   -0.225016
   9 C :   -0.122161
  10 Cl:    1.220575
  11 H :   -0.363844
  12 H :   -0.321732
  13 H :   -0.320493
  14 H :   -0.321435
  15 H :   -0.321831
  16 H :   -0.322101
  17 H :   -0.391963

  Mayer bond orders larger than 0.100000
B(  0-C ,  1-C ) :   1.4899 B(  0-C ,  2-C ) :  -0.1005 B(  0-C ,  3-C ) :   0.1272
B(  0-C ,  8-C ) :   0.6934 B(  0-C ,  9-C ) :  -0.4336 B(  0-C , 10-Cl) :   0.9682
B(  1-C ,  2-C ) :   1.1367 B(  1-C , 11-H ) :   0.8812 B(  1-C , 12-H ) :  -0.1473
B(  2-C ,  3-C ) :   1.3676 B(  2-C ,  9-C ) :  -0.3723 B(  2-C , 12-H ) :   1.1712
B(  3-C ,  4-C ) :  -0.1639 B(  3-C ,  8-C ) :  -0.1045 B(  3-C ,  9-C ) :   0.5569
B(  3-C , 12-H ) :  -0.1931 B(  3-C , 13-H ) :   1.0901 B(  4-C ,  5-C ) :   1.2823
B(  4-C ,  7-C ) :   0.1946 B(  4-C ,  8-C ) :  -0.3722 B(  4-C ,  9-C ) :   0.7343
B(  4-C , 14-H ) :   1.1350 B(  4-C , 15-H ) :  -0.1771 B(  5-C ,  6-C ) :   1.1492
B(  5-C ,  9-C ) :  -0.2253 B(  5-C , 15-H ) :   1.1181 B(  6-C ,  7-C ) :   1.3894
B(  6-C ,  8-C ) :  -0.3709 B(  6-C , 16-H ) :   1.1673 B(  7-C ,  8-C ) :   0.6922
B(  7-C ,  9-C ) :  -0.2059 B(  7-C , 16-H ) :  -0.1832 B(  7-C , 17-H ) :   0.9361
B(  8-C ,  9-C ) :   1.0188 B(  8-C , 10-Cl) :  -0.2146 B(  8-C , 17-H ) :  -0.1337
B(  9-C , 13-H ) :  -0.1787 B(  9-C , 14-H ) :  -0.1746

MP2 TOTAL ENERGY:     -844.321145686 Eh
FINAL SINGLE POINT ENERGY      -844.321145685512

DIPOLE MOMENT
-------------
                                X             Y             Z
Electronic contribution:     10.24774       0.13502       0.00000
Nuclear contribution   :    -10.98182      -0.33134       0.00000
                        -----------------------------------------
Total Dipole Moment    :     -0.73408      -0.19631       0.00000
                        -----------------------------------------
Magnitude (a.u.)       :      0.75988
Magnitude (Debye)      :      1.93146

Rotational constants in cm-1:     0.050990     0.030256     0.018989
Rotational constants in MHz :  1528.635971   907.042743   569.261519

                             ****ORCA TERMINATED NORMALLY****
TOTAL RUN TIME: 0 days 1 hours 53 minutes 39 seconds 248 msec
