                         Program Version 5.0.4 -  RELEASE  -
|  1> !ri-mp2 aug-cc-pvqz aug-cc-pvqz/c tightscf
|  2> %pal nprocs 16 end
|  3>
|  4> * xyz 0 1
|  5> C      1.223728    0.268149        0.000000
|  6> C      1.156706   -1.073788        0.000000
|  7> C     -1.203480   -0.921610        0.000000
|  8> C      0.000000    1.076085        0.000000
|  9> N     -1.223091    0.359317        0.000000
| 10> N     -0.072567   -1.688836        0.000000
| 11> O      0.011892    2.291393        0.000000
| 12> H      2.174691    0.778052        0.000000
| 13> H      2.019381   -1.723884        0.000000
| 14> H     -2.135162   -1.480194        0.000000
| 15> H     -0.146168   -2.691497        0.000000
| 16> *
| 17>
| 18>                          ****END OF INPUT****

CARTESIAN COORDINATES (ANGSTROEM)
---------------------------------
  C      1.223728    0.268149    0.000000
  C      1.156706   -1.073788    0.000000
  C     -1.203480   -0.921610    0.000000
  C      0.000000    1.076085    0.000000
  N     -1.223091    0.359317    0.000000
  N     -0.072567   -1.688836    0.000000
  O      0.011892    2.291393    0.000000
  H      2.174691    0.778052    0.000000
  H      2.019381   -1.723884    0.000000
  H     -2.135162   -1.480194    0.000000
  H     -0.146168   -2.691497    0.000000

 Total Charge           Charge          ....    0
 Multiplicity           Mult            ....    1
 Number of Electrons    NEL             ....   50
 Basis Dimension        Dim             ....  744

ORBITAL ENERGIES
----------------

  NO   OCC          E(Eh)            E(eV)
   0   2.0000     -20.510285      -558.1132
   1   2.0000     -15.647701      -425.7956
   2   2.0000     -15.562250      -423.4703
   3   2.0000     -11.353553      -308.9459
   4   2.0000     -11.342969      -308.6579
   5   2.0000     -11.321109      -308.0630
   6   2.0000     -11.246358      -306.0290
   7   2.0000      -1.374989       -37.4154
   8   2.0000      -1.338392       -36.4195
   9   2.0000      -1.209254       -32.9055
  10   2.0000      -1.082844       -29.4657
  11   2.0000      -0.914184       -24.8762
  12   2.0000      -0.881693       -23.9921
  13   2.0000      -0.800788       -21.7906
  14   2.0000      -0.732961       -19.9449
  15   2.0000      -0.688968       -18.7478
  16   2.0000      -0.646295       -17.5866
  17   2.0000      -0.627112       -17.0646
  18   2.0000      -0.613021       -16.6811
  19   2.0000      -0.586367       -15.9559
  20   2.0000      -0.529206       -14.4004
  21   2.0000      -0.460967       -12.5435
  22   2.0000      -0.436898       -11.8886
  23   2.0000      -0.406562       -11.0631
  24   2.0000      -0.353454        -9.6180
  25   0.0000       0.006458         0.1757
  26   0.0000       0.022839         0.6215
  27   0.0000       0.034446         0.9373
  28   0.0000       0.047293         1.2869
  29   0.0000       0.047356         1.2886

MULLIKEN ATOMIC CHARGES
-----------------------
   0 C :   -0.482088
   1 C :   -0.203790
   2 C :    0.047040
   3 C :    0.984284
   4 N :   -0.585817
   5 N :   -0.423895
   6 O :   -0.785442
   7 H :    0.328448
   8 H :    0.443166
   9 H :    0.559282
  10 H :    0.118812
Sum of atomic charges:    0.0000000

LOEWDIN ATOMIC CHARGES
----------------------
   0 C :    0.296541
   1 C :    0.218625
   2 C :   -0.061287
   3 C :   -1.002403
   4 N :    0.549554
   5 N :    0.825227
   6 O :    0.630290
   7 H :   -0.353444
   8 H :   -0.302294
   9 H :   -0.332242
  10 H :   -0.468568

  Mayer bond orders larger than 0.100000
B(  0-C ,  1-C ) :   1.5593 B(  0-C ,  3-C ) :   1.1751 B(  0-C ,  6-O ) :   0.2250
B(  0-C ,  7-H ) :   0.9151 B(  1-C ,  5-N ) :   0.8829 B(  1-C ,  8-H ) :   0.8729
B(  2-C ,  4-N ) :   1.5815 B(  2-C ,  5-N ) :   1.0575 B(  2-C ,  9-H ) :   0.7402
B(  3-C ,  4-N ) :   1.0536 B(  3-C ,  6-O ) :   1.2107 B(  4-N ,  6-O ) :   0.1315
B(  5-N , 10-H ) :   1.1434

MP2 TOTAL ENERGY:     -339.038906071 Eh
FINAL SINGLE POINT ENERGY      -339.038906070983

DIPOLE MOMENT
-------------
                                X             Y             Z
Electronic contribution:     -1.21019       1.70731      -0.00000
Nuclear contribution   :      1.86199      -4.97346       0.00000
                        -----------------------------------------
Total Dipole Moment    :      0.65180      -3.26615      -0.00000
                        -----------------------------------------
Magnitude (a.u.)       :      3.33056
Magnitude (Debye)      :      8.46560

Rotational constants in cm-1:     0.196156     0.095008     0.064006
Rotational constants in MHz :  5880.623868  2848.261055  1918.865020

                             ****ORCA TERMINATED NORMALLY****
TOTAL RUN TIME: 0 days 0 hours 20 minutes 6 seconds 0 msec
