                         Program Version 5.0.4 -  RELEASE  -
|  1> !ri-mp2 aug-cc-pvqz aug-cc-pvqz/c tightscf
|  2> %pal nprocs 16 end
|  3>
|  4> * xyz 0 1
|  5> N      0.000000    1.144299   -0.704266
|  6> N      0.000000    0.000000   -1.359116
|  7> N      0.000000   -1.144299   -0.704266
|  8> C      0.000000   -1.104612    0.629854
|  9> N      0.000000    0.000000    1.362678
| 10> C      0.000000    1.104612    0.629854
| 11> H      0.000000   -2.061100    1.138272
| 12> H      0.000000    2.061100    1.138272
| 13> *
| 14>
| 15>                          ****END OF INPUT****

CARTESIAN COORDINATES (ANGSTROEM)
---------------------------------
  N      0.000000    1.144299   -0.704266
  N      0.000000    0.000000   -1.359116
  N      0.000000   -1.144299   -0.704266
  C      0.000000   -1.104612    0.629854
  N      0.000000    0.000000    1.362678
  C      0.000000    1.104612    0.629854
  H      0.000000   -2.061100    1.138272
  H      0.000000    2.061100    1.138272

 Total Charge           Charge          ....    0
 Multiplicity           Mult            ....    1
 Number of Electrons    NEL             ....   42
 Basis Dimension        Dim             ....  572

ORBITAL ENERGIES
----------------

  NO   OCC          E(Eh)            E(eV)
   0   2.0000     -15.700107      -427.2216
   1   2.0000     -15.636788      -425.4986
   2   2.0000     -15.636745      -425.4975
   3   2.0000     -15.619773      -425.0356
   4   2.0000     -11.357157      -309.0439
   5   2.0000     -11.357151      -309.0438
   6   2.0000      -1.451772       -39.5047
   7   2.0000      -1.289674       -35.0938
   8   2.0000      -1.245290       -33.8861
   9   2.0000      -1.007572       -27.4174
  10   2.0000      -0.967133       -26.3170
  11   2.0000      -0.792715       -21.5709
  12   2.0000      -0.769977       -20.9522
  13   2.0000      -0.651116       -17.7178
  14   2.0000      -0.640929       -17.4406
  15   2.0000      -0.624613       -16.9966
  16   2.0000      -0.553668       -15.0661
  17   2.0000      -0.485751       -13.2180
  18   2.0000      -0.465958       -12.6794
  19   2.0000      -0.455737       -12.4012
  20   2.0000      -0.433698       -11.8015
  21   0.0000       0.023020         0.6264
  22   0.0000       0.030524         0.8306
  23   0.0000       0.040147         1.0924
  24   0.0000       0.055481         1.5097
  25   0.0000       0.060544         1.6475

MULLIKEN ATOMIC CHARGES
-----------------------
   0 N :   -0.352682
   1 N :    0.056716
   2 N :   -0.352682
   3 C :   -0.087581
   4 N :   -0.378021
   5 C :   -0.087581
   6 H :    0.600916
   7 H :    0.600916
Sum of atomic charges:   -0.0000000

LOEWDIN ATOMIC CHARGES
----------------------
   0 N :    0.297111
   1 N :    0.060643
   2 N :    0.297111
   3 C :   -0.235362
   4 N :    0.572301
   5 C :   -0.235362
   6 H :   -0.378221
   7 H :   -0.378221

  Mayer bond orders larger than 0.100000
B(  0-N ,  1-N ) :   1.1823 B(  0-N ,  5-C ) :   1.2964 B(  1-N ,  2-N ) :   1.1823
B(  2-N ,  3-C ) :   1.2964 B(  3-C ,  4-N ) :   1.3542 B(  3-C ,  6-H ) :   0.6771
B(  4-N ,  5-C ) :   1.3542 B(  5-C ,  7-H ) :   0.6771

MP2 TOTAL ENERGY:     -295.896912981 Eh
FINAL SINGLE POINT ENERGY      -295.896912981171

DIPOLE MOMENT
-------------
                                X             Y             Z
Electronic contribution:      0.00000      -0.00000      -1.12712
Nuclear contribution   :      0.00000       0.00000       2.18021
                        -----------------------------------------
Total Dipole Moment    :      0.00000      -0.00000       1.05309
                        -----------------------------------------
Magnitude (a.u.)       :      1.05309
Magnitude (Debye)      :      2.67674

Rotational constants in cm-1:     0.226104     0.216518     0.110604
Rotational constants in MHz :  6778.412643  6491.050980  3315.810140

                             ****ORCA TERMINATED NORMALLY****
TOTAL RUN TIME: 0 days 0 hours 6 minutes 56 seconds 349 msec
