                         Program Version 5.0.4 -  RELEASE  -
|  1> !ri-mp2 aug-cc-pvqz aug-cc-pvqz/c tightscf
|  2> %pal nprocs 16 end
|  3>
|  4> * xyz 0 1
|  5> S     -2.422026    1.676358    0.000000
|  6> H     -3.662177    1.155548    0.000000
|  7> C     -1.499663    0.079993    0.000000
|  8> H     -1.784672   -0.487365    0.884633
|  9> H     -1.784672   -0.487365   -0.884633
| 10> C      0.000000    0.354619    0.000000
| 11> H      0.257208    0.956252   -0.876062
| 12> H      0.257208    0.956252    0.876062
| 13> C      0.830343   -0.930799    0.000000
| 14> H      0.566953   -1.533496    0.875311
| 15> H      0.566953   -1.533496   -0.875311
| 16> C      2.338563   -0.676984    0.000000
| 17> H      2.601518   -0.074233    0.874144
| 18> H      2.601518   -0.074233   -0.874144
| 19> C      3.164445   -1.962117    0.000000
| 20> H      2.948285   -2.570045    0.880892
| 21> H      2.948285   -2.570045   -0.880892
| 22> H      4.233868   -1.747784    0.000000
| 23> *
| 24>
| 25>                          ****END OF INPUT****

CARTESIAN COORDINATES (ANGSTROEM)
---------------------------------
  S     -2.422026    1.676358    0.000000
  H     -3.662177    1.155548    0.000000
  C     -1.499663    0.079993    0.000000
  H     -1.784672   -0.487365    0.884633
  H     -1.784672   -0.487365   -0.884633
  C      0.000000    0.354619    0.000000
  H      0.257208    0.956252   -0.876062
  H      0.257208    0.956252    0.876062
  C      0.830343   -0.930799    0.000000
  H      0.566953   -1.533496    0.875311
  H      0.566953   -1.533496   -0.875311
  C      2.338563   -0.676984    0.000000
  H      2.601518   -0.074233    0.874144
  H      2.601518   -0.074233   -0.874144
  C      3.164445   -1.962117    0.000000
  H      2.948285   -2.570045    0.880892
  H      2.948285   -2.570045   -0.880892
  H      4.233868   -1.747784    0.000000

 Total Charge           Charge          ....    0
 Multiplicity           Mult            ....    1
 Number of Electrons    NEL             ....   58
 Basis Dimension        Dim             .... 1036

ORBITAL ENERGIES
----------------

  NO   OCC          E(Eh)            E(eV)
   0   2.0000     -91.945763     -2501.9714
   1   2.0000     -11.258301      -306.3539
   2   2.0000     -11.227895      -305.5266
   3   2.0000     -11.222640      -305.3836
   4   2.0000     -11.220671      -305.3300
   5   2.0000     -11.213105      -305.1241
   6   2.0000      -8.947896      -243.4846
   7   2.0000      -6.629488      -180.3975
   8   2.0000      -6.628567      -180.3725
   9   2.0000      -6.627649      -180.3475
  10   2.0000      -1.097199       -29.8563
  11   2.0000      -1.044806       -28.4306
  12   2.0000      -0.969868       -26.3915
  13   2.0000      -0.886052       -24.1107
  14   2.0000      -0.810994       -22.0683
  15   2.0000      -0.796202       -21.6658
  16   2.0000      -0.661309       -17.9951
  17   2.0000      -0.612906       -16.6780
  18   2.0000      -0.605110       -16.4659
  19   2.0000      -0.578898       -15.7526
  20   2.0000      -0.546963       -14.8836
  21   2.0000      -0.541663       -14.7394
  22   2.0000      -0.518868       -14.1191
  23   2.0000      -0.491940       -13.3864
  24   2.0000      -0.475365       -12.9353
  25   2.0000      -0.469453       -12.7745
  26   2.0000      -0.461369       -12.5545
  27   2.0000      -0.440112       -11.9761
  28   2.0000      -0.353399        -9.6165
  29   0.0000       0.025637         0.6976
  30   0.0000       0.028128         0.7654
  31   0.0000       0.033913         0.9228
  32   0.0000       0.034410         0.9364
  33   0.0000       0.043526         1.1844

MULLIKEN ATOMIC CHARGES
-----------------------
   0 S :   -0.291334
   1 H :    0.012245
   2 C :   -0.555121
   3 H :    0.235586
   4 H :    0.235591
   5 C :   -0.240192
   6 H :    0.272050
   7 H :    0.272028
   8 C :   -0.219673
   9 H :    0.230536
  10 H :    0.230506
  11 C :   -0.466784
  12 H :    0.233787
  13 H :    0.233797
  14 C :   -0.906182
  15 H :    0.227654
  16 H :    0.227654
  17 H :    0.267853
Sum of atomic charges:    0.0000000

LOEWDIN ATOMIC CHARGES
----------------------
   0 S :    1.570021
   1 H :   -0.790711
   2 C :    0.115021
   3 H :   -0.356310
   4 H :   -0.356310
   5 C :    0.401393
   6 H :   -0.291743
   7 H :   -0.291743
   8 C :    0.502206
   9 H :   -0.269786
  10 H :   -0.269786
  11 C :    0.509316
  12 H :   -0.272678
  13 H :   -0.272678
  14 C :    0.927793
  15 H :   -0.284941
  16 H :   -0.284941
  17 H :   -0.284124

  Mayer bond orders larger than 0.100000
B(  0-S ,  1-H ) :   1.0898 B(  0-S ,  2-C ) :   0.9805 B(  0-S ,  5-C ) :  -0.3154
B(  2-C ,  3-H ) :   0.9110 B(  2-C ,  4-H ) :   0.9110 B(  2-C ,  5-C ) :   0.9573
B(  2-C ,  8-C ) :  -0.1003 B(  5-C ,  6-H ) :   0.8446 B(  5-C ,  7-H ) :   0.8446
B(  5-C ,  8-C ) :   0.9381 B(  8-C ,  9-H ) :   0.8794 B(  8-C , 10-H ) :   0.8795
B(  8-C , 11-C ) :   0.9401 B( 11-C , 12-H ) :   0.8802 B( 11-C , 13-H ) :   0.8802
B( 11-C , 14-C ) :   1.0118 B( 14-C , 15-H ) :   0.9552 B( 14-C , 16-H ) :   0.9552
B( 14-C , 17-H ) :   1.0184

MP2 TOTAL ENERGY:     -595.103835280 Eh
FINAL SINGLE POINT ENERGY      -595.103835279690

DIPOLE MOMENT
-------------
                                X             Y             Z
Electronic contribution:    -10.08208       7.72949       0.00000
Nuclear contribution   :     10.26975      -8.42666       0.00000
                        -----------------------------------------
Total Dipole Moment    :      0.18767      -0.69716       0.00000
                        -----------------------------------------
Magnitude (a.u.)       :      0.72198
Magnitude (Debye)      :      1.83513

Rotational constants in cm-1:     0.479168     0.026474     0.025682
Rotational constants in MHz : 14365.108929   793.661032   769.923435

                             ****ORCA TERMINATED NORMALLY****
TOTAL RUN TIME: 0 days 0 hours 42 minutes 53 seconds 28 msec
