                         Program Version 5.0.4 -  RELEASE  -
|  1> !ri-mp2 aug-cc-pvqz aug-cc-pvqz/c tightscf
|  2> %pal nprocs 16 end
|  3>
|  4> * xyz 0 1
|  5> C      0.787546   -2.366357    0.000000
|  6> C     -0.561033   -2.023230    0.000000
|  7> C      1.353155   -0.175015    0.000000
|  8> C      0.000000    0.175622    0.000000
|  9> C     -0.407656    1.626191    0.000000
| 10> C     -1.879880    1.940275    0.000000
| 11> N      1.749484   -1.444574    0.000000
| 12> N     -0.957273   -0.754759    0.000000
| 13> O      0.445137    2.489136    0.000000
| 14> H      1.096738   -3.404743    0.000000
| 15> H     -1.330829   -2.785557    0.000000
| 16> H      2.112882    0.594562    0.000000
| 17> H     -2.362568    1.497437    0.871986
| 18> H     -2.362568    1.497437   -0.871986
| 19> H     -2.013020    3.018193    0.000000
| 20> *
| 21>
| 22>                          ****END OF INPUT****

CARTESIAN COORDINATES (ANGSTROEM)
---------------------------------
  C      0.787546   -2.366357    0.000000
  C     -0.561033   -2.023230    0.000000
  C      1.353155   -0.175015    0.000000
  C      0.000000    0.175622    0.000000
  C     -0.407656    1.626191    0.000000
  C     -1.879880    1.940275    0.000000
  N      1.749484   -1.444574    0.000000
  N     -0.957273   -0.754759    0.000000
  O      0.445137    2.489136    0.000000
  H      1.096738   -3.404743    0.000000
  H     -1.330829   -2.785557    0.000000
  H      2.112882    0.594562    0.000000
  H     -2.362568    1.497437    0.871986
  H     -2.362568    1.497437   -0.871986
  H     -2.013020    3.018193    0.000000

 Total Charge           Charge          ....    0
 Multiplicity           Mult            ....    1
 Number of Electrons    NEL             ....   64
 Basis Dimension        Dim             ....  996

ORBITAL ENERGIES
----------------

  NO   OCC          E(Eh)            E(eV)
   0   2.0000     -20.556445      -559.3693
   1   2.0000     -15.608553      -424.7303
   2   2.0000     -15.600243      -424.5042
   3   2.0000     -11.345398      -308.7240
   4   2.0000     -11.298808      -307.4562
   5   2.0000     -11.296791      -307.4013
   6   2.0000     -11.295034      -307.3535
   7   2.0000     -11.294306      -307.3337
   8   2.0000     -11.233983      -305.6922
   9   2.0000      -1.401038       -38.1242
  10   2.0000      -1.324289       -36.0357
  11   2.0000      -1.236453       -33.6456
  12   2.0000      -1.079471       -29.3739
  13   2.0000      -1.015985       -27.6463
  14   2.0000      -0.926109       -25.2007
  15   2.0000      -0.906461       -24.6661
  16   2.0000      -0.791699       -21.5432
  17   2.0000      -0.728140       -19.8137
  18   2.0000      -0.725754       -19.7488
  19   2.0000      -0.680311       -18.5122
  20   2.0000      -0.642990       -17.4966
  21   2.0000      -0.620147       -16.8751
  22   2.0000      -0.618663       -16.8347
  23   2.0000      -0.579904       -15.7800
  24   2.0000      -0.579849       -15.7785
  25   2.0000      -0.557582       -15.1726
  26   2.0000      -0.510983       -13.9046
  27   2.0000      -0.510720       -13.8974
  28   2.0000      -0.453197       -12.3321
  29   2.0000      -0.450753       -12.2656
  30   2.0000      -0.410168       -11.1612
  31   2.0000      -0.368927       -10.0390
  32   0.0000       0.020507         0.5580
  33   0.0000       0.027802         0.7565
  34   0.0000       0.033784         0.9193
  35   0.0000       0.039668         1.0794
  36   0.0000       0.042039         1.1439

MULLIKEN ATOMIC CHARGES
-----------------------
   0 C :   -0.093419
   1 C :   -0.496518
   2 C :    0.129374
   3 C :   -0.316258
   4 C :    1.249905
   5 C :   -0.912375
   6 N :   -0.774366
   7 N :   -0.430924
   8 O :   -0.763790
   9 H :    0.533619
  10 H :    0.471785
  11 H :    0.525956
  12 H :    0.251732
  13 H :    0.251732
  14 H :    0.373545
Sum of atomic charges:   -0.0000000

LOEWDIN ATOMIC CHARGES
----------------------
   0 C :    0.084646
   1 C :    0.095469
   2 C :    0.064016
   3 C :   -0.394465
   4 C :   -0.676753
   5 C :    0.873452
   6 N :    0.609805
   7 N :    0.584421
   8 O :    0.733380
   9 H :   -0.348307
  10 H :   -0.349122
  11 H :   -0.361804
  12 H :   -0.298280
  13 H :   -0.298280
  14 H :   -0.318178

  Mayer bond orders larger than 0.100000
B(  0-C ,  1-C ) :   1.2770 B(  0-C ,  6-N ) :   1.2113 B(  0-C ,  9-H ) :   0.7847
B(  1-C ,  6-N ) :   0.2205 B(  1-C ,  7-N ) :   1.1768 B(  1-C ,  9-H ) :  -0.1182
B(  1-C , 10-H ) :   0.8773 B(  2-C ,  3-C ) :   1.2531 B(  2-C ,  4-C ) :  -0.2034
B(  2-C ,  6-N ) :   1.0619 B(  2-C , 11-H ) :   0.7068 B(  3-C ,  4-C ) :   0.8770
B(  3-C ,  7-N ) :   0.8670 B(  3-C ,  8-O ) :   0.3702 B(  4-C ,  5-C ) :   0.8748
B(  4-C ,  8-O ) :   0.9535 B(  5-C , 12-H ) :   0.9494 B(  5-C , 13-H ) :   0.9494
B(  5-C , 14-H ) :   0.9369 B(  6-N ,  9-H ) :  -0.1267 B(  6-N , 11-H ) :  -0.1297

MP2 TOTAL ENERGY:     -416.307585371 Eh
FINAL SINGLE POINT ENERGY      -416.307585370555

DIPOLE MOMENT
-------------
                                X             Y             Z
Electronic contribution:      3.91372      -1.46580      -0.00000
Nuclear contribution   :     -4.77108       0.43665       0.00000
                        -----------------------------------------
Total Dipole Moment    :     -0.85735      -1.02915      -0.00000
                        -----------------------------------------
Magnitude (a.u.)       :      1.33948
Magnitude (Debye)      :      3.40469

Rotational constants in cm-1:     0.128328     0.042685     0.032218
Rotational constants in MHz :  3847.183977  1279.663720   965.885492

                             ****ORCA TERMINATED NORMALLY****
TOTAL RUN TIME: 0 days 0 hours 43 minutes 4 seconds 963 msec
