                         Program Version 5.0.4 -  RELEASE  -
|  1> !ri-mp2 aug-cc-pvqz aug-cc-pvqz/c tightscf
|  2> %pal nprocs 16 end
|  3>
|  4> * xyz 0 1
|  5> F     -0.675349   -0.769946    1.097109
|  6> F     -0.675515   -0.770081   -1.096910
|  7> N      2.321971    0.174000   -0.000189
|  8> C     -0.299060   -0.045692    0.000026
|  9> C     -0.986636    1.297029   -0.000005
| 10> C      1.181140    0.048530   -0.000093
| 11> H     -2.061714    1.126864    0.000085
| 12> H     -0.703552    1.858035   -0.887970
| 13> H     -0.703421    1.858143    0.887851
| 14> *
| 15>
| 16>                          ****END OF INPUT****

CARTESIAN COORDINATES (ANGSTROEM)
---------------------------------
  F     -0.675349   -0.769946    1.097109
  F     -0.675515   -0.770081   -1.096910
  N      2.321971    0.174000   -0.000189
  C     -0.299060   -0.045692    0.000026
  C     -0.986636    1.297029   -0.000005
  C      1.181140    0.048530   -0.000093
  H     -2.061714    1.126864    0.000085
  H     -0.703552    1.858035   -0.887970
  H     -0.703421    1.858143    0.887851

 Total Charge           Charge          ....    0
 Multiplicity           Mult            ....    1
 Number of Electrons    NEL             ....   46
 Basis Dimension        Dim             ....  618

ORBITAL ENERGIES
----------------

  NO   OCC          E(Eh)            E(eV)
   0   2.0000     -26.341950      -716.8009
   1   2.0000     -26.341932      -716.8004
   2   2.0000     -15.609078      -424.7446
   3   2.0000     -11.480526      -312.4010
   4   2.0000     -11.301023      -307.5165
   5   2.0000     -11.272745      -306.7470
   6   2.0000      -1.694875       -46.1199
   7   2.0000      -1.631658       -44.3997
   8   2.0000      -1.255646       -34.1679
   9   2.0000      -1.102458       -29.9994
  10   2.0000      -0.960102       -26.1257
  11   2.0000      -0.841428       -22.8964
  12   2.0000      -0.797684       -21.7061
  13   2.0000      -0.766099       -20.8466
  14   2.0000      -0.703572       -19.1452
  15   2.0000      -0.680944       -18.5294
  16   2.0000      -0.664323       -18.0771
  17   2.0000      -0.614812       -16.7299
  18   2.0000      -0.602565       -16.3966
  19   2.0000      -0.594942       -16.1892
  20   2.0000      -0.570250       -15.5173
  21   2.0000      -0.508391       -13.8340
  22   2.0000      -0.503767       -13.7082
  23   0.0000       0.021087         0.5738
  24   0.0000       0.037860         1.0302
  25   0.0000       0.037915         1.0317
  26   0.0000       0.051903         1.4124
  27   0.0000       0.069544         1.8924

MULLIKEN ATOMIC CHARGES
-----------------------
   0 F :   -0.643269
   1 F :   -0.643269
   2 N :   -0.550170
   3 C :    1.673464
   4 C :   -0.903369
   5 C :    0.153477
   6 H :    0.320651
   7 H :    0.296243
   8 H :    0.296242
Sum of atomic charges:   -0.0000000

LOEWDIN ATOMIC CHARGES
----------------------
   0 F :    0.776613
   1 F :    0.776614
   2 N :    0.412265
   3 C :   -1.562934
   4 C :    0.841000
   5 C :   -0.358366
   6 H :   -0.298543
   7 H :   -0.293325
   8 H :   -0.293324

  Mayer bond orders larger than 0.100000
B(  0-F ,  3-C ) :   0.2813 B(  0-F ,  5-C ) :   0.1499 B(  1-F ,  3-C ) :   0.2813
B(  1-F ,  5-C ) :   0.1499 B(  2-N ,  5-C ) :   2.6190 B(  3-C ,  4-C ) :   0.9495
B(  3-C ,  5-C ) :   0.8541 B(  4-C ,  6-H ) :   0.8981 B(  4-C ,  7-H ) :   0.9107
B(  4-C ,  8-H ) :   0.9107

MP2 TOTAL ENERGY:     -370.096717174 Eh
FINAL SINGLE POINT ENERGY      -370.096717173932

DIPOLE MOMENT
-------------
                                X             Y             Z
Electronic contribution:      0.93341      -5.18297       0.00025
Nuclear contribution   :     -2.01222       6.03865      -0.00022
                        -----------------------------------------
Total Dipole Moment    :     -1.07880       0.85567       0.00003
                        -----------------------------------------
Magnitude (a.u.)       :      1.37695
Magnitude (Debye)      :      3.49992

Rotational constants in cm-1:     0.172282     0.096108     0.094376
Rotational constants in MHz :  5164.876486  2881.244849  2829.313583

                             ****ORCA TERMINATED NORMALLY****
TOTAL RUN TIME: 0 days 0 hours 7 minutes 42 seconds 607 msec
