                         Program Version 5.0.4 -  RELEASE  -
|  1> !ri-mp2 aug-cc-pvqz aug-cc-pvqz/c tightscf
|  2> %pal nprocs 16 end
|  3> %maxcore 3800
|  4>
|  5> * xyz 0 1
|  6> C     -3.260747    0.996763    0.430923
|  7> C     -1.865684    1.229535    0.570709
|  8> C     -3.546891   -0.215226   -0.118964
|  9> C     -1.112417    0.187192    0.114195
| 10> C      2.381637    1.125229   -0.488236
| 11> C      2.306330   -1.101133    0.504790
| 12> C      1.033891    1.153086   -0.447360
| 13> C      0.961179   -1.008421    0.530032
| 14> C      3.145966   -0.022380   -0.008396
| 15> N      0.292939    0.105453    0.062562
| 16> O      4.374161   -0.076554   -0.036314
| 17> S     -2.114227   -1.095088   -0.513823
| 18> H     -4.018281    1.696745    0.749056
| 19> H     -1.438528    2.118035    1.010517
| 20> H     -4.511080   -0.656491   -0.304364
| 21> H      2.922894    1.963430   -0.901979
| 22> H      2.789940   -1.988514    0.885958
| 23> H      0.451171    1.981024   -0.821014
| 24> H      0.328052   -1.786428    0.929407
| 25> *
| 26>
| 27>                          ****END OF INPUT****

CARTESIAN COORDINATES (ANGSTROEM)
---------------------------------
  C     -3.260747    0.996763    0.430923
  C     -1.865684    1.229535    0.570709
  C     -3.546891   -0.215226   -0.118964
  C     -1.112417    0.187192    0.114195
  C      2.381637    1.125229   -0.488236
  C      2.306330   -1.101133    0.504790
  C      1.033891    1.153086   -0.447360
  C      0.961179   -1.008421    0.530032
  C      3.145966   -0.022380   -0.008396
  N      0.292939    0.105453    0.062562
  O      4.374161   -0.076554   -0.036314
  S     -2.114227   -1.095088   -0.513823
  H     -4.018281    1.696745    0.749056
  H     -1.438528    2.118035    1.010517
  H     -4.511080   -0.656491   -0.304364
  H      2.922894    1.963430   -0.901979
  H      2.789940   -1.988514    0.885958
  H      0.451171    1.981024   -0.821014
  H      0.328052   -1.786428    0.929407

 Total Charge           Charge          ....    0
 Multiplicity           Mult            ....    1
 Number of Electrons    NEL             ....   92
 Basis Dimension        Dim             .... 1286

ORBITAL ENERGIES
----------------

  NO   OCC          E(Eh)            E(eV)
   0   2.0000     -92.009156     -2503.6964
   1   2.0000     -20.504398      -557.9530
   2   2.0000     -15.651517      -425.8994
   3   2.0000     -11.331578      -308.3479
   4   2.0000     -11.315401      -307.9077
   5   2.0000     -11.310270      -307.7681
   6   2.0000     -11.310138      -307.7645
   7   2.0000     -11.284584      -307.0691
   8   2.0000     -11.263396      -306.4926
   9   2.0000     -11.262194      -306.4599
  10   2.0000     -11.236464      -305.7597
  11   2.0000     -11.236183      -305.7521
  12   2.0000      -9.010706      -245.1938
  13   2.0000      -6.691946      -182.0971
  14   2.0000      -6.691480      -182.0844
  15   2.0000      -6.690731      -182.0640
  16   2.0000      -1.350842       -36.7583
  17   2.0000      -1.337945       -36.4073
  18   2.0000      -1.194704       -32.5095
  19   2.0000      -1.090432       -29.6722
  20   2.0000      -1.070092       -29.1187
  21   2.0000      -1.014642       -27.6098
  22   2.0000      -0.994779       -27.0693
  23   2.0000      -0.886833       -24.1319
  24   2.0000      -0.866559       -23.5803
  25   2.0000      -0.810696       -22.0601
  26   2.0000      -0.786656       -21.4060
  27   2.0000      -0.737750       -20.0752
  28   2.0000      -0.703519       -19.1437
  29   2.0000      -0.680488       -18.5170
  30   2.0000      -0.657800       -17.8997
  31   2.0000      -0.636055       -17.3079
  32   2.0000      -0.629242       -17.1226
  33   2.0000      -0.612682       -16.6719
  34   2.0000      -0.586174       -15.9506
  35   2.0000      -0.569355       -15.4929
  36   2.0000      -0.559975       -15.2377
  37   2.0000      -0.547226       -14.8908
  38   2.0000      -0.543017       -14.7762
  39   2.0000      -0.510613       -13.8945
  40   2.0000      -0.498879       -13.5752
  41   2.0000      -0.402436       -10.9508
  42   2.0000      -0.393123       -10.6974
  43   2.0000      -0.376475       -10.2444
  44   2.0000      -0.369140       -10.0448
  45   2.0000      -0.313649        -8.5348
  46   0.0000       0.015671         0.4264
  47   0.0000       0.023300         0.6340
  48   0.0000       0.027832         0.7573
  49   0.0000       0.030328         0.8253
  50   0.0000       0.038451         1.0463

MULLIKEN ATOMIC CHARGES
-----------------------
   0 C :   -0.177069
   1 C :   -0.586416
   2 C :   -1.024060
   3 C :    0.492526
   4 C :   -0.559806
   5 C :   -0.547700
   6 C :   -0.177776
   7 C :   -0.218295
   8 C :    1.123684
   9 N :   -0.116755
  10 O :   -0.852591
  11 S :    0.243188
  12 H :    0.366150
  13 H :    0.319439
  14 H :    0.408484
  15 H :    0.254530
  16 H :    0.254561
  17 H :    0.408912
  18 H :    0.388994
Sum of atomic charges:    0.0000000

LOEWDIN ATOMIC CHARGES
----------------------
   0 C :    0.210198
   1 C :    0.225465
   2 C :   -0.055819
   3 C :   -0.654955
   4 C :    0.333390
   5 C :    0.331397
   6 C :    0.201384
   7 C :    0.182206
   8 C :   -0.755181
   9 N :    0.320609
  10 O :    0.654316
  11 S :    1.395594
  12 H :   -0.326075
  13 H :   -0.311509
  14 H :   -0.404158
  15 H :   -0.347083
  16 H :   -0.346948
  17 H :   -0.318704
  18 H :   -0.334125

  Mayer bond orders larger than 0.100000
B(  0-C ,  1-C ) :   1.1815 B(  0-C ,  2-C ) :   1.4799 B(  0-C ,  3-C ) :  -0.3053
B(  0-C , 11-S ) :  -0.1159 B(  0-C , 12-H ) :   0.9590 B(  1-C ,  2-C ) :   0.1104
B(  1-C ,  3-C ) :   1.1460 B(  1-C , 11-S ) :   0.1668 B(  1-C , 13-H ) :   0.9269
B(  2-C ,  3-C ) :  -0.3590 B(  2-C , 11-S ) :   1.4158 B(  2-C , 14-H ) :   0.8674
B(  3-C ,  9-N ) :   0.7369 B(  3-C , 11-S ) :   0.8190 B(  4-C ,  6-C ) :   1.3873
B(  4-C ,  8-C ) :   1.1858 B(  4-C ,  9-N ) :  -0.1145 B(  4-C , 10-O ) :   0.2583
B(  4-C , 15-H ) :   0.9956 B(  5-C ,  7-C ) :   1.4349 B(  5-C ,  8-C ) :   1.1649
B(  5-C , 10-O ) :   0.2514 B(  5-C , 16-H ) :   0.9933 B(  6-C ,  7-C ) :   0.1668
B(  6-C ,  9-N ) :   0.9202 B(  6-C , 15-H ) :  -0.1427 B(  6-C , 17-H ) :   0.8749
B(  7-C ,  9-N ) :   0.9440 B(  7-C , 16-H ) :  -0.1362 B(  7-C , 18-H ) :   0.9062
B(  8-C , 10-O ) :   0.7273 B(  9-N , 11-S ) :  -0.1255

MP2 TOTAL ENERGY:     -874.072046712 Eh
FINAL SINGLE POINT ENERGY      -874.072046711609

DIPOLE MOMENT
-------------
                                X             Y             Z
Electronic contribution:      0.33717      -2.89388      -1.33376
Nuclear contribution   :     -3.25627       3.27683       1.52408
                        -----------------------------------------
Total Dipole Moment    :     -2.91911       0.38295       0.19033
                        -----------------------------------------
Magnitude (a.u.)       :      2.95026
Magnitude (Debye)      :      7.49897

Rotational constants in cm-1:     0.092594     0.014684     0.013303
Rotational constants in MHz :  2775.907989   440.217701   398.824330

                             ****ORCA TERMINATED NORMALLY****
TOTAL RUN TIME: 0 days 1 hours 12 minutes 52 seconds 346 msec
