                         Program Version 5.0.4 -  RELEASE  -
|  1> !ri-mp2 aug-cc-pvqz aug-cc-pvqz/c tightscf
|  2> %pal nprocs 16 end
|  3>
|  4> * xyz 0 1
|  5> S     -2.641922   -0.576015    0.000004
|  6> S      2.636269   -0.592371   -0.000006
|  7> O      0.011190   -0.739778   -0.000001
|  8> N     -0.727198    1.331855    0.000004
|  9> C     -1.137706    0.051692    0.000002
| 10> C      1.141741    0.018753   -0.000002
| 11> C      0.712543    1.468811    0.000000
| 12> H     -1.390465    2.086210    0.000006
| 13> H      1.091158    1.983830    0.885264
| 14> H      1.091154    1.983833   -0.885262
| 15> *
| 16>
| 17>                          ****END OF INPUT****

CARTESIAN COORDINATES (ANGSTROEM)
---------------------------------
  S     -2.641922   -0.576015    0.000004
  S      2.636269   -0.592371   -0.000006
  O      0.011190   -0.739778   -0.000001
  N     -0.727198    1.331855    0.000004
  C     -1.137706    0.051692    0.000002
  C      1.141741    0.018753   -0.000002
  C      0.712543    1.468811    0.000000
  H     -1.390465    2.086210    0.000006
  H      1.091158    1.983830    0.885264
  H      1.091154    1.983833   -0.885262

 Total Charge           Charge          ....    0
 Multiplicity           Mult            ....    1
 Number of Electrons    NEL             ....   68
 Basis Dimension        Dim             ....  706

ORBITAL ENERGIES
----------------

  NO   OCC          E(Eh)            E(eV)
   0   2.0000     -91.953534     -2502.1829
   1   2.0000     -91.926190     -2501.4388
   2   2.0000     -20.670565      -562.4747
   3   2.0000     -15.644461      -425.7074
   4   2.0000     -11.431700      -311.0724
   5   2.0000     -11.412456      -310.5487
   6   2.0000     -11.334034      -308.4147
   7   2.0000      -8.957531      -243.7468
   8   2.0000      -8.930573      -243.0132
   9   2.0000      -6.638833      -180.6518
  10   2.0000      -6.637744      -180.6222
  11   2.0000      -6.636572      -180.5903
  12   2.0000      -6.612284      -179.9294
  13   2.0000      -6.610520      -179.8814
  14   2.0000      -6.609799      -179.8618
  15   2.0000      -1.520793       -41.3829
  16   2.0000      -1.304796       -35.5053
  17   2.0000      -1.133306       -30.8388
  18   2.0000      -1.024098       -27.8671
  19   2.0000      -0.977978       -26.6121
  20   2.0000      -0.876302       -23.8454
  21   2.0000      -0.848420       -23.0867
  22   2.0000      -0.727326       -19.7915
  23   2.0000      -0.718702       -19.5569
  24   2.0000      -0.685509       -18.6536
  25   2.0000      -0.632140       -17.2014
  26   2.0000      -0.619678       -16.8623
  27   2.0000      -0.564161       -15.3516
  28   2.0000      -0.549842       -14.9620
  29   2.0000      -0.530067       -14.4239
  30   2.0000      -0.398459       -10.8426
  31   2.0000      -0.376582       -10.2473
  32   2.0000      -0.361669        -9.8415
  33   2.0000      -0.356520        -9.7014
  34   0.0000       0.012701         0.3456
  35   0.0000       0.027936         0.7602
  36   0.0000       0.033584         0.9139
  37   0.0000       0.042717         1.1624
  38   0.0000       0.048448         1.3183

MULLIKEN ATOMIC CHARGES
-----------------------
   0 S :   -0.064419
   1 S :    0.019579
   2 O :   -0.339622
   3 N :   -0.375607
   4 C :    0.184588
   5 C :    0.009336
   6 C :   -0.316469
   7 H :    0.228883
   8 H :    0.326864
   9 H :    0.326866
Sum of atomic charges:    0.0000000

LOEWDIN ATOMIC CHARGES
----------------------
   0 S :    1.019474
   1 S :    1.109800
   2 O :    0.670355
   3 N :    0.715879
   4 C :   -1.422040
   5 C :   -1.264592
   6 C :    0.235479
   7 H :   -0.486369
   8 H :   -0.288992
   9 H :   -0.288994

  Mayer bond orders larger than 0.100000
B(  0-S ,  4-C ) :   1.4776 B(  1-S ,  5-C ) :   1.5716 B(  2-O ,  4-C ) :   0.9016
B(  2-O ,  5-C ) :   0.8857 B(  3-N ,  4-C ) :   1.2531 B(  3-N ,  6-C ) :   0.7605
B(  3-N ,  7-H ) :   0.9946 B(  5-C ,  6-C ) :   1.1701 B(  6-C ,  8-H ) :   0.8853
B(  6-C ,  9-H ) :   0.8853

MP2 TOTAL ENERGY:    -1041.196067478 Eh
FINAL SINGLE POINT ENERGY     -1041.196067478001

DIPOLE MOMENT
-------------
                                X             Y             Z
Electronic contribution:     -0.33763      -3.78607      -0.00001
Nuclear contribution   :      0.75554       5.83593       0.00001
                        -----------------------------------------
Total Dipole Moment    :      0.41791       2.04986       0.00000
                        -----------------------------------------
Magnitude (a.u.)       :      2.09203
Magnitude (Debye)      :      5.31751

Rotational constants in cm-1:     0.177338     0.033903     0.028615
Rotational constants in MHz :  5316.463190  1016.397769   857.846776

                             ****ORCA TERMINATED NORMALLY****
TOTAL RUN TIME: 0 days 0 hours 13 minutes 4 seconds 46 msec
