                         Program Version 5.0.4 -  RELEASE  -
|  1> !ri-mp2 aug-cc-pvqz aug-cc-pvqz/c tightscf
|  2> %pal nprocs 16 end
|  3>
|  4> * xyz 0 1
|  5> Cl     2.286656   -0.909638   -0.094329
|  6> O     -0.348592   -1.741340    0.570157
|  7> O     -3.591259    0.368778   -0.156789
|  8> N      0.834131   -0.041900   -0.440896
|  9> N     -1.480456    0.074394   -0.263918
| 10> N     -2.680962   -0.317585    0.233515
| 11> C      1.034960    1.411899   -0.556362
| 12> C      1.208429    2.133260    0.774373
| 13> C     -0.314225   -0.670944    0.029846
| 14> H      0.193913    1.822214   -1.115508
| 15> H      1.908061    1.546450   -1.191269
| 16> H      1.383554    3.194973    0.597832
| 17> H      0.320409    2.034185    1.398486
| 18> H      2.061221    1.735025    1.322072
| 19> H     -1.505481    0.861831   -0.903010
| 20> *
| 21>
| 22>                          ****END OF INPUT****

CARTESIAN COORDINATES (ANGSTROEM)
---------------------------------
  Cl     2.286656   -0.909638   -0.094329
  O     -0.348592   -1.741340    0.570157
  O     -3.591259    0.368778   -0.156789
  N      0.834131   -0.041900   -0.440896
  N     -1.480456    0.074394   -0.263918
  N     -2.680962   -0.317585    0.233515
  C      1.034960    1.411899   -0.556362
  C      1.208429    2.133260    0.774373
  C     -0.314225   -0.670944    0.029846
  H      0.193913    1.822214   -1.115508
  H      1.908061    1.546450   -1.191269
  H      1.383554    3.194973    0.597832
  H      0.320409    2.034185    1.398486
  H      2.061221    1.735025    1.322072
  H     -1.505481    0.861831   -0.903010

 Total Charge           Charge          ....    0
 Multiplicity           Mult            ....    1
 Number of Electrons    NEL             ....   78
 Basis Dimension        Dim             .... 1000

ORBITAL ENERGIES
----------------

  NO   OCC          E(Eh)            E(eV)
   0   2.0000    -104.883299     -2854.0197
   1   2.0000     -20.627928      -561.3145
   2   2.0000     -20.553688      -559.2943
   3   2.0000     -15.762107      -428.9087
   4   2.0000     -15.662226      -426.1908
   5   2.0000     -15.660749      -426.1507
   6   2.0000     -11.424960      -310.8890
   7   2.0000     -11.311457      -307.8004
   8   2.0000     -11.247576      -306.0621
   9   2.0000     -10.605402      -288.5876
  10   2.0000      -8.072640      -219.6677
  11   2.0000      -8.070208      -219.6015
  12   2.0000      -8.069989      -219.5956
  13   2.0000      -1.558437       -42.4072
  14   2.0000      -1.441102       -39.2144
  15   2.0000      -1.309100       -35.6224
  16   2.0000      -1.280845       -34.8536
  17   2.0000      -1.098811       -29.9002
  18   2.0000      -1.051237       -28.6056
  19   2.0000      -0.962016       -26.1778
  20   2.0000      -0.907996       -24.7078
  21   2.0000      -0.843105       -22.9421
  22   2.0000      -0.767196       -20.8765
  23   2.0000      -0.735843       -20.0233
  24   2.0000      -0.699796       -19.0424
  25   2.0000      -0.681138       -18.5347
  26   2.0000      -0.661898       -18.0112
  27   2.0000      -0.643945       -17.5226
  28   2.0000      -0.641799       -17.4642
  29   2.0000      -0.605184       -16.4679
  30   2.0000      -0.582045       -15.8383
  31   2.0000      -0.559817       -15.2334
  32   2.0000      -0.538019       -14.6402
  33   2.0000      -0.519091       -14.1252
  34   2.0000      -0.493959       -13.4413
  35   2.0000      -0.475423       -12.9369
  36   2.0000      -0.454364       -12.3639
  37   2.0000      -0.446737       -12.1563
  38   2.0000      -0.408055       -11.1037
  39   0.0000       0.016250         0.4422
  40   0.0000       0.028391         0.7726
  41   0.0000       0.032081         0.8730
  42   0.0000       0.039180         1.0661
  43   0.0000       0.050529         1.3750

MULLIKEN ATOMIC CHARGES
-----------------------
   0 Cl:   -0.135857
   1 O :   -0.747924
   2 O :   -0.524503
   3 N :   -0.397696
   4 N :   -0.412552
   5 N :    0.313324
   6 C :   -0.330751
   7 C :   -0.878410
   8 C :    1.284378
   9 H :    0.275085
  10 H :    0.395068
  11 H :    0.321401
  12 H :    0.253808
  13 H :    0.259816
  14 H :    0.324813
Sum of atomic charges:   -0.0000000

LOEWDIN ATOMIC CHARGES
----------------------
   0 Cl:    1.082766
   1 O :    0.643003
   2 O :    0.410569
   3 N :   -0.252971
   4 N :    0.495034
   5 N :   -0.134731
   6 C :    0.216643
   7 C :    0.916221
   8 C :   -1.232563
   9 H :   -0.332330
  10 H :   -0.332107
  11 H :   -0.278908
  12 H :   -0.285881
  13 H :   -0.303657
  14 H :   -0.611090

  Mayer bond orders larger than 0.100000
B(  0-Cl,  3-N ) :   0.8960 B(  1-O ,  3-N ) :   0.1582 B(  1-O ,  4-N ) :   0.1723
B(  1-O ,  8-C ) :   1.3426 B(  2-O ,  5-N ) :   1.6324 B(  3-N ,  6-C ) :   0.8843
B(  3-N ,  8-C ) :   1.1993 B(  4-N ,  5-N ) :   0.9979 B(  4-N ,  8-C ) :   1.0349
B(  4-N , 14-H ) :   0.8603 B(  6-C ,  7-C ) :   1.0245 B(  6-C ,  9-H ) :   0.8695
B(  6-C , 10-H ) :   0.8145 B(  7-C , 11-H ) :   0.9155 B(  7-C , 12-H ) :   0.9343
B(  7-C , 13-H ) :   0.9234

MP2 TOTAL ENERGY:     -891.659480122 Eh
FINAL SINGLE POINT ENERGY      -891.659480121899

DIPOLE MOMENT
-------------
                                X             Y             Z
Electronic contribution:      0.11229     -10.21913      -0.93258
Nuclear contribution   :      0.97493      12.05604       0.23904
                        -----------------------------------------
Total Dipole Moment    :      1.08722       1.83691      -0.69354
                        -----------------------------------------
Magnitude (a.u.)       :      2.24439
Magnitude (Debye)      :      5.70478

Rotational constants in cm-1:     0.077704     0.027726     0.021971
Rotational constants in MHz :  2329.505723   831.190791   658.676360

                             ****ORCA TERMINATED NORMALLY****
TOTAL RUN TIME: 0 days 0 hours 53 minutes 26 seconds 370 msec
