                         Program Version 5.0.4 -  RELEASE  -
|  1> !ri-mp2 aug-cc-pvqz aug-cc-pvqz/c tightscf
|  2> %pal nprocs 16 end
|  3>
|  4> * xyz 0 1
|  5> C      2.480915   -0.213181   -0.298890
|  6> C      1.414749    0.338000    0.268186
|  7> C     -2.425591   -0.196397   -0.076523
|  8> C      0.075276   -0.316078    0.421811
|  9> C     -1.056864    0.450771   -0.277621
| 10> H      3.419178    0.318761   -0.382304
| 11> H      2.453489   -1.220352   -0.698261
| 12> H      1.492545    1.352012    0.652650
| 13> H     -2.441485   -1.215257   -0.468708
| 14> H     -3.209396    0.366453   -0.584990
| 15> H     -2.686714   -0.246940    0.982557
| 16> H      0.119287   -1.338660    0.037811
| 17> H     -0.166785   -0.392388    1.488258
| 18> H     -0.832514    0.519273   -1.344984
| 19> H     -1.078509    1.478406    0.096191
| 20> *
| 21>
| 22>                          ****END OF INPUT****

CARTESIAN COORDINATES (ANGSTROEM)
---------------------------------
  C      2.480915   -0.213181   -0.298890
  C      1.414749    0.338000    0.268186
  C     -2.425591   -0.196397   -0.076523
  C      0.075276   -0.316078    0.421811
  C     -1.056864    0.450771   -0.277621
  H      3.419178    0.318761   -0.382304
  H      2.453489   -1.220352   -0.698261
  H      1.492545    1.352012    0.652650
  H     -2.441485   -1.215257   -0.468708
  H     -3.209396    0.366453   -0.584990
  H     -2.686714   -0.246940    0.982557
  H      0.119287   -1.338660    0.037811
  H     -0.166785   -0.392388    1.488258
  H     -0.832514    0.519273   -1.344984
  H     -1.078509    1.478406    0.096191

 Total Charge           Charge          ....    0
 Multiplicity           Mult            ....    1
 Number of Electrons    NEL             ....   40
 Basis Dimension        Dim             ....  860

ORBITAL ENERGIES
----------------

  NO   OCC          E(Eh)            E(eV)
   0   2.0000     -11.228909      -305.5542
   1   2.0000     -11.222050      -305.3675
   2   2.0000     -11.219823      -305.3069
   3   2.0000     -11.215387      -305.1862
   4   2.0000     -11.211703      -305.0860
   5   2.0000      -1.087477       -29.5917
   6   2.0000      -1.022445       -27.8221
   7   2.0000      -0.923205       -25.1217
   8   2.0000      -0.812174       -22.1004
   9   2.0000      -0.756016       -20.5722
  10   2.0000      -0.649530       -17.6746
  11   2.0000      -0.615924       -16.7601
  12   2.0000      -0.591021       -16.0825
  13   2.0000      -0.566631       -15.4188
  14   2.0000      -0.538020       -14.6403
  15   2.0000      -0.510523       -13.8920
  16   2.0000      -0.482988       -13.1428
  17   2.0000      -0.471843       -12.8395
  18   2.0000      -0.470083       -12.7916
  19   2.0000      -0.358679        -9.7602
  20   0.0000       0.027522         0.7489
  21   0.0000       0.031432         0.8553
  22   0.0000       0.033320         0.9067
  23   0.0000       0.036195         0.9849
  24   0.0000       0.047053         1.2804

MULLIKEN ATOMIC CHARGES
-----------------------
   0 C :   -0.885376
   1 C :   -0.539579
   2 C :   -0.830362
   3 C :   -0.235461
   4 C :   -0.383268
   5 H :    0.360273
   6 H :    0.304350
   7 H :    0.431264
   8 H :    0.229967
   9 H :    0.260896
  10 H :    0.221728
  11 H :    0.284721
  12 H :    0.283452
  13 H :    0.267267
  14 H :    0.230128
Sum of atomic charges:   -0.0000000

LOEWDIN ATOMIC CHARGES
----------------------
   0 C :    0.797063
   1 C :    0.355792
   2 C :    0.923440
   3 C :    0.460920
   4 C :    0.496941
   5 H :   -0.360247
   6 H :   -0.355709
   7 H :   -0.324232
   8 H :   -0.285283
   9 H :   -0.284639
  10 H :   -0.286284
  11 H :   -0.303541
  12 H :   -0.281150
  13 H :   -0.274310
  14 H :   -0.278760

  Mayer bond orders larger than 0.100000
B(  0-C ,  1-C ) :   1.8978 B(  0-C ,  3-C ) :  -0.1605 B(  0-C ,  5-H ) :   0.9401
B(  0-C ,  6-H ) :   0.9324 B(  1-C ,  3-C ) :   0.9041 B(  1-C ,  7-H ) :   0.7860
B(  2-C ,  4-C ) :   0.9626 B(  2-C ,  8-H ) :   0.9571 B(  2-C ,  9-H ) :   0.9834
B(  2-C , 10-H ) :   0.9537 B(  3-C ,  4-C ) :   0.9505 B(  3-C , 11-H ) :   0.8911
B(  3-C , 12-H ) :   0.8443 B(  4-C , 13-H ) :   0.8716 B(  4-C , 14-H ) :   0.8773

MP2 TOTAL ENERGY:     -196.140842784 Eh
FINAL SINGLE POINT ENERGY      -196.140842784164

DIPOLE MOMENT
-------------
                                X             Y             Z
Electronic contribution:      2.96963       0.43197       0.26527
Nuclear contribution   :     -3.13935      -0.40562      -0.23755
                        -----------------------------------------
Total Dipole Moment    :     -0.16972       0.02635       0.02772
                        -----------------------------------------
Magnitude (a.u.)       :      0.17397
Magnitude (Debye)      :      0.44220

Rotational constants in cm-1:     0.616880     0.070431     0.069277
Rotational constants in MHz : 18493.590493  2111.482657  2076.857963

                             ****ORCA TERMINATED NORMALLY****
TOTAL RUN TIME: 0 days 0 hours 23 minutes 23 seconds 149 msec
