                         Program Version 5.0.4 -  RELEASE  -
|  1> !ri-mp2 aug-cc-pvqz aug-cc-pvqz/c tightscf
|  2> %pal nprocs 16 end
|  3>
|  4> * xyz 0 1
|  5> Cl   -2.228128   -1.021501   -0.416681
|  6> Cl   -1.176042    1.636902    0.087881
|  7> O     0.217710   -0.557728   -0.248136
|  8> O     2.451588   -0.549725   -0.247351
|  9> N    -0.936161   -0.161967    0.426500
| 10> C     1.373759   -0.430493    0.538916
| 11> C     1.403284   -0.296492    1.855640
| 12> C     2.597789    0.411824   -1.311164
| 13> H     0.502906   -0.317994    2.444647
| 14> H     2.358608   -0.182888    2.340675
| 15> H     3.551083    0.185303   -1.778270
| 16> H     1.794461    0.315767   -2.038707
| 17> H     2.613575    1.422361   -0.900703
| 18> *
| 19>
| 20>                          ****END OF INPUT****

CARTESIAN COORDINATES (ANGSTROEM)
---------------------------------
  Cl    -2.228128   -1.021501   -0.416681
  Cl    -1.176042    1.636902    0.087881
  O      0.217710   -0.557728   -0.248136
  O      2.451588   -0.549725   -0.247351
  N     -0.936161   -0.161967    0.426500
  C      1.373759   -0.430493    0.538916
  C      1.403284   -0.296492    1.855640
  C      2.597789    0.411824   -1.311164
  H      0.502906   -0.317994    2.444647
  H      2.358608   -0.182888    2.340675
  H      3.551083    0.185303   -1.778270
  H      1.794461    0.315767   -2.038707
  H      2.613575    1.422361   -0.900703

 Total Charge           Charge          ....    0
 Multiplicity           Mult            ....    1
 Number of Electrons    NEL             ....   80
 Basis Dimension        Dim             ....  878

ORBITAL ENERGIES
----------------

  NO   OCC          E(Eh)            E(eV)
   0   2.0000    -104.888555     -2854.1627
   1   2.0000    -104.875986     -2853.8207
   2   2.0000     -20.659244      -562.1666
   3   2.0000     -20.598254      -560.5070
   4   2.0000     -15.773582      -429.2210
   5   2.0000     -11.369434      -309.3780
   6   2.0000     -11.292914      -307.2958
   7   2.0000     -11.222986      -305.3930
   8   2.0000     -10.611018      -288.7405
   9   2.0000     -10.598435      -288.3981
  10   2.0000      -8.078050      -219.8149
  11   2.0000      -8.075587      -219.7479
  12   2.0000      -8.075456      -219.7443
  13   2.0000      -8.065310      -219.4683
  14   2.0000      -8.063076      -219.4075
  15   2.0000      -8.062960      -219.4043
  16   2.0000      -1.513050       -41.1722
  17   2.0000      -1.420284       -38.6479
  18   2.0000      -1.227539       -33.4030
  19   2.0000      -1.108642       -30.1677
  20   2.0000      -1.051887       -28.6233
  21   2.0000      -0.974358       -26.5136
  22   2.0000      -0.951686       -25.8967
  23   2.0000      -0.799406       -21.7529
  24   2.0000      -0.739433       -20.1210
  25   2.0000      -0.708015       -19.2661
  26   2.0000      -0.702876       -19.1262
  27   2.0000      -0.649530       -17.6746
  28   2.0000      -0.644824       -17.5466
  29   2.0000      -0.622755       -16.9460
  30   2.0000      -0.579997       -15.7825
  31   2.0000      -0.561460       -15.2781
  32   2.0000      -0.549405       -14.9501
  33   2.0000      -0.529747       -14.4152
  34   2.0000      -0.506559       -13.7842
  35   2.0000      -0.484105       -13.1732
  36   2.0000      -0.477088       -12.9822
  37   2.0000      -0.461564       -12.5598
  38   2.0000      -0.431528       -11.7425
  39   2.0000      -0.361302        -9.8315
  40   0.0000       0.026238         0.7140
  41   0.0000       0.034409         0.9363
  42   0.0000       0.036885         1.0037
  43   0.0000       0.041279         1.1233
  44   0.0000       0.047468         1.2917

MULLIKEN ATOMIC CHARGES
-----------------------
   0 Cl:    0.044392
   1 Cl:   -0.040517
   2 O :   -0.474246
   3 O :   -0.729160
   4 N :   -0.041226
   5 C :    1.038361
   6 C :   -0.914825
   7 C :   -0.648734
   8 H :    0.414578
   9 H :    0.336506
  10 H :    0.423805
  11 H :    0.319750
  12 H :    0.271316
Sum of atomic charges:   -0.0000000

LOEWDIN ATOMIC CHARGES
----------------------
   0 Cl:    0.754026
   1 Cl:    0.691599
   2 O :    0.375553
   3 O :    0.810679
   4 N :   -1.241959
   5 C :   -0.953094
   6 C :    0.703657
   7 C :    0.603880
   8 H :   -0.411039
   9 H :   -0.375965
  10 H :   -0.323492
  11 H :   -0.326823
  12 H :   -0.307023

  Mayer bond orders larger than 0.100000
B(  0-Cl,  4-N ) :   1.0166 B(  1-Cl,  4-N ) :   0.9559 B(  2-O ,  4-N ) :   0.8759
B(  2-O ,  5-C ) :   0.5694 B(  3-O ,  5-C ) :   0.8216 B(  3-O ,  7-C ) :   0.8565
B(  5-C ,  6-C ) :   1.5294 B(  6-C ,  8-H ) :   0.9055 B(  6-C ,  9-H ) :   0.9497
B(  7-C , 10-H ) :   0.8347 B(  7-C , 11-H ) :   0.8847 B(  7-C , 12-H ) :   0.9115

MP2 TOTAL ENERGY:    -1241.367872608 Eh
FINAL SINGLE POINT ENERGY     -1241.367872608143

DIPOLE MOMENT
-------------
                                X             Y             Z
Electronic contribution:    -14.62150      -0.11011      -0.76955
Nuclear contribution   :     14.95707       0.49806       0.50664
                        -----------------------------------------
Total Dipole Moment    :      0.33557       0.38795      -0.26291
                        -----------------------------------------
Magnitude (a.u.)       :      0.57640
Magnitude (Debye)      :      1.46508

Rotational constants in cm-1:     0.068578     0.028834     0.026380
Rotational constants in MHz :  2055.929550   864.421554   790.865669

                             ****ORCA TERMINATED NORMALLY****
TOTAL RUN TIME: 0 days 0 hours 24 minutes 25 seconds 423 msec
