                         Program Version 5.0.4 -  RELEASE  -
|  1> !ri-mp2 aug-cc-pvqz aug-cc-pvqz/c tightscf
|  2> %pal nprocs 16 end
|  3>
|  4> * xyz 0 1
|  5> C     -2.375167    1.623271   -0.199143
|  6> C     -2.007050    0.527064    0.118833
|  7> C      1.874986   -0.008026   -0.044601
|  8> C      0.850272   -0.614152   -0.202794
|  9> C      3.114009    0.734257    0.139370
| 10> C     -1.564604   -0.810976    0.487974
| 11> C     -0.398446   -1.345731   -0.378509
| 12> H     -2.697409    2.595513   -0.476233
| 13> H      3.585287    0.955741   -0.819838
| 14> H      2.929194    1.683095    0.646012
| 15> H      3.828780    0.168899    0.739903
| 16> H     -2.406200   -1.502168    0.396639
| 17> H     -1.262452   -0.817791    1.537388
| 18> H     -0.697428   -1.320675   -1.428857
| 19> H     -0.243770   -2.396855   -0.121794
| 20> *
| 21>
| 22>                          ****END OF INPUT****

CARTESIAN COORDINATES (ANGSTROEM)
---------------------------------
  C     -2.375167    1.623271   -0.199143
  C     -2.007050    0.527064    0.118833
  C      1.874986   -0.008026   -0.044601
  C      0.850272   -0.614152   -0.202794
  C      3.114009    0.734257    0.139370
  C     -1.564604   -0.810976    0.487974
  C     -0.398446   -1.345731   -0.378509
  H     -2.697409    2.595513   -0.476233
  H      3.585287    0.955741   -0.819838
  H      2.929194    1.683095    0.646012
  H      3.828780    0.168899    0.739903
  H     -2.406200   -1.502168    0.396639
  H     -1.262452   -0.817791    1.537388
  H     -0.697428   -1.320675   -1.428857
  H     -0.243770   -2.396855   -0.121794

 Total Charge           Charge          ....    0
 Multiplicity           Mult            ....    1
 Number of Electrons    NEL             ....   50
 Basis Dimension        Dim             ....  928

ORBITAL ENERGIES
----------------

  NO   OCC          E(Eh)            E(eV)
   0   2.0000     -11.258227      -306.3519
   1   2.0000     -11.256335      -306.3005
   2   2.0000     -11.241597      -305.8994
   3   2.0000     -11.229720      -305.5762
   4   2.0000     -11.218436      -305.2692
   5   2.0000     -11.216429      -305.2145
   6   2.0000     -11.212744      -305.1143
   7   2.0000      -1.102773       -30.0080
   8   2.0000      -1.049537       -28.5594
   9   2.0000      -1.008179       -27.4339
  10   2.0000      -0.949920       -25.8486
  11   2.0000      -0.884857       -24.0782
  12   2.0000      -0.720191       -19.5974
  13   2.0000      -0.673768       -18.3342
  14   2.0000      -0.652012       -17.7422
  15   2.0000      -0.622058       -16.9271
  16   2.0000      -0.588227       -16.0065
  17   2.0000      -0.584825       -15.9139
  18   2.0000      -0.572372       -15.5750
  19   2.0000      -0.559325       -15.2200
  20   2.0000      -0.541931       -14.7467
  21   2.0000      -0.389701       -10.6043
  22   2.0000      -0.384946       -10.4749
  23   2.0000      -0.364651        -9.9226
  24   2.0000      -0.363378        -9.8880
  25   0.0000       0.025075         0.6823
  26   0.0000       0.027991         0.7617
  27   0.0000       0.030396         0.8271
  28   0.0000       0.037248         1.0136
  29   0.0000       0.044905         1.2219

MULLIKEN ATOMIC CHARGES
-----------------------
   0 C :   -0.915698
   1 C :   -0.006216
   2 C :   -0.176677
   3 C :   -0.133558
   4 C :   -0.588413
   5 C :   -0.230592
   6 C :   -0.164746
   7 H :    0.421508
   8 H :    0.205663
   9 H :    0.210112
  10 H :    0.202796
  11 H :    0.332234
  12 H :    0.288882
  13 H :    0.255956
  14 H :    0.298749
Sum of atomic charges:    0.0000000

LOEWDIN ATOMIC CHARGES
----------------------
   0 C :    0.576874
   1 C :    0.089048
   2 C :    0.170996
   3 C :    0.151720
   4 C :    0.832706
   5 C :    0.405179
   6 C :    0.409886
   7 H :   -0.466396
   8 H :   -0.319633
   9 H :   -0.318948
  10 H :   -0.320001
  11 H :   -0.302518
  12 H :   -0.303323
  13 H :   -0.303289
  14 H :   -0.302303

  Mayer bond orders larger than 0.100000
B(  0-C ,  1-C ) :   2.7343 B(  0-C ,  5-C ) :  -0.2061 B(  0-C ,  7-H ) :   0.9744
B(  1-C ,  5-C ) :   0.6765 B(  1-C ,  7-H ) :  -0.1032 B(  2-C ,  3-C ) :   3.0551
B(  2-C ,  4-C ) :   0.6944 B(  2-C ,  8-H ) :  -0.1077 B(  2-C ,  9-H ) :  -0.1001
B(  2-C , 10-H ) :  -0.1068 B(  3-C ,  6-C ) :   0.4731 B(  4-C ,  8-H ) :   1.0348
B(  4-C ,  9-H ) :   1.0174 B(  4-C , 10-H ) :   1.0342 B(  5-C ,  6-C ) :   1.0783
B(  5-C , 11-H ) :   0.8924 B(  5-C , 12-H ) :   0.8760 B(  6-C , 13-H ) :   0.9240
B(  6-C , 14-H ) :   0.9413

MP2 TOTAL ENERGY:     -270.916063454 Eh
FINAL SINGLE POINT ENERGY      -270.916063454160

DIPOLE MOMENT
-------------
                                X             Y             Z
Electronic contribution:     -2.92167       0.46829      -0.41978
Nuclear contribution   :      3.09408      -0.64637       0.48227
                        -----------------------------------------
Total Dipole Moment    :      0.17241      -0.17808       0.06249
                        -----------------------------------------
Magnitude (a.u.)       :      0.25563
Magnitude (Debye)      :      0.64975

Rotational constants in cm-1:     0.154722     0.044462     0.036395
Rotational constants in MHz :  4638.449700  1332.923306  1091.102301

                             ****ORCA TERMINATED NORMALLY****
TOTAL RUN TIME: 0 days 0 hours 28 minutes 15 seconds 804 msec
