                         Program Version 5.0.4 -  RELEASE  -
|  1> !ri-mp2 aug-cc-pvqz aug-cc-pvqz/c tightscf
|  2> %pal nprocs 16 end
|  3>
|  4> * xyz 0 1
|  5> Cl     1.571721   -0.909942    0.008496
|  6> N     -1.173896    0.820814   -0.448314
|  7> N     -1.762173   -0.193172   -0.081847
|  8> N     -2.396372   -1.096686    0.152096
|  9> C     -0.060470    1.285982    0.393333
| 10> C      1.295650    0.872078   -0.145488
| 11> H     -0.103030    2.376437    0.375286
| 12> H     -0.177806    0.958752    1.427891
| 13> H      2.090432    1.359964    0.413029
| 14> H      1.387147    1.108808   -1.201250
| 15> *
| 16>
| 17>                          ****END OF INPUT****

CARTESIAN COORDINATES (ANGSTROEM)
---------------------------------
  Cl     1.571721   -0.909942    0.008496
  N     -1.173896    0.820814   -0.448314
  N     -1.762173   -0.193172   -0.081847
  N     -2.396372   -1.096686    0.152096
  C     -0.060470    1.285982    0.393333
  C      1.295650    0.872078   -0.145488
  H     -0.103030    2.376437    0.375286
  H     -0.177806    0.958752    1.427891
  H      2.090432    1.359964    0.413029
  H      1.387147    1.108808   -1.201250

 Total Charge           Charge          ....    0
 Multiplicity           Mult            ....    1
 Number of Electrons    NEL             ....   54
 Basis Dimension        Dim             ....  668

ORBITAL ENERGIES
----------------

  NO   OCC          E(Eh)            E(eV)
   0   2.0000    -104.830976     -2852.5959
   1   2.0000     -15.783746      -429.4976
   2   2.0000     -15.666344      -426.3029
   3   2.0000     -15.608681      -424.7338
   4   2.0000     -11.307915      -307.7040
   5   2.0000     -11.299534      -307.4759
   6   2.0000     -10.556418      -287.2547
   7   2.0000      -8.023450      -218.3292
   8   2.0000      -8.021842      -218.2854
   9   2.0000      -8.021800      -218.2843
  10   2.0000      -1.509357       -41.0717
  11   2.0000      -1.299276       -35.3551
  12   2.0000      -1.144928       -31.1551
  13   2.0000      -1.032461       -28.0947
  14   2.0000      -0.884305       -24.0632
  15   2.0000      -0.755243       -20.5512
  16   2.0000      -0.716234       -19.4897
  17   2.0000      -0.704933       -19.1822
  18   2.0000      -0.677341       -18.4314
  19   2.0000      -0.628036       -17.0897
  20   2.0000      -0.619968       -16.8702
  21   2.0000      -0.582201       -15.8425
  22   2.0000      -0.524342       -14.2681
  23   2.0000      -0.454808       -12.3760
  24   2.0000      -0.445797       -12.1308
  25   2.0000      -0.439503       -11.9595
  26   2.0000      -0.384148       -10.4532
  27   0.0000       0.022509         0.6125
  28   0.0000       0.034301         0.9334
  29   0.0000       0.038217         1.0399
  30   0.0000       0.043731         1.1900
  31   0.0000       0.064217         1.7474

MULLIKEN ATOMIC CHARGES
-----------------------
   0 Cl:   -0.315439
   1 N :   -0.270250
   2 N :    0.200692
   3 N :   -0.284323
   4 C :   -0.206083
   5 C :   -0.373165
   6 H :    0.343372
   7 H :    0.298272
   8 H :    0.312560
   9 H :    0.294363
Sum of atomic charges:    0.0000000

LOEWDIN ATOMIC CHARGES
----------------------
   0 Cl:    1.116819
   1 N :    0.320206
   2 N :   -0.291423
   3 N :    0.363982
   4 C :    0.114740
   5 C :   -0.148195
   6 H :   -0.332699
   7 H :   -0.341750
   8 H :   -0.398259
   9 H :   -0.403420

  Mayer bond orders larger than 0.100000
B(  0-Cl,  5-C ) :   0.8267 B(  1-N ,  2-N ) :   1.4446 B(  1-N ,  3-N ) :   0.1945
B(  1-N ,  4-C ) :   0.7972 B(  2-N ,  3-N ) :   2.2625 B(  4-C ,  5-C ) :   1.0134
B(  4-C ,  6-H ) :   0.8286 B(  4-C ,  7-H ) :   0.8704 B(  5-C ,  8-H ) :   0.8620
B(  5-C ,  9-H ) :   0.8613

MP2 TOTAL ENERGY:     -702.179416811 Eh
FINAL SINGLE POINT ENERGY      -702.179416810779

DIPOLE MOMENT
-------------
                                X             Y             Z
Electronic contribution:     -0.45115      -5.79594      -0.59273
Nuclear contribution   :      0.88113       6.82624       0.96159
                        -----------------------------------------
Total Dipole Moment    :      0.42998       1.03030       0.36887
                        -----------------------------------------
Magnitude (a.u.)       :      1.17578
Magnitude (Debye)      :      2.98859

Rotational constants in cm-1:     0.163124     0.063194     0.047913
Rotational constants in MHz :  4890.341066  1894.515256  1436.383820

                             ****ORCA TERMINATED NORMALLY****
TOTAL RUN TIME: 0 days 0 hours 10 minutes 41 seconds 7 msec
