                         Program Version 5.0.4 -  RELEASE  -
|  1> !ri-mp2 aug-cc-pvqz aug-cc-pvqz/c tightscf
|  2> %pal nprocs 16 end
|  3>
|  4> * xyz 0 1
|  5> C      4.107657   -0.250205   -0.215211
|  6> C      2.717325   -0.521399    0.356513
|  7> C      1.636426    0.390420   -0.225173
|  8> C      0.242168    0.120079    0.340479
|  9> C     -0.829692    1.038232   -0.244879
| 10> C     -2.225201    0.823188    0.309411
| 11> Cl    -2.919780   -0.797045   -0.154599
| 12> H      4.124179   -0.394646   -1.297420
| 13> H      4.854124   -0.916596    0.218969
| 14> H      4.423588    0.775876   -0.015423
| 15> H      2.443823   -1.564425    0.172169
| 16> H      2.740755   -0.402685    1.443977
| 17> H      1.613418    0.271434   -1.313552
| 18> H      1.909906    1.435111   -0.040928
| 19> H      0.262024    0.239696    1.428936
| 20> H     -0.032215   -0.919987    0.150936
| 21> H     -0.857119    0.939470   -1.332660
| 22> H     -0.568928    2.082139   -0.035424
| 23> H     -2.240983    0.846311    1.396326
| 24> H     -2.928401    1.556175   -0.074565
| 25> *
| 26>
| 27>                          ****END OF INPUT****

CARTESIAN COORDINATES (ANGSTROEM)
---------------------------------
  C      4.107657   -0.250205   -0.215211
  C      2.717325   -0.521399    0.356513
  C      1.636426    0.390420   -0.225173
  C      0.242168    0.120079    0.340479
  C     -0.829692    1.038232   -0.244879
  C     -2.225201    0.823188    0.309411
  Cl    -2.919780   -0.797045   -0.154599
  H      4.124179   -0.394646   -1.297420
  H      4.854124   -0.916596    0.218969
  H      4.423588    0.775876   -0.015423
  H      2.443823   -1.564425    0.172169
  H      2.740755   -0.402685    1.443977
  H      1.613418    0.271434   -1.313552
  H      1.909906    1.435111   -0.040928
  H      0.262024    0.239696    1.428936
  H     -0.032215   -0.919987    0.150936
  H     -0.857119    0.939470   -1.332660
  H     -0.568928    2.082139   -0.035424
  H     -2.240983    0.846311    1.396326
  H     -2.928401    1.556175   -0.074565

 Total Charge           Charge          ....    0
 Multiplicity           Mult            ....    1
 Number of Electrons    NEL             ....   66
 Basis Dimension        Dim             .... 1162

ORBITAL ENERGIES
----------------

  NO   OCC          E(Eh)            E(eV)
   0   2.0000    -104.814599     -2852.1502
   1   2.0000     -11.291674      -307.2621
   2   2.0000     -11.234673      -305.7110
   3   2.0000     -11.220714      -305.3312
   4   2.0000     -11.218707      -305.2765
   5   2.0000     -11.217817      -305.2523
   6   2.0000     -11.211086      -305.0692
   7   2.0000     -10.540056      -286.8095
   8   2.0000      -8.007068      -217.8834
   9   2.0000      -8.005528      -217.8415
  10   2.0000      -8.005499      -217.8407
  11   2.0000      -1.132785       -30.8246
  12   2.0000      -1.081609       -29.4321
  13   2.0000      -1.028351       -27.9829
  14   2.0000      -0.956996       -26.0412
  15   2.0000      -0.873055       -23.7570
  16   2.0000      -0.804678       -21.8964
  17   2.0000      -0.792522       -21.5656
  18   2.0000      -0.660260       -17.9666
  19   2.0000      -0.635179       -17.2841
  20   2.0000      -0.617288       -16.7973
  21   2.0000      -0.594390       -16.1742
  22   2.0000      -0.564684       -15.3658
  23   2.0000      -0.555406       -15.1134
  24   2.0000      -0.543005       -14.7759
  25   2.0000      -0.511601       -13.9214
  26   2.0000      -0.496703       -13.5160
  27   2.0000      -0.478562       -13.0223
  28   2.0000      -0.469191       -12.7673
  29   2.0000      -0.466302       -12.6887
  30   2.0000      -0.460514       -12.5312
  31   2.0000      -0.428125       -11.6499
  32   2.0000      -0.425280       -11.5725
  33   0.0000       0.024448         0.6653
  34   0.0000       0.027027         0.7354
  35   0.0000       0.031524         0.8578
  36   0.0000       0.035980         0.9791
  37   0.0000       0.042822         1.1653

MULLIKEN ATOMIC CHARGES
-----------------------
   0 C :   -0.908703
   1 C :   -0.497454
   2 C :   -0.274112
   3 C :   -0.258451
   4 C :   -0.454552
   5 C :   -0.459591
   6 Cl:   -0.419740
   7 H :    0.225840
   8 H :    0.266322
   9 H :    0.225415
  10 H :    0.230246
  11 H :    0.227054
  12 H :    0.243567
  13 H :    0.235741
  14 H :    0.253159
  15 H :    0.278558
  16 H :    0.282211
  17 H :    0.223167
  18 H :    0.260879
  19 H :    0.320446
Sum of atomic charges:   -0.0000000

LOEWDIN ATOMIC CHARGES
----------------------
   0 C :    0.927305
   1 C :    0.510181
   2 C :    0.510439
   3 C :    0.484585
   4 C :    0.408560
   5 C :   -0.089419
   6 Cl:    1.110939
   7 H :   -0.285078
   8 H :   -0.284462
   9 H :   -0.285289
  10 H :   -0.272363
  11 H :   -0.272738
  12 H :   -0.267529
  13 H :   -0.268016
  14 H :   -0.268838
  15 H :   -0.301459
  16 H :   -0.294067
  17 H :   -0.277548
  18 H :   -0.391149
  19 H :   -0.394054

  Mayer bond orders larger than 0.100000
B(  0-C ,  1-C ) :   1.0379 B(  0-C ,  2-C ) :  -0.1113 B(  0-C ,  7-H ) :   0.9576
B(  0-C ,  8-H ) :   1.0262 B(  0-C ,  9-H ) :   0.9564 B(  1-C ,  2-C ) :   0.9531
B(  1-C ,  8-H ) :  -0.1007 B(  1-C , 10-H ) :   0.8785 B(  1-C , 11-H ) :   0.8812
B(  2-C ,  3-C ) :   1.0129 B(  2-C , 12-H ) :   0.8654 B(  2-C , 13-H ) :   0.8683
B(  3-C ,  4-C ) :   0.9598 B(  3-C ,  5-C ) :  -0.1507 B(  3-C , 14-H ) :   0.8682
B(  3-C , 15-H ) :   0.8387 B(  4-C ,  5-C ) :   1.0922 B(  4-C ,  6-Cl) :  -0.1429
B(  4-C , 16-H ) :   0.8304 B(  4-C , 17-H ) :   0.8736 B(  5-C ,  6-Cl) :   0.8015
B(  5-C , 18-H ) :   0.9060 B(  5-C , 19-H ) :   0.9276

MP2 TOTAL ENERGY:     -695.746929634 Eh
FINAL SINGLE POINT ENERGY      -695.746929633746

DIPOLE MOMENT
-------------
                                X             Y             Z
Electronic contribution:    -19.97475      -4.46998      -0.74496
Nuclear contribution   :     20.47130       5.22863       0.94799
                        -----------------------------------------
Total Dipole Moment    :      0.49655       0.75865       0.20302
                        -----------------------------------------
Magnitude (a.u.)       :      0.92916
Magnitude (Debye)      :      2.36173

Rotational constants in cm-1:     0.202957     0.020945     0.019798
Rotational constants in MHz :  6084.506732   627.914244   593.521199

                             ****ORCA TERMINATED NORMALLY****
TOTAL RUN TIME: 0 days 1 hours 2 minutes 0 seconds 841 msec
