                         Program Version 5.0.4 -  RELEASE  -
|  1> !ri-mp2 aug-cc-pvqz aug-cc-pvqz/c tightscf
|  2> %pal nprocs 16 end
|  3>
|  4> * xyz 0 1
|  5> S     -0.684744    1.213061   -0.000080
|  6> S      1.377318   -1.154886    0.000075
|  7> N     -1.268379   -1.298952    0.000129
|  8> N      2.990519    1.193133   -0.000175
|  9> C     -0.269821   -0.479529    0.000045
| 10> C     -2.349814    0.743056   -0.000014
| 11> C     -2.455845   -0.611093    0.000096
| 12> C      2.305403    0.262740   -0.000076
| 13> H     -3.132667    1.481541   -0.000061
| 14> H     -3.383034   -1.162635    0.000156
| 15> *
| 16>
| 17>                          ****END OF INPUT****

CARTESIAN COORDINATES (ANGSTROEM)
---------------------------------
  S     -0.684744    1.213061   -0.000080
  S      1.377318   -1.154886    0.000075
  N     -1.268379   -1.298952    0.000129
  N      2.990519    1.193133   -0.000175
  C     -0.269821   -0.479529    0.000045
  C     -2.349814    0.743056   -0.000014
  C     -2.455845   -0.611093    0.000096
  C      2.305403    0.262740   -0.000076
  H     -3.132667    1.481541   -0.000061
  H     -3.383034   -1.162635    0.000156

 Total Charge           Charge          ....    0
 Multiplicity           Mult            ....    1
 Number of Electrons    NEL             ....   72
 Basis Dimension        Dim             ....  740

ORBITAL ENERGIES
----------------

  NO   OCC          E(Eh)            E(eV)
   0   2.0000     -92.047322     -2504.7350
   1   2.0000     -92.023164     -2504.0776
   2   2.0000     -15.600016      -424.4980
   3   2.0000     -15.597365      -424.4259
   4   2.0000     -11.369484      -309.3794
   5   2.0000     -11.311835      -307.8107
   6   2.0000     -11.292726      -307.2907
   7   2.0000     -11.287249      -307.1417
   8   2.0000      -9.047391      -246.1920
   9   2.0000      -9.024387      -245.5661
  10   2.0000      -6.728980      -183.1048
  11   2.0000      -6.727619      -183.0678
  12   2.0000      -6.726637      -183.0411
  13   2.0000      -6.705471      -182.4651
  14   2.0000      -6.704891      -182.4494
  15   2.0000      -6.704167      -182.4297
  16   2.0000      -1.318985       -35.8914
  17   2.0000      -1.247571       -33.9481
  18   2.0000      -1.107418       -30.1344
  19   2.0000      -1.091954       -29.7136
  20   2.0000      -0.999177       -27.1890
  21   2.0000      -0.834957       -22.7203
  22   2.0000      -0.781025       -21.2528
  23   2.0000      -0.726662       -19.7735
  24   2.0000      -0.665532       -18.1100
  25   2.0000      -0.618607       -16.8332
  26   2.0000      -0.606786       -16.5115
  27   2.0000      -0.585333       -15.9277
  28   2.0000      -0.559122       -15.2145
  29   2.0000      -0.542624       -14.7656
  30   2.0000      -0.528156       -14.3719
  31   2.0000      -0.491193       -13.3660
  32   2.0000      -0.454138       -12.3577
  33   2.0000      -0.442060       -12.0291
  34   2.0000      -0.410234       -11.1630
  35   2.0000      -0.347301        -9.4505
  36   0.0000       0.020629         0.5613
  37   0.0000       0.030421         0.8278
  38   0.0000       0.042619         1.1597
  39   0.0000       0.058970         1.6047
  40   0.0000       0.060081         1.6349

MULLIKEN ATOMIC CHARGES
-----------------------
   0 S :    0.477464
   1 S :    0.686290
   2 N :   -0.476019
   3 N :   -0.523896
   4 C :   -0.013741
   5 C :   -0.796975
   6 C :   -0.224239
   7 C :   -0.096268
   8 H :    0.455992
   9 H :    0.511391
Sum of atomic charges:    0.0000000

LOEWDIN ATOMIC CHARGES
----------------------
   0 S :    1.287539
   1 S :    1.158022
   2 N :    0.359244
   3 N :    0.283190
   4 C :   -1.241804
   5 C :   -0.088699
   6 C :   -0.074200
   7 C :   -0.920846
   8 H :   -0.408913
   9 H :   -0.353534

  Mayer bond orders larger than 0.100000
B(  0-S ,  4-C ) :   1.0176 B(  0-S ,  5-C ) :   1.2359 B(  1-S ,  4-C ) :   0.7764
B(  1-S ,  7-C ) :   0.9464 B(  2-N ,  4-C ) :   1.3875 B(  2-N ,  6-C ) :   1.1654
B(  3-N ,  7-C ) :   2.5517 B(  4-C ,  5-C ) :  -0.1245 B(  4-C ,  7-C ) :  -0.1077
B(  5-C ,  6-C ) :   1.5299 B(  5-C ,  8-H ) :   0.7985 B(  6-C ,  9-H ) :   0.7762

MP2 TOTAL ENERGY:    -1058.150647774 Eh
FINAL SINGLE POINT ENERGY     -1058.150647773725

DIPOLE MOMENT
-------------
                                X             Y             Z
Electronic contribution:      4.84197      -0.44879      -0.00004
Nuclear contribution   :     -6.20690       0.30097       0.00009
                        -----------------------------------------
Total Dipole Moment    :     -1.36493      -0.14782       0.00005
                        -----------------------------------------
Magnitude (a.u.)       :      1.37291
Magnitude (Debye)      :      3.48966

Rotational constants in cm-1:     0.111058     0.037607     0.028094
Rotational constants in MHz :  3329.422402  1127.430092   842.229132

                             ****ORCA TERMINATED NORMALLY****
TOTAL RUN TIME: 0 days 0 hours 16 minutes 34 seconds 697 msec
