                         Program Version 5.0.4 -  RELEASE  -
|  1> !ri-mp2 aug-cc-pvqz aug-cc-pvqz/c tightscf
|  2> %pal nprocs 16 end
|  3>
|  4> * xyz 0 1
|  5> C      1.328756   -1.459271    0.000000
|  6> C      0.738939   -0.414592    0.000000
|  7> C     -1.523500    0.649784    0.000000
|  8> C      0.000000    0.843190    0.000000
|  9> H      1.855678   -2.379936    0.000000
| 10> H     -1.844031    0.095387    0.881353
| 11> H     -1.844031    0.095387   -0.881353
| 12> H     -2.027340    1.616676    0.000000
| 13> H      0.297280    1.428911    0.873961
| 14> H      0.297280    1.428911   -0.873961
| 15> *
| 16>
| 17>                          ****END OF INPUT****

CARTESIAN COORDINATES (ANGSTROEM)
---------------------------------
  C      1.328756   -1.459271    0.000000
  C      0.738939   -0.414592    0.000000
  C     -1.523500    0.649784    0.000000
  C      0.000000    0.843190    0.000000
  H      1.855678   -2.379936    0.000000
  H     -1.844031    0.095387    0.881353
  H     -1.844031    0.095387   -0.881353
  H     -2.027340    1.616676    0.000000
  H      0.297280    1.428911    0.873961
  H      0.297280    1.428911   -0.873961

 Total Charge           Charge          ....    0
 Multiplicity           Mult            ....    1
 Number of Electrons    NEL             ....   30
 Basis Dimension        Dim             ....  596

ORBITAL ENERGIES
----------------

  NO   OCC          E(Eh)            E(eV)
   0   2.0000     -11.251929      -306.1806
   1   2.0000     -11.229636      -305.5739
   2   2.0000     -11.224573      -305.4361
   3   2.0000     -11.215643      -305.1932
   4   2.0000      -1.080006       -29.3885
   5   2.0000      -0.994210       -27.0538
   6   2.0000      -0.876034       -23.8381
   7   2.0000      -0.716590       -19.4994
   8   2.0000      -0.642077       -17.4718
   9   2.0000      -0.628005       -17.0889
  10   2.0000      -0.551966       -15.0197
  11   2.0000      -0.525011       -14.2863
  12   2.0000      -0.515174       -14.0186
  13   2.0000      -0.384019       -10.4497
  14   2.0000      -0.383380       -10.4323
  15   0.0000       0.026390         0.7181
  16   0.0000       0.030079         0.8185
  17   0.0000       0.038183         1.0390
  18   0.0000       0.038578         1.0498
  19   0.0000       0.049578         1.3491

MULLIKEN ATOMIC CHARGES
-----------------------
   0 C :   -0.878881
   1 C :    0.019780
   2 C :   -0.811003
   3 C :   -0.149858
   4 H :    0.444043
   5 H :    0.254089
   6 H :    0.254089
   7 H :    0.323492
   8 H :    0.272125
   9 H :    0.272125
Sum of atomic charges:    0.0000000

LOEWDIN ATOMIC CHARGES
----------------------
   0 C :    0.566397
   1 C :    0.082415
   2 C :    0.903393
   3 C :    0.402524
   4 H :   -0.472149
   5 H :   -0.289039
   6 H :   -0.289039
   7 H :   -0.286407
   8 H :   -0.309047
   9 H :   -0.309047

  Mayer bond orders larger than 0.100000
B(  0-C ,  1-C ) :   2.8014 B(  0-C ,  3-C ) :  -0.1567 B(  0-C ,  4-H ) :   0.9090
B(  1-C ,  3-C ) :   0.6978 B(  2-C ,  3-C ) :   1.0111 B(  2-C ,  5-H ) :   0.9287
B(  2-C ,  6-H ) :   0.9287 B(  2-C ,  7-H ) :   0.9194 B(  3-C ,  8-H ) :   0.8979
B(  3-C ,  9-H ) :   0.8979

MP2 TOTAL ENERGY:     -155.666409027 Eh
FINAL SINGLE POINT ENERGY      -155.666409026614

DIPOLE MOMENT
-------------
                                X             Y             Z
Electronic contribution:      3.20265      -2.12395       0.00000
Nuclear contribution   :     -3.40099       2.38040       0.00000
                        -----------------------------------------
Total Dipole Moment    :     -0.19834       0.25645       0.00000
                        -----------------------------------------
Magnitude (a.u.)       :      0.32420
Magnitude (Debye)      :      0.82406

Rotational constants in cm-1:     0.923007     0.150947     0.136244
Rotational constants in MHz : 27671.047162  4525.274788  4084.486358

                             ****ORCA TERMINATED NORMALLY****
TOTAL RUN TIME: 0 days 0 hours 7 minutes 9 seconds 947 msec
