                         Program Version 5.0.4 -  RELEASE  -
|  1> !ri-mp2 aug-cc-pvqz aug-cc-pvqz/c tightscf
|  2> %pal nprocs 16 end
|  3> %maxcore 3800
|  4>
|  5> * xyz 0 1
|  6> C     -0.185454    3.476467    1.177678
|  7> C      0.185454   -3.476467    1.177678
|  8> C      0.448568    2.723875    0.026404
|  9> C     -0.448568   -2.723875    0.026404
| 10> C      0.330721    0.678899   -1.157349
| 11> C     -0.330721   -0.678899   -1.157349
| 12> O     -0.185454    1.462479   -0.100569
| 13> O      0.185454   -1.462479   -0.100569
| 14> H      0.289479    4.450910    1.299148
| 15> H     -1.249152    3.631512    0.997075
| 16> H     -0.073398    2.919207    2.107537
| 17> H     -0.289479   -4.450910    1.299148
| 18> H      1.249152   -3.631512    0.997075
| 19> H      0.073398   -2.919207    2.107537
| 20> H      1.523271    2.581941    0.202423
| 21> H      0.343221    3.289948   -0.909829
| 22> H     -1.523271   -2.581941    0.202423
| 23> H     -0.343221   -3.289948   -0.909829
| 24> H      0.140113    1.170529   -2.121857
| 25> H      1.415919    0.554537   -1.050343
| 26> H     -0.140113   -1.170529   -2.121857
| 27> H     -1.415919   -0.554537   -1.050343
| 28> *
| 29>
| 30>                          ****END OF INPUT****

CARTESIAN COORDINATES (ANGSTROEM)
---------------------------------
  C     -0.185454    3.476467    1.177678
  C      0.185454   -3.476467    1.177678
  C      0.448568    2.723875    0.026404
  C     -0.448568   -2.723875    0.026404
  C      0.330721    0.678899   -1.157349
  C     -0.330721   -0.678899   -1.157349
  O     -0.185454    1.462479   -0.100569
  O      0.185454   -1.462479   -0.100569
  H      0.289479    4.450910    1.299148
  H     -1.249152    3.631512    0.997075
  H     -0.073398    2.919207    2.107537
  H     -0.289479   -4.450910    1.299148
  H      1.249152   -3.631512    0.997075
  H      0.073398   -2.919207    2.107537
  H      1.523271    2.581941    0.202423
  H      0.343221    3.289948   -0.909829
  H     -1.523271   -2.581941    0.202423
  H     -0.343221   -3.289948   -0.909829
  H      0.140113    1.170529   -2.121857
  H      1.415919    0.554537   -1.050343
  H     -0.140113   -1.170529   -2.121857
  H     -1.415919   -0.554537   -1.050343

 Total Charge           Charge          ....    0
 Multiplicity           Mult            ....    1
 Number of Electrons    NEL             ....   66
 Basis Dimension        Dim             .... 1284

ORBITAL ENERGIES
----------------

  NO   OCC          E(Eh)            E(eV)
   0   2.0000     -20.546164      -559.0895
   1   2.0000     -20.546162      -559.0895
   2   2.0000     -11.270569      -306.6878
   3   2.0000     -11.269896      -306.6695
   4   2.0000     -11.269768      -306.6660
   5   2.0000     -11.269767      -306.6660
   6   2.0000     -11.209027      -305.0131
   7   2.0000     -11.209027      -305.0131
   8   2.0000      -1.376402       -37.4538
   9   2.0000      -1.359996       -37.0074
  10   2.0000      -1.047734       -28.5103
  11   2.0000      -1.012188       -27.5430
  12   2.0000      -0.962978       -26.2040
  13   2.0000      -0.840939       -22.8831
  14   2.0000      -0.830642       -22.6029
  15   2.0000      -0.820475       -22.3262
  16   2.0000      -0.683720       -18.6050
  17   2.0000      -0.681221       -18.5370
  18   2.0000      -0.648926       -17.6582
  19   2.0000      -0.642634       -17.4870
  20   2.0000      -0.623494       -16.9661
  21   2.0000      -0.581304       -15.8181
  22   2.0000      -0.569642       -15.5008
  23   2.0000      -0.555602       -15.1187
  24   2.0000      -0.532291       -14.4844
  25   2.0000      -0.529218       -14.4007
  26   2.0000      -0.500259       -13.6127
  27   2.0000      -0.497179       -13.5289
  28   2.0000      -0.488124       -13.2825
  29   2.0000      -0.472526       -12.8581
  30   2.0000      -0.464229       -12.6323
  31   2.0000      -0.422962       -11.5094
  32   2.0000      -0.413088       -11.2407
  33   0.0000       0.027205         0.7403
  34   0.0000       0.028966         0.7882
  35   0.0000       0.032515         0.8848
  36   0.0000       0.034282         0.9329
  37   0.0000       0.042299         1.1510

MULLIKEN ATOMIC CHARGES
-----------------------
   0 C :   -0.888396
   1 C :   -0.888399
   2 C :    0.010279
   3 C :    0.010276
   4 C :    0.037738
   5 C :    0.037737
   6 O :   -0.874558
   7 O :   -0.874560
   8 H :    0.279797
   9 H :    0.223321
  10 H :    0.227951
  11 H :    0.279797
  12 H :    0.223321
  13 H :    0.227953
  14 H :    0.248316
  15 H :    0.231919
  16 H :    0.248314
  17 H :    0.231920
  18 H :    0.273931
  19 H :    0.229693
  20 H :    0.273956
  21 H :    0.229693
Sum of atomic charges:    0.0000000

LOEWDIN ATOMIC CHARGES
----------------------
   0 C :    0.905940
   1 C :    0.905940
   2 C :    0.136734
   3 C :    0.136734
   4 C :    0.133961
   5 C :    0.133961
   6 O :    0.895451
   7 O :    0.895451
   8 H :   -0.293754
   9 H :   -0.293022
  10 H :   -0.292621
  11 H :   -0.293754
  12 H :   -0.293022
  13 H :   -0.292621
  14 H :   -0.298534
  15 H :   -0.297509
  16 H :   -0.298534
  17 H :   -0.297509
  18 H :   -0.295236
  19 H :   -0.301410
  20 H :   -0.295236
  21 H :   -0.301410

  Mayer bond orders larger than 0.100000
B(  0-C ,  2-C ) :   0.9033 B(  0-C ,  8-H ) :   0.9879 B(  0-C ,  9-H ) :   0.9681
B(  0-C , 10-H ) :   0.9466 B(  1-C ,  3-C ) :   0.9033 B(  1-C , 11-H ) :   0.9879
B(  1-C , 12-H ) :   0.9681 B(  1-C , 13-H ) :   0.9466 B(  2-C ,  6-O ) :   0.9206
B(  2-C , 14-H ) :   0.8780 B(  2-C , 15-H ) :   0.8770 B(  3-C ,  7-O ) :   0.9205
B(  3-C , 16-H ) :   0.8780 B(  3-C , 17-H ) :   0.8770 B(  4-C ,  5-C ) :   1.0033
B(  4-C ,  6-O ) :   0.7541 B(  4-C , 18-H ) :   0.9284 B(  4-C , 19-H ) :   0.8511
B(  5-C ,  7-O ) :   0.7541 B(  5-C , 20-H ) :   0.9284 B(  5-C , 21-H ) :   0.8511

MP2 TOTAL ENERGY:     -386.866480339 Eh
FINAL SINGLE POINT ENERGY      -386.866480339145

DIPOLE MOMENT
-------------
                                X             Y             Z
Electronic contribution:     -0.00000      -0.00000      -1.63847
Nuclear contribution   :      0.00000      -0.00000       1.09623
                        -----------------------------------------
Total Dipole Moment    :     -0.00000      -0.00000      -0.54224
                        -----------------------------------------
Magnitude (a.u.)       :      0.54224
Magnitude (Debye)      :      1.37828

Rotational constants in cm-1:     0.147142     0.024356     0.022064
Rotational constants in MHz :  4411.211861   730.185968   661.462974

                             ****ORCA TERMINATED NORMALLY****
TOTAL RUN TIME: 0 days 1 hours 13 minutes 56 seconds 334 msec
