                         Program Version 5.0.4 -  RELEASE  -
|  1> !ri-mp2 aug-cc-pvqz aug-cc-pvqz/c tightscf
|  2> %pal nprocs 16 end
|  3> %maxcore 3800
|  4>
|  5> * xyz 0 1
|  6> C      2.843382   -0.911793    0.095853
|  7> C      1.865295   -1.900259   -0.134234
|  8> C     -0.579750    2.511077    0.033711
|  9> C      2.473262    0.403278    0.193327
| 10> C      0.543571   -1.555480   -0.257841
| 11> C      0.733917    2.152826    0.165181
| 12> C     -1.562211    1.527220   -0.196166
| 13> C      1.117464    0.793908    0.069366
| 14> C      0.119466   -0.205263   -0.160726
| 15> C     -1.248770    0.190590   -0.290811
| 16> C     -2.802522   -1.523090    0.785080
| 17> C     -2.351636   -0.819638   -0.504417
| 18> H      3.882886   -1.194986    0.192496
| 19> H      2.160956   -2.937871   -0.214193
| 20> H     -0.872273    3.550458    0.101606
| 21> H      3.218207    1.169736    0.366401
| 22> H     -0.186369   -2.331752   -0.434482
| 23> H      1.496318    2.901125    0.340027
| 24> H     -2.595290    1.834475   -0.303229
| 25> H     -1.982937   -2.067541    1.253974
| 26> H     -3.604229   -2.233272    0.576827
| 27> H     -3.173490   -0.797867    1.510083
| 28> H     -3.209005   -0.305295   -0.941733
| 29> H     -2.043584   -1.567462   -1.237707
| 30> *
| 31>
| 32>                          ****END OF INPUT****

CARTESIAN COORDINATES (ANGSTROEM)
---------------------------------
  C      2.843382   -0.911793    0.095853
  C      1.865295   -1.900259   -0.134234
  C     -0.579750    2.511077    0.033711
  C      2.473262    0.403278    0.193327
  C      0.543571   -1.555480   -0.257841
  C      0.733917    2.152826    0.165181
  C     -1.562211    1.527220   -0.196166
  C      1.117464    0.793908    0.069366
  C      0.119466   -0.205263   -0.160726
  C     -1.248770    0.190590   -0.290811
  C     -2.802522   -1.523090    0.785080
  C     -2.351636   -0.819638   -0.504417
  H      3.882886   -1.194986    0.192496
  H      2.160956   -2.937871   -0.214193
  H     -0.872273    3.550458    0.101606
  H      3.218207    1.169736    0.366401
  H     -0.186369   -2.331752   -0.434482
  H      1.496318    2.901125    0.340027
  H     -2.595290    1.834475   -0.303229
  H     -1.982937   -2.067541    1.253974
  H     -3.604229   -2.233272    0.576827
  H     -3.173490   -0.797867    1.510083
  H     -3.209005   -0.305295   -0.941733
  H     -2.043584   -1.567462   -1.237707

 Total Charge           Charge          ....    0
 Multiplicity           Mult            ....    1
 Number of Electrons    NEL             ....   84
 Basis Dimension        Dim             .... 1512

ORBITAL ENERGIES
----------------

  NO   OCC          E(Eh)            E(eV)
   0   2.0000     -11.241203      -305.8887
   1   2.0000     -11.240300      -305.8641
   2   2.0000     -11.239528      -305.8431
   3   2.0000     -11.233515      -305.6795
   4   2.0000     -11.233077      -305.6676
   5   2.0000     -11.232079      -305.6404
   6   2.0000     -11.231415      -305.6223
   7   2.0000     -11.231403      -305.6220
   8   2.0000     -11.229049      -305.5580
   9   2.0000     -11.227922      -305.5273
  10   2.0000     -11.226858      -305.4983
  11   2.0000     -11.215240      -305.1822
  12   2.0000      -1.177316       -32.0364
  13   2.0000      -1.113167       -30.2908
  14   2.0000      -1.073403       -29.2088
  15   2.0000      -1.016991       -27.6737
  16   2.0000      -1.006719       -27.3942
  17   2.0000      -0.970600       -26.4114
  18   2.0000      -0.869302       -23.6549
  19   2.0000      -0.842137       -22.9157
  20   2.0000      -0.836752       -22.7692
  21   2.0000      -0.780847       -21.2479
  22   2.0000      -0.705866       -19.2076
  23   2.0000      -0.693511       -18.8714
  24   2.0000      -0.676017       -18.3954
  25   2.0000      -0.628355       -17.0984
  26   2.0000      -0.614980       -16.7345
  27   2.0000      -0.597435       -16.2570
  28   2.0000      -0.586815       -15.9681
  29   2.0000      -0.575726       -15.6663
  30   2.0000      -0.561772       -15.2866
  31   2.0000      -0.550332       -14.9753
  32   2.0000      -0.532423       -14.4880
  33   2.0000      -0.512857       -13.9555
  34   2.0000      -0.510745       -13.8981
  35   2.0000      -0.496775       -13.5179
  36   2.0000      -0.477629       -12.9969
  37   2.0000      -0.461561       -12.5597
  38   2.0000      -0.444818       -12.1041
  39   2.0000      -0.377202       -10.2642
  40   2.0000      -0.318375        -8.6634
  41   2.0000      -0.284336        -7.7372
  42   0.0000       0.024791         0.6746
  43   0.0000       0.026282         0.7152
  44   0.0000       0.026673         0.7258
  45   0.0000       0.036612         0.9963
  46   0.0000       0.036950         1.0055

MULLIKEN ATOMIC CHARGES
-----------------------
   0 C :   -0.435236
   1 C :   -0.498173
   2 C :   -0.278417
   3 C :   -0.507118
   4 C :   -0.629083
   5 C :   -0.774425
   6 C :   -0.957494
   7 C :    0.821408
   8 C :    1.016122
   9 C :    0.660011
  10 C :   -0.998186
  11 C :   -0.260825
  12 H :    0.275563
  13 H :    0.214339
  14 H :    0.251094
  15 H :    0.170286
  16 H :    0.270137
  17 H :    0.191590
  18 H :    0.202920
  19 H :    0.269065
  20 H :    0.343120
  21 H :    0.241949
  22 H :    0.221988
  23 H :    0.189365
Sum of atomic charges:   -0.0000000

LOEWDIN ATOMIC CHARGES
----------------------
   0 C :    0.354832
   1 C :    0.363499
   2 C :    0.366726
   3 C :    0.353995
   4 C :    0.358756
   5 C :    0.356015
   6 C :    0.358366
   7 C :   -0.106033
   8 C :   -0.072955
   9 C :   -0.042020
  10 C :    0.944231
  11 C :    0.489719
  12 H :   -0.323828
  13 H :   -0.322344
  14 H :   -0.321450
  15 H :   -0.322622
  16 H :   -0.351125
  17 H :   -0.322866
  18 H :   -0.320126
  19 H :   -0.291142
  20 H :   -0.275852
  21 H :   -0.277138
  22 H :   -0.299835
  23 H :   -0.296802

  Mayer bond orders larger than 0.100000
B(  0-C ,  1-C ) :   1.1983 B(  0-C ,  3-C ) :   1.3253 B(  0-C ,  7-C ) :  -0.2407
B(  0-C , 12-H ) :   1.1332 B(  1-C ,  3-C ) :   0.1605 B(  1-C ,  4-C ) :   1.2718
B(  1-C ,  8-C ) :  -0.3828 B(  1-C , 13-H ) :   1.1905 B(  2-C ,  5-C ) :   1.3598
B(  2-C ,  6-C ) :   1.2243 B(  2-C ,  7-C ) :  -0.4348 B(  2-C ,  8-C ) :   0.2160
B(  2-C ,  9-C ) :  -0.4332 B(  2-C , 14-H ) :   1.2082 B(  3-C ,  4-C ) :   0.1041
B(  3-C ,  5-C ) :  -0.1576 B(  3-C ,  7-C ) :   0.6794 B(  3-C ,  8-C ) :  -0.4297
B(  3-C , 12-H ) :  -0.2018 B(  3-C , 15-H ) :   1.1473 B(  4-C ,  8-C ) :   0.6894
B(  4-C ,  9-C ) :  -0.1456 B(  4-C , 13-H ) :  -0.1818 B(  4-C , 16-H ) :   1.0013
B(  5-C ,  6-C ) :   0.4993 B(  5-C ,  7-C ) :   0.4560 B(  5-C , 14-H ) :  -0.2633
B(  5-C , 17-H ) :   1.1047 B(  6-C ,  9-C ) :   0.8910 B(  6-C , 11-C ) :  -0.2228
B(  6-C , 14-H ) :  -0.2030 B(  6-C , 18-H ) :   1.0707 B(  7-C ,  8-C ) :   0.7518
B(  7-C ,  9-C ) :  -0.4298 B(  7-C , 15-H ) :  -0.1650 B(  7-C , 17-H ) :  -0.1588
B(  8-C ,  9-C ) :   0.4712 B(  8-C , 11-C ) :  -0.2765 B(  8-C , 16-H ) :  -0.2230
B(  9-C , 11-C ) :   0.7574 B(  9-C , 16-H ) :   0.1753 B( 10-C , 11-C ) :   0.9312
B( 10-C , 19-H ) :   0.9264 B( 10-C , 20-H ) :   0.9207 B( 10-C , 21-H ) :   0.9778
B( 11-C , 22-H ) :   0.9782 B( 11-C , 23-H ) :   1.0137

MP2 TOTAL ENERGY:     -463.654342245 Eh
FINAL SINGLE POINT ENERGY      -463.654342245196

DIPOLE MOMENT
-------------
                                X             Y             Z
Electronic contribution:      6.84440       3.92833      -1.22572
Nuclear contribution   :     -6.97648      -4.01924       1.22192
                        -----------------------------------------
Total Dipole Moment    :     -0.13208      -0.09090      -0.00380
                        -----------------------------------------
Magnitude (a.u.)       :      0.16038
Magnitude (Debye)      :      0.40766

Rotational constants in cm-1:     0.046393     0.030430     0.019280
Rotational constants in MHz :  1390.840568   912.271802   578.004500

                             ****ORCA TERMINATED NORMALLY****
TOTAL RUN TIME: 0 days 3 hours 34 minutes 27 seconds 926 msec
