                         Program Version 5.0.4 -  RELEASE  -
|  1> !ri-mp2 aug-cc-pvqz aug-cc-pvqz/c tightscf
|  2> %pal nprocs 16 end
|  3>
|  4> * xyz 0 1
|  5> Cl    1.561680    1.458583   -0.139280
|  6> S    -0.199332   -0.989403   -0.363561
|  7> O    -3.703891    0.379365   -0.024728
|  8> N    -1.406676   -0.052559    0.379697
|  9> C     1.249977   -0.250731    0.422674
| 10> C    -2.570828    0.137435    0.120568
| 11> C     2.453915   -1.127919    0.131443
| 12> H     1.049046   -0.158737    1.484752
| 13> H     2.308548   -2.119331    0.561143
| 14> H     3.342765   -0.681353    0.571677
| 15> H     2.619862   -1.225756   -0.940992
| 16> *
| 17>
| 18>                          ****END OF INPUT****

CARTESIAN COORDINATES (ANGSTROEM)
---------------------------------
  Cl     1.561680    1.458583   -0.139280
  S     -0.199332   -0.989403   -0.363561
  O     -3.703891    0.379365   -0.024728
  N     -1.406676   -0.052559    0.379697
  C      1.249977   -0.250731    0.422674
  C     -2.570828    0.137435    0.120568
  C      2.453915   -1.127919    0.131443
  H      1.049046   -0.158737    1.484752
  H      2.308548   -2.119331    0.561143
  H      3.342765   -0.681353    0.571677
  H      2.619862   -1.225756   -0.940992

 Total Charge           Charge          ....    0
 Multiplicity           Mult            ....    1
 Number of Electrons    NEL             ....   70
 Basis Dimension        Dim             ....  752

ORBITAL ENERGIES
----------------

  NO   OCC          E(Eh)            E(eV)
   0   2.0000    -104.835224     -2852.7115
   1   2.0000     -92.029267     -2504.2437
   2   2.0000     -20.622659      -561.1711
   3   2.0000     -15.614377      -424.8888
   4   2.0000     -11.416328      -310.6541
   5   2.0000     -11.349721      -308.8416
   6   2.0000     -11.256631      -306.3085
   7   2.0000     -10.560559      -287.3674
   8   2.0000      -9.026271      -245.6173
   9   2.0000      -8.027501      -218.4394
  10   2.0000      -8.025855      -218.3946
  11   2.0000      -8.025811      -218.3934
  12   2.0000      -6.707822      -182.5291
  13   2.0000      -6.706286      -182.4873
  14   2.0000      -6.705165      -182.4568
  15   2.0000      -1.475765       -40.1576
  16   2.0000      -1.290592       -35.1188
  17   2.0000      -1.163020       -31.6474
  18   2.0000      -1.045972       -28.4623
  19   2.0000      -0.991755       -26.9870
  20   2.0000      -0.839258       -22.8374
  21   2.0000      -0.750956       -20.4345
  22   2.0000      -0.710844       -19.3430
  23   2.0000      -0.668661       -18.1952
  24   2.0000      -0.663415       -18.0524
  25   2.0000      -0.642010       -17.4700
  26   2.0000      -0.603078       -16.4106
  27   2.0000      -0.583983       -15.8910
  28   2.0000      -0.551198       -14.9989
  29   2.0000      -0.534826       -14.5534
  30   2.0000      -0.501594       -13.6491
  31   2.0000      -0.466517       -12.6946
  32   2.0000      -0.449541       -12.2326
  33   2.0000      -0.433743       -11.8028
  34   2.0000      -0.362391        -9.8612
  35   0.0000       0.022285         0.6064
  36   0.0000       0.032780         0.8920
  37   0.0000       0.038604         1.0505
  38   0.0000       0.041174         1.1204
  39   0.0000       0.053768         1.4631

MULLIKEN ATOMIC CHARGES
-----------------------
   0 Cl:   -0.355723
   1 S :    0.401047
   2 O :   -0.594372
   3 N :   -0.941372
   4 C :   -0.031825
   5 C :    1.129199
   6 C :   -0.815815
   7 H :    0.355209
   8 H :    0.260363
   9 H :    0.329192
  10 H :    0.264096
Sum of atomic charges:   -0.0000000

LOEWDIN ATOMIC CHARGES
----------------------
   0 Cl:    1.079829
   1 S :    0.985320
   2 O :    0.582637
   3 N :   -0.040027
   4 C :   -0.945594
   5 C :   -0.906814
   6 C :    0.691610
   7 H :   -0.494171
   8 H :   -0.309353
   9 H :   -0.319608
  10 H :   -0.323829

  Mayer bond orders larger than 0.100000
B(  0-Cl,  4-C ) :   0.7054 B(  1-S ,  3-N ) :   0.6773 B(  1-S ,  4-C ) :   0.8973
B(  2-O ,  3-N ) :   0.2485 B(  2-O ,  5-C ) :   1.7276 B(  3-N ,  5-C ) :   2.1482
B(  4-C ,  6-C ) :   0.9017 B(  4-C ,  7-H ) :   0.7957 B(  6-C ,  8-H ) :   0.9152
B(  6-C ,  9-H ) :   0.9246 B(  6-C , 10-H ) :   0.9365

MP2 TOTAL ENERGY:    -1103.793962051 Eh
FINAL SINGLE POINT ENERGY     -1103.793962050971

DIPOLE MOMENT
-------------
                                X             Y             Z
Electronic contribution:     -5.71534       5.06924      -1.53578
Nuclear contribution   :      6.71305      -5.95838       1.80489
                        -----------------------------------------
Total Dipole Moment    :      0.99771      -0.88914       0.26912
                        -----------------------------------------
Magnitude (a.u.)       :      1.36324
Magnitude (Debye)      :      3.46507

Rotational constants in cm-1:     0.116761     0.031020     0.025487
Rotational constants in MHz :  3500.410710   929.966642   764.092185

                             ****ORCA TERMINATED NORMALLY****
TOTAL RUN TIME: 0 days 0 hours 13 minutes 37 seconds 253 msec
