                         Program Version 5.0.4 -  RELEASE  -
|  1> !ri-mp2 aug-cc-pvqz aug-cc-pvqz/c tightscf
|  2> %pal nprocs 16 end
|  3>
|  4> * xyz 0 1
|  5> C     -3.998201   -0.032014    0.092137
|  6> C     -2.629647    0.130528   -0.566038
|  7> C     -1.467215   -0.100900    0.400376
|  8> C     -0.099316    0.063086   -0.264256
|  9> C      1.038289   -0.173687    0.725014
| 10> N      2.364390   -0.001301    0.031077
| 11> O      2.905108   -1.004150   -0.406070
| 12> O      2.792402    1.136336   -0.078101
| 13> H     -4.802943    0.140790   -0.623098
| 14> H     -4.125783   -1.037723    0.497305
| 15> H     -4.128535    0.674598    0.914043
| 16> H     -2.547318    1.133724   -0.993858
| 17> H     -2.543271   -0.565696   -1.405148
| 18> H     -1.548032   -1.105658    0.827165
| 19> H     -1.550790    0.596612    1.239848
| 20> H     -0.003675    1.068374   -0.678690
| 21> H     -0.002303   -0.642032   -1.092626
| 22> H      1.032650   -1.187298    1.115133
| 23> H      1.025724    0.553854    1.532353
| 24> *
| 25>
| 26>                          ****END OF INPUT****

CARTESIAN COORDINATES (ANGSTROEM)
---------------------------------
  C     -3.998201   -0.032014    0.092137
  C     -2.629647    0.130528   -0.566038
  C     -1.467215   -0.100900    0.400376
  C     -0.099316    0.063086   -0.264256
  C      1.038289   -0.173687    0.725014
  N      2.364390   -0.001301    0.031077
  O      2.905108   -1.004150   -0.406070
  O      2.792402    1.136336   -0.078101
  H     -4.802943    0.140790   -0.623098
  H     -4.125783   -1.037723    0.497305
  H     -4.128535    0.674598    0.914043
  H     -2.547318    1.133724   -0.993858
  H     -2.543271   -0.565696   -1.405148
  H     -1.548032   -1.105658    0.827165
  H     -1.550790    0.596612    1.239848
  H     -0.003675    1.068374   -0.678690
  H     -0.002303   -0.642032   -1.092626
  H      1.032650   -1.187298    1.115133
  H      1.025724    0.553854    1.532353

 Total Charge           Charge          ....    0
 Multiplicity           Mult            ....    1
 Number of Electrons    NEL             ....   64
 Basis Dimension        Dim             .... 1146

ORBITAL ENERGIES
----------------

  NO   OCC          E(Eh)            E(eV)
   0   2.0000     -20.599351      -560.5368
   1   2.0000     -20.598319      -560.5088
   2   2.0000     -15.841438      -431.0674
   3   2.0000     -11.304901      -307.6220
   4   2.0000     -11.253793      -306.2313
   5   2.0000     -11.242245      -305.9170
   6   2.0000     -11.234176      -305.6975
   7   2.0000     -11.223190      -305.3985
   8   2.0000      -1.602313       -43.6012
   9   2.0000      -1.397452       -38.0266
  10   2.0000      -1.134199       -30.8631
  11   2.0000      -1.075579       -29.2680
  12   2.0000      -0.993170       -27.0255
  13   2.0000      -0.892713       -24.2919
  14   2.0000      -0.836484       -22.7619
  15   2.0000      -0.814958       -22.1761
  16   2.0000      -0.747380       -20.3372
  17   2.0000      -0.733196       -19.9513
  18   2.0000      -0.710617       -19.3369
  19   2.0000      -0.679789       -18.4980
  20   2.0000      -0.631306       -17.1787
  21   2.0000      -0.600696       -16.3458
  22   2.0000      -0.585525       -15.9329
  23   2.0000      -0.568692       -15.4749
  24   2.0000      -0.535948       -14.5839
  25   2.0000      -0.514881       -14.0106
  26   2.0000      -0.505510       -13.7556
  27   2.0000      -0.490398       -13.3444
  28   2.0000      -0.489624       -13.3233
  29   2.0000      -0.485021       -13.1981
  30   2.0000      -0.468602       -12.7513
  31   2.0000      -0.451073       -12.2743
  32   0.0000       0.020892         0.5685
  33   0.0000       0.026557         0.7226
  34   0.0000       0.029993         0.8162
  35   0.0000       0.034100         0.9279
  36   0.0000       0.044557         1.2125

MULLIKEN ATOMIC CHARGES
-----------------------
   0 C :   -0.891114
   1 C :   -0.487393
   2 C :   -0.228413
   3 C :   -0.449264
   4 C :   -0.456409
   5 N :    0.814301
   6 O :   -0.630416
   7 O :   -0.625394
   8 H :    0.264591
   9 H :    0.226401
  10 H :    0.226431
  11 H :    0.230061
  12 H :    0.229714
  13 H :    0.239851
  14 H :    0.241750
  15 H :    0.293363
  16 H :    0.298448
  17 H :    0.370698
  18 H :    0.332795
Sum of atomic charges:    0.0000000

LOEWDIN ATOMIC CHARGES
----------------------
   0 C :    0.931902
   1 C :    0.514419
   2 C :    0.514632
   3 C :    0.515263
   4 C :    0.338637
   5 N :   -0.835610
   6 O :    0.541327
   7 O :    0.541378
   8 H :   -0.282486
   9 H :   -0.283264
  10 H :   -0.283341
  11 H :   -0.270535
  12 H :   -0.270634
  13 H :   -0.265688
  14 H :   -0.265612
  15 H :   -0.271707
  16 H :   -0.266770
  17 H :   -0.304838
  18 H :   -0.297074

  Mayer bond orders larger than 0.100000
B(  0-C ,  1-C ) :   1.0195 B(  0-C ,  2-C ) :  -0.1030 B(  0-C ,  8-H ) :   1.0237
B(  0-C ,  9-H ) :   0.9547 B(  0-C , 10-H ) :   0.9551 B(  1-C ,  2-C ) :   0.9229
B(  1-C , 11-H ) :   0.8841 B(  1-C , 12-H ) :   0.8848 B(  2-C ,  3-C ) :   0.9302
B(  2-C , 13-H ) :   0.8710 B(  2-C , 14-H ) :   0.8710 B(  3-C ,  4-C ) :   1.1247
B(  3-C , 15-H ) :   0.8334 B(  3-C , 16-H ) :   0.8383 B(  4-C ,  5-N ) :   1.0629
B(  4-C , 17-H ) :   0.8019 B(  4-C , 18-H ) :   0.8391 B(  5-N ,  6-O ) :   1.1918
B(  5-N ,  7-O ) :   1.2007 B(  6-O ,  7-O ) :   0.1364

MP2 TOTAL ENERGY:     -401.660574580 Eh
FINAL SINGLE POINT ENERGY      -401.660574579938

DIPOLE MOMENT
-------------
                                X             Y             Z
Electronic contribution:     17.85605       0.22315      -0.73121
Nuclear contribution   :    -19.58740      -0.37797       1.35946
                        -----------------------------------------
Total Dipole Moment    :     -1.73135      -0.15482       0.62825
                        -----------------------------------------
Magnitude (a.u.)       :      1.84831
Magnitude (Debye)      :      4.69802

Rotational constants in cm-1:     0.229801     0.022348     0.021828
Rotational constants in MHz :  6889.261237   669.976038   654.388206

                             ****ORCA TERMINATED NORMALLY****
TOTAL RUN TIME: 0 days 0 hours 47 minutes 58 seconds 380 msec
