                         Program Version 5.0.4 -  RELEASE  -
|  1> !ri-mp2 aug-cc-pvqz aug-cc-pvqz/c tightscf
|  2> %pal nprocs 16 end
|  3>
|  4> * xyz 0 1
|  5> C     0.425915     0.627157    0.000000
|  6> C    -0.425915    -0.627157    0.000000
|  7> F    -0.425915     1.731378    0.000000
|  8> F     0.425915    -1.731378    0.000000
|  9> H     1.051850     0.677105    0.891207
| 10> H     1.051850     0.677105   -0.891207
| 11> H    -1.051850    -0.677105    0.891207
| 12> H    -1.051850    -0.677105   -0.891207
| 13> *
| 14>
| 15>                          ****END OF INPUT****

CARTESIAN COORDINATES (ANGSTROEM)
---------------------------------
  C      0.425915    0.627157    0.000000
  C     -0.425915   -0.627157    0.000000
  F     -0.425915    1.731378    0.000000
  F      0.425915   -1.731378    0.000000
  H      1.051850    0.677105    0.891207
  H      1.051850    0.677105   -0.891207
  H     -1.051850   -0.677105    0.891207
  H     -1.051850   -0.677105   -0.891207

 Total Charge           Charge          ....    0
 Multiplicity           Mult            ....    1
 Number of Electrons    NEL             ....   34
 Basis Dimension        Dim             ....  504

ORBITAL ENERGIES
----------------

  NO   OCC          E(Eh)            E(eV)
   0   2.0000     -26.290351      -715.3968
   1   2.0000     -26.290349      -715.3968
   2   2.0000     -11.323900      -308.1390
   3   2.0000     -11.323242      -308.1211
   4   2.0000      -1.602259       -43.5997
   5   2.0000      -1.596834       -43.4521
   6   2.0000      -1.044490       -28.4220
   7   2.0000      -0.886685       -24.1279
   8   2.0000      -0.739814       -20.1314
   9   2.0000      -0.724280       -19.7087
  10   2.0000      -0.712507       -19.3883
  11   2.0000      -0.688909       -18.7462
  12   2.0000      -0.662253       -18.0208
  13   2.0000      -0.628507       -17.1026
  14   2.0000      -0.569922       -15.5084
  15   2.0000      -0.517036       -14.0693
  16   2.0000      -0.514785       -14.0080
  17   0.0000       0.028671         0.7802
  18   0.0000       0.034945         0.9509
  19   0.0000       0.035551         0.9674
  20   0.0000       0.057819         1.5733
  21   0.0000       0.060834         1.6554

MULLIKEN ATOMIC CHARGES
-----------------------
   0 C :    0.047100
   1 C :    0.047100
   2 F :   -0.684154
   3 F :   -0.684154
   4 H :    0.318527
   5 H :    0.318527
   6 H :    0.318527
   7 H :    0.318527
Sum of atomic charges:   -0.0000000

LOEWDIN ATOMIC CHARGES
----------------------
   0 C :   -0.063523
   1 C :   -0.063523
   2 F :    0.751188
   3 F :    0.751188
   4 H :   -0.343833
   5 H :   -0.343833
   6 H :   -0.343833
   7 H :   -0.343833

  Mayer bond orders larger than 0.100000
B(  0-C ,  1-C ) :   1.0859 B(  0-C ,  2-F ) :   0.4640 B(  0-C ,  4-H ) :   0.8563
B(  0-C ,  5-H ) :   0.8563 B(  1-C ,  3-F ) :   0.4640 B(  1-C ,  6-H ) :   0.8563
B(  1-C ,  7-H ) :   0.8563

MP2 TOTAL ENERGY:     -277.979651339 Eh
FINAL SINGLE POINT ENERGY      -277.979651338747

DIPOLE MOMENT
-------------
                                X             Y             Z
Electronic contribution:      0.00000       0.00000       0.00000
Nuclear contribution   :      0.00000       0.00000       0.00000
                        -----------------------------------------
Total Dipole Moment    :      0.00000       0.00000       0.00000
                        -----------------------------------------
Magnitude (a.u.)       :      0.00000
Magnitude (Debye)      :      0.00000

Rotational constants in cm-1:     1.067082     0.128181     0.119636
Rotational constants in MHz : 31990.324751  3842.760873  3586.598502

                             ****ORCA TERMINATED NORMALLY****
TOTAL RUN TIME: 0 days 0 hours 5 minutes 8 seconds 724 msec
