                         Program Version 5.0.4 -  RELEASE  -
|  1> !ri-mp2 aug-cc-pvqz aug-cc-pvqz/c tightscf
|  2> %pal nprocs 16 end
|  3>
|  4> * xyz 0 1
|  5> C      0.965471    1.453203    0.000000
|  6> C     -0.209585    0.507329    0.000000
|  7> Cl    -0.209585   -0.525034    1.479700
|  8> Cl    -0.209585   -0.525034   -1.479700
|  9> H      1.903270    0.901560    0.000000
| 10> H      0.925876    2.084439   -0.887319
| 11> H      0.925876    2.084439    0.887319
| 12> H     -1.164450    1.017543    0.000000
| 13> *
| 14>
| 15>                          ****END OF INPUT****

CARTESIAN COORDINATES (ANGSTROEM)
---------------------------------
  C      0.965471    1.453203    0.000000
  C     -0.209585    0.507329    0.000000
  Cl    -0.209585   -0.525034    1.479700
  Cl    -0.209585   -0.525034   -1.479700
  H      1.903270    0.901560    0.000000
  H      0.925876    2.084439   -0.887319
  H      0.925876    2.084439    0.887319
  H     -1.164450    1.017543    0.000000

 Total Charge           Charge          ....    0
 Multiplicity           Mult            ....    1
 Number of Electrons    NEL             ....   50
 Basis Dimension        Dim             ....  512

ORBITAL ENERGIES
----------------

  NO   OCC          E(Eh)            E(eV)
   0   2.0000    -104.840894     -2852.8658
   1   2.0000    -104.840893     -2852.8657
   2   2.0000     -11.371359      -309.4304
   3   2.0000     -11.249866      -306.1244
   4   2.0000     -10.566346      -287.5249
   5   2.0000     -10.566338      -287.5247
   6   2.0000      -8.033320      -218.5977
   7   2.0000      -8.033318      -218.5977
   8   2.0000      -8.031618      -218.5514
   9   2.0000      -8.031618      -218.5514
  10   2.0000      -8.031556      -218.5498
  11   2.0000      -8.031555      -218.5497
  12   2.0000      -1.190361       -32.3914
  13   2.0000      -1.086957       -29.5776
  14   2.0000      -1.010187       -27.4886
  15   2.0000      -0.836406       -22.7598
  16   2.0000      -0.664126       -18.0718
  17   2.0000      -0.627933       -17.0869
  18   2.0000      -0.597779       -16.2664
  19   2.0000      -0.549994       -14.9661
  20   2.0000      -0.533059       -14.5053
  21   2.0000      -0.466335       -12.6896
  22   2.0000      -0.464601       -12.6424
  23   2.0000      -0.444462       -12.0944
  24   2.0000      -0.439984       -11.9726
  25   0.0000       0.025501         0.6939
  26   0.0000       0.035197         0.9578
  27   0.0000       0.041285         1.1234
  28   0.0000       0.047036         1.2799
  29   0.0000       0.064820         1.7638

MULLIKEN ATOMIC CHARGES
-----------------------
   0 C :   -0.735145
   1 C :    0.020296
   2 Cl:   -0.270181
   3 Cl:   -0.270181
   4 H :    0.278506
   5 H :    0.287823
   6 H :    0.287823
   7 H :    0.401060
Sum of atomic charges:    0.0000000

LOEWDIN ATOMIC CHARGES
----------------------
   0 C :    0.667437
   1 C :   -1.257828
   2 Cl:    1.057183
   3 Cl:    1.057183
   4 H :   -0.339434
   5 H :   -0.322361
   6 H :   -0.322361
   7 H :   -0.539819

  Mayer bond orders larger than 0.100000
B(  0-C ,  1-C ) :   0.9941 B(  0-C ,  4-H ) :   0.9215 B(  0-C ,  5-H ) :   0.9068
B(  0-C ,  6-H ) :   0.9068 B(  1-C ,  2-Cl) :   0.8246 B(  1-C ,  3-Cl) :   0.8246
B(  1-C ,  7-H ) :   0.7586

MP2 TOTAL ENERGY:     -997.941303309 Eh
FINAL SINGLE POINT ENERGY      -997.941303308913

DIPOLE MOMENT
-------------
                                X             Y             Z
Electronic contribution:     -2.91048      -6.29301       0.00000
Nuclear contribution   :      3.02725       7.20244       0.00000
                        -----------------------------------------
Total Dipole Moment    :      0.11678       0.90943       0.00000
                        -----------------------------------------
Magnitude (a.u.)       :      0.91690
Magnitude (Debye)      :      2.33057

Rotational constants in cm-1:     0.211959     0.103087     0.073397
Rotational constants in MHz :  6354.384470  3090.463563  2200.389028

                             ****ORCA TERMINATED NORMALLY****
TOTAL RUN TIME: 0 days 0 hours 4 minutes 54 seconds 710 msec
