                         Program Version 5.0.4 -  RELEASE  -
|  1> !ri-mp2 aug-cc-pvqz aug-cc-pvqz/c tightscf
|  2> %pal nprocs 16 end
|  3>
|  4> * xyz 0 1
|  5> Cl     1.271311   -0.098836        0.000000
|  6> F     -0.891537    1.237652        0.000000
|  7> C     -0.455870   -0.024081        0.000000
|  8> C     -1.271818   -1.059179        0.000002
|  9> H     -0.883625   -2.063137        0.000003
| 10> H     -2.338704   -0.895953        0.000003
| 11> *
| 12>
| 13>                          ****END OF INPUT****

CARTESIAN COORDINATES (ANGSTROEM)
---------------------------------
  Cl     1.271311   -0.098836    0.000000
  F     -0.891537    1.237652    0.000000
  C     -0.455870   -0.024081    0.000000
  C     -1.271818   -1.059179    0.000002
  H     -0.883625   -2.063137    0.000003
  H     -2.338704   -0.895953    0.000003

 Total Charge           Charge          ....    0
 Multiplicity           Mult            ....    1
 Number of Electrons    NEL             ....   40
 Basis Dimension        Dim             ....  416

ORBITAL ENERGIES
----------------

  NO   OCC          E(Eh)            E(eV)
   0   2.0000    -104.864896     -2853.5189
   1   2.0000     -26.334951      -716.6104
   2   2.0000     -11.396879      -310.1248
   3   2.0000     -11.251106      -306.1582
   4   2.0000     -10.590142      -288.1724
   5   2.0000      -8.057290      -219.2500
   6   2.0000      -8.055425      -219.1993
   7   2.0000      -8.055351      -219.1972
   8   2.0000      -1.657986       -45.1161
   9   2.0000      -1.173363       -31.9288
  10   2.0000      -1.042104       -28.3571
  11   2.0000      -0.839636       -22.8476
  12   2.0000      -0.736878       -20.0515
  13   2.0000      -0.723168       -19.6784
  14   2.0000      -0.707115       -19.2416
  15   2.0000      -0.609681       -16.5903
  16   2.0000      -0.570998       -15.5376
  17   2.0000      -0.520095       -14.1525
  18   2.0000      -0.484313       -13.1788
  19   2.0000      -0.384534       -10.4637
  20   0.0000       0.026644         0.7250
  21   0.0000       0.039205         1.0668
  22   0.0000       0.052160         1.4193
  23   0.0000       0.069496         1.8911
  24   0.0000       0.070865         1.9283

MULLIKEN ATOMIC CHARGES
-----------------------
   0 Cl:   -0.042433
   1 F :   -0.531401
   2 C :    0.585009
   3 C :   -0.826870
   4 H :    0.404307
   5 H :    0.411388
Sum of atomic charges:   -0.0000000

LOEWDIN ATOMIC CHARGES
----------------------
   0 Cl:    1.093954
   1 F :    0.654689
   2 C :   -1.499536
   3 C :    0.562301
   4 H :   -0.417188
   5 H :   -0.394221

  Mayer bond orders larger than 0.100000
B(  0-Cl,  2-C ) :   0.9552 B(  1-F ,  2-C ) :   0.5711 B(  2-C ,  3-C ) :   1.7405
B(  3-C ,  4-H ) :   0.8829 B(  3-C ,  5-H ) :   0.8030

MP2 TOTAL ENERGY:     -636.733775163 Eh
FINAL SINGLE POINT ENERGY      -636.733775163474

DIPOLE MOMENT
-------------
                                X             Y             Z
Electronic contribution:      3.59810       3.20156      -0.00000
Nuclear contribution   :     -3.88328      -3.77064       0.00001
                        -----------------------------------------
Total Dipole Moment    :     -0.28518      -0.56908       0.00000
                        -----------------------------------------
Magnitude (a.u.)       :      0.63654
Magnitude (Debye)      :      1.61795

Rotational constants in cm-1:     0.356497     0.166984     0.113718
Rotational constants in MHz : 10687.497355  5006.043691  3409.178244

                             ****ORCA TERMINATED NORMALLY****
TOTAL RUN TIME: 0 days 0 hours 2 minutes 28 seconds 107 msec
