                         Program Version 5.0.4 -  RELEASE  -
|  1> !ri-mp2 aug-cc-pvqz aug-cc-pvqz/c tightscf
|  2> %pal nprocs 16 end
|  3>
|  4> * xyz 0 1
|  5> Cl     2.615902   -0.172641   -0.000080
|  6> O     -0.165508   -1.237912    0.000142
|  7> N     -2.509366    0.187022   -0.000312
|  8> N     -3.469270   -0.391475   -0.000476
|  9> C     -0.149899   -0.026948    0.000164
| 10> C     -1.350968    0.797979   -0.000120
| 11> C      1.130742    0.811941    0.000604
| 12> H     -1.378265    1.874748   -0.000193
| 13> H      1.151566    1.448971   -0.881951
| 14> H      1.151625    1.447808    0.884002
| 15> *
| 16>
| 17>                          ****END OF INPUT****

CARTESIAN COORDINATES (ANGSTROEM)
---------------------------------
  Cl     2.615902   -0.172641   -0.000080
  O     -0.165508   -1.237912    0.000142
  N     -2.509366    0.187022   -0.000312
  N     -3.469270   -0.391475   -0.000476
  C     -0.149899   -0.026948    0.000164
  C     -1.350968    0.797979   -0.000120
  C      1.130742    0.811941    0.000604
  H     -1.378265    1.874748   -0.000193
  H      1.151566    1.448971   -0.881951
  H      1.151625    1.447808    0.884002

 Total Charge           Charge          ....    0
 Multiplicity           Mult            ....    1
 Number of Electrons    NEL             ....   60
 Basis Dimension        Dim             ....  702

ORBITAL ENERGIES
----------------

  NO   OCC          E(Eh)            E(eV)
   0   2.0000    -104.832326     -2852.6326
   1   2.0000     -20.550546      -559.2088
   2   2.0000     -15.776943      -429.3124
   3   2.0000     -15.712604      -427.5617
   4   2.0000     -11.359758      -309.1147
   5   2.0000     -11.315133      -307.9004
   6   2.0000     -11.292713      -307.2904
   7   2.0000     -10.557461      -287.2831
   8   2.0000      -8.024582      -218.3600
   9   2.0000      -8.022768      -218.3106
  10   2.0000      -8.022756      -218.3103
  11   2.0000      -1.513702       -41.1899
  12   2.0000      -1.400416       -38.1073
  13   2.0000      -1.168416       -31.7942
  14   2.0000      -1.142615       -31.0921
  15   2.0000      -0.991300       -26.9746
  16   2.0000      -0.844801       -22.9882
  17   2.0000      -0.758022       -20.6268
  18   2.0000      -0.720676       -19.6106
  19   2.0000      -0.707302       -19.2467
  20   2.0000      -0.699041       -19.0219
  21   2.0000      -0.655660       -17.8414
  22   2.0000      -0.640668       -17.4335
  23   2.0000      -0.601885       -16.3781
  24   2.0000      -0.554886       -15.0992
  25   2.0000      -0.535851       -14.5813
  26   2.0000      -0.455724       -12.4009
  27   2.0000      -0.444151       -12.0860
  28   2.0000      -0.434406       -11.8208
  29   2.0000      -0.362180        -9.8554
  30   0.0000       0.016919         0.4604
  31   0.0000       0.035146         0.9564
  32   0.0000       0.035446         0.9645
  33   0.0000       0.051621         1.4047
  34   0.0000       0.065577         1.7844

MULLIKEN ATOMIC CHARGES
-----------------------
   0 Cl:   -0.268551
   1 O :   -0.684253
   2 N :    0.053149
   3 N :   -0.228285
   4 C :    0.647212
   5 C :   -0.176048
   6 C :   -0.382145
   7 H :    0.443894
   8 H :    0.297455
   9 H :    0.297571
Sum of atomic charges:   -0.0000000

LOEWDIN ATOMIC CHARGES
----------------------
   0 Cl:    1.143904
   1 O :    0.654685
   2 N :    0.049914
   3 N :    0.454847
   4 C :   -0.885279
   5 C :    0.045085
   6 C :   -0.235103
   7 H :   -0.394026
   8 H :   -0.417035
   9 H :   -0.416991

  Mayer bond orders larger than 0.100000
B(  0-Cl,  4-C ) :  -0.1240 B(  0-Cl,  6-C ) :   0.9347 B(  1-O ,  4-C ) :   1.2693
B(  1-O ,  5-C ) :   0.1905 B(  2-N ,  3-N ) :   2.1917 B(  2-N ,  5-C ) :   1.1497
B(  4-C ,  5-C ) :   1.0027 B(  4-C ,  6-C ) :   1.0029 B(  5-C ,  7-H ) :   0.7769
B(  6-C ,  8-H ) :   0.8625 B(  6-C ,  9-H ) :   0.8624

MP2 TOTAL ENERGY:     -760.088073719 Eh
FINAL SINGLE POINT ENERGY      -760.088073718655

DIPOLE MOMENT
-------------
                                X             Y             Z
Electronic contribution:      1.92201      -2.96363      -0.00158
Nuclear contribution   :     -2.71458       4.75160       0.00187
                        -----------------------------------------
Total Dipole Moment    :     -0.79257       1.78798       0.00029
                        -----------------------------------------
Magnitude (a.u.)       :      1.95577
Magnitude (Debye)      :      4.97117

Rotational constants in cm-1:     0.318562     0.031018     0.028416
Rotational constants in MHz :  9550.234795   929.909184   851.888089

                             ****ORCA TERMINATED NORMALLY****
TOTAL RUN TIME: 0 days 0 hours 13 minutes 34 seconds 774 msec
