                         Program Version 5.0.4 -  RELEASE  -
|  1> !ri-mp2 aug-cc-pvqz aug-cc-pvqz/c tightscf
|  2> %pal nprocs 16 end
|  3>
|  4> * xyz 0 1
|  5> S     -1.333869   -0.074841   -0.191279
|  6> O     -0.280808   -1.189269    0.481817
|  7> N      1.033450   -1.218918   -0.164297
|  8> C     -0.367982    1.345481    0.076452
|  9> C      1.577197   -0.062059   -0.172578
| 10> C      0.965100    1.208069    0.174489
| 11> H     -0.880250    2.298065    0.110510
| 12> H      2.586562   -0.065980   -0.571412
| 13> H      1.602013    2.063015    0.346729
| 14> *
| 15>
| 16>                          ****END OF INPUT****

CARTESIAN COORDINATES (ANGSTROEM)
---------------------------------
  S     -1.333869   -0.074841   -0.191279
  O     -0.280808   -1.189269    0.481817
  N      1.033450   -1.218918   -0.164297
  C     -0.367982    1.345481    0.076452
  C      1.577197   -0.062059   -0.172578
  C      0.965100    1.208069    0.174489
  H     -0.880250    2.298065    0.110510
  H      2.586562   -0.065980   -0.571412
  H      1.602013    2.063015    0.346729

 Total Charge           Charge          ....    0
 Multiplicity           Mult            ....    1
 Number of Electrons    NEL             ....   52
 Basis Dimension        Dim             ....  622

ORBITAL ENERGIES
----------------

  NO   OCC          E(Eh)            E(eV)
   0   2.0000     -92.025935     -2504.1530
   1   2.0000     -20.620901      -561.1232
   2   2.0000     -15.637445      -425.5165
   3   2.0000     -11.303721      -307.5899
   4   2.0000     -11.303270      -307.5776
   5   2.0000     -11.264724      -306.5287
   6   2.0000      -9.022007      -245.5013
   7   2.0000      -6.703348      -182.4074
   8   2.0000      -6.702148      -182.3747
   9   2.0000      -6.701092      -182.3460
  10   2.0000      -1.421334       -38.6765
  11   2.0000      -1.188282       -32.3348
  12   2.0000      -1.119395       -30.4603
  13   2.0000      -0.948079       -25.7985
  14   2.0000      -0.882761       -24.0211
  15   2.0000      -0.738856       -20.1053
  16   2.0000      -0.697257       -18.9733
  17   2.0000      -0.686554       -18.6821
  18   2.0000      -0.634188       -17.2571
  19   2.0000      -0.606019       -16.4906
  20   2.0000      -0.561014       -15.2660
  21   2.0000      -0.499413       -13.5897
  22   2.0000      -0.492779       -13.4092
  23   2.0000      -0.455796       -12.4028
  24   2.0000      -0.422268       -11.4905
  25   2.0000      -0.335335        -9.1249
  26   0.0000       0.019772         0.5380
  27   0.0000       0.027828         0.7572
  28   0.0000       0.036688         0.9983
  29   0.0000       0.050355         1.3702
  30   0.0000       0.058705         1.5974

MULLIKEN ATOMIC CHARGES
-----------------------
   0 S :    0.475074
   1 O :   -0.677079
   2 N :   -0.209923
   3 C :   -0.436838
   4 C :   -0.142065
   5 C :   -0.454092
   6 H :    0.437127
   7 H :    0.555597
   8 H :    0.452200
Sum of atomic charges:   -0.0000000

LOEWDIN ATOMIC CHARGES
----------------------
   0 S :    0.910333
   1 O :    0.044268
   2 N :    0.195295
   3 C :   -0.112929
   4 C :   -0.081996
   5 C :    0.200092
   6 H :   -0.412525
   7 H :   -0.386315
   8 H :   -0.356223

  Mayer bond orders larger than 0.100000
B(  0-S ,  1-O ) :   0.8377 B(  0-S ,  3-C ) :   0.9340 B(  1-O ,  2-N ) :   0.7103
B(  2-N ,  4-C ) :   1.6879 B(  3-C ,  5-C ) :   1.6612 B(  3-C ,  6-H ) :   0.8133
B(  4-C ,  5-C ) :   1.0636 B(  4-C ,  7-H ) :   0.6940 B(  5-C ,  8-H ) :   0.7960

MP2 TOTAL ENERGY:     -643.352096908 Eh
FINAL SINGLE POINT ENERGY      -643.352096908195

DIPOLE MOMENT
-------------
                                X             Y             Z
Electronic contribution:     -2.91705      -2.52804      -0.07160
Nuclear contribution   :      3.23636       4.12522      -0.09816
                        -----------------------------------------
Total Dipole Moment    :      0.31931       1.59718      -0.16976
                        -----------------------------------------
Magnitude (a.u.)       :      1.63761
Magnitude (Debye)      :      4.16247

Rotational constants in cm-1:     0.170548     0.127215     0.077203
Rotational constants in MHz :  5112.897618  3813.810453  2314.493286

                             ****ORCA TERMINATED NORMALLY****
TOTAL RUN TIME: 0 days 0 hours 10 minutes 43 seconds 728 msec
