                         Program Version 5.0.4 -  RELEASE  -
|  1> !ri-mp2 aug-cc-pvqz aug-cc-pvqz/c tightscf
|  2> %pal nprocs 16 end
|  3>
|  4> * xyz 0 1
|  5> C      0.000000    0.000000    0.731800
|  6> C      0.000000    1.274009   -0.097804
|  7> C      0.000000   -1.274009   -0.097804
|  8> Cl     0.132799    2.700697    0.986148
|  9> Cl    -1.483724    1.397852   -1.115518
| 10> Cl     1.483724   -1.397852   -1.115518
| 11> Cl    -0.132799   -2.700697    0.986148
| 12> H     -0.881449   -0.008441    1.372394
| 13> H      0.881449    0.008441    1.372394
| 14> H      0.836615    1.328750   -0.781690
| 15> H     -0.836615   -1.328750   -0.781690
| 16> *
| 17>
| 18>                          ****END OF INPUT****

CARTESIAN COORDINATES (ANGSTROEM)
---------------------------------
  C      0.000000    0.000000    0.731800
  C      0.000000    1.274009   -0.097804
  C      0.000000   -1.274009   -0.097804
  Cl     0.132799    2.700697    0.986148
  Cl    -1.483724    1.397852   -1.115518
  Cl     1.483724   -1.397852   -1.115518
  Cl    -0.132799   -2.700697    0.986148
  H     -0.881449   -0.008441    1.372394
  H      0.881449    0.008441    1.372394
  H      0.836615    1.328750   -0.781690
  H     -0.836615   -1.328750   -0.781690

 Total Charge           Charge          ....    0
 Multiplicity           Mult            ....    1
 Number of Electrons    NEL             ....   90
 Basis Dimension        Dim             ....  760

ORBITAL ENERGIES
----------------

  NO   OCC          E(Eh)            E(eV)
   0   2.0000    -104.856198     -2853.2822
   1   2.0000    -104.856198     -2853.2822
   2   2.0000    -104.855600     -2853.2659
   3   2.0000    -104.855600     -2853.2659
   4   2.0000     -11.385371      -309.8117
   5   2.0000     -11.385366      -309.8116
   6   2.0000     -11.285863      -307.1040
   7   2.0000     -10.581694      -287.9425
   8   2.0000     -10.581694      -287.9425
   9   2.0000     -10.580957      -287.9225
  10   2.0000     -10.580957      -287.9225
  11   2.0000      -8.048665      -219.0153
  12   2.0000      -8.048665      -219.0153
  13   2.0000      -8.047953      -218.9959
  14   2.0000      -8.047953      -218.9959
  15   2.0000      -8.046960      -218.9689
  16   2.0000      -8.046960      -218.9689
  17   2.0000      -8.046884      -218.9668
  18   2.0000      -8.046884      -218.9668
  19   2.0000      -8.046185      -218.9478
  20   2.0000      -8.046185      -218.9478
  21   2.0000      -8.046118      -218.9460
  22   2.0000      -8.046118      -218.9460
  23   2.0000      -1.225364       -33.3438
  24   2.0000      -1.190151       -32.3857
  25   2.0000      -1.103400       -30.0250
  26   2.0000      -1.101820       -29.9820
  27   2.0000      -1.042989       -28.3812
  28   2.0000      -0.894517       -24.3411
  29   2.0000      -0.832982       -22.6666
  30   2.0000      -0.709456       -19.3053
  31   2.0000      -0.646453       -17.5909
  32   2.0000      -0.646024       -17.5792
  33   2.0000      -0.629045       -17.1172
  34   2.0000      -0.574015       -15.6197
  35   2.0000      -0.563947       -15.3458
  36   2.0000      -0.545663       -14.8482
  37   2.0000      -0.491711       -13.3801
  38   2.0000      -0.486442       -13.2368
  39   2.0000      -0.477803       -13.0017
  40   2.0000      -0.476738       -12.9727
  41   2.0000      -0.463416       -12.6102
  42   2.0000      -0.454933       -12.3794
  43   2.0000      -0.453618       -12.3436
  44   2.0000      -0.448623       -12.2077
  45   0.0000       0.031553         0.8586
  46   0.0000       0.035880         0.9763
  47   0.0000       0.037194         1.0121
  48   0.0000       0.045783         1.2458
  49   0.0000       0.056460         1.5364

MULLIKEN ATOMIC CHARGES
-----------------------
   0 C :   -0.324590
   1 C :    0.046147
   2 C :    0.046147
   3 Cl:   -0.326022
   4 Cl:   -0.338638
   5 Cl:   -0.338638
   6 Cl:   -0.326022
   7 H :    0.392620
   8 H :    0.392620
   9 H :    0.388188
  10 H :    0.388188
Sum of atomic charges:   -0.0000000

LOEWDIN ATOMIC CHARGES
----------------------
   0 C :    0.008622
   1 C :   -1.277183
   2 C :   -1.277183
   3 Cl:    1.107923
   4 Cl:    1.110123
   5 Cl:    1.110123
   6 Cl:    1.107923
   7 H :   -0.373546
   8 H :   -0.373546
   9 H :   -0.571627
  10 H :   -0.571627

  Mayer bond orders larger than 0.100000
B(  0-C ,  1-C ) :   0.9515 B(  0-C ,  2-C ) :   0.9515 B(  0-C ,  7-H ) :   0.7949
B(  0-C ,  8-H ) :   0.7949 B(  1-C ,  3-Cl) :   0.7891 B(  1-C ,  4-Cl) :   0.7488
B(  1-C ,  9-H ) :   0.7725 B(  2-C ,  5-Cl) :   0.7488 B(  2-C ,  6-Cl) :   0.7891
B(  2-C , 10-H ) :   0.7725

MP2 TOTAL ENERGY:    -1955.457700552 Eh
FINAL SINGLE POINT ENERGY     -1955.457700551863

DIPOLE MOMENT
-------------
                                X             Y             Z
Electronic contribution:      0.00000      -0.00000      -1.38084
Nuclear contribution   :     -0.00000       0.00000       1.44195
                        -----------------------------------------
Total Dipole Moment    :      0.00000      -0.00000       0.06111
                        -----------------------------------------
Magnitude (a.u.)       :      0.06111
Magnitude (Debye)      :      0.15533

Rotational constants in cm-1:     0.055473     0.019634     0.018889
Rotational constants in MHz :  1663.034425   588.612977   566.290731

                             ****ORCA TERMINATED NORMALLY****
TOTAL RUN TIME: 0 days 0 hours 18 minutes 59 seconds 541 msec
