                         Program Version 5.0.4 -  RELEASE  -
|  1> !ri-mp2 aug-cc-pvqz aug-cc-pvqz/c tightscf
|  2> %pal nprocs 16 end
|  3>
|  4> * xyz 0 1
|  5> S    -3.986894   -0.049708   -0.000087
|  6> O     4.775654   -0.113191   -0.000147
|  7> N    -1.218888   -0.119564    0.000118
|  8> N     2.439468    0.263192    0.000069
|  9> C     0.039669    0.560667    0.000057
| 10> C     1.185169   -0.449890    0.000115
| 11> C    -2.404278   -0.042911    0.000025
| 12> C     3.612272    0.010529   -0.000044
| 13> H     0.112187    1.198876   -0.883098
| 14> H     0.112207    1.198992    0.883127
| 15> H     1.109813   -1.086449   -0.883060
| 16> H     1.109821   -1.086333    0.883374
| 17> *
| 18>
| 19>                          ****END OF INPUT****

CARTESIAN COORDINATES (ANGSTROEM)
---------------------------------
  S     -3.986894   -0.049708   -0.000087
  O      4.775654   -0.113191   -0.000147
  N     -1.218888   -0.119564    0.000118
  N      2.439468    0.263192    0.000069
  C      0.039669    0.560667    0.000057
  C      1.185169   -0.449890    0.000115
  C     -2.404278   -0.042911    0.000025
  C      3.612272    0.010529   -0.000044
  H      0.112187    1.198876   -0.883098
  H      0.112207    1.198992    0.883127
  H      1.109813   -1.086449   -0.883060
  H      1.109821   -1.086333    0.883374

 Total Charge           Charge          ....    0
 Multiplicity           Mult            ....    1
 Number of Electrons    NEL             ....   66
 Basis Dimension        Dim             ....  828

ORBITAL ENERGIES
----------------

  NO   OCC          E(Eh)            E(eV)
   0   2.0000     -91.952414     -2502.1524
   1   2.0000     -20.615858      -560.9860
   2   2.0000     -15.615849      -424.9289
   3   2.0000     -15.600963      -424.5238
   4   2.0000     -11.410924      -310.5070
   5   2.0000     -11.382147      -309.7240
   6   2.0000     -11.320101      -308.0356
   7   2.0000     -11.317793      -307.9728
   8   2.0000      -8.956524      -243.7194
   9   2.0000      -6.638377      -180.6394
  10   2.0000      -6.636019      -180.5753
  11   2.0000      -6.635821      -180.5699
  12   2.0000      -1.469913       -39.9984
  13   2.0000      -1.308707       -35.6117
  14   2.0000      -1.288559       -35.0635
  15   2.0000      -1.101025       -29.9604
  16   2.0000      -1.030962       -28.0539
  17   2.0000      -0.941150       -25.6100
  18   2.0000      -0.777725       -21.1630
  19   2.0000      -0.741685       -20.1823
  20   2.0000      -0.710051       -19.3215
  21   2.0000      -0.701501       -19.0888
  22   2.0000      -0.666541       -18.1375
  23   2.0000      -0.658095       -17.9077
  24   2.0000      -0.619210       -16.8496
  25   2.0000      -0.601303       -16.3623
  26   2.0000      -0.598411       -16.2836
  27   2.0000      -0.539233       -14.6733
  28   2.0000      -0.529138       -14.3986
  29   2.0000      -0.460443       -12.5293
  30   2.0000      -0.438352       -11.9282
  31   2.0000      -0.372693       -10.1415
  32   2.0000      -0.363639        -9.8951
  33   0.0000       0.019445         0.5291
  34   0.0000       0.030352         0.8259
  35   0.0000       0.031231         0.8498
  36   0.0000       0.041277         1.1232
  37   0.0000       0.049944         1.3590

MULLIKEN ATOMIC CHARGES
-----------------------
   0 S :    0.019177
   1 O :   -0.637160
   2 N :   -0.704619
   3 N :   -0.971128
   4 C :   -0.177429
   5 C :   -0.124436
   6 C :    0.304761
   7 C :    1.159634
   8 H :    0.297685
   9 H :    0.297673
  10 H :    0.267920
  11 H :    0.267922
Sum of atomic charges:   -0.0000000

LOEWDIN ATOMIC CHARGES
----------------------
   0 S :    0.937033
   1 O :    0.590960
   2 N :    0.400124
   3 N :    0.499731
   4 C :    0.250350
   5 C :    0.243076
   6 C :   -1.008661
   7 C :   -0.717969
   8 H :   -0.297939
   9 H :   -0.297940
  10 H :   -0.299381
  11 H :   -0.299383

  Mayer bond orders larger than 0.100000
B(  0-S ,  6-C ) :   1.4463 B(  1-O ,  3-N ) :   0.3342 B(  1-O ,  7-C ) :   1.5770
B(  2-N ,  4-C ) :   0.7820 B(  2-N ,  6-C ) :   2.3297 B(  3-N ,  5-C ) :   0.7414
B(  3-N ,  7-C ) :   2.2936 B(  4-C ,  5-C ) :   1.1704 B(  4-C ,  8-H ) :   0.8473
B(  4-C ,  9-H ) :   0.8473 B(  5-C , 10-H ) :   0.8628 B(  5-C , 11-H ) :   0.8628

MP2 TOTAL ENERGY:     -736.775642529 Eh
FINAL SINGLE POINT ENERGY      -736.775642529387

DIPOLE MOMENT
-------------
                                X             Y             Z
Electronic contribution:     -2.35788      -0.22341      -0.00027
Nuclear contribution   :      2.56274       0.21829       0.00033
                        -----------------------------------------
Total Dipole Moment    :      0.20486      -0.00512       0.00006
                        -----------------------------------------
Magnitude (a.u.)       :      0.20493
Magnitude (Debye)      :      0.52088

Rotational constants in cm-1:     1.046877     0.013735     0.013627
Rotational constants in MHz : 31384.568312   411.779629   408.513321

                             ****ORCA TERMINATED NORMALLY****
TOTAL RUN TIME: 0 days 0 hours 17 minutes 11 seconds 529 msec
