                         Program Version 5.0.4 -  RELEASE  -
|  1> !ri-mp2 aug-cc-pvqz aug-cc-pvqz/c tightscf
|  2> %pal nprocs 16 end
|  3>
|  4> * xyz 0 1
|  5> C     0.000000     0.000000    1.478573
|  6> C     0.000000     0.000000   -0.023472
|  7> H     0.000000    -1.026225    1.838151
|  8> H     0.888737     0.513112    1.838151
|  9> H    -0.888737     0.513112    1.838151
| 10> F     0.000000     1.253973   -0.527595
| 11> F    -1.085973    -0.626987   -0.527595
| 12> F     1.085973    -0.626987   -0.527595
| 13> *
| 14>
| 15>                          ****END OF INPUT****

CARTESIAN COORDINATES (ANGSTROEM)
---------------------------------
  C      0.000000    0.000000    1.478573
  C      0.000000    0.000000   -0.023472
  H      0.000000   -1.026225    1.838151
  H      0.888737    0.513112    1.838151
  H     -0.888737    0.513112    1.838151
  F      0.000000    1.253973   -0.527595
  F     -1.085973   -0.626987   -0.527595
  F      1.085973   -0.626987   -0.527595

 Total Charge           Charge          ....    0
 Multiplicity           Mult            ....    1
 Number of Electrons    NEL             ....   42
 Basis Dimension        Dim             ....  538

ORBITAL ENERGIES
----------------

  NO   OCC          E(Eh)            E(eV)
   0   2.0000     -26.329891      -716.4728
   1   2.0000     -26.329891      -716.4728
   2   2.0000     -26.329861      -716.4719
   3   2.0000     -11.504464      -313.0524
   4   2.0000     -11.259055      -306.3745
   5   2.0000      -1.718266       -46.7564
   6   2.0000      -1.624984       -44.2181
   7   2.0000      -1.624984       -44.2181
   8   2.0000      -1.070754       -29.1367
   9   2.0000      -0.920626       -25.0515
  10   2.0000      -0.815804       -22.1992
  11   2.0000      -0.815804       -22.1992
  12   2.0000      -0.775710       -21.1082
  13   2.0000      -0.705914       -19.2089
  14   2.0000      -0.705914       -19.2089
  15   2.0000      -0.659480       -17.9454
  16   2.0000      -0.659479       -17.9453
  17   2.0000      -0.643624       -17.5139
  18   2.0000      -0.590595       -16.0709
  19   2.0000      -0.590595       -16.0709
  20   2.0000      -0.568088       -15.4585
  21   0.0000       0.024243         0.6597
  22   0.0000       0.040463         1.1010
  23   0.0000       0.040463         1.1010
  24   0.0000       0.055343         1.5060
  25   0.0000       0.084468         2.2985

MULLIKEN ATOMIC CHARGES
-----------------------
   0 C :   -0.967370
   1 C :    1.879503
   2 H :    0.304882
   3 H :    0.304881
   4 H :    0.304881
   5 F :   -0.608926
   6 F :   -0.608926
   7 F :   -0.608926
Sum of atomic charges:    0.0000000

LOEWDIN ATOMIC CHARGES
----------------------
   0 C :    0.817585
   1 C :   -2.114168
   2 H :   -0.310206
   3 H :   -0.310206
   4 H :   -0.310206
   5 F :    0.742401
   6 F :    0.742400
   7 F :    0.742400

  Mayer bond orders larger than 0.100000
B(  0-C ,  1-C ) :   0.9823 B(  0-C ,  2-H ) :   0.9002 B(  0-C ,  3-H ) :   0.9002
B(  0-C ,  4-H ) :   0.9002 B(  1-C ,  5-F ) :   0.4704 B(  1-C ,  6-F ) :   0.4704
B(  1-C ,  7-F ) :   0.4704

MP2 TOTAL ENERGY:     -377.187404198 Eh
FINAL SINGLE POINT ENERGY      -377.187404198201

DIPOLE MOMENT
-------------
                                X             Y             Z
Electronic contribution:     -0.00000       0.00000      -5.61630
Nuclear contribution   :      0.00000      -0.00000       6.64296
                        -----------------------------------------
Total Dipole Moment    :     -0.00000       0.00000       1.02665
                        -----------------------------------------
Magnitude (a.u.)       :      1.02665
Magnitude (Debye)      :      2.60955

Rotational constants in cm-1:     0.181646     0.171735     0.171735
Rotational constants in MHz :  5445.613635  5148.494179  5148.493081

                             ****ORCA TERMINATED NORMALLY****
TOTAL RUN TIME: 0 days 0 hours 4 minutes 54 seconds 253 msec
