                         Program Version 5.0.4 -  RELEASE  -
|  1> !ri-mp2 aug-cc-pvqz aug-cc-pvqz/c tightscf
|  2> %pal nprocs 16 end
|  3>
|  4> * xyz 0 1
|  5> C     -0.175224    0.514096    2.220039
|  6> C     -0.175224    0.514096   -2.220039
|  7> C     -0.175224   -0.393919    1.253232
|  8> C     -0.175224   -0.393919   -1.253232
|  9> C      0.654344   -0.322824    0.000000
| 10> H     -0.793280    0.403263    3.100778
| 11> H      0.443638    1.401787    2.165483
| 12> H     -0.793280    0.403263   -3.100778
| 13> H      0.443638    1.401787   -2.165483
| 14> H     -0.815578   -1.266462    1.348079
| 15> H     -0.815578   -1.266462   -1.348079
| 16> H      1.352792   -1.169518    0.000000
| 17> H      1.256964    0.587167    0.000000
| 18> *
| 19>
| 20>                          ****END OF INPUT****

CARTESIAN COORDINATES (ANGSTROEM)
---------------------------------
  C     -0.175224    0.514096    2.220039
  C     -0.175224    0.514096   -2.220039
  C     -0.175224   -0.393919    1.253232
  C     -0.175224   -0.393919   -1.253232
  C      0.654344   -0.322824    0.000000
  H     -0.793280    0.403263    3.100778
  H      0.443638    1.401787    2.165483
  H     -0.793280    0.403263   -3.100778
  H      0.443638    1.401787   -2.165483
  H     -0.815578   -1.266462    1.348079
  H     -0.815578   -1.266462   -1.348079
  H      1.352792   -1.169518    0.000000
  H      1.256964    0.587167    0.000000

 Total Charge           Charge          ....    0
 Multiplicity           Mult            ....    1
 Number of Electrons    NEL             ....   38
 Basis Dimension        Dim             ....  768

ORBITAL ENERGIES
----------------

  NO   OCC          E(Eh)            E(eV)
   0   2.0000     -11.235109      -305.7228
   1   2.0000     -11.234983      -305.7194
   2   2.0000     -11.233269      -305.6728
   3   2.0000     -11.219488      -305.2978
   4   2.0000     -11.219488      -305.2978
   5   2.0000      -1.096849       -29.8468
   6   2.0000      -1.031576       -28.0706
   7   2.0000      -0.929314       -25.2879
   8   2.0000      -0.772743       -21.0274
   9   2.0000      -0.758482       -20.6393
  10   2.0000      -0.643009       -17.4972
  11   2.0000      -0.638809       -17.3829
  12   2.0000      -0.594738       -16.1836
  13   2.0000      -0.565613       -15.3911
  14   2.0000      -0.545584       -14.8461
  15   2.0000      -0.493240       -13.4218
  16   2.0000      -0.492848       -13.4111
  17   2.0000      -0.367089        -9.9890
  18   2.0000      -0.362046        -9.8518
  19   0.0000       0.027609         0.7513
  20   0.0000       0.032202         0.8763
  21   0.0000       0.032989         0.8977
  22   0.0000       0.036778         1.0008
  23   0.0000       0.048806         1.3281

MULLIKEN ATOMIC CHARGES
-----------------------
   0 C :   -0.876587
   1 C :   -0.876587
   2 C :   -0.504546
   3 C :   -0.504546
   4 C :   -0.150416
   5 H :    0.375235
   6 H :    0.347046
   7 H :    0.375235
   8 H :    0.347046
   9 H :    0.446376
  10 H :    0.446376
  11 H :    0.307527
  12 H :    0.267841
Sum of atomic charges:   -0.0000000

LOEWDIN ATOMIC CHARGES
----------------------
   0 C :    0.795394
   1 C :    0.795394
   2 C :    0.346428
   3 C :    0.346428
   4 C :    0.426494
   5 H :   -0.359349
   6 H :   -0.355027
   7 H :   -0.359349
   8 H :   -0.355027
   9 H :   -0.329105
  10 H :   -0.329105
  11 H :   -0.287407
  12 H :   -0.335771

  Mayer bond orders larger than 0.100000
B(  0-C ,  2-C ) :   1.8475 B(  0-C ,  5-H ) :   0.9387 B(  0-C ,  6-H ) :   0.8905
B(  1-C ,  3-C ) :   1.8475 B(  1-C ,  7-H ) :   0.9387 B(  1-C ,  8-H ) :   0.8905
B(  2-C ,  3-C ) :  -0.1913 B(  2-C ,  4-C ) :   0.8930 B(  2-C ,  9-H ) :   0.7846
B(  3-C ,  4-C ) :   0.8930 B(  3-C , 10-H ) :   0.7846 B(  4-C , 11-H ) :   0.8107
B(  4-C , 12-H ) :   0.9416

MP2 TOTAL ENERGY:     -194.912076471 Eh
FINAL SINGLE POINT ENERGY      -194.912076471445

DIPOLE MOMENT
-------------
                                X             Y             Z
Electronic contribution:     -0.23283      -0.61447       0.00000
Nuclear contribution   :      0.29263       0.51842       0.00000
                        -----------------------------------------
Total Dipole Moment    :      0.05981      -0.09605       0.00000
                        -----------------------------------------
Magnitude (a.u.)       :      0.11315
Magnitude (Debye)      :      0.28760

Rotational constants in cm-1:     0.501208     0.083663     0.080510
Rotational constants in MHz : 15025.829930  2508.140229  2413.627334

                             ****ORCA TERMINATED NORMALLY****
TOTAL RUN TIME: 0 days 0 hours 15 minutes 40 seconds 774 msec
