                         Program Version 5.0.4 -  RELEASE  -
|  1> !ri-mp2 aug-cc-pvqz aug-cc-pvqz/c tightscf
|  2> %pal nprocs 16 end
|  3>
|  4> * xyz 0 1
|  5> C     -1.854995    0.059212    0.000286
|  6> C     -0.682965    0.318398    0.000121
|  7> C     -3.272404   -0.269344   -0.000016
|  8> C      2.908916   -0.231355   -0.000182
|  9> C      0.731823    0.658966    0.000000
| 10> O      1.525377   -0.520062    0.000268
| 11> H     -3.785213    0.196056   -0.843401
| 12> H     -3.757047    0.068458    0.917494
| 13> H     -3.416982   -1.348358   -0.076266
| 14> H      3.201339    0.338694    0.890135
| 15> H      3.200880    0.338009   -0.891089
| 16> H      3.434078   -1.183772    0.000063
| 17> H      0.968850    1.268307    0.883485
| 18> H      0.968823    1.267833   -0.883814
| 19> *
| 20>
| 21>                          ****END OF INPUT****

CARTESIAN COORDINATES (ANGSTROEM)
---------------------------------
  C     -1.854995    0.059212    0.000286
  C     -0.682965    0.318398    0.000121
  C     -3.272404   -0.269344   -0.000016
  C      2.908916   -0.231355   -0.000182
  C      0.731823    0.658966    0.000000
  O      1.525377   -0.520062    0.000268
  H     -3.785213    0.196056   -0.843401
  H     -3.757047    0.068458    0.917494
  H     -3.416982   -1.348358   -0.076266
  H      3.201339    0.338694    0.890135
  H      3.200880    0.338009   -0.891089
  H      3.434078   -1.183772    0.000063
  H      0.968850    1.268307    0.883485
  H      0.968823    1.267833   -0.883814

 Total Charge           Charge          ....    0
 Multiplicity           Mult            ....    1
 Number of Electrons    NEL             ....   46
 Basis Dimension        Dim             ....  848

ORBITAL ENERGIES
----------------

  NO   OCC          E(Eh)            E(eV)
   0   2.0000     -20.559539      -559.4535
   1   2.0000     -11.299974      -307.4879
   2   2.0000     -11.272406      -306.7378
   3   2.0000     -11.243635      -305.9549
   4   2.0000     -11.223497      -305.4069
   5   2.0000     -11.213628      -305.1383
   6   2.0000      -1.377578       -37.4858
   7   2.0000      -1.065006       -28.9803
   8   2.0000      -1.005376       -27.3577
   9   2.0000      -0.935070       -25.4445
  10   2.0000      -0.884914       -24.0797
  11   2.0000      -0.692606       -18.8468
  12   2.0000      -0.672088       -18.2884
  13   2.0000      -0.653455       -17.7814
  14   2.0000      -0.625963       -17.0333
  15   2.0000      -0.588554       -16.0154
  16   2.0000      -0.585645       -15.9362
  17   2.0000      -0.567144       -15.4328
  18   2.0000      -0.559854       -15.2344
  19   2.0000      -0.492200       -13.3934
  20   2.0000      -0.436372       -11.8743
  21   2.0000      -0.376417       -10.2428
  22   2.0000      -0.366493        -9.9728
  23   0.0000       0.025689         0.6990
  24   0.0000       0.027876         0.7585
  25   0.0000       0.037710         1.0261
  26   0.0000       0.038370         1.0441
  27   0.0000       0.048149         1.3102

MULLIKEN ATOMIC CHARGES
-----------------------
   0 C :   -0.032891
   1 C :   -0.304367
   2 C :   -0.606021
   3 C :   -0.642386
   4 C :    0.393746
   5 O :   -0.779153
   6 H :    0.207857
   7 H :    0.208366
   8 H :    0.211640
   9 H :    0.250831
  10 H :    0.250322
  11 H :    0.410791
  12 H :    0.214730
  13 H :    0.216536
Sum of atomic charges:    0.0000000

LOEWDIN ATOMIC CHARGES
----------------------
   0 C :    0.157674
   1 C :    0.142754
   2 C :    0.831248
   3 C :    0.554871
   4 C :    0.038706
   5 O :    0.845877
   6 H :   -0.319571
   7 H :   -0.319442
   8 H :   -0.319002
   9 H :   -0.310388
  10 H :   -0.310398
  11 H :   -0.327888
  12 H :   -0.332209
  13 H :   -0.332233

  Mayer bond orders larger than 0.100000
B(  0-C ,  1-C ) :   2.9983 B(  0-C ,  2-C ) :   0.6707 B(  0-C ,  6-H ) :  -0.1031
B(  0-C ,  7-H ) :  -0.1035 B(  0-C ,  8-H ) :  -0.1043 B(  1-C ,  4-C ) :   0.7581
B(  2-C ,  6-H ) :   1.0286 B(  2-C ,  7-H ) :   1.0289 B(  2-C ,  8-H ) :   1.0244
B(  3-C ,  4-C ) :  -0.1002 B(  3-C ,  5-O ) :   0.9221 B(  3-C ,  9-H ) :   0.9265
B(  3-C , 10-H ) :   0.9275 B(  3-C , 11-H ) :   0.8524 B(  4-C ,  5-O ) :   0.7430
B(  4-C , 12-H ) :   0.9500 B(  4-C , 13-H ) :   0.9475

MP2 TOTAL ENERGY:     -270.031433737 Eh
FINAL SINGLE POINT ENERGY      -270.031433737386

DIPOLE MOMENT
-------------
                                X             Y             Z
Electronic contribution:     -0.78781      -0.50281       0.00243
Nuclear contribution   :      0.86144       0.96235      -0.00348
                        -----------------------------------------
Total Dipole Moment    :      0.07364       0.45955      -0.00105
                        -----------------------------------------
Magnitude (a.u.)       :      0.46541
Magnitude (Debye)      :      1.18298

Rotational constants in cm-1:     0.709294     0.042091     0.040642
Rotational constants in MHz : 21264.090812  1261.850887  1218.416026

                             ****ORCA TERMINATED NORMALLY****
TOTAL RUN TIME: 0 days 0 hours 17 minutes 52 seconds 714 msec
