                         Program Version 5.0.4 -  RELEASE  -
|  1> !ri-mp2 aug-cc-pvqz aug-cc-pvqz/c tightscf
|  2> %pal nprocs 16 end
|  3>
|  4> * xyz 0 1
|  5> C     -1.364294   -0.257422    0.000000
|  6> Cl    -2.663967    1.000357    0.000000
|  7> C      0.000000    0.402791    0.000000
|  8> C      3.235965   -1.355048    0.000000
|  9> C      2.301786   -0.163749    0.000000
| 10> O      0.959835   -0.634578    0.000000
| 11> H      4.273451   -1.018738    0.000000
| 12> H     -1.508982   -0.865324    0.887556
| 13> H     -1.508982   -0.865324   -0.887556
| 14> H      0.111166    1.038659   -0.886420
| 15> H      0.111166    1.038659    0.886420
| 16> H      3.073565   -1.971524   -0.883887
| 17> H      3.073565   -1.971524    0.883887
| 18> H      2.471534    0.463118    0.884863
| 19> H      2.471534    0.463118   -0.884863
| 20> *
| 21>
| 22>                          ****END OF INPUT****

CARTESIAN COORDINATES (ANGSTROEM)
---------------------------------
  C     -1.364294   -0.257422    0.000000
  Cl    -2.663967    1.000357    0.000000
  C      0.000000    0.402791    0.000000
  C      3.235965   -1.355048    0.000000
  C      2.301786   -0.163749    0.000000
  O      0.959835   -0.634578    0.000000
  H      4.273451   -1.018738    0.000000
  H     -1.508982   -0.865324    0.887556
  H     -1.508982   -0.865324   -0.887556
  H      0.111166    1.038659   -0.886420
  H      0.111166    1.038659    0.886420
  H      3.073565   -1.971524   -0.883887
  H      3.073565   -1.971524    0.883887
  H      2.471534    0.463118    0.884863
  H      2.471534    0.463118   -0.884863

 Total Charge           Charge          ....    0
 Multiplicity           Mult            ....    1
 Number of Electrons    NEL             ....   58
 Basis Dimension        Dim             ....  898

ORBITAL ENERGIES
----------------

  NO   OCC          E(Eh)            E(eV)
   0   2.0000    -104.822753     -2852.3721
   1   2.0000     -20.564081      -559.5771
   2   2.0000     -11.292447      -307.2831
   3   2.0000     -11.289903      -307.2139
   4   2.0000     -11.282907      -307.0235
   5   2.0000     -11.219522      -305.2987
   6   2.0000     -10.548113      -287.0288
   7   2.0000      -8.015169      -218.1038
   8   2.0000      -8.013570      -218.0603
   9   2.0000      -8.013538      -218.0595
  10   2.0000      -1.385293       -37.6957
  11   2.0000      -1.133519       -30.8446
  12   2.0000      -1.038700       -28.2645
  13   2.0000      -0.967378       -26.3237
  14   2.0000      -0.844796       -22.9881
  15   2.0000      -0.841199       -22.8902
  16   2.0000      -0.696110       -18.9421
  17   2.0000      -0.674814       -18.3626
  18   2.0000      -0.636455       -17.3188
  19   2.0000      -0.622171       -16.9301
  20   2.0000      -0.566343       -15.4110
  21   2.0000      -0.552626       -15.0377
  22   2.0000      -0.539790       -14.6884
  23   2.0000      -0.514660       -14.0046
  24   2.0000      -0.508126       -13.8268
  25   2.0000      -0.488687       -13.2979
  26   2.0000      -0.436420       -11.8756
  27   2.0000      -0.436002       -11.8642
  28   2.0000      -0.433193       -11.7878
  29   0.0000       0.025365         0.6902
  30   0.0000       0.032896         0.8951
  31   0.0000       0.033673         0.9163
  32   0.0000       0.035587         0.9684
  33   0.0000       0.048727         1.3259

MULLIKEN ATOMIC CHARGES
-----------------------
   0 C :   -0.414320
   1 Cl:   -0.377790
   2 C :    0.060794
   3 C :   -0.903036
   4 C :    0.056473
   5 O :   -0.854753
   6 H :    0.288183
   7 H :    0.300567
   8 H :    0.300567
   9 H :    0.287248
  10 H :    0.287248
  11 H :    0.238851
  12 H :    0.238851
  13 H :    0.245559
  14 H :    0.245559
Sum of atomic charges:    0.0000000

LOEWDIN ATOMIC CHARGES
----------------------
   0 C :   -0.150503
   1 Cl:    1.109241
   2 C :    0.013573
   3 C :    0.908216
   4 C :    0.145690
   5 O :    0.883815
   6 H :   -0.292287
   7 H :   -0.396815
   8 H :   -0.396815
   9 H :   -0.322914
  10 H :   -0.322914
  11 H :   -0.292011
  12 H :   -0.292011
  13 H :   -0.297132
  14 H :   -0.297132

  Mayer bond orders larger than 0.100000
B(  0-C ,  1-Cl) :   0.8469 B(  0-C ,  2-C ) :   0.9926 B(  0-C ,  7-H ) :   0.8637
B(  0-C ,  8-H ) :   0.8637 B(  2-C ,  5-O ) :   0.8835 B(  2-C ,  9-H ) :   0.8523
B(  2-C , 10-H ) :   0.8523 B(  3-C ,  4-C ) :   0.9012 B(  3-C ,  6-H ) :   0.9734
B(  3-C , 11-H ) :   0.9481 B(  3-C , 12-H ) :   0.9481 B(  4-C ,  5-O ) :   0.8503
B(  4-C , 13-H ) :   0.8656 B(  4-C , 14-H ) :   0.8656

MP2 TOTAL ENERGY:     -692.404679884 Eh
FINAL SINGLE POINT ENERGY      -692.404679883619

DIPOLE MOMENT
-------------
                                X             Y             Z
Electronic contribution:    -15.54048       5.04208      -0.00000
Nuclear contribution   :     16.44876      -5.14707       0.00000
                        -----------------------------------------
Total Dipole Moment    :      0.90828      -0.10499      -0.00000
                        -----------------------------------------
Magnitude (a.u.)       :      0.91433
Magnitude (Debye)      :      2.32404

Rotational constants in cm-1:     0.553980     0.028473     0.027643
Rotational constants in MHz : 16607.902970   853.586367   828.701890

                             ****ORCA TERMINATED NORMALLY****
TOTAL RUN TIME: 0 days 0 hours 25 minutes 30 seconds 642 msec
