                         Program Version 5.0.4 -  RELEASE  -
|  1> !ri-mp2 aug-cc-pvqz aug-cc-pvqz/c tightscf
|  2> %pal nprocs 16 end
|  3>
|  4> * xyz 0 1
|  5> C      0.451706    0.483657   -0.467135
|  6> C     -0.861674   -0.168523   -0.001224
|  7> H      0.454491    0.558887   -1.551837
|  8> F      0.530176    1.727520    0.073771
|  9> Cl     1.858333   -0.488147    0.023923
| 10> F     -0.920875   -0.298900    1.324534
| 11> F     -1.892087    0.597920   -0.396345
| 12> F     -1.004585   -1.376672   -0.562482
| 13> *
| 14>
| 15>                          ****END OF INPUT****

CARTESIAN COORDINATES (ANGSTROEM)
---------------------------------
  C      0.451706    0.483657   -0.467135
  C     -0.861674   -0.168523   -0.001224
  H      0.454491    0.558887   -1.551837
  F      0.530176    1.727520    0.073771
  Cl     1.858333   -0.488147    0.023923
  F     -0.920875   -0.298900    1.324534
  F     -1.892087    0.597920   -0.396345
  F     -1.004585   -1.376672   -0.562482

 Total Charge           Charge          ....    0
 Multiplicity           Mult            ....    1
 Number of Electrons    NEL             ....   66
 Basis Dimension        Dim             ....  610

ORBITAL ENERGIES
----------------

  NO   OCC          E(Eh)            E(eV)
   0   2.0000    -104.871668     -2853.7032
   1   2.0000     -26.362097      -717.3491
   2   2.0000     -26.359767      -717.2857
   3   2.0000     -26.359448      -717.2770
   4   2.0000     -26.345355      -716.8936
   5   2.0000     -11.538920      -313.9900
   6   2.0000     -11.432896      -311.1049
   7   2.0000     -10.597168      -288.3636
   8   2.0000      -8.064218      -219.4385
   9   2.0000      -8.062358      -219.3879
  10   2.0000      -8.062266      -219.3854
  11   2.0000      -1.753721       -47.7212
  12   2.0000      -1.667284       -45.3691
  13   2.0000      -1.658757       -45.1371
  14   2.0000      -1.656386       -45.0726
  15   2.0000      -1.182937       -32.1893
  16   2.0000      -1.047806       -28.5123
  17   2.0000      -0.937165       -25.5016
  18   2.0000      -0.854106       -23.2414
  19   2.0000      -0.848121       -23.0785
  20   2.0000      -0.836499       -22.7623
  21   2.0000      -0.774299       -21.0697
  22   2.0000      -0.744126       -20.2487
  23   2.0000      -0.728711       -19.8292
  24   2.0000      -0.720375       -19.6024
  25   2.0000      -0.702192       -19.1076
  26   2.0000      -0.687112       -18.6973
  27   2.0000      -0.686219       -18.6730
  28   2.0000      -0.672782       -18.3073
  29   2.0000      -0.600270       -16.3342
  30   2.0000      -0.570051       -15.5119
  31   2.0000      -0.495029       -13.4704
  32   2.0000      -0.483220       -13.1491
  33   0.0000       0.026752         0.7280
  34   0.0000       0.051538         1.4024
  35   0.0000       0.053919         1.4672
  36   0.0000       0.064921         1.7666
  37   0.0000       0.082127         2.2348

MULLIKEN ATOMIC CHARGES
-----------------------
   0 C :    0.303651
   1 C :    1.834399
   2 H :    0.424017
   3 F :   -0.612368
   4 Cl:   -0.167120
   5 F :   -0.595165
   6 F :   -0.593448
   7 F :   -0.593965
Sum of atomic charges:    0.0000000

LOEWDIN ATOMIC CHARGES
----------------------
   0 C :   -1.308080
   1 C :   -2.316602
   2 H :   -0.490685
   3 F :    0.724443
   4 Cl:    1.141594
   5 F :    0.749244
   6 F :    0.752991
   7 F :    0.747094

  Mayer bond orders larger than 0.100000
B(  0-C ,  1-C ) :   0.9650 B(  0-C ,  2-H ) :   0.7483 B(  0-C ,  3-F ) :   0.5425
B(  0-C ,  4-Cl) :   0.9260 B(  1-C ,  5-F ) :   0.4825 B(  1-C ,  6-F ) :   0.4890
B(  1-C ,  7-F ) :   0.5109

MP2 TOTAL ENERGY:     -935.473966423 Eh
FINAL SINGLE POINT ENERGY      -935.473966422881

DIPOLE MOMENT
-------------
                                X             Y             Z
Electronic contribution:     -0.73696      -0.56957       1.22508
Nuclear contribution   :      0.94678       0.55898      -1.83473
                        -----------------------------------------
Total Dipole Moment    :      0.20983      -0.01059      -0.60966
                        -----------------------------------------
Magnitude (a.u.)       :      0.64484
Magnitude (Debye)      :      1.63906

Rotational constants in cm-1:     0.104989     0.058112     0.047384
Rotational constants in MHz :  3147.505562  1742.165073  1420.548829

                             ****ORCA TERMINATED NORMALLY****
TOTAL RUN TIME: 0 days 0 hours 7 minutes 54 seconds 497 msec
