                         Program Version 5.0.4 -  RELEASE  -
|  1> !ri-mp2 aug-cc-pvqz aug-cc-pvqz/c tightscf
|  2> %pal nprocs 16 end
|  3>
|  4> * xyz 0 1
|  5> C     -1.004320   -0.762666    0.000000
|  6> C      1.322736   -0.237243    0.000000
|  7> C     -0.645498   -2.106337    0.000000
|  8> C      1.576680   -1.600517    0.000000
|  9> C      0.000000    0.203071    0.000000
| 10> C     -0.278823    1.682041    0.000000
| 11> C     -1.715873    2.149965    0.000000
| 12> N      0.617007   -2.529678    0.000000
| 13> O      0.639000    2.474708    0.000000
| 14> H     -2.050239   -0.492383    0.000000
| 15> H      2.126827    0.484057    0.000000
| 16> H     -1.409956   -2.874662    0.000000
| 17> H      2.596289   -1.967379    0.000000
| 18> H     -2.245005    1.777376    0.878947
| 19> H     -2.245005    1.777376   -0.878947
| 20> H     -1.733368    3.235824    0.000000
| 21> *
| 22>
| 23>                          ****END OF INPUT****

CARTESIAN COORDINATES (ANGSTROEM)
---------------------------------
  C     -1.004320   -0.762666    0.000000
  C      1.322736   -0.237243    0.000000
  C     -0.645498   -2.106337    0.000000
  C      1.576680   -1.600517    0.000000
  C      0.000000    0.203071    0.000000
  C     -0.278823    1.682041    0.000000
  C     -1.715873    2.149965    0.000000
  N      0.617007   -2.529678    0.000000
  O      0.639000    2.474708    0.000000
  H     -2.050239   -0.492383    0.000000
  H      2.126827    0.484057    0.000000
  H     -1.409956   -2.874662    0.000000
  H      2.596289   -1.967379    0.000000
  H     -2.245005    1.777376    0.878947
  H     -2.245005    1.777376   -0.878947
  H     -1.733368    3.235824    0.000000

 Total Charge           Charge          ....    0
 Multiplicity           Mult            ....    1
 Number of Electrons    NEL             ....   64
 Basis Dimension        Dim             .... 1042

ORBITAL ENERGIES
----------------

  NO   OCC          E(Eh)            E(eV)
   0   2.0000     -20.558649      -559.4293
   1   2.0000     -15.578159      -423.9033
   2   2.0000     -11.348951      -308.8207
   3   2.0000     -11.284189      -307.0584
   4   2.0000     -11.281254      -306.9785
   5   2.0000     -11.272561      -306.7420
   6   2.0000     -11.258930      -306.3711
   7   2.0000     -11.250602      -306.1444
   8   2.0000     -11.245036      -305.9930
   9   2.0000      -1.402594       -38.1665
  10   2.0000      -1.272318       -34.6215
  11   2.0000      -1.117036       -30.3961
  12   2.0000      -1.048372       -28.5277
  13   2.0000      -1.020948       -27.7814
  14   2.0000      -0.898215       -24.4417
  15   2.0000      -0.869611       -23.6633
  16   2.0000      -0.782496       -21.2928
  17   2.0000      -0.715616       -19.4729
  18   2.0000      -0.686567       -18.6824
  19   2.0000      -0.661477       -17.9997
  20   2.0000      -0.635661       -17.2972
  21   2.0000      -0.621251       -16.9051
  22   2.0000      -0.618561       -16.8319
  23   2.0000      -0.611111       -16.6292
  24   2.0000      -0.561046       -15.2668
  25   2.0000      -0.556213       -15.1353
  26   2.0000      -0.528815       -14.3898
  27   2.0000      -0.515494       -14.0273
  28   2.0000      -0.445449       -12.1213
  29   2.0000      -0.424479       -11.5507
  30   2.0000      -0.394225       -10.7274
  31   2.0000      -0.358620        -9.7586
  32   0.0000       0.019917         0.5420
  33   0.0000       0.028660         0.7799
  34   0.0000       0.030553         0.8314
  35   0.0000       0.034576         0.9409
  36   0.0000       0.044039         1.1984

MULLIKEN ATOMIC CHARGES
-----------------------
   0 C :   -0.350360
   1 C :   -0.271685
   2 C :   -0.208363
   3 C :   -0.240669
   4 C :    0.057857
   5 C :    1.041209
   6 C :   -0.839544
   7 N :   -0.656980
   8 O :   -0.759974
   9 H :    0.310881
  10 H :    0.262081
  11 H :    0.452539
  12 H :    0.464356
  13 H :    0.211384
  14 H :    0.211384
  15 H :    0.315885
Sum of atomic charges:   -0.0000000

LOEWDIN ATOMIC CHARGES
----------------------
   0 C :    0.321017
   1 C :    0.314189
   2 C :    0.093914
   3 C :    0.096758
   4 C :   -0.129493
   5 C :   -0.640265
   6 C :    0.883529
   7 N :    0.599663
   8 O :    0.746857
   9 H :   -0.344761
  10 H :   -0.342834
  11 H :   -0.349255
  12 H :   -0.349265
  13 H :   -0.292137
  14 H :   -0.292137
  15 H :   -0.315781

  Mayer bond orders larger than 0.100000
B(  0-C ,  2-C ) :   1.1642 B(  0-C ,  4-C ) :   1.1259 B(  0-C ,  5-C ) :  -0.1857
B(  0-C ,  9-H ) :   0.9569 B(  0-C , 11-H ) :  -0.1548 B(  1-C ,  2-C ) :   0.1112
B(  1-C ,  3-C ) :   1.3475 B(  1-C ,  4-C ) :   0.9602 B(  1-C ,  5-C ) :  -0.2416
B(  1-C , 10-H ) :   0.9619 B(  1-C , 12-H ) :  -0.1398 B(  2-C ,  3-C ) :   0.1155
B(  2-C ,  4-C ) :  -0.2765 B(  2-C ,  7-N ) :   1.1388 B(  2-C ,  9-H ) :  -0.1113
B(  2-C , 11-H ) :   0.9475 B(  3-C ,  4-C ) :  -0.3687 B(  3-C ,  7-N ) :   1.1362
B(  3-C , 12-H ) :   0.9242 B(  4-C ,  5-C ) :   0.7507 B(  4-C ,  8-O ) :   0.4230
B(  4-C ,  9-H ) :  -0.1203 B(  5-C ,  6-C ) :   0.9659 B(  5-C ,  8-O ) :   0.9104
B(  6-C , 13-H ) :   0.9834 B(  6-C , 14-H ) :   0.9834 B(  6-C , 15-H ) :   0.9484
B(  7-N , 11-H ) :  -0.1303 B(  7-N , 12-H ) :  -0.1194

MP2 TOTAL ENERGY:     -400.272555808 Eh
FINAL SINGLE POINT ENERGY      -400.272555807866

DIPOLE MOMENT
-------------
                                X             Y             Z
Electronic contribution:      3.83213      -1.97323       0.00000
Nuclear contribution   :     -4.90828       1.94909       0.00000
                        -----------------------------------------
Total Dipole Moment    :     -1.07615      -0.02414       0.00000
                        -----------------------------------------
Magnitude (a.u.)       :      1.07642
Magnitude (Debye)      :      2.73605

Rotational constants in cm-1:     0.128408     0.040377     0.030893
Rotational constants in MHz :  3849.566100  1210.469712   926.156085

                             ****ORCA TERMINATED NORMALLY****
TOTAL RUN TIME: 0 days 0 hours 49 minutes 40 seconds 612 msec
