                         Program Version 5.0.4 -  RELEASE  -
|  1> !ri-mp2 aug-cc-pvqz aug-cc-pvqz/c tightscf
|  2> %pal nprocs 16 end
|  3>
|  4> * xyz 0 1
|  5> C     -2.032028    1.358919        0.000000
|  6> C      0.000000    0.554262        0.000000
|  7> C     -0.943969   -0.466855        0.000000
|  8> C      0.643023   -2.033412        0.000000
|  9> C      1.406961    0.316403        0.000000
| 10> N     -2.208454    0.057574        0.000000
| 11> N     -0.625765   -1.795763        0.000000
| 12> N     -0.718202    1.721541        0.000000
| 13> N      1.625317   -1.077018        0.000000
| 14> O      2.326607    1.119304        0.000000
| 15> H     -2.822899    2.090916        0.000000
| 16> H      0.998377   -3.056608        0.000000
| 17> H     -0.336554    2.652448        0.000000
| 18> H      2.594034   -1.361433        0.000000
| 19> *
| 20>
| 21>                          ****END OF INPUT****

CARTESIAN COORDINATES (ANGSTROEM)
---------------------------------
  C     -2.032028    1.358919    0.000000
  C      0.000000    0.554262    0.000000
  C     -0.943969   -0.466855    0.000000
  C      0.643023   -2.033412    0.000000
  C      1.406961    0.316403    0.000000
  N     -2.208454    0.057574    0.000000
  N     -0.625765   -1.795763    0.000000
  N     -0.718202    1.721541    0.000000
  N      1.625317   -1.077018    0.000000
  O      2.326607    1.119304    0.000000
  H     -2.822899    2.090916    0.000000
  H      0.998377   -3.056608    0.000000
  H     -0.336554    2.652448    0.000000
  H      2.594034   -1.361433    0.000000

 Total Charge           Charge          ....    0
 Multiplicity           Mult            ....    1
 Number of Electrons    NEL             ....   70
 Basis Dimension        Dim             ....  984

ORBITAL ENERGIES
----------------

  NO   OCC          E(Eh)            E(eV)
   0   2.0000     -20.532854      -558.7274
   1   2.0000     -15.641309      -425.6216
   2   2.0000     -15.637838      -425.5272
   3   2.0000     -15.573133      -423.7665
   4   2.0000     -15.564829      -423.5405
   5   2.0000     -11.378344      -309.6205
   6   2.0000     -11.351122      -308.8797
   7   2.0000     -11.333506      -308.4004
   8   2.0000     -11.313268      -307.8497
   9   2.0000     -11.275005      -306.8085
  10   2.0000      -1.405504       -38.2457
  11   2.0000      -1.370061       -37.2812
  12   2.0000      -1.319693       -35.9107
  13   2.0000      -1.227435       -33.4002
  14   2.0000      -1.184499       -32.2319
  15   2.0000      -1.059656       -28.8347
  16   2.0000      -0.916233       -24.9320
  17   2.0000      -0.909167       -24.7397
  18   2.0000      -0.846362       -23.0307
  19   2.0000      -0.799588       -21.7579
  20   2.0000      -0.753251       -20.4970
  21   2.0000      -0.722785       -19.6680
  22   2.0000      -0.692281       -18.8379
  23   2.0000      -0.658692       -17.9239
  24   2.0000      -0.635233       -17.2856
  25   2.0000      -0.630484       -17.1564
  26   2.0000      -0.607993       -16.5443
  27   2.0000      -0.596315       -16.2266
  28   2.0000      -0.534265       -14.5381
  29   2.0000      -0.490259       -13.3406
  30   2.0000      -0.453164       -12.3312
  31   2.0000      -0.450302       -12.2533
  32   2.0000      -0.438774       -11.9397
  33   2.0000      -0.399943       -10.8830
  34   2.0000      -0.327365        -8.9081
  35   0.0000       0.019278         0.5246
  36   0.0000       0.019989         0.5439
  37   0.0000       0.038594         1.0502
  38   0.0000       0.043071         1.1720
  39   0.0000       0.050557         1.3757

MULLIKEN ATOMIC CHARGES
-----------------------
   0 C :   -0.191144
   1 C :   -0.230344
   2 C :    1.041622
   3 C :   -0.000767
   4 C :    1.363067
   5 N :   -0.751662
   6 N :   -0.652653
   7 N :   -0.484614
   8 N :   -0.624630
   9 O :   -0.842321
  10 H :    0.570133
  11 H :    0.566273
  12 H :    0.185117
  13 H :    0.051924
Sum of atomic charges:   -0.0000000

LOEWDIN ATOMIC CHARGES
----------------------
   0 C :   -0.029557
   1 C :   -0.349963
   2 C :   -0.690566
   3 C :   -0.033859
   4 C :   -0.837754
   5 N :    0.597772
   6 N :    0.599227
   7 N :    0.833815
   8 N :    0.813592
   9 O :    0.662185
  10 H :   -0.308972
  11 H :   -0.332496
  12 H :   -0.429520
  13 H :   -0.493905

  Mayer bond orders larger than 0.100000
B(  0-C ,  5-N ) :   1.6992 B(  0-C ,  7-N ) :   1.3139 B(  0-C , 10-H ) :   0.6879
B(  1-C ,  2-C ) :   1.4697 B(  1-C ,  4-C ) :   1.3628 B(  1-C ,  5-N ) :   0.1081
B(  1-C ,  7-N ) :   0.7593 B(  1-C ,  9-O ) :   0.5556 B(  2-C ,  4-C ) :  -0.2045
B(  2-C ,  5-N ) :   0.6543 B(  2-C ,  6-N ) :   0.7330 B(  3-C ,  6-N ) :   1.6594
B(  3-C ,  8-N ) :   1.0155 B(  3-C , 11-H ) :   0.7365 B(  4-C ,  8-N ) :   1.0270
B(  4-C ,  9-O ) :   0.6820 B(  7-N , 12-H ) :   1.0813 B(  8-N ,  9-O ) :   0.2858
B(  8-N , 13-H ) :   1.2143

MP2 TOTAL ENERGY:     -486.480851177 Eh
FINAL SINGLE POINT ENERGY      -486.480851177241

DIPOLE MOMENT
-------------
                                X             Y             Z
Electronic contribution:     -0.06502      -0.03335       0.00000
Nuclear contribution   :      0.44267       0.32505       0.00000
                        -----------------------------------------
Total Dipole Moment    :      0.37765       0.29170       0.00000
                        -----------------------------------------
Magnitude (a.u.)       :      0.47719
Magnitude (Debye)      :      1.21291

Rotational constants in cm-1:     0.080038     0.052007     0.031524
Rotational constants in MHz :  2399.476107  1559.134911   945.055463

                             ****ORCA TERMINATED NORMALLY****
TOTAL RUN TIME: 0 days 0 hours 42 minutes 49 seconds 423 msec
