                         Program Version 5.0.4 -  RELEASE  -
|  1> !ri-mp2 aug-cc-pvqz aug-cc-pvqz/c tightscf
|  2> %pal nprocs 16 end
|  3> %maxcore 3800
|  4>
|  5> * xyz 0 1
|  6> C     -3.230761   -0.667661    0.267528
|  7> C      1.613648   -1.548109   -1.362053
|  8> C      1.930118    0.028520    1.827269
|  9> C     -0.095597    2.218883   -0.923603
| 10> C     -0.975112   -0.563177   -0.371630
| 11> C      0.386263    0.049656   -0.003455
| 12> O     -1.977896   -0.047508    0.468903
| 13> O      1.332271   -0.191322   -1.040678
| 14> O      0.777361   -0.532375    1.194775
| 15> O      0.352154    1.427453    0.171175
| 16> H     -3.588767   -0.528974   -0.760344
| 17> H     -3.934183   -0.201346    0.953910
| 18> H     -3.183230   -1.742606    0.478392
| 19> H      1.786633   -2.144110   -0.464434
| 20> H      2.519368   -1.537660   -1.964779
| 21> H      0.811054   -2.004198   -1.948597
| 22> H      2.760884    0.121924    1.126655
| 23> H      2.196807   -0.665495    2.620743
| 24> H      1.704697    1.005239    2.252683
| 25> H     -1.160540    2.065114   -1.111288
| 26> H      0.478256    2.010258   -1.826711
| 27> H      0.061973    3.253034   -0.626958
| 28> H     -0.901685   -1.650429   -0.263497
| 29> H     -1.193741   -0.339419   -1.423512
| 30> *
| 31>
| 32>                          ****END OF INPUT****

CARTESIAN COORDINATES (ANGSTROEM)
---------------------------------
  C     -3.230761   -0.667661    0.267528
  C      1.613648   -1.548109   -1.362053
  C      1.930118    0.028520    1.827269
  C     -0.095597    2.218883   -0.923603
  C     -0.975112   -0.563177   -0.371630
  C      0.386263    0.049656   -0.003455
  O     -1.977896   -0.047508    0.468903
  O      1.332271   -0.191322   -1.040678
  O      0.777361   -0.532375    1.194775
  O      0.352154    1.427453    0.171175
  H     -3.588767   -0.528974   -0.760344
  H     -3.934183   -0.201346    0.953910
  H     -3.183230   -1.742606    0.478392
  H      1.786633   -2.144110   -0.464434
  H      2.519368   -1.537660   -1.964779
  H      0.811054   -2.004198   -1.948597
  H      2.760884    0.121924    1.126655
  H      2.196807   -0.665495    2.620743
  H      1.704697    1.005239    2.252683
  H     -1.160540    2.065114   -1.111288
  H      0.478256    2.010258   -1.826711
  H      0.061973    3.253034   -0.626958
  H     -0.901685   -1.650429   -0.263497
  H     -1.193741   -0.339419   -1.423512

 Total Charge           Charge          ....    0
 Multiplicity           Mult            ....    1
 Number of Electrons    NEL             ....   82
 Basis Dimension        Dim             .... 1444

ORBITAL ENERGIES
----------------

  NO   OCC          E(Eh)            E(eV)
   0   2.0000     -20.557798      -559.4061
   1   2.0000     -20.555920      -559.3550
   2   2.0000     -20.554889      -559.3270
   3   2.0000     -20.554327      -559.3117
   4   2.0000     -11.387266      -309.8633
   5   2.0000     -11.277551      -306.8778
   6   2.0000     -11.272777      -306.7478
   7   2.0000     -11.271518      -306.7136
   8   2.0000     -11.264436      -306.5209
   9   2.0000     -11.259555      -306.3881
  10   2.0000      -1.451540       -39.4984
  11   2.0000      -1.376073       -37.4449
  12   2.0000      -1.344632       -36.5893
  13   2.0000      -1.343453       -36.5572
  14   2.0000      -1.020748       -27.7760
  15   2.0000      -0.959068       -26.0976
  16   2.0000      -0.930286       -25.3144
  17   2.0000      -0.924494       -25.1568
  18   2.0000      -0.887731       -24.1564
  19   2.0000      -0.779093       -21.2002
  20   2.0000      -0.712538       -19.3891
  21   2.0000      -0.706136       -19.2149
  22   2.0000      -0.697464       -18.9790
  23   2.0000      -0.663082       -18.0434
  24   2.0000      -0.649309       -17.6686
  25   2.0000      -0.621394       -16.9090
  26   2.0000      -0.616060       -16.7638
  27   2.0000      -0.603222       -16.4145
  28   2.0000      -0.596382       -16.2284
  29   2.0000      -0.583435       -15.8761
  30   2.0000      -0.576585       -15.6897
  31   2.0000      -0.554861       -15.0985
  32   2.0000      -0.540410       -14.7053
  33   2.0000      -0.517481       -14.0814
  34   2.0000      -0.499266       -13.5857
  35   2.0000      -0.485922       -13.2226
  36   2.0000      -0.474632       -12.9154
  37   2.0000      -0.445976       -12.1356
  38   2.0000      -0.441079       -12.0024
  39   2.0000      -0.427518       -11.6334
  40   2.0000      -0.426047       -11.5933
  41   0.0000       0.023678         0.6443
  42   0.0000       0.029474         0.8020
  43   0.0000       0.032347         0.8802
  44   0.0000       0.034332         0.9342
  45   0.0000       0.044482         1.2104

MULLIKEN ATOMIC CHARGES
-----------------------
   0 C :   -0.805226
   1 C :   -0.831104
   2 C :   -0.846974
   3 C :   -0.805731
   4 C :   -0.094426
   5 C :    2.890970
   6 O :   -0.927246
   7 O :   -0.977571
   8 O :   -0.919171
   9 O :   -1.076050
  10 H :    0.279194
  11 H :    0.388561
  12 H :    0.280058
  13 H :    0.322290
  14 H :    0.387234
  15 H :    0.278527
  16 H :    0.291376
  17 H :    0.423338
  18 H :    0.336711
  19 H :    0.325861
  20 H :    0.291504
  21 H :    0.375271
  22 H :    0.165523
  23 H :    0.247082
Sum of atomic charges:    0.0000000

LOEWDIN ATOMIC CHARGES
----------------------
   0 C :    0.576579
   1 C :    0.575783
   2 C :    0.590574
   3 C :    0.593258
   4 C :    0.050890
   5 C :   -1.433063
   6 O :    0.891572
   7 O :    0.864055
   8 O :    0.862693
   9 O :    0.863115
  10 H :   -0.304814
  11 H :   -0.323689
  12 H :   -0.306520
  13 H :   -0.318572
  14 H :   -0.318726
  15 H :   -0.311250
  16 H :   -0.316167
  17 H :   -0.324069
  18 H :   -0.318402
  19 H :   -0.320318
  20 H :   -0.318716
  21 H :   -0.317911
  22 H :   -0.324626
  23 H :   -0.311676

  Mayer bond orders larger than 0.100000
B(  0-C ,  4-C ) :  -0.2554 B(  0-C ,  6-O ) :   1.0870 B(  0-C , 10-H ) :   0.9240
B(  0-C , 11-H ) :   0.8931 B(  0-C , 12-H ) :   0.9200 B(  1-C ,  5-C ) :  -0.1673
B(  1-C ,  7-O ) :   0.9999 B(  1-C , 13-H ) :   0.8858 B(  1-C , 14-H ) :   0.8809
B(  1-C , 15-H ) :   0.9367 B(  2-C ,  5-C ) :  -0.2447 B(  2-C ,  8-O ) :   0.9854
B(  2-C , 16-H ) :   0.9519 B(  2-C , 17-H ) :   0.8579 B(  2-C , 18-H ) :   0.8820
B(  3-C ,  5-C ) :  -0.2330 B(  3-C ,  9-O ) :   0.9606 B(  3-C , 19-H ) :   0.8922
B(  3-C , 20-H ) :   0.9148 B(  3-C , 21-H ) :   0.9092 B(  4-C ,  5-C ) :   0.8170
B(  4-C ,  6-O ) :   0.5561 B(  4-C ,  7-O ) :   0.1040 B(  4-C ,  8-O ) :   0.2398
B(  4-C ,  9-O ) :   0.1703 B(  4-C , 22-H ) :   0.9825 B(  4-C , 23-H ) :   0.9472
B(  5-C ,  8-O ) :   0.2036 B(  5-C ,  9-O ) :  -0.1061 B(  8-O ,  9-O ) :   0.1386

MP2 TOTAL ENERGY:     -537.139911154 Eh
FINAL SINGLE POINT ENERGY      -537.139911153763

DIPOLE MOMENT
-------------
                                X             Y             Z
Electronic contribution:      1.47732       1.87758       2.31006
Nuclear contribution   :     -1.67652      -2.40818      -3.02029
                        -----------------------------------------
Total Dipole Moment    :     -0.19920      -0.53060      -0.71023
                        -----------------------------------------
Magnitude (a.u.)       :      0.90865
Magnitude (Debye)      :      2.30960

Rotational constants in cm-1:     0.052367     0.031507     0.030181
Rotational constants in MHz :  1569.924064   944.551972   904.798595

                             ****ORCA TERMINATED NORMALLY****
TOTAL RUN TIME: 0 days 2 hours 1 minutes 16 seconds 203 msec
