                         Program Version 5.0.4 -  RELEASE  -
|  1> !ri-mp2 aug-cc-pvqz aug-cc-pvqz/c tightscf
|  2> %pal nprocs 16 end
|  3> %maxcore 3800
|  4>
|  5> * xyz 0 1
|  6> C      2.773055    1.261111    0.000000
|  7> C      1.856389    2.329988    0.000000
|  8> C      2.317617   -0.031831    0.000000
|  9> C      0.505981    2.084632    0.000000
| 10> C      0.453695   -1.652390    0.000000
| 11> C     -1.801003   -0.844292    0.000000
| 12> C      0.931909   -0.319067    0.000000
| 13> C      0.000000    0.762178    0.000000
| 14> C     -0.887961   -1.928786    0.000000
| 15> C     -1.398841    0.467661    0.000000
| 16> C     -1.410513   -3.339932    0.000000
| 17> C     -2.419621    1.574311    0.000000
| 18> H      3.835851    1.463645    0.000000
| 19> H      2.220247    3.348890    0.000000
| 20> H      3.018072   -0.857766    0.000000
| 21> H     -0.183202    2.916945    0.000000
| 22> H      1.175542   -2.460565    0.000000
| 23> H     -2.862447   -1.065376    0.000000
| 24> H     -2.031880   -3.530639    0.877960
| 25> H     -2.031880   -3.530639   -0.877960
| 26> H     -0.598144   -4.065331    0.000000
| 27> H     -2.318622    2.216328    0.878002
| 28> H     -2.318622    2.216328   -0.878002
| 29> H     -3.429158    1.166683    0.000000
| 30> *
| 31>
| 32>                          ****END OF INPUT****

CARTESIAN COORDINATES (ANGSTROEM)
---------------------------------
  C      2.773055    1.261111    0.000000
  C      1.856389    2.329988    0.000000
  C      2.317617   -0.031831    0.000000
  C      0.505981    2.084632    0.000000
  C      0.453695   -1.652390    0.000000
  C     -1.801003   -0.844292    0.000000
  C      0.931909   -0.319067    0.000000
  C      0.000000    0.762178    0.000000
  C     -0.887961   -1.928786    0.000000
  C     -1.398841    0.467661    0.000000
  C     -1.410513   -3.339932    0.000000
  C     -2.419621    1.574311    0.000000
  H      3.835851    1.463645    0.000000
  H      2.220247    3.348890    0.000000
  H      3.018072   -0.857766    0.000000
  H     -0.183202    2.916945    0.000000
  H      1.175542   -2.460565    0.000000
  H     -2.862447   -1.065376    0.000000
  H     -2.031880   -3.530639    0.877960
  H     -2.031880   -3.530639   -0.877960
  H     -0.598144   -4.065331    0.000000
  H     -2.318622    2.216328    0.878002
  H     -2.318622    2.216328   -0.878002
  H     -3.429158    1.166683    0.000000

 Total Charge           Charge          ....    0
 Multiplicity           Mult            ....    1
 Number of Electrons    NEL             ....   84
 Basis Dimension        Dim             .... 1512

ORBITAL ENERGIES
----------------

  NO   OCC          E(Eh)            E(eV)
   0   2.0000     -11.241758      -305.9038
   1   2.0000     -11.238295      -305.8096
   2   2.0000     -11.238096      -305.8041
   3   2.0000     -11.235052      -305.7213
   4   2.0000     -11.231252      -305.6179
   5   2.0000     -11.230893      -305.6081
   6   2.0000     -11.229587      -305.5726
   7   2.0000     -11.228778      -305.5506
   8   2.0000     -11.223138      -305.3971
   9   2.0000     -11.222812      -305.3882
  10   2.0000     -11.221918      -305.3639
  11   2.0000     -11.221777      -305.3601
  12   2.0000      -1.176367       -32.0106
  13   2.0000      -1.115633       -30.3579
  14   2.0000      -1.068762       -29.0825
  15   2.0000      -1.024860       -27.8879
  16   2.0000      -0.998449       -27.1692
  17   2.0000      -0.943068       -25.6622
  18   2.0000      -0.925257       -25.1775
  19   2.0000      -0.842319       -22.9207
  20   2.0000      -0.817337       -22.2409
  21   2.0000      -0.782424       -21.2908
  22   2.0000      -0.701049       -19.0765
  23   2.0000      -0.692630       -18.8474
  24   2.0000      -0.660784       -17.9808
  25   2.0000      -0.619174       -16.8486
  26   2.0000      -0.602766       -16.4021
  27   2.0000      -0.584231       -15.8977
  28   2.0000      -0.581426       -15.8214
  29   2.0000      -0.574795       -15.6410
  30   2.0000      -0.569763       -15.5041
  31   2.0000      -0.551916       -15.0184
  32   2.0000      -0.544760       -14.8237
  33   2.0000      -0.530013       -14.4224
  34   2.0000      -0.515453       -14.0262
  35   2.0000      -0.510308       -13.8862
  36   2.0000      -0.478541       -13.0218
  37   2.0000      -0.466197       -12.6859
  38   2.0000      -0.434622       -11.8267
  39   2.0000      -0.374229       -10.1833
  40   2.0000      -0.312118        -8.4932
  41   2.0000      -0.282018        -7.6741
  42   0.0000       0.024237         0.6595
  43   0.0000       0.025935         0.7057
  44   0.0000       0.026668         0.7257
  45   0.0000       0.036574         0.9952
  46   0.0000       0.038064         1.0358

MULLIKEN ATOMIC CHARGES
-----------------------
   0 C :   -0.428045
   1 C :   -0.444228
   2 C :   -0.563325
   3 C :   -0.607657
   4 C :   -0.586547
   5 C :   -0.635600
   6 C :    0.905760
   7 C :    0.897948
   8 C :    0.290845
   9 C :    0.274965
  10 C :   -0.902608
  11 C :   -0.874165
  12 H :    0.261047
  13 H :    0.248422
  14 H :    0.156136
  15 H :    0.271145
  16 H :    0.150671
  17 H :    0.255019
  18 H :    0.240126
  19 H :    0.240125
  20 H :    0.246609
  21 H :    0.192219
  22 H :    0.192217
  23 H :    0.218922
Sum of atomic charges:   -0.0000000

LOEWDIN ATOMIC CHARGES
----------------------
   0 C :    0.352257
   1 C :    0.357874
   2 C :    0.356224
   3 C :    0.354773
   4 C :    0.364411
   5 C :    0.361347
   6 C :   -0.098206
   7 C :   -0.083679
   8 C :   -0.050079
   9 C :   -0.033379
  10 C :    0.909468
  11 C :    0.904351
  12 H :   -0.323969
  13 H :   -0.324284
  14 H :   -0.321890
  15 H :   -0.344430
  16 H :   -0.323478
  17 H :   -0.321368
  18 H :   -0.282589
  19 H :   -0.282589
  20 H :   -0.307459
  21 H :   -0.278621
  22 H :   -0.278621
  23 H :   -0.306063

  Mayer bond orders larger than 0.100000
B(  0-C ,  1-C ) :   1.1683 B(  0-C ,  2-C ) :   1.3777 B(  0-C ,  6-C ) :  -0.2677
B(  0-C ,  7-C ) :   0.1041 B(  0-C , 12-H ) :   1.1316 B(  1-C ,  2-C ) :   0.1265
B(  1-C ,  3-C ) :   1.2871 B(  1-C ,  7-C ) :  -0.3062 B(  1-C , 13-H ) :   1.1483
B(  1-C , 15-H ) :  -0.1024 B(  2-C ,  3-C ) :   0.1367 B(  2-C ,  4-C ) :  -0.4553
B(  2-C ,  6-C ) :   0.7153 B(  2-C ,  7-C ) :  -0.3767 B(  2-C , 12-H ) :  -0.1586
B(  2-C , 14-H ) :   1.2115 B(  3-C ,  6-C ) :  -0.1973 B(  3-C ,  7-C ) :   0.6596
B(  3-C ,  9-C ) :  -0.1278 B(  3-C , 13-H ) :  -0.1830 B(  3-C , 15-H ) :   0.9877
B(  4-C ,  5-C ) :   0.2318 B(  4-C ,  6-C ) :   0.6331 B(  4-C ,  7-C ) :  -0.1778
B(  4-C ,  8-C ) :   1.1463 B(  4-C ,  9-C ) :   0.1341 B(  4-C , 10-C ) :  -0.1855
B(  4-C , 16-H ) :   1.1136 B(  5-C ,  7-C ) :  -0.1255 B(  5-C ,  8-C ) :   0.8934
B(  5-C ,  9-C ) :   1.3061 B(  5-C , 10-C ) :  -0.1757 B(  5-C , 11-C ) :  -0.1532
B(  5-C , 17-H ) :   0.9651 B(  6-C ,  7-C ) :   0.6750 B(  6-C ,  8-C ) :  -0.6838
B(  6-C ,  9-C ) :  -0.3308 B(  6-C , 14-H ) :  -0.1718 B(  6-C , 16-H ) :  -0.1967
B(  7-C ,  8-C ) :   0.2897 B(  7-C ,  9-C ) :   0.2910 B(  7-C , 11-C ) :  -0.1208
B(  7-C , 15-H ) :  -0.2231 B(  8-C ,  9-C ) :  -0.4103 B(  8-C , 10-C ) :   0.8039
B(  8-C , 16-H ) :  -0.1089 B(  8-C , 17-H ) :  -0.1102 B(  8-C , 18-H ) :  -0.1368
B(  8-C , 19-H ) :  -0.1368 B(  9-C , 11-C ) :   0.6836 B(  9-C , 15-H ) :   0.1814
B(  9-C , 21-H ) :  -0.1566 B(  9-C , 22-H ) :  -0.1566 B(  9-C , 23-H ) :  -0.1059
B( 10-C , 18-H ) :   1.0428 B( 10-C , 19-H ) :   1.0428 B( 10-C , 20-H ) :   1.0375
B( 11-C , 21-H ) :   1.0791 B( 11-C , 22-H ) :   1.0791 B( 11-C , 23-H ) :   1.0468

MP2 TOTAL ENERGY:     -463.659485730 Eh
FINAL SINGLE POINT ENERGY      -463.659485730407

DIPOLE MOMENT
-------------
                                X             Y             Z
Electronic contribution:      5.36473       2.14990       0.00000
Nuclear contribution   :     -5.57835      -2.20286       0.00000
                        -----------------------------------------
Total Dipole Moment    :     -0.21362      -0.05297       0.00000
                        -----------------------------------------
Magnitude (a.u.)       :      0.22009
Magnitude (Debye)      :      0.55942

Rotational constants in cm-1:     0.052681     0.027337     0.018118
Rotational constants in MHz :  1579.348295   819.530026   543.158223

                             ****ORCA TERMINATED NORMALLY****
TOTAL RUN TIME: 0 days 3 hours 26 minutes 16 seconds 359 msec
