                         Program Version 5.0.4 -  RELEASE  -
|  1> !ri-mp2 aug-cc-pvqz aug-cc-pvqz/c tightscf
|  2> %pal nprocs 16 end
|  3> %maxcore 3800
|  4>
|  5> * xyz 0 1
|  6> C    -0.128603     0.754635    1.257237
|  7> C     0.128603    -0.754635    1.257237
|  8> C    -0.128603     0.754635   -1.257237
|  9> C     0.128603    -0.754635   -1.257237
| 10> C     0.420511     1.441390    0.000000
| 11> C    -0.420511    -1.441390    0.000000
| 12> C     0.128603     2.941424    0.000000
| 13> C    -0.128603    -2.941424    0.000000
| 14> H    -1.207697     0.938689    1.316247
| 15> H     0.309333     1.209266    2.149736
| 16> H     1.207697    -0.938689    1.316247
| 17> H    -0.309333    -1.209266    2.149736
| 18> H     0.309333     1.209266   -2.149736
| 19> H    -1.207697     0.938689   -1.316247
| 20> H    -0.309333    -1.209266   -2.149736
| 21> H     1.207697    -0.938689   -1.316247
| 22> H     1.509662     1.308301    0.000000
| 23> H    -1.509662    -1.308301    0.000000
| 24> H     0.549005     3.428483   -0.881999
| 25> H    -0.948008     3.128721    0.000000
| 26> H     0.549005     3.428483    0.881999
| 27> H     0.948008    -3.128721    0.000000
| 28> H    -0.549005    -3.428483    0.881999
| 29> H    -0.549005    -3.428483   -0.881999
| 30> *
| 31>
| 32>                          ****END OF INPUT****

CARTESIAN COORDINATES (ANGSTROEM)
---------------------------------
  C     -0.128603    0.754635    1.257237
  C      0.128603   -0.754635    1.257237
  C     -0.128603    0.754635   -1.257237
  C      0.128603   -0.754635   -1.257237
  C      0.420511    1.441390    0.000000
  C     -0.420511   -1.441390    0.000000
  C      0.128603    2.941424    0.000000
  C     -0.128603   -2.941424    0.000000
  H     -1.207697    0.938689    1.316247
  H      0.309333    1.209266    2.149736
  H      1.207697   -0.938689    1.316247
  H     -0.309333   -1.209266    2.149736
  H      0.309333    1.209266   -2.149736
  H     -1.207697    0.938689   -1.316247
  H     -0.309333   -1.209266   -2.149736
  H      1.207697   -0.938689   -1.316247
  H      1.509662    1.308301    0.000000
  H     -1.509662   -1.308301    0.000000
  H      0.549005    3.428483   -0.881999
  H     -0.948008    3.128721    0.000000
  H      0.549005    3.428483    0.881999
  H      0.948008   -3.128721    0.000000
  H     -0.549005   -3.428483    0.881999
  H     -0.549005   -3.428483   -0.881999

 Total Charge           Charge          ....    0
 Multiplicity           Mult            ....    1
 Number of Electrons    NEL             ....   64
 Basis Dimension        Dim             .... 1376

ORBITAL ENERGIES
----------------

  NO   OCC          E(Eh)            E(eV)
   0   2.0000     -11.216777      -305.2240
   1   2.0000     -11.216773      -305.2239
   2   2.0000     -11.209633      -305.0296
   3   2.0000     -11.209594      -305.0286
   4   2.0000     -11.209019      -305.0129
   5   2.0000     -11.208989      -305.0121
   6   2.0000     -11.205598      -304.9198
   7   2.0000     -11.205598      -304.9198
   8   2.0000      -1.121787       -30.5254
   9   2.0000      -1.048400       -28.5284
  10   2.0000      -0.998266       -27.1642
  11   2.0000      -0.953374       -25.9426
  12   2.0000      -0.876736       -23.8572
  13   2.0000      -0.831024       -22.6133
  14   2.0000      -0.779510       -21.2115
  15   2.0000      -0.747772       -20.3479
  16   2.0000      -0.635886       -17.3033
  17   2.0000      -0.602640       -16.3987
  18   2.0000      -0.599210       -16.3053
  19   2.0000      -0.599027       -16.3003
  20   2.0000      -0.582683       -15.8556
  21   2.0000      -0.549994       -14.9661
  22   2.0000      -0.537761       -14.6332
  23   2.0000      -0.519625       -14.1397
  24   2.0000      -0.511606       -13.9215
  25   2.0000      -0.496582       -13.5127
  26   2.0000      -0.480233       -13.0678
  27   2.0000      -0.467344       -12.7171
  28   2.0000      -0.456900       -12.4329
  29   2.0000      -0.445622       -12.1260
  30   2.0000      -0.422470       -11.4960
  31   2.0000      -0.416298       -11.3281
  32   0.0000       0.027301         0.7429
  33   0.0000       0.029403         0.8001
  34   0.0000       0.030718         0.8359
  35   0.0000       0.031188         0.8487
  36   0.0000       0.042052         1.1443

MULLIKEN ATOMIC CHARGES
-----------------------
   0 C :   -0.481863
   1 C :   -0.482057
   2 C :   -0.482034
   3 C :   -0.482017
   4 C :    0.331301
   5 C :    0.331257
   6 C :   -0.983505
   7 C :   -0.983544
   8 H :    0.180223
   9 H :    0.232403
  10 H :    0.180047
  11 H :    0.232477
  12 H :    0.232473
  13 H :    0.180090
  14 H :    0.232486
  15 H :    0.180200
  16 H :    0.206855
  17 H :    0.206676
  18 H :    0.208395
  19 H :    0.167531
  20 H :    0.208356
  21 H :    0.167517
  22 H :    0.208333
  23 H :    0.208399
Sum of atomic charges:   -0.0000000

LOEWDIN ATOMIC CHARGES
----------------------
   0 C :    0.536577
   1 C :    0.536577
   2 C :    0.536577
   3 C :    0.536577
   4 C :    0.117542
   5 C :    0.117542
   6 C :    0.933601
   7 C :    0.933601
   8 H :   -0.260636
   9 H :   -0.256970
  10 H :   -0.260636
  11 H :   -0.256970
  12 H :   -0.256970
  13 H :   -0.260636
  14 H :   -0.256970
  15 H :   -0.260636
  16 H :   -0.263982
  17 H :   -0.263983
  18 H :   -0.274500
  19 H :   -0.276101
  20 H :   -0.274500
  21 H :   -0.276101
  22 H :   -0.274500
  23 H :   -0.274500

  Mayer bond orders larger than 0.100000
B(  0-C ,  1-C ) :   0.9040 B(  0-C ,  4-C ) :   0.7083 B(  0-C ,  8-H ) :   0.9798
B(  0-C ,  9-H ) :   0.9966 B(  1-C ,  5-C ) :   0.7084 B(  1-C , 10-H ) :   0.9800
B(  1-C , 11-H ) :   0.9966 B(  2-C ,  3-C ) :   0.9043 B(  2-C ,  4-C ) :   0.7084
B(  2-C , 12-H ) :   0.9966 B(  2-C , 13-H ) :   0.9798 B(  3-C ,  5-C ) :   0.7083
B(  3-C , 14-H ) :   0.9966 B(  3-C , 15-H ) :   0.9798 B(  4-C ,  6-C ) :   0.4868
B(  4-C , 16-H ) :   0.9866 B(  4-C , 18-H ) :  -0.1390 B(  4-C , 20-H ) :  -0.1390
B(  5-C ,  7-C ) :   0.4867 B(  5-C , 17-H ) :   0.9868 B(  5-C , 22-H ) :  -0.1390
B(  5-C , 23-H ) :  -0.1390 B(  6-C , 18-H ) :   1.0981 B(  6-C , 19-H ) :   1.0456
B(  6-C , 20-H ) :   1.0982 B(  7-C , 21-H ) :   1.0456 B(  7-C , 22-H ) :   1.0983
B(  7-C , 23-H ) :   1.0981

MP2 TOTAL ENERGY:     -313.894191831 Eh
FINAL SINGLE POINT ENERGY      -313.894191831425

DIPOLE MOMENT
-------------
                                X             Y             Z
Electronic contribution:     -0.00000       0.00000       0.00000
Nuclear contribution   :      0.00000       0.00000       0.00000
                        -----------------------------------------
Total Dipole Moment    :     -0.00000       0.00000       0.00000
                        -----------------------------------------
Magnitude (a.u.)       :      0.00000
Magnitude (Debye)      :      0.00000

Rotational constants in cm-1:     0.137400     0.043847     0.035779
Rotational constants in MHz :  4119.136534  1314.511380  1072.621317

                             ****ORCA TERMINATED NORMALLY****
TOTAL RUN TIME: 0 days 2 hours 26 minutes 59 seconds 150 msec
