                         Program Version 5.0.4 -  RELEASE  -
|  1> !ri-mp2 aug-cc-pvqz aug-cc-pvqz/c tightscf
|  2> %pal nprocs 16 end
|  3>
|  4> * xyz 0 1
|  5> O     1.498061     2.666221    0.000000
|  6> O    -1.498061    -2.666221    0.000000
|  7> C     1.498061     1.237514    0.000000
|  8> C    -1.498061    -1.237514    0.000000
|  9> C     0.056538     0.762057    0.000000
| 10> C    -0.056538    -0.762057    0.000000
| 11> H     2.406126     2.980641    0.000000
| 12> H    -2.406126    -2.980641    0.000000
| 13> H    -0.445072     1.179692    0.876807
| 14> H    -0.445072     1.179692   -0.876807
| 15> H     0.445072    -1.179692    0.876807
| 16> H     0.445072    -1.179692   -0.876807
| 17> H    -2.018661    -0.854825   -0.885586
| 18> H    -2.018661    -0.854825    0.885586
| 19> H     2.018661     0.854825   -0.885586
| 20> H     2.018661     0.854825    0.885586
| 21> *
| 22>
| 23>                          ****END OF INPUT****

CARTESIAN COORDINATES (ANGSTROEM)
---------------------------------
  O      1.498061    2.666221    0.000000
  O     -1.498061   -2.666221    0.000000
  C      1.498061    1.237514    0.000000
  C     -1.498061   -1.237514    0.000000
  C      0.056538    0.762057    0.000000
  C     -0.056538   -0.762057    0.000000
  H      2.406126    2.980641    0.000000
  H     -2.406126   -2.980641    0.000000
  H     -0.445072    1.179692    0.876807
  H     -0.445072    1.179692   -0.876807
  H      0.445072   -1.179692    0.876807
  H      0.445072   -1.179692   -0.876807
  H     -2.018661   -0.854825   -0.885586
  H     -2.018661   -0.854825    0.885586
  H      2.018661    0.854825   -0.885586
  H      2.018661    0.854825    0.885586

 Total Charge           Charge          ....    0
 Multiplicity           Mult            ....    1
 Number of Electrons    NEL             ....   50
 Basis Dimension        Dim             ....  940

ORBITAL ENERGIES
----------------

  NO   OCC          E(Eh)            E(eV)
   0   2.0000     -20.553962      -559.3017
   1   2.0000     -20.553962      -559.3017
   2   2.0000     -11.274330      -306.7901
   3   2.0000     -11.274328      -306.7901
   4   2.0000     -11.219400      -305.2954
   5   2.0000     -11.218782      -305.2786
   6   2.0000      -1.355437       -36.8833
   7   2.0000      -1.354998       -36.8714
   8   2.0000      -1.071849       -29.1665
   9   2.0000      -0.968320       -26.3493
  10   2.0000      -0.848220       -23.0813
  11   2.0000      -0.801081       -21.7985
  12   2.0000      -0.701104       -19.0780
  13   2.0000      -0.677486       -18.4353
  14   2.0000      -0.670818       -18.2539
  15   2.0000      -0.633517       -17.2389
  16   2.0000      -0.597702       -16.2643
  17   2.0000      -0.556302       -15.1377
  18   2.0000      -0.550906       -14.9909
  19   2.0000      -0.501195       -13.6382
  20   2.0000      -0.499666       -13.5966
  21   2.0000      -0.485292       -13.2055
  22   2.0000      -0.468027       -12.7357
  23   2.0000      -0.447044       -12.1647
  24   2.0000      -0.441862       -12.0237
  25   0.0000       0.025528         0.6947
  26   0.0000       0.027313         0.7432
  27   0.0000       0.036303         0.9879
  28   0.0000       0.037907         1.0315
  29   0.0000       0.046163         1.2562

MULLIKEN ATOMIC CHARGES
-----------------------
   0 O :   -0.850565
   1 O :   -0.850565
   2 C :    0.069536
   3 C :    0.069536
   4 C :   -0.510548
   5 C :   -0.510547
   6 H :    0.301458
   7 H :    0.301458
   8 H :    0.252647
   9 H :    0.252647
  10 H :    0.252646
  11 H :    0.252648
  12 H :    0.242412
  13 H :    0.242412
  14 H :    0.242412
  15 H :    0.242411
Sum of atomic charges:   -0.0000000

LOEWDIN ATOMIC CHARGES
----------------------
   0 O :    1.265602
   1 O :    1.265602
   2 C :    0.180885
   3 C :    0.180885
   4 C :    0.479761
   5 C :    0.479761
   6 H :   -0.792073
   7 H :   -0.792073
   8 H :   -0.275956
   9 H :   -0.275956
  10 H :   -0.275956
  11 H :   -0.275956
  12 H :   -0.291131
  13 H :   -0.291131
  14 H :   -0.291131
  15 H :   -0.291131

  Mayer bond orders larger than 0.100000
B(  0-O ,  2-C ) :   0.6238 B(  0-O ,  4-C ) :   0.1270 B(  0-O ,  6-H ) :   0.9540
B(  1-O ,  3-C ) :   0.6238 B(  1-O ,  5-C ) :   0.1270 B(  1-O ,  7-H ) :   0.9540
B(  2-C ,  4-C ) :   1.2003 B(  2-C , 14-H ) :   0.8945 B(  2-C , 15-H ) :   0.8945
B(  3-C ,  5-C ) :   1.2003 B(  3-C , 12-H ) :   0.8945 B(  3-C , 13-H ) :   0.8945
B(  4-C ,  5-C ) :   0.8948 B(  4-C ,  8-H ) :   0.8654 B(  4-C ,  9-H ) :   0.8654
B(  5-C , 10-H ) :   0.8654 B(  5-C , 11-H ) :   0.8654

MP2 TOTAL ENERGY:     -308.419096714 Eh
FINAL SINGLE POINT ENERGY      -308.419096713714

DIPOLE MOMENT
-------------
                                X             Y             Z
Electronic contribution:      0.00000       0.00000      -0.00000
Nuclear contribution   :      0.00000       0.00000       0.00000
                        -----------------------------------------
Total Dipole Moment    :      0.00000       0.00000      -0.00000
                        -----------------------------------------
Magnitude (a.u.)       :      0.00000
Magnitude (Debye)      :      0.00000

Rotational constants in cm-1:     0.577410     0.038079     0.036697
Rotational constants in MHz : 17310.328996  1141.591641  1100.160929

                             ****ORCA TERMINATED NORMALLY****
TOTAL RUN TIME: 0 days 0 hours 31 minutes 6 seconds 501 msec
