                         Program Version 5.0.4 -  RELEASE  -
|  1> !ri-mp2 aug-cc-pvqz aug-cc-pvqz/c tightscf
|  2> %pal nprocs 16 end
|  3>
|  4> * xyz 0 1
|  5> O     -0.804673   -0.888677   -0.282832
|  6> O      0.593732   -1.074262    0.088267
|  7> N      0.083188    1.201711   -0.098487
|  8> C     -1.066719    0.402826    0.261301
|  9> C      1.178668    0.263372    0.057915
| 10> H     -1.160116    0.336299    1.347953
| 11> H     -1.985776    0.765925   -0.193125
| 12> H      1.887205    0.349580   -0.766514
| 13> H      1.686489    0.379914    1.015848
| 14> H      0.005718    1.462625   -1.073532
| 15> *
| 16>
| 17>                          ****END OF INPUT****

CARTESIAN COORDINATES (ANGSTROEM)
---------------------------------
  O     -0.804673   -0.888677   -0.282832
  O      0.593732   -1.074262    0.088267
  N      0.083188    1.201711   -0.098487
  C     -1.066719    0.402826    0.261301
  C      1.178668    0.263372    0.057915
  H     -1.160116    0.336299    1.347953
  H     -1.985776    0.765925   -0.193125
  H      1.887205    0.349580   -0.766514
  H      1.686489    0.379914    1.015848
  H      0.005718    1.462625   -1.073532

 Total Charge           Charge          ....    0
 Multiplicity           Mult            ....    1
 Number of Electrons    NEL             ....   40
 Basis Dimension        Dim             ....  630

ORBITAL ENERGIES
----------------

  NO   OCC          E(Eh)            E(eV)
   0   2.0000     -20.622752      -561.1736
   1   2.0000     -20.617900      -561.0416
   2   2.0000     -15.574639      -423.8075
   3   2.0000     -11.321352      -308.0697
   4   2.0000     -11.321080      -308.0622
   5   2.0000      -1.486579       -40.4519
   6   2.0000      -1.233218       -33.5576
   7   2.0000      -1.226502       -33.3748
   8   2.0000      -0.910789       -24.7838
   9   2.0000      -0.881067       -23.9751
  10   2.0000      -0.742041       -20.1920
  11   2.0000      -0.706304       -19.2195
  12   2.0000      -0.649789       -17.6817
  13   2.0000      -0.641048       -17.4438
  14   2.0000      -0.569066       -15.4851
  15   2.0000      -0.559015       -15.2116
  16   2.0000      -0.545567       -14.8456
  17   2.0000      -0.509761       -13.8713
  18   2.0000      -0.445168       -12.1136
  19   2.0000      -0.422902       -11.5077
  20   0.0000       0.024234         0.6595
  21   0.0000       0.033446         0.9101
  22   0.0000       0.034469         0.9380
  23   0.0000       0.050292         1.3685
  24   0.0000       0.052803         1.4368

MULLIKEN ATOMIC CHARGES
-----------------------
   0 O :   -0.486807
   1 O :   -0.464381
   2 N :   -0.580969
   3 C :   -0.027795
   4 C :   -0.060380
   5 H :    0.266486
   6 H :    0.429609
   7 H :    0.352941
   8 H :    0.316860
   9 H :    0.254436
Sum of atomic charges:   -0.0000000

LOEWDIN ATOMIC CHARGES
----------------------
   0 O :    0.526325
   1 O :    0.526356
   2 N :    0.856336
   3 C :   -0.080659
   4 C :   -0.015763
   5 H :   -0.316849
   6 H :   -0.319063
   7 H :   -0.312446
   8 H :   -0.328864
   9 H :   -0.535374

  Mayer bond orders larger than 0.100000
B(  0-O ,  1-O ) :   0.8107 B(  0-O ,  3-C ) :   0.7337 B(  1-O ,  4-C ) :   0.7285
B(  2-N ,  3-C ) :   0.9921 B(  2-N ,  4-C ) :   1.0040 B(  2-N ,  9-H ) :   0.8970
B(  3-C ,  5-H ) :   0.9214 B(  3-C ,  6-H ) :   0.7655 B(  4-C ,  7-H ) :   0.8518
B(  4-C ,  8-H ) :   0.8510

MP2 TOTAL ENERGY:     -283.921907413 Eh
FINAL SINGLE POINT ENERGY      -283.921907413161

DIPOLE MOMENT
-------------
                                X             Y             Z
Electronic contribution:     -0.39619      -2.36071      -0.47169
Nuclear contribution   :      0.43100       3.27289       0.32723
                        -----------------------------------------
Total Dipole Moment    :      0.03482       0.91218      -0.14446
                        -----------------------------------------
Magnitude (a.u.)       :      0.92420
Magnitude (Debye)      :      2.34913

Rotational constants in cm-1:     0.263868     0.257245     0.146112
Rotational constants in MHz :  7910.555240  7712.011839  4380.327245

                             ****ORCA TERMINATED NORMALLY****
TOTAL RUN TIME: 0 days 0 hours 7 minutes 47 seconds 693 msec
