                         Program Version 5.0.4 -  RELEASE  -
|  1> !ri-mp2 aug-cc-pvqz aug-cc-pvqz/c tightscf
|  2> %pal nprocs 16 end
|  3>
|  4> * xyz 0 1
|  5> C      1.780721   -1.390068        0.000000
|  6> C      2.244479   -0.063173        0.000000
|  7> C      0.427376   -1.674703        0.000000
|  8> C      1.363098    1.004249        0.000000
|  9> C     -1.922320   -0.531592        0.000000
| 10> C     -2.246341    0.794059        0.000000
| 11> C     -0.491170   -0.616487        0.000000
| 12> C      0.000000    0.713959        0.000000
| 13> N     -1.093515    1.551035        0.000000
| 14> H      2.498544   -2.199111        0.000000
| 15> H      3.309164    0.126774        0.000000
| 16> H      0.081991   -2.700230        0.000000
| 17> H      1.723021    2.024849        0.000000
| 18> H     -2.621351   -1.350213        0.000000
| 19> H     -3.211971    1.269781        0.000000
| 20> H     -1.059845    2.553449        0.000000
| 21> *
| 22>
| 23>                          ****END OF INPUT****

CARTESIAN COORDINATES (ANGSTROEM)
---------------------------------
  C      1.780721   -1.390068    0.000000
  C      2.244479   -0.063173    0.000000
  C      0.427376   -1.674703    0.000000
  C      1.363098    1.004249    0.000000
  C     -1.922320   -0.531592    0.000000
  C     -2.246341    0.794059    0.000000
  C     -0.491170   -0.616487    0.000000
  C      0.000000    0.713959    0.000000
  N     -1.093515    1.551035    0.000000
  H      2.498544   -2.199111    0.000000
  H      3.309164    0.126774    0.000000
  H      0.081991   -2.700230    0.000000
  H      1.723021    2.024849    0.000000
  H     -2.621351   -1.350213    0.000000
  H     -3.211971    1.269781    0.000000
  H     -1.059845    2.553449    0.000000

 Total Charge           Charge          ....    0
 Multiplicity           Mult            ....    1
 Number of Electrons    NEL             ....   62
 Basis Dimension        Dim             .... 1042

ORBITAL ENERGIES
----------------

  NO   OCC          E(Eh)            E(eV)
   0   2.0000     -15.601065      -424.5266
   1   2.0000     -11.269507      -306.6589
   2   2.0000     -11.264119      -306.5123
   3   2.0000     -11.229325      -305.5655
   4   2.0000     -11.227809      -305.5242
   5   2.0000     -11.226525      -305.4893
   6   2.0000     -11.224323      -305.4294
   7   2.0000     -11.218500      -305.2709
   8   2.0000     -11.215261      -305.1828
   9   2.0000      -1.296546       -35.2808
  10   2.0000      -1.131335       -30.7852
  11   2.0000      -1.057383       -28.7728
  12   2.0000      -0.998202       -27.1625
  13   2.0000      -0.976487       -26.5716
  14   2.0000      -0.843854       -22.9624
  15   2.0000      -0.807619       -21.9764
  16   2.0000      -0.789933       -21.4952
  17   2.0000      -0.729690       -19.8559
  18   2.0000      -0.662234       -18.0203
  19   2.0000      -0.649548       -17.6751
  20   2.0000      -0.603286       -16.4162
  21   2.0000      -0.596754       -16.2385
  22   2.0000      -0.584908       -15.9162
  23   2.0000      -0.577082       -15.7032
  24   2.0000      -0.550457       -14.9787
  25   2.0000      -0.508805       -13.8453
  26   2.0000      -0.482584       -13.1318
  27   2.0000      -0.466765       -12.7013
  28   2.0000      -0.386683       -10.5222
  29   2.0000      -0.302165        -8.2223
  30   2.0000      -0.284666        -7.7461
  31   0.0000       0.020948         0.5700
  32   0.0000       0.027484         0.7479
  33   0.0000       0.029897         0.8135
  34   0.0000       0.039251         1.0681
  35   0.0000       0.040274         1.0959

MULLIKEN ATOMIC CHARGES
-----------------------
   0 C :   -0.452102
   1 C :   -0.343790
   2 C :   -0.423544
   3 C :   -0.374305
   4 C :   -0.295254
   5 C :   -0.565356
   6 C :    0.280305
   7 C :    0.705038
   8 N :   -0.529839
   9 H :    0.228829
  10 H :    0.263048
  11 H :    0.277322
  12 H :    0.326674
  13 H :    0.350465
  14 H :    0.415615
  15 H :    0.136896
Sum of atomic charges:   -0.0000000

LOEWDIN ATOMIC CHARGES
----------------------
   0 C :    0.328367
   1 C :    0.325627
   2 C :    0.358787
   3 C :    0.373912
   4 C :    0.360115
   5 C :    0.230220
   6 C :   -0.151876
   7 C :   -0.283177
   8 N :    0.839765
   9 H :   -0.335393
  10 H :   -0.331510
  11 H :   -0.319676
  12 H :   -0.321466
  13 H :   -0.323549
  14 H :   -0.301433
  15 H :   -0.448713

  Mayer bond orders larger than 0.100000
B(  0-C ,  1-C ) :   1.1069 B(  0-C ,  2-C ) :   1.3202 B(  0-C ,  6-C ) :  -0.1710
B(  0-C ,  9-H ) :   1.1463 B(  0-C , 10-H ) :  -0.1154 B(  1-C ,  3-C ) :   1.3931
B(  1-C ,  7-C ) :  -0.3377 B(  1-C ,  9-H ) :  -0.1014 B(  1-C , 10-H ) :   1.0976
B(  2-C ,  3-C ) :   0.1263 B(  2-C ,  4-C ) :  -0.1578 B(  2-C ,  6-C ) :   0.9597
B(  2-C ,  7-C ) :  -0.1739 B(  2-C ,  9-H ) :  -0.1512 B(  2-C , 11-H ) :   1.0614
B(  3-C ,  6-C ) :  -0.1251 B(  3-C ,  7-C ) :   0.9899 B(  3-C ,  8-N ) :  -0.1928
B(  3-C , 10-H ) :  -0.1186 B(  3-C , 12-H ) :   0.9477 B(  4-C ,  5-C ) :   1.6243
B(  4-C ,  6-C ) :   0.9346 B(  4-C ,  7-C ) :  -0.2349 B(  4-C , 13-H ) :   0.9443
B(  5-C ,  6-C ) :  -0.1334 B(  5-C ,  7-C ) :  -0.1022 B(  5-C ,  8-N ) :   1.0964
B(  5-C , 14-H ) :   0.9363 B(  6-C ,  7-C ) :   1.0113 B(  6-C , 11-H ) :  -0.1495
B(  7-C ,  8-N ) :   0.7375 B(  7-C , 15-H ) :  -0.1130 B(  8-N , 15-H ) :   1.1527

MP2 TOTAL ENERGY:     -363.177572922 Eh
FINAL SINGLE POINT ENERGY      -363.177572922397

DIPOLE MOMENT
-------------
                                X             Y             Z
Electronic contribution:     -1.05490       1.00225      -0.00000
Nuclear contribution   :      0.70881      -0.26399       0.00000
                        -----------------------------------------
Total Dipole Moment    :     -0.34609       0.73826      -0.00000
                        -----------------------------------------
Magnitude (a.u.)       :      0.81536
Magnitude (Debye)      :      2.07247

Rotational constants in cm-1:     0.130238     0.054749     0.038546
Rotational constants in MHz :  3904.431572  1641.340721  1155.565391

                             ****ORCA TERMINATED NORMALLY****
TOTAL RUN TIME: 0 days 0 hours 52 minutes 27 seconds 41 msec
