                         Program Version 5.0.4 -  RELEASE  -
|  1> !ri-mp2 aug-cc-pvqz aug-cc-pvqz/c tightscf
|  2> %pal nprocs 16 end
|  3>
|  4> * xyz 0 1
|  5> C      0.604942    1.720376    0.000000
|  6> C      0.606915    3.019337    0.000000
|  7> C      0.604942    0.411180    0.000000
|  8> C     -0.604954   -0.411180    0.000000
|  9> C     -0.604953   -1.720376    0.000000
| 10> C     -0.606912   -3.019337    0.000000
| 11> H      0.608735    3.586335    0.924515
| 12> H      0.608735    3.586335   -0.924515
| 13> H      1.556375   -0.110823    0.000000
| 14> H     -1.556386    0.110823    0.000000
| 15> H     -0.608669   -3.586335   -0.924515
| 16> H     -0.608669   -3.586335    0.924515
| 17> *
| 18>
| 19>                          ****END OF INPUT****

CARTESIAN COORDINATES (ANGSTROEM)
---------------------------------
  C      0.604942    1.720376    0.000000
  C      0.606915    3.019337    0.000000
  C      0.604942    0.411180    0.000000
  C     -0.604954   -0.411180    0.000000
  C     -0.604953   -1.720376    0.000000
  C     -0.606912   -3.019337    0.000000
  H      0.608735    3.586335    0.924515
  H      0.608735    3.586335   -0.924515
  H      1.556375   -0.110823    0.000000
  H     -1.556386    0.110823    0.000000
  H     -0.608669   -3.586335   -0.924515
  H     -0.608669   -3.586335    0.924515

 Total Charge           Charge          ....    0
 Multiplicity           Mult            ....    1
 Number of Electrons    NEL             ....   42
 Basis Dimension        Dim             ....  756

ORBITAL ENERGIES
----------------

  NO   OCC          E(Eh)            E(eV)
   0   2.0000     -11.257920      -306.3436
   1   2.0000     -11.257914      -306.3434
   2   2.0000     -11.250271      -306.1354
   3   2.0000     -11.249480      -306.1139
   4   2.0000     -11.239019      -305.8293
   5   2.0000     -11.239019      -305.8293
   6   2.0000      -1.114905       -30.3381
   7   2.0000      -1.063204       -28.9312
   8   2.0000      -0.996674       -27.1209
   9   2.0000      -0.920170       -25.0391
  10   2.0000      -0.727770       -19.8036
  11   2.0000      -0.715932       -19.4815
  12   2.0000      -0.656024       -17.8513
  13   2.0000      -0.629541       -17.1307
  14   2.0000      -0.612210       -16.6591
  15   2.0000      -0.608705       -16.5637
  16   2.0000      -0.574355       -15.6290
  17   2.0000      -0.448267       -12.1980
  18   2.0000      -0.393537       -10.7087
  19   2.0000      -0.377416       -10.2700
  20   2.0000      -0.323554        -8.8043
  21   0.0000       0.025199         0.6857
  22   0.0000       0.029887         0.8133
  23   0.0000       0.035974         0.9789
  24   0.0000       0.037628         1.0239
  25   0.0000       0.044798         1.2190

MULLIKEN ATOMIC CHARGES
-----------------------
   0 C :   -0.007639
   1 C :   -0.546203
   2 C :   -0.569738
   3 C :   -0.569704
   4 C :   -0.007656
   5 C :   -0.546230
   6 H :    0.357468
   7 H :    0.357468
   8 H :    0.408644
   9 H :    0.408649
  10 H :    0.357471
  11 H :    0.357471
Sum of atomic charges:   -0.0000000

LOEWDIN ATOMIC CHARGES
----------------------
   0 C :    0.190945
   1 C :    0.724019
   2 C :    0.239680
   3 C :    0.239680
   4 C :    0.190945
   5 C :    0.724019
   6 H :   -0.388837
   7 H :   -0.388837
   8 H :   -0.376969
   9 H :   -0.376971
  10 H :   -0.388837
  11 H :   -0.388837

  Mayer bond orders larger than 0.100000
B(  0-C ,  1-C ) :   1.9194 B(  0-C ,  2-C ) :   1.9131 B(  0-C ,  3-C ) :  -0.1042
B(  1-C ,  2-C ) :  -0.2825 B(  1-C ,  6-H ) :   0.8921 B(  1-C ,  7-H ) :   0.8921
B(  2-C ,  3-C ) :   0.8125 B(  2-C ,  4-C ) :  -0.1042 B(  2-C ,  8-H ) :   0.7683
B(  3-C ,  4-C ) :   1.9131 B(  3-C ,  5-C ) :  -0.2826 B(  3-C ,  9-H ) :   0.7683
B(  4-C ,  5-C ) :   1.9194 B(  5-C , 10-H ) :   0.8921 B(  5-C , 11-H ) :   0.8921

MP2 TOTAL ENERGY:     -231.670651201 Eh
FINAL SINGLE POINT ENERGY      -231.670651200802

DIPOLE MOMENT
-------------
                                X             Y             Z
Electronic contribution:     -0.00008       0.00000       0.00000
Nuclear contribution   :      0.00012       0.00000       0.00000
                        -----------------------------------------
Total Dipole Moment    :      0.00004       0.00000       0.00000
                        -----------------------------------------
Magnitude (a.u.)       :      0.00004
Magnitude (Debye)      :      0.00010

Rotational constants in cm-1:     1.094018     0.045521     0.044498
Rotational constants in MHz : 32797.823596  1364.679694  1334.001773

                             ****ORCA TERMINATED NORMALLY****
TOTAL RUN TIME: 0 days 0 hours 14 minutes 40 seconds 709 msec
