                         Program Version 5.0.4 -  RELEASE  -
|  1> !ri-mp2 aug-cc-pvqz aug-cc-pvqz/c tightscf
|  2> %pal nprocs 16 end
|  3> %maxcore 3800
|  4>
|  5> * xyz 0 1
|  6> C     -1.970214    0.143052    0.172978
|  7> C     -1.480744   -1.307690    0.157221
|  8> C     -1.121757    1.024428   -0.749887
|  9> C      0.015884   -1.401750    0.468056
| 10> C      0.383838    0.959334   -0.431292
| 11> C      0.859319   -0.515324   -0.460979
| 12> C      0.725765    1.702133    0.867397
| 13> C      2.355971   -0.676582   -0.191592
| 14> H     -3.018288    0.190873   -0.131201
| 15> H     -1.932318    0.529274    1.195719
| 16> H     -2.052364   -1.909311    0.867681
| 17> H     -1.667570   -1.737320   -0.832885
| 18> H     -1.274482    0.696175   -1.783249
| 19> H     -1.464303    2.061271   -0.701898
| 20> H      0.192158   -1.114610    1.509552
| 21> H      0.350636   -2.438687    0.380000
| 22> H      0.910384    1.478545   -1.239286
| 23> H      0.676087   -0.866606   -1.483879
| 24> H      0.286020    1.232479    1.747768
| 25> H      1.802459    1.755395    1.027304
| 26> H      0.352228    2.726827    0.824022
| 27> H      2.609678   -0.437246    0.842406
| 28> H      2.671869   -1.705362   -0.374491
| 29> H      2.949430   -0.027309   -0.838979
| 30> *
| 31>
| 32>                          ****END OF INPUT****

CARTESIAN COORDINATES (ANGSTROEM)
---------------------------------
  C     -1.970214    0.143052    0.172978
  C     -1.480744   -1.307690    0.157221
  C     -1.121757    1.024428   -0.749887
  C      0.015884   -1.401750    0.468056
  C      0.383838    0.959334   -0.431292
  C      0.859319   -0.515324   -0.460979
  C      0.725765    1.702133    0.867397
  C      2.355971   -0.676582   -0.191592
  H     -3.018288    0.190873   -0.131201
  H     -1.932318    0.529274    1.195719
  H     -2.052364   -1.909311    0.867681
  H     -1.667570   -1.737320   -0.832885
  H     -1.274482    0.696175   -1.783249
  H     -1.464303    2.061271   -0.701898
  H      0.192158   -1.114610    1.509552
  H      0.350636   -2.438687    0.380000
  H      0.910384    1.478545   -1.239286
  H      0.676087   -0.866606   -1.483879
  H      0.286020    1.232479    1.747768
  H      1.802459    1.755395    1.027304
  H      0.352228    2.726827    0.824022
  H      2.609678   -0.437246    0.842406
  H      2.671869   -1.705362   -0.374491
  H      2.949430   -0.027309   -0.838979

 Total Charge           Charge          ....    0
 Multiplicity           Mult            ....    1
 Number of Electrons    NEL             ....   64
 Basis Dimension        Dim             .... 1376

ORBITAL ENERGIES
----------------

  NO   OCC          E(Eh)            E(eV)
   0   2.0000     -11.217086      -305.2324
   1   2.0000     -11.216319      -305.2116
   2   2.0000     -11.210237      -305.0460
   3   2.0000     -11.209536      -305.0270
   4   2.0000     -11.208769      -305.0061
   5   2.0000     -11.208370      -304.9953
   6   2.0000     -11.204996      -304.9034
   7   2.0000     -11.204190      -304.8815
   8   2.0000      -1.121422       -30.5154
   9   2.0000      -1.029435       -28.0124
  10   2.0000      -1.017568       -27.6894
  11   2.0000      -0.939082       -25.5537
  12   2.0000      -0.896281       -24.3890
  13   2.0000      -0.815675       -22.1956
  14   2.0000      -0.796168       -21.6648
  15   2.0000      -0.720112       -19.5952
  16   2.0000      -0.646912       -17.6034
  17   2.0000      -0.619692       -16.8627
  18   2.0000      -0.601971       -16.3805
  19   2.0000      -0.590870       -16.0784
  20   2.0000      -0.565532       -15.3889
  21   2.0000      -0.553773       -15.0689
  22   2.0000      -0.537574       -14.6281
  23   2.0000      -0.525697       -14.3049
  24   2.0000      -0.509928       -13.8758
  25   2.0000      -0.494838       -13.4652
  26   2.0000      -0.478697       -13.0260
  27   2.0000      -0.472452       -12.8561
  28   2.0000      -0.460687       -12.5359
  29   2.0000      -0.436445       -11.8763
  30   2.0000      -0.418078       -11.3765
  31   2.0000      -0.414318       -11.2742
  32   0.0000       0.026074         0.7095
  33   0.0000       0.029740         0.8093
  34   0.0000       0.030467         0.8291
  35   0.0000       0.031634         0.8608
  36   0.0000       0.043000         1.1701

MULLIKEN ATOMIC CHARGES
-----------------------
   0 C :   -0.359981
   1 C :   -0.548214
   2 C :   -0.537070
   3 C :   -0.322926
   4 C :    0.324390
   5 C :    0.438975
   6 C :   -1.010608
   7 C :   -1.008608
   8 H :    0.252319
   9 H :    0.128680
  10 H :    0.210061
  11 H :    0.113656
  12 H :    0.124777
  13 H :    0.171563
  14 H :    0.162031
  15 H :    0.226828
  16 H :    0.313015
  17 H :    0.176852
  18 H :    0.180122
  19 H :    0.200339
  20 H :    0.199211
  21 H :    0.154816
  22 H :    0.228941
  23 H :    0.180833
Sum of atomic charges:   -0.0000000

LOEWDIN ATOMIC CHARGES
----------------------
   0 C :    0.543498
   1 C :    0.550073
   2 C :    0.539508
   3 C :    0.531634
   4 C :    0.142248
   5 C :    0.126976
   6 C :    0.937330
   7 C :    0.936272
   8 H :   -0.258916
   9 H :   -0.272496
  10 H :   -0.258226
  11 H :   -0.263002
  12 H :   -0.261190
  13 H :   -0.261804
  14 H :   -0.270561
  15 H :   -0.258167
  16 H :   -0.270856
  17 H :   -0.273717
  18 H :   -0.283765
  19 H :   -0.283364
  20 H :   -0.268248
  21 H :   -0.286032
  22 H :   -0.270777
  23 H :   -0.266420

  Mayer bond orders larger than 0.100000
B(  0-C ,  1-C ) :   0.8317 B(  0-C ,  2-C ) :   0.8793 B(  0-C ,  4-C ) :  -0.1324
B(  0-C ,  8-H ) :   0.9525 B(  0-C ,  9-H ) :   1.0382 B(  1-C ,  3-C ) :   0.8613
B(  1-C , 10-H ) :   1.0032 B(  1-C , 11-H ) :   1.0775 B(  2-C ,  4-C ) :   0.6178
B(  2-C , 12-H ) :   1.1066 B(  2-C , 13-H ) :   1.0732 B(  3-C ,  5-C ) :   0.6272
B(  3-C , 14-H ) :   0.9964 B(  3-C , 15-H ) :   0.9989 B(  4-C ,  5-C ) :   0.7332
B(  4-C ,  6-C ) :   0.6111 B(  4-C , 16-H ) :   0.9300 B(  4-C , 19-H ) :  -0.1039
B(  4-C , 20-H ) :  -0.1073 B(  5-C ,  7-C ) :   0.3876 B(  5-C , 17-H ) :   0.9845
B(  5-C , 21-H ) :  -0.1347 B(  5-C , 22-H ) :  -0.1382 B(  5-C , 23-H ) :  -0.1544
B(  6-C , 18-H ) :   1.0314 B(  6-C , 19-H ) :   1.0838 B(  6-C , 20-H ) :   1.0860
B(  7-C , 21-H ) :   1.0997 B(  7-C , 22-H ) :   1.0827 B(  7-C , 23-H ) :   1.1484

MP2 TOTAL ENERGY:     -313.890265345 Eh
FINAL SINGLE POINT ENERGY      -313.890265344772

DIPOLE MOMENT
-------------
                                X             Y             Z
Electronic contribution:     -1.51031      -0.47026      -1.12148
Nuclear contribution   :      1.49060       0.46528       1.08031
                        -----------------------------------------
Total Dipole Moment    :     -0.01972      -0.00498      -0.04116
                        -----------------------------------------
Magnitude (a.u.)       :      0.04591
Magnitude (Debye)      :      0.11670

Rotational constants in cm-1:     0.087655     0.063193     0.045308
Rotational constants in MHz :  2627.830699  1894.464601  1358.286892

                             ****ORCA TERMINATED NORMALLY****
TOTAL RUN TIME: 0 days 2 hours 47 minutes 58 seconds 555 msec
