                         Program Version 5.0.4 -  RELEASE  -
|  1> !ri-mp2 aug-cc-pvqz aug-cc-pvqz/c tightscf
|  2> %pal nprocs 16 end
|  3>
|  4> * xyz 0 1
|  5> C     -0.016408   -1.487716    0.709392
|  6> C     -0.016408   -1.487716   -0.709392
|  7> C     -0.016408   -0.174043    1.115752
|  8> C     -0.016408   -0.174043   -1.115752
|  9> C      0.066679    2.069240    0.000000
| 10> N     -0.023110    0.623459    0.000000
| 11> H     -0.026850   -2.347321    1.357432
| 12> H     -0.026850   -2.347321   -1.357432
| 13> H     -0.017376    0.257756    2.101616
| 14> H     -0.017376    0.257756   -2.101616
| 15> H     -0.430683    2.466938    0.882657
| 16> H      1.105307    2.406717    0.000000
| 17> H     -0.430683    2.466938   -0.882657
| 18> *
| 19>
| 20>                          ****END OF INPUT****

CARTESIAN COORDINATES (ANGSTROEM)
---------------------------------
  C     -0.016408   -1.487716    0.709392
  C     -0.016408   -1.487716   -0.709392
  C     -0.016408   -0.174043    1.115752
  C     -0.016408   -0.174043   -1.115752
  C      0.066679    2.069240    0.000000
  N     -0.023110    0.623459    0.000000
  H     -0.026850   -2.347321    1.357432
  H     -0.026850   -2.347321   -1.357432
  H     -0.017376    0.257756    2.101616
  H     -0.017376    0.257756   -2.101616
  H     -0.430683    2.466938    0.882657
  H      1.105307    2.406717    0.000000
  H     -0.430683    2.466938   -0.882657

 Total Charge           Charge          ....    0
 Multiplicity           Mult            ....    1
 Number of Electrons    NEL             ....   44
 Basis Dimension        Dim             ....  802

ORBITAL ENERGIES
----------------

  NO   OCC          E(Eh)            E(eV)
   0   2.0000     -15.602631      -424.5692
   1   2.0000     -11.271316      -306.7081
   2   2.0000     -11.244906      -305.9894
   3   2.0000     -11.244865      -305.9883
   4   2.0000     -11.204572      -304.8919
   5   2.0000     -11.203509      -304.8630
   6   2.0000      -1.298899       -35.3448
   7   2.0000      -1.072950       -29.1964
   8   2.0000      -0.974712       -26.5233
   9   2.0000      -0.934285       -25.4232
  10   2.0000      -0.773164       -21.0388
  11   2.0000      -0.751058       -20.4373
  12   2.0000      -0.709373       -19.3030
  13   2.0000      -0.634123       -17.2554
  14   2.0000      -0.604519       -16.4498
  15   2.0000      -0.572342       -15.5742
  16   2.0000      -0.563417       -15.3314
  17   2.0000      -0.529068       -14.3967
  18   2.0000      -0.525202       -14.2915
  19   2.0000      -0.521712       -14.1965
  20   2.0000      -0.334242        -9.0952
  21   2.0000      -0.294783        -8.0214
  22   0.0000       0.023693         0.6447
  23   0.0000       0.031215         0.8494
  24   0.0000       0.033638         0.9153
  25   0.0000       0.040277         1.0960
  26   0.0000       0.044371         1.2074

MULLIKEN ATOMIC CHARGES
-----------------------
   0 C :   -0.288324
   1 C :   -0.288324
   2 C :   -0.382413
   3 C :   -0.382413
   4 C :   -0.834957
   5 N :   -0.137562
   6 H :    0.370664
   7 H :    0.370664
   8 H :    0.357330
   9 H :    0.357330
  10 H :    0.289851
  11 H :    0.278302
  12 H :    0.289851
Sum of atomic charges:    0.0000000

LOEWDIN ATOMIC CHARGES
----------------------
   0 C :    0.303513
   1 C :    0.303513
   2 C :    0.184262
   3 C :    0.184262
   4 C :    0.807824
   5 N :    0.358897
   6 H :   -0.333713
   7 H :   -0.333713
   8 H :   -0.306870
   9 H :   -0.306870
  10 H :   -0.294388
  11 H :   -0.272328
  12 H :   -0.294388

  Mayer bond orders larger than 0.100000
B(  0-C ,  1-C ) :   1.2131 B(  0-C ,  2-C ) :   1.4371 B(  0-C ,  5-N ) :  -0.1117
B(  0-C ,  6-H ) :   0.9156 B(  1-C ,  3-C ) :   1.4371 B(  1-C ,  5-N ) :  -0.1117
B(  1-C ,  7-H ) :   0.9156 B(  2-C ,  5-N ) :   1.0446 B(  2-C ,  8-H ) :   0.9769
B(  3-C ,  5-N ) :   1.0446 B(  3-C ,  9-H ) :   0.9769 B(  4-C ,  5-N ) :   0.7398
B(  4-C , 10-H ) :   0.9701 B(  4-C , 11-H ) :   0.9662 B(  4-C , 12-H ) :   0.9701

MP2 TOTAL ENERGY:     -249.037848688 Eh
FINAL SINGLE POINT ENERGY      -249.037848687857

DIPOLE MOMENT
-------------
                                X             Y             Z
Electronic contribution:     -0.13971      -2.37372       0.00000
Nuclear contribution   :      0.15826       3.22432       0.00000
                        -----------------------------------------
Total Dipole Moment    :      0.01855       0.85060       0.00000
                        -----------------------------------------
Magnitude (a.u.)       :      0.85080
Magnitude (Debye)      :      2.16256

Rotational constants in cm-1:     0.291608     0.118987     0.085906
Rotational constants in MHz :  8742.184540  3567.131373  2575.388630

                             ****ORCA TERMINATED NORMALLY****
TOTAL RUN TIME: 0 days 0 hours 18 minutes 9 seconds 696 msec
