                         Program Version 5.0.4 -  RELEASE  -
|  1> !ri-mp2 aug-cc-pvqz aug-cc-pvqz/c tightscf
|  2> %pal nprocs 16 end
|  3>
|  4> * xyz 0 1
|  5> O     2.042882    1.386061   -0.306059
|  6> O    -0.918032   -1.066477   -0.827288
|  7> O     3.605054   -0.221660   -0.468251
|  8> N     0.250255   -0.222810    0.941283
|  9> N    -3.135574    0.325904   -0.031872
| 10> N    -4.076826    0.233940   -0.637842
| 11> C     1.503935   -0.802214    0.535266
| 12> C    -0.876835   -0.354541    0.164605
| 13> C     2.504443    0.128212   -0.134773
| 14> C    -2.026017    0.411410    0.648141
| 15> H     2.017669   -1.255971    1.383817
| 16> H     1.288572   -1.598028   -0.176598
| 17> H     0.261728    0.487240    1.652644
| 18> H    -2.050184    1.041177    1.521965
| 19> H     2.744845    1.885755   -0.749461
| 20> *
| 21>
| 22>                          ****END OF INPUT****

CARTESIAN COORDINATES (ANGSTROEM)
---------------------------------
  O      2.042882    1.386061   -0.306059
  O     -0.918032   -1.066477   -0.827288
  O      3.605054   -0.221660   -0.468251
  N      0.250255   -0.222810    0.941283
  N     -3.135574    0.325904   -0.031872
  N     -4.076826    0.233940   -0.637842
  C      1.503935   -0.802214    0.535266
  C     -0.876835   -0.354541    0.164605
  C      2.504443    0.128212   -0.134773
  C     -2.026017    0.411410    0.648141
  H      2.017669   -1.255971    1.383817
  H      1.288572   -1.598028   -0.176598
  H      0.261728    0.487240    1.652644
  H     -2.050184    1.041177    1.521965
  H      2.744845    1.885755   -0.749461

 Total Charge           Charge          ....    0
 Multiplicity           Mult            ....    1
 Number of Electrons    NEL             ....   74
 Basis Dimension        Dim             .... 1030

ORBITAL ENERGIES
----------------

  NO   OCC          E(Eh)            E(eV)
   0   2.0000     -20.623455      -561.1927
   1   2.0000     -20.555498      -559.3435
   2   2.0000     -20.525124      -558.5170
   3   2.0000     -15.765705      -429.0066
   4   2.0000     -15.698350      -427.1738
   5   2.0000     -15.600274      -424.5050
   6   2.0000     -11.396039      -310.1020
   7   2.0000     -11.373397      -309.4859
   8   2.0000     -11.293738      -307.3182
   9   2.0000     -11.286865      -307.1312
  10   2.0000      -1.500278       -40.8246
  11   2.0000      -1.476862       -40.1875
  12   2.0000      -1.394206       -37.9383
  13   2.0000      -1.373467       -37.3739
  14   2.0000      -1.251258       -34.0485
  15   2.0000      -1.158211       -31.5165
  16   2.0000      -1.021892       -27.8071
  17   2.0000      -0.878405       -23.9026
  18   2.0000      -0.832725       -22.6596
  19   2.0000      -0.783958       -21.3326
  20   2.0000      -0.749601       -20.3977
  21   2.0000      -0.716062       -19.4850
  22   2.0000      -0.711284       -19.3550
  23   2.0000      -0.696436       -18.9510
  24   2.0000      -0.688203       -18.7270
  25   2.0000      -0.661491       -18.0001
  26   2.0000      -0.643344       -17.5063
  27   2.0000      -0.628515       -17.1028
  28   2.0000      -0.605892       -16.4872
  29   2.0000      -0.582403       -15.8480
  30   2.0000      -0.571809       -15.5597
  31   2.0000      -0.565596       -15.3907
  32   2.0000      -0.491328       -13.3697
  33   2.0000      -0.479542       -13.0490
  34   2.0000      -0.447812       -12.1856
  35   2.0000      -0.412076       -11.2132
  36   2.0000      -0.353912        -9.6304
  37   0.0000       0.014906         0.4056
  38   0.0000       0.028850         0.7850
  39   0.0000       0.031486         0.8568
  40   0.0000       0.041590         1.1317
  41   0.0000       0.055022         1.4972

MULLIKEN ATOMIC CHARGES
-----------------------
   0 O :   -0.682946
   1 O :   -0.815955
   2 O :   -0.786456
   3 N :   -0.480055
   4 N :    0.016755
   5 N :   -0.254633
   6 C :   -0.496454
   7 C :    0.855346
   8 C :    1.076730
   9 C :   -0.125278
  10 H :    0.367395
  11 H :    0.335359
  12 H :    0.276005
  13 H :    0.401333
  14 H :    0.312854
Sum of atomic charges:   -0.0000000

LOEWDIN ATOMIC CHARGES
----------------------
   0 O :    1.252374
   1 O :    0.692800
   2 O :    0.700525
   3 N :    0.796152
   4 N :    0.039487
   5 N :    0.443949
   6 C :    0.309227
   7 C :   -0.935059
   8 C :   -0.998032
   9 C :    0.064994
  10 H :   -0.295954
  11 H :   -0.359239
  12 H :   -0.508963
  13 H :   -0.391043
  14 H :   -0.811220

  Mayer bond orders larger than 0.100000
B(  0-O ,  8-C ) :   0.8450 B(  0-O , 14-H ) :   0.9465 B(  1-O ,  3-N ) :   0.1662
B(  1-O ,  7-C ) :   1.1091 B(  1-O ,  9-C ) :   0.1963 B(  2-O ,  6-C ) :   0.1756
B(  2-O ,  8-C ) :   1.3499 B(  3-N ,  6-C ) :   0.8433 B(  3-N ,  7-C ) :   1.2062
B(  3-N , 12-H ) :   0.9411 B(  4-N ,  5-N ) :   2.1746 B(  4-N ,  9-C ) :   1.1885
B(  6-C ,  8-C ) :   1.1952 B(  6-C , 10-H ) :   0.8249 B(  6-C , 11-H ) :   0.8492
B(  7-C ,  9-C ) :   1.1521 B(  9-C , 13-H ) :   0.8145

MP2 TOTAL ENERGY:     -544.606390013 Eh
FINAL SINGLE POINT ENERGY      -544.606390012735

DIPOLE MOMENT
-------------
                                X             Y             Z
Electronic contribution:     -4.56226       0.73265      -2.00603
Nuclear contribution   :      4.17249       0.54745       3.50470
                        -----------------------------------------
Total Dipole Moment    :     -0.38976       1.28010       1.49867
                        -----------------------------------------
Magnitude (a.u.)       :      2.00913
Magnitude (Debye)      :      5.10680

Rotational constants in cm-1:     0.136118     0.018967     0.018496
Rotational constants in MHz :  4080.708752   568.610664   554.509196

                             ****ORCA TERMINATED NORMALLY****
TOTAL RUN TIME: 0 days 0 hours 45 minutes 48 seconds 504 msec
