                         Program Version 5.0.4 -  RELEASE  -
|  1> !ri-mp2 aug-cc-pvqz aug-cc-pvqz/c tightscf
|  2> %pal nprocs 16 end
|  3>
|  4> * xyz 0 1
|  5> C      3.083882   -0.164653   -0.435306
|  6> C      2.038689   -0.211887    0.381630
|  7> C     -3.012649   -0.378385   -0.169663
|  8> C      0.775189    0.578680    0.225667
|  9> C     -1.771338    0.499840   -0.023071
| 10> C     -0.474243   -0.302353    0.082056
| 11> H      3.964976   -0.769042   -0.266002
| 12> H      3.096130    0.483870   -1.303601
| 13> H      2.074756   -0.880467    1.238236
| 14> H     -2.952804   -0.999751   -1.065528
| 15> H     -3.919711    0.223030   -0.243990
| 16> H     -3.127075   -1.046179    0.686669
| 17> H      0.861213    1.241498   -0.639318
| 18> H      0.645805    1.223387    1.102645
| 19> H     -1.704688    1.181440   -0.876345
| 20> H     -1.875165    1.133412    0.863013
| 21> H     -0.537082   -0.981633    0.938389
| 22> H     -0.363539   -0.937015   -0.802044
| 23> *
| 24>
| 25>                          ****END OF INPUT****

CARTESIAN COORDINATES (ANGSTROEM)
---------------------------------
  C      3.083882   -0.164653   -0.435306
  C      2.038689   -0.211887    0.381630
  C     -3.012649   -0.378385   -0.169663
  C      0.775189    0.578680    0.225667
  C     -1.771338    0.499840   -0.023071
  C     -0.474243   -0.302353    0.082056
  H      3.964976   -0.769042   -0.266002
  H      3.096130    0.483870   -1.303601
  H      2.074756   -0.880467    1.238236
  H     -2.952804   -0.999751   -1.065528
  H     -3.919711    0.223030   -0.243990
  H     -3.127075   -1.046179    0.686669
  H      0.861213    1.241498   -0.639318
  H      0.645805    1.223387    1.102645
  H     -1.704688    1.181440   -0.876345
  H     -1.875165    1.133412    0.863013
  H     -0.537082   -0.981633    0.938389
  H     -0.363539   -0.937015   -0.802044

 Total Charge           Charge          ....    0
 Multiplicity           Mult            ....    1
 Number of Electrons    NEL             ....   48
 Basis Dimension        Dim             .... 1032

ORBITAL ENERGIES
----------------

  NO   OCC          E(Eh)            E(eV)
   0   2.0000     -11.228745      -305.5497
   1   2.0000     -11.221822      -305.3613
   2   2.0000     -11.217563      -305.2454
   3   2.0000     -11.216928      -305.2281
   4   2.0000     -11.215070      -305.1776
   5   2.0000     -11.210161      -305.0440
   6   2.0000      -1.091779       -29.7088
   7   2.0000      -1.043386       -28.3920
   8   2.0000      -0.967229       -26.3196
   9   2.0000      -0.869706       -23.6659
  10   2.0000      -0.794255       -21.6128
  11   2.0000      -0.754946       -20.5431
  12   2.0000      -0.652968       -17.7682
  13   2.0000      -0.623264       -16.9599
  14   2.0000      -0.595177       -16.1956
  15   2.0000      -0.583608       -15.8808
  16   2.0000      -0.556036       -15.1305
  17   2.0000      -0.534273       -14.5383
  18   2.0000      -0.506374       -13.7791
  19   2.0000      -0.489364       -13.3163
  20   2.0000      -0.474319       -12.9069
  21   2.0000      -0.465462       -12.6659
  22   2.0000      -0.459137       -12.4938
  23   2.0000      -0.358193        -9.7469
  24   0.0000       0.026864         0.7310
  25   0.0000       0.029821         0.8115
  26   0.0000       0.032389         0.8814
  27   0.0000       0.035202         0.9579
  28   0.0000       0.043294         1.1781

MULLIKEN ATOMIC CHARGES
-----------------------
   0 C :   -0.889986
   1 C :   -0.632743
   2 C :   -0.890710
   3 C :   -0.256127
   4 C :   -0.411776
   5 C :   -0.227770
   6 H :    0.364746
   7 H :    0.299146
   8 H :    0.409740
   9 H :    0.219945
  10 H :    0.262144
  11 H :    0.225040
  12 H :    0.262027
  13 H :    0.301572
  14 H :    0.235240
  15 H :    0.229488
  16 H :    0.235826
  17 H :    0.264197
Sum of atomic charges:    0.0000000

LOEWDIN ATOMIC CHARGES
----------------------
   0 C :    0.797933
   1 C :    0.358881
   2 C :    0.926489
   3 C :    0.473701
   4 C :    0.505385
   5 C :    0.500813
   6 H :   -0.360299
   7 H :   -0.355582
   8 H :   -0.323541
   9 H :   -0.285160
  10 H :   -0.284699
  11 H :   -0.285305
  12 H :   -0.300419
  13 H :   -0.278362
  14 H :   -0.273291
  15 H :   -0.274515
  16 H :   -0.273338
  17 H :   -0.268689

  Mayer bond orders larger than 0.100000
B(  0-C ,  1-C ) :   1.9288 B(  0-C ,  3-C ) :  -0.1790 B(  0-C ,  6-H ) :   0.9370
B(  0-C ,  7-H ) :   0.9362 B(  1-C ,  3-C ) :   0.9695 B(  1-C ,  5-C ) :  -0.1733
B(  1-C ,  8-H ) :   0.8152 B(  2-C ,  4-C ) :   0.9741 B(  2-C ,  9-H ) :   0.9598
B(  2-C , 10-H ) :   1.0194 B(  2-C , 11-H ) :   0.9592 B(  3-C ,  5-C ) :   0.9637
B(  3-C , 12-H ) :   0.8940 B(  3-C , 13-H ) :   0.8269 B(  4-C ,  5-C ) :   0.9091
B(  4-C , 14-H ) :   0.8788 B(  4-C , 15-H ) :   0.8882 B(  5-C , 16-H ) :   0.8708
B(  5-C , 17-H ) :   0.8730

MP2 TOTAL ENERGY:     -235.377131973 Eh
FINAL SINGLE POINT ENERGY      -235.377131972990

DIPOLE MOMENT
-------------
                                X             Y             Z
Electronic contribution:      3.93317       0.17781       0.43792
Nuclear contribution   :     -4.11008      -0.13651      -0.39404
                        -----------------------------------------
Total Dipole Moment    :     -0.17691       0.04129       0.04388
                        -----------------------------------------
Magnitude (a.u.)       :      0.18689
Magnitude (Debye)      :      0.47504

Rotational constants in cm-1:     0.457164     0.041388     0.040636
Rotational constants in MHz : 13705.420830  1240.769173  1218.224072

                             ****ORCA TERMINATED NORMALLY****
TOTAL RUN TIME: 0 days 0 hours 42 minutes 20 seconds 500 msec
