                         Program Version 5.0.4 -  RELEASE  -
|  1> !ri-mp2 aug-cc-pvqz aug-cc-pvqz/c tightscf
|  2> %pal nprocs 16 end
|  3>
|  4> * xyz 0 1
|  5> S      0.000000    0.000000    2.271299
|  6> C      0.000000    0.000000    0.630759
|  7> S      0.000000    1.453602   -0.360432
|  8> C      0.000000    0.668708   -1.915944
|  9> C      0.000000   -0.668708   -1.915944
| 10> S      0.000000   -1.453602   -0.360432
| 11> H      0.000000    1.287666   -2.800087
| 12> H      0.000000   -1.287666   -2.800087
| 13> *
| 14>
| 15>                          ****END OF INPUT****

CARTESIAN COORDINATES (ANGSTROEM)
---------------------------------
  S      0.000000    0.000000    2.271299
  C      0.000000    0.000000    0.630759
  S      0.000000    1.453602   -0.360432
  C      0.000000    0.668708   -1.915944
  C      0.000000   -0.668708   -1.915944
  S      0.000000   -1.453602   -0.360432
  H      0.000000    1.287666   -2.800087
  H      0.000000   -1.287666   -2.800087

 Total Charge           Charge          ....    0
 Multiplicity           Mult            ....    1
 Number of Electrons    NEL             ....   68
 Basis Dimension        Dim             ....  584

ORBITAL ENERGIES
----------------

  NO   OCC          E(Eh)            E(eV)
   0   2.0000     -92.016499     -2503.8962
   1   2.0000     -92.016499     -2503.8962
   2   2.0000     -91.929205     -2501.5208
   3   2.0000     -11.381922      -309.7179
   4   2.0000     -11.301587      -307.5318
   5   2.0000     -11.299913      -307.4863
   6   2.0000      -9.017898      -245.3895
   7   2.0000      -9.017887      -245.3892
   8   2.0000      -8.932593      -243.0682
   9   2.0000      -6.699038      -182.2901
  10   2.0000      -6.699035      -182.2900
  11   2.0000      -6.698181      -182.2668
  12   2.0000      -6.698178      -182.2667
  13   2.0000      -6.697501      -182.2483
  14   2.0000      -6.697500      -182.2482
  15   2.0000      -6.613984      -179.9757
  16   2.0000      -6.612661      -179.9397
  17   2.0000      -6.611712      -179.9138
  18   2.0000      -1.199670       -32.6447
  19   2.0000      -1.070849       -29.1393
  20   2.0000      -1.034898       -28.1610
  21   2.0000      -0.937177       -25.5019
  22   2.0000      -0.796946       -21.6860
  23   2.0000      -0.738189       -20.0871
  24   2.0000      -0.691989       -18.8300
  25   2.0000      -0.582862       -15.8605
  26   2.0000      -0.563022       -15.3206
  27   2.0000      -0.552481       -15.0338
  28   2.0000      -0.531259       -14.4563
  29   2.0000      -0.480334       -13.0706
  30   2.0000      -0.435253       -11.8438
  31   2.0000      -0.420647       -11.4464
  32   2.0000      -0.342026        -9.3070
  33   2.0000      -0.311101        -8.4655
  34   0.0000       0.018148         0.4938
  35   0.0000       0.028223         0.7680
  36   0.0000       0.038703         1.0532
  37   0.0000       0.047772         1.2999
  38   0.0000       0.062371         1.6972

MULLIKEN ATOMIC CHARGES
-----------------------
   0 S :   -0.038737
   1 C :   -0.573082
   2 S :    0.421652
   3 C :   -0.576651
   4 C :   -0.576651
   5 S :    0.421652
   6 H :    0.460908
   7 H :    0.460908
Sum of atomic charges:   -0.0000000

LOEWDIN ATOMIC CHARGES
----------------------
   0 S :    0.817258
   1 C :   -1.805241
   2 S :    1.121639
   3 C :   -0.204901
   4 C :   -0.204901
   5 S :    1.121639
   6 H :   -0.422746
   7 H :   -0.422746

  Mayer bond orders larger than 0.100000
B(  0-S ,  1-C ) :   1.4479 B(  1-C ,  2-S ) :   1.0244 B(  1-C ,  3-C ) :  -0.1106
B(  1-C ,  4-C ) :  -0.1106 B(  1-C ,  5-S ) :   1.0244 B(  2-S ,  3-C ) :   1.0584
B(  3-C ,  4-C ) :   1.5921 B(  3-C ,  6-H ) :   0.7984 B(  4-C ,  5-S ) :   1.0584
B(  4-C ,  7-H ) :   0.7984

MP2 TOTAL ENERGY:    -1308.507351417 Eh
FINAL SINGLE POINT ENERGY     -1308.507351416829

DIPOLE MOMENT
-------------
                                X             Y             Z
Electronic contribution:     -0.00000       0.00000       3.41752
Nuclear contribution   :      0.00000       0.00000      -5.37367
                        -----------------------------------------
Total Dipole Moment    :     -0.00000       0.00000      -1.95614
                        -----------------------------------------
Magnitude (a.u.)       :      1.95614
Magnitude (Debye)      :      4.97212

Rotational constants in cm-1:     0.112709     0.059725     0.039039
Rotational constants in MHz :  3378.938224  1790.523814  1170.347961

                             ****ORCA TERMINATED NORMALLY****
TOTAL RUN TIME: 0 days 0 hours 11 minutes 46 seconds 313 msec
