                         Program Version 5.0.4 -  RELEASE  -
|  1> !ri-mp2 aug-cc-pvqz aug-cc-pvqz/c tightscf
|  2> %pal nprocs 16 end
|  3> %maxcore 3800
|  4>
|  5> * xyz 0 1
|  6> C      3.765859    0.209204   -0.140016
|  7> C      2.871247    1.268614   -0.080295
|  8> C      3.285014   -1.096397   -0.096293
|  9> C      1.501209    1.040638    0.021750
| 10> C      1.922891   -1.340443   -0.004248
| 11> C      1.037573   -0.269346    0.047854
| 12> C     -1.259747    0.330131   -0.172330
| 13> C     -2.570202   -0.417612   -0.421522
| 14> O     -0.303784   -0.607745    0.144654
| 15> F     -1.447135    1.227529    0.863041
| 16> F     -3.502465    0.470307   -0.869796
| 17> F     -3.033392   -0.973051    0.723910
| 18> H      4.827889    0.396517   -0.213025
| 19> H      3.234180    2.287210   -0.099256
| 20> H      3.972559   -1.930152   -0.137897
| 21> H      0.820685    1.874043    0.108414
| 22> H      1.531930   -2.347555    0.026613
| 23> H     -0.988788    0.912792   -1.057218
| 24> H     -2.444324   -1.202689   -1.168659
| 25> *
| 26>
| 27>                          ****END OF INPUT****

CARTESIAN COORDINATES (ANGSTROEM)
---------------------------------
  C      3.765859    0.209204   -0.140016
  C      2.871247    1.268614   -0.080295
  C      3.285014   -1.096397   -0.096293
  C      1.501209    1.040638    0.021750
  C      1.922891   -1.340443   -0.004248
  C      1.037573   -0.269346    0.047854
  C     -1.259747    0.330131   -0.172330
  C     -2.570202   -0.417612   -0.421522
  O     -0.303784   -0.607745    0.144654
  F     -1.447135    1.227529    0.863041
  F     -3.502465    0.470307   -0.869796
  F     -3.033392   -0.973051    0.723910
  H      4.827889    0.396517   -0.213025
  H      3.234180    2.287210   -0.099256
  H      3.972559   -1.930152   -0.137897
  H      0.820685    1.874043    0.108414
  H      1.531930   -2.347555    0.026613
  H     -0.988788    0.912792   -1.057218
  H     -2.444324   -1.202689   -1.168659

 Total Charge           Charge          ....    0
 Multiplicity           Mult            ....    1
 Number of Electrons    NEL             ....   90
 Basis Dimension        Dim             .... 1282

ORBITAL ENERGIES
----------------

  NO   OCC          E(Eh)            E(eV)
   0   2.0000     -26.320671      -716.2219
   1   2.0000     -26.318290      -716.1571
   2   2.0000     -26.307100      -715.8526
   3   2.0000     -20.618919      -561.0693
   4   2.0000     -11.425008      -310.8903
   5   2.0000     -11.404115      -310.3217
   6   2.0000     -11.319288      -308.0135
   7   2.0000     -11.251593      -306.1714
   8   2.0000     -11.250887      -306.1522
   9   2.0000     -11.247166      -306.0509
  10   2.0000     -11.244210      -305.9705
  11   2.0000     -11.240725      -305.8757
  12   2.0000      -1.672974       -45.5240
  13   2.0000      -1.625870       -44.2422
  14   2.0000      -1.610079       -43.8125
  15   2.0000      -1.448971       -39.4285
  16   2.0000      -1.169362       -31.8200
  17   2.0000      -1.069675       -29.1073
  18   2.0000      -1.035732       -28.1837
  19   2.0000      -1.009440       -27.4682
  20   2.0000      -0.914454       -24.8836
  21   2.0000      -0.853724       -23.2310
  22   2.0000      -0.843351       -22.9487
  23   2.0000      -0.800770       -21.7901
  24   2.0000      -0.785839       -21.3838
  25   2.0000      -0.776379       -21.1264
  26   2.0000      -0.749962       -20.4075
  27   2.0000      -0.737120       -20.0581
  28   2.0000      -0.703427       -19.1412
  29   2.0000      -0.682144       -18.5621
  30   2.0000      -0.673982       -18.3400
  31   2.0000      -0.669100       -18.2071
  32   2.0000      -0.645542       -17.5661
  33   2.0000      -0.641325       -17.4513
  34   2.0000      -0.624293       -16.9879
  35   2.0000      -0.617074       -16.7914
  36   2.0000      -0.604764       -16.4565
  37   2.0000      -0.581805       -15.8317
  38   2.0000      -0.569627       -15.5003
  39   2.0000      -0.536691       -14.6041
  40   2.0000      -0.517635       -14.0856
  41   2.0000      -0.507039       -13.7972
  42   2.0000      -0.501065       -13.6347
  43   2.0000      -0.355896        -9.6844
  44   2.0000      -0.338419        -9.2089
  45   0.0000       0.021543         0.5862
  46   0.0000       0.025680         0.6988
  47   0.0000       0.027710         0.7540
  48   0.0000       0.038143         1.0379
  49   0.0000       0.040513         1.1024

MULLIKEN ATOMIC CHARGES
-----------------------
   0 C :   -0.370174
   1 C :   -0.360878
   2 C :   -0.330979
   3 C :   -0.437773
   4 C :   -0.535325
   5 C :    1.066760
   6 C :    0.677103
   7 C :    1.086467
   8 O :   -0.797830
   9 F :   -0.764591
  10 F :   -0.699655
  11 F :   -0.690464
  12 H :    0.315424
  13 H :    0.262849
  14 H :    0.260541
  15 H :    0.232885
  16 H :    0.325282
  17 H :    0.342049
  18 H :    0.418307
Sum of atomic charges:    0.0000000

LOEWDIN ATOMIC CHARGES
----------------------
   0 C :    0.339182
   1 C :    0.343027
   2 C :    0.334845
   3 C :    0.327798
   4 C :    0.322554
   5 C :   -0.435396
   6 C :   -0.919017
   7 C :   -1.099852
   8 O :    0.853139
   9 F :    0.798728
  10 F :    0.771780
  11 F :    0.782794
  12 H :   -0.326522
  13 H :   -0.318426
  14 H :   -0.320280
  15 H :   -0.359107
  16 H :   -0.324703
  17 H :   -0.376897
  18 H :   -0.393649

  Mayer bond orders larger than 0.100000
B(  0-C ,  1-C ) :   1.2460 B(  0-C ,  2-C ) :   1.1506 B(  0-C , 12-H ) :   1.0098
B(  0-C , 14-H ) :  -0.1020 B(  1-C ,  3-C ) :   1.1696 B(  1-C ,  4-C ) :   0.1600
B(  1-C ,  5-C ) :  -0.3267 B(  1-C , 13-H ) :   1.1071 B(  2-C ,  3-C ) :   0.1125
B(  2-C ,  4-C ) :   1.3920 B(  2-C ,  5-C ) :  -0.3804 B(  2-C , 14-H ) :   1.1334
B(  3-C ,  5-C ) :   1.2616 B(  3-C ,  8-O ) :   0.1251 B(  3-C , 13-H ) :  -0.1183
B(  3-C , 15-H ) :   1.0200 B(  4-C ,  5-C ) :   1.0562 B(  4-C ,  8-O ) :   0.1249
B(  4-C , 14-H ) :  -0.1405 B(  4-C , 16-H ) :   0.8878 B(  5-C ,  8-O ) :   0.3506
B(  6-C ,  7-C ) :   0.9737 B(  6-C ,  8-O ) :   0.8047 B(  6-C ,  9-F ) :   0.1735
B(  6-C , 11-F ) :   0.1093 B(  6-C , 17-H ) :   0.8276 B(  7-C , 10-F ) :   0.4103
B(  7-C , 11-F ) :   0.3693 B(  7-C , 18-H ) :   0.8004 B(  8-O ,  9-F ) :   0.1177

MP2 TOTAL ENERGY:     -682.925695983 Eh
FINAL SINGLE POINT ENERGY      -682.925695983277

DIPOLE MOMENT
-------------
                                X             Y             Z
Electronic contribution:    -16.94296       0.50395       2.14362
Nuclear contribution   :     18.07299      -0.70553      -3.11593
                        -----------------------------------------
Total Dipole Moment    :      1.13003      -0.20158      -0.97230
                        -----------------------------------------
Magnitude (a.u.)       :      1.50432
Magnitude (Debye)      :      3.82367

Rotational constants in cm-1:     0.086562     0.014876     0.013602
Rotational constants in MHz :  2595.071317   445.969914   407.765366

                             ****ORCA TERMINATED NORMALLY****
TOTAL RUN TIME: 0 days 1 hours 27 minutes 8 seconds 179 msec
