                         Program Version 5.0.4 -  RELEASE  -
|  1> !ri-mp2 aug-cc-pvqz aug-cc-pvqz/c tightscf
|  2> %pal nprocs 16 end
|  3>
|  4> * xyz 0 1
|  5> F      0.000000    1.080780   -0.696531
|  6> F      0.000000   -1.080780   -0.696531
|  7> C      0.000000    0.000000    0.067620
|  8> C      0.000000    0.000000    1.382761
|  9> H      0.000000    0.934350    1.917633
| 10> H      0.000000   -0.934350    1.917633
| 11> *
| 12>
| 13>                          ****END OF INPUT****

CARTESIAN COORDINATES (ANGSTROEM)
---------------------------------
  F      0.000000    1.080780   -0.696531
  F      0.000000   -1.080780   -0.696531
  C      0.000000    0.000000    0.067620
  C      0.000000    0.000000    1.382761
  H      0.000000    0.934350    1.917633
  H      0.000000   -0.934350    1.917633

 Total Charge           Charge          ....    0
 Multiplicity           Mult            ....    1
 Number of Electrons    NEL             ....   32
 Basis Dimension        Dim             ....  412

ORBITAL ENERGIES
----------------

  NO   OCC          E(Eh)            E(eV)
   0   2.0000     -26.344669      -716.8749
   1   2.0000     -26.344646      -716.8743
   2   2.0000     -11.428317      -310.9803
   3   2.0000     -11.243845      -305.9606
   4   2.0000      -1.702294       -46.3218
   5   2.0000      -1.637598       -44.5613
   6   2.0000      -1.074036       -29.2260
   7   2.0000      -0.886153       -24.1134
   8   2.0000      -0.802645       -21.8411
   9   2.0000      -0.762844       -20.7580
  10   2.0000      -0.752825       -20.4854
  11   2.0000      -0.690302       -18.7841
  12   2.0000      -0.668095       -18.1798
  13   2.0000      -0.640357       -17.4250
  14   2.0000      -0.600072       -16.3288
  15   2.0000      -0.396025       -10.7764
  16   0.0000       0.026221         0.7135
  17   0.0000       0.038321         1.0428
  18   0.0000       0.051668         1.4060
  19   0.0000       0.071399         1.9429
  20   0.0000       0.083589         2.2746

MULLIKEN ATOMIC CHARGES
-----------------------
   0 F :   -0.555440
   1 F :   -0.555440
   2 C :    1.242224
   3 C :   -0.908584
   4 H :    0.388620
   5 H :    0.388620
Sum of atomic charges:   -0.0000000

LOEWDIN ATOMIC CHARGES
----------------------
   0 F :    0.725964
   1 F :    0.725964
   2 C :   -1.312239
   3 C :    0.664019
   4 H :   -0.401853
   5 H :   -0.401853

  Mayer bond orders larger than 0.100000
B(  0-F ,  2-C ) :   0.5959 B(  1-F ,  2-C ) :   0.5959 B(  2-C ,  3-C ) :   1.7191
B(  3-C ,  4-H ) :   0.8597 B(  3-C ,  5-H ) :   0.8597

MP2 TOTAL ENERGY:     -276.763892540 Eh
FINAL SINGLE POINT ENERGY      -276.763892540325

DIPOLE MOMENT
-------------
                                X             Y             Z
Electronic contribution:     -0.00000       0.00000      -4.27871
Nuclear contribution   :      0.00000       0.00000       4.89076
                        -----------------------------------------
Total Dipole Moment    :     -0.00000       0.00000       0.61205
                        -----------------------------------------
Magnitude (a.u.)       :      0.61205
Magnitude (Debye)      :      1.55570

Rotational constants in cm-1:     0.365338     0.347947     0.178215
Rotational constants in MHz : 10952.566714 10431.193372  5342.762024

                             ****ORCA TERMINATED NORMALLY****
TOTAL RUN TIME: 0 days 0 hours 2 minutes 21 seconds 961 msec
