                         Program Version 5.0.4 -  RELEASE  -
|  1> !ri-mp2 aug-cc-pvqz aug-cc-pvqz/c tightscf
|  2> %pal nprocs 16 end
|  3>
|  4> * xyz 0 1
|  5> C     -1.855229   -1.337950    0.000000
|  6> C     -0.499088   -1.653073    0.000000
|  7> C      0.428036   -0.615933    0.000000
|  8> C      0.000000    0.724298    0.000000
|  9> C      1.213119    1.619187    0.000000
| 10> C      1.890304   -0.626401    0.000000
| 11> C      2.352575    0.633211    0.000000
| 12> C     -1.348795    1.031328    0.000000
| 13> C     -2.277760   -0.010338    0.000000
| 14> H     -2.590250   -2.131799    0.000000
| 15> H     -0.176462   -2.686234    0.000000
| 16> H      1.242418    2.275992    0.875487
| 17> H      1.242418    2.275992   -0.875487
| 18> H      2.494096   -1.522542    0.000000
| 19> H      3.391246    0.927949    0.000000
| 20> H     -1.686610    2.060169    0.000000
| 21> H     -3.335828    0.214508    0.000000
| 22> *
| 23>
| 24>                          ****END OF INPUT****

CARTESIAN COORDINATES (ANGSTROEM)
---------------------------------
  C     -1.855229   -1.337950    0.000000
  C     -0.499088   -1.653073    0.000000
  C      0.428036   -0.615933    0.000000
  C      0.000000    0.724298    0.000000
  C      1.213119    1.619187    0.000000
  C      1.890304   -0.626401    0.000000
  C      2.352575    0.633211    0.000000
  C     -1.348795    1.031328    0.000000
  C     -2.277760   -0.010338    0.000000
  H     -2.590250   -2.131799    0.000000
  H     -0.176462   -2.686234    0.000000
  H      1.242418    2.275992    0.875487
  H      1.242418    2.275992   -0.875487
  H      2.494096   -1.522542    0.000000
  H      3.391246    0.927949    0.000000
  H     -1.686610    2.060169    0.000000
  H     -3.335828    0.214508    0.000000

 Total Charge           Charge          ....    0
 Multiplicity           Mult            ....    1
 Number of Electrons    NEL             ....   62
 Basis Dimension        Dim             .... 1088

ORBITAL ENERGIES
----------------

  NO   OCC          E(Eh)            E(eV)
   0   2.0000     -11.235053      -305.7213
   1   2.0000     -11.233665      -305.6836
   2   2.0000     -11.233174      -305.6702
   3   2.0000     -11.231959      -305.6372
   4   2.0000     -11.230574      -305.5995
   5   2.0000     -11.230114      -305.5869
   6   2.0000     -11.229319      -305.5653
   7   2.0000     -11.228244      -305.5361
   8   2.0000     -11.227159      -305.5065
   9   2.0000      -1.179303       -32.0905
  10   2.0000      -1.101601       -29.9761
  11   2.0000      -1.026052       -27.9203
  12   2.0000      -0.974337       -26.5131
  13   2.0000      -0.942361       -25.6429
  14   2.0000      -0.828196       -22.5364
  15   2.0000      -0.790891       -21.5212
  16   2.0000      -0.757985       -20.6258
  17   2.0000      -0.691424       -18.8146
  18   2.0000      -0.646145       -17.5825
  19   2.0000      -0.628335       -17.0979
  20   2.0000      -0.601450       -16.3663
  21   2.0000      -0.585066       -15.9205
  22   2.0000      -0.582638       -15.8544
  23   2.0000      -0.540638       -14.7115
  24   2.0000      -0.511479       -13.9180
  25   2.0000      -0.496520       -13.5110
  26   2.0000      -0.494549       -13.4574
  27   2.0000      -0.473814       -12.8931
  28   2.0000      -0.403620       -10.9831
  29   2.0000      -0.329865        -8.9761
  30   2.0000      -0.294502        -8.0138
  31   0.0000       0.025748         0.7006
  32   0.0000       0.027875         0.7585
  33   0.0000       0.028560         0.7771
  34   0.0000       0.039464         1.0739
  35   0.0000       0.040157         1.0927

MULLIKEN ATOMIC CHARGES
-----------------------
   0 C :   -0.357531
   1 C :   -0.482436
   2 C :    0.572246
   3 C :    0.533231
   4 C :   -0.413662
   5 C :   -0.649978
   6 C :   -0.471297
   7 C :   -0.630288
   8 C :   -0.274952
   9 H :    0.260408
  10 H :    0.285716
  11 H :    0.199577
  12 H :    0.199577
  13 H :    0.328461
  14 H :    0.358859
  15 H :    0.273103
  16 H :    0.268965
Sum of atomic charges:    0.0000000

LOEWDIN ATOMIC CHARGES
----------------------
   0 C :    0.334727
   1 C :    0.362421
   2 C :   -0.124010
   3 C :   -0.111216
   4 C :    0.484863
   5 C :    0.386980
   6 C :    0.393779
   7 C :    0.372205
   8 C :    0.337877
   9 H :   -0.328285
  10 H :   -0.319814
  11 H :   -0.268908
  12 H :   -0.268908
  13 H :   -0.308035
  14 H :   -0.299933
  15 H :   -0.314539
  16 H :   -0.329205

  Mayer bond orders larger than 0.100000
B(  0-C ,  1-C ) :   1.2459 B(  0-C ,  2-C ) :  -0.2268 B(  0-C ,  8-C ) :   1.1730
B(  0-C ,  9-H ) :   1.1261 B(  1-C ,  2-C ) :   0.8906 B(  1-C ,  3-C ) :  -0.2036
B(  1-C ,  7-C ) :   0.1852 B(  1-C ,  9-H ) :  -0.1580 B(  1-C , 10-H ) :   1.0067
B(  2-C ,  3-C ) :   0.8375 B(  2-C ,  4-C ) :  -0.2411 B(  2-C ,  5-C ) :   0.6142
B(  2-C ,  6-C ) :  -0.1935 B(  2-C ,  7-C ) :  -0.1789 B(  2-C ,  8-C ) :   0.1396
B(  2-C , 10-H ) :  -0.1406 B(  3-C ,  4-C ) :   0.6731 B(  3-C ,  6-C ) :  -0.1186
B(  3-C ,  7-C ) :   0.9894 B(  3-C ,  8-C ) :  -0.2437 B(  3-C , 15-H ) :  -0.1162
B(  4-C ,  6-C ) :   1.0136 B(  4-C , 11-H ) :   0.9780 B(  4-C , 12-H ) :   0.9780
B(  5-C ,  6-C ) :   1.7169 B(  5-C , 13-H ) :   0.9754 B(  6-C , 14-H ) :   0.9634
B(  7-C ,  8-C ) :   1.2659 B(  7-C , 15-H ) :   1.0090 B(  7-C , 16-H ) :  -0.1374
B(  8-C ,  9-H ) :  -0.1079 B(  8-C , 16-H ) :   1.0915

MP2 TOTAL ENERGY:     -347.114914096 Eh
FINAL SINGLE POINT ENERGY      -347.114914096308

DIPOLE MOMENT
-------------
                                X             Y             Z
Electronic contribution:     -0.38816      -1.20732      -0.00000
Nuclear contribution   :      0.58242       1.41741       0.00000
                        -----------------------------------------
Total Dipole Moment    :      0.19425       0.21009      -0.00000
                        -----------------------------------------
Magnitude (a.u.)       :      0.28613
Magnitude (Debye)      :      0.72729

Rotational constants in cm-1:     0.126898     0.052903     0.037595
Rotational constants in MHz :  3804.293795  1585.991500  1127.057476

                             ****ORCA TERMINATED NORMALLY****
TOTAL RUN TIME: 0 days 1 hours 6 minutes 16 seconds 526 msec
