                         Program Version 5.0.4 -  RELEASE  -
|  1> !ri-mp2 aug-cc-pvqz aug-cc-pvqz/c tightscf
|  2> %pal nprocs 16 end
|  3>
|  4> * xyz 0 1
|  5> C      3.132473    0.770972    0.253731
|  6> C     -3.489777    0.102524    0.120232
|  7> C      2.463060   -0.488339   -0.280821
|  8> C     -1.182999   -0.374018    0.214782
|  9> C      0.153763    0.132123   -0.293733
| 10> O     -2.191518    0.483645   -0.283274
| 11> O      1.158560   -0.710687    0.238596
| 12> H      4.155816    0.833282   -0.120982
| 13> H      2.611059    1.675762   -0.058785
| 14> H      3.167460    0.751844    1.343340
| 15> H     -4.186566    0.819251   -0.309463
| 16> H     -3.589678    0.116485    1.212175
| 17> H     -3.741954   -0.902048   -0.239929
| 18> H      3.038609   -1.367952    0.008601
| 19> H      2.422491   -0.463753   -1.377404
| 20> H     -1.184178   -0.379223    1.312052
| 21> H     -1.345961   -1.404224   -0.125418
| 22> H      0.289010    1.172957    0.018531
| 23> H      0.168426    0.104380   -1.390449
| 24> *
| 25>
| 26>                          ****END OF INPUT****

CARTESIAN COORDINATES (ANGSTROEM)
---------------------------------
  C      3.132473    0.770972    0.253731
  C     -3.489777    0.102524    0.120232
  C      2.463060   -0.488339   -0.280821
  C     -1.182999   -0.374018    0.214782
  C      0.153763    0.132123   -0.293733
  O     -2.191518    0.483645   -0.283274
  O      1.158560   -0.710687    0.238596
  H      4.155816    0.833282   -0.120982
  H      2.611059    1.675762   -0.058785
  H      3.167460    0.751844    1.343340
  H     -4.186566    0.819251   -0.309463
  H     -3.589678    0.116485    1.212175
  H     -3.741954   -0.902048   -0.239929
  H      3.038609   -1.367952    0.008601
  H      2.422491   -0.463753   -1.377404
  H     -1.184178   -0.379223    1.312052
  H     -1.345961   -1.404224   -0.125418
  H      0.289010    1.172957    0.018531
  H      0.168426    0.104380   -1.390449

 Total Charge           Charge          ....    0
 Multiplicity           Mult            ....    1
 Number of Electrons    NEL             ....   58
 Basis Dimension        Dim             .... 1112

ORBITAL ENERGIES
----------------

  NO   OCC          E(Eh)            E(eV)
   0   2.0000     -20.553729      -559.2954
   1   2.0000     -20.550055      -559.1954
   2   2.0000     -11.273244      -306.7606
   3   2.0000     -11.269611      -306.6617
   4   2.0000     -11.268932      -306.6432
   5   2.0000     -11.268711      -306.6372
   6   2.0000     -11.214578      -305.1642
   7   2.0000      -1.377223       -37.4761
   8   2.0000      -1.365426       -37.1551
   9   2.0000      -1.038392       -28.2561
  10   2.0000      -0.991378       -26.9768
  11   2.0000      -0.911184       -24.7946
  12   2.0000      -0.845072       -22.9956
  13   2.0000      -0.815364       -22.1872
  14   2.0000      -0.684737       -18.6326
  15   2.0000      -0.668083       -18.1795
  16   2.0000      -0.660592       -17.9756
  17   2.0000      -0.633075       -17.2268
  18   2.0000      -0.614577       -16.7235
  19   2.0000      -0.609621       -16.5886
  20   2.0000      -0.570832       -15.5331
  21   2.0000      -0.544143       -14.8069
  22   2.0000      -0.534694       -14.5498
  23   2.0000      -0.510720       -13.8974
  24   2.0000      -0.494474       -13.4553
  25   2.0000      -0.477770       -13.0008
  26   2.0000      -0.463188       -12.6040
  27   2.0000      -0.423928       -11.5357
  28   2.0000      -0.418855       -11.3976
  29   0.0000       0.026829         0.7301
  30   0.0000       0.030017         0.8168
  31   0.0000       0.035156         0.9566
  32   0.0000       0.036078         0.9817
  33   0.0000       0.044615         1.2140

MULLIKEN ATOMIC CHARGES
-----------------------
   0 C :   -0.929537
   1 C :   -0.669911
   2 C :   -0.180259
   3 C :    0.178381
   4 C :    0.072377
   5 O :   -0.862504
   6 O :   -0.883712
   7 H :    0.320675
   8 H :    0.269717
   9 H :    0.226339
  10 H :    0.399539
  11 H :    0.251059
  12 H :    0.257052
  13 H :    0.361195
  14 H :    0.225221
  15 H :    0.225293
  16 H :    0.258102
  17 H :    0.244958
  18 H :    0.236016
Sum of atomic charges:   -0.0000000

LOEWDIN ATOMIC CHARGES
----------------------
   0 C :    0.915010
   1 C :    0.562076
   2 C :    0.166959
   3 C :    0.119258
   4 C :    0.124725
   5 O :    0.870240
   6 O :    0.893996
   7 H :   -0.289933
   8 H :   -0.302937
   9 H :   -0.287204
  10 H :   -0.328734
  11 H :   -0.310340
  12 H :   -0.310581
  13 H :   -0.319739
  14 H :   -0.306249
  15 H :   -0.296909
  16 H :   -0.297285
  17 H :   -0.305328
  18 H :   -0.297023

  Mayer bond orders larger than 0.100000
B(  0-C ,  2-C ) :   1.0455 B(  0-C ,  7-H ) :   0.9165 B(  0-C ,  8-H ) :   0.9194
B(  0-C ,  9-H ) :   0.9396 B(  1-C ,  3-C ) :  -0.1473 B(  1-C ,  5-O ) :   0.9577
B(  1-C , 10-H ) :   0.8682 B(  1-C , 11-H ) :   0.9268 B(  1-C , 12-H ) :   0.9209
B(  2-C ,  6-O ) :   0.8466 B(  2-C , 13-H ) :   0.8116 B(  2-C , 14-H ) :   0.9241
B(  3-C ,  4-C ) :   1.2445 B(  3-C ,  5-O ) :   0.7168 B(  3-C , 15-H ) :   0.8689
B(  3-C , 16-H ) :   0.8437 B(  4-C ,  5-O ) :   0.1034 B(  4-C ,  6-O ) :   0.7638
B(  4-C , 17-H ) :   0.8763 B(  4-C , 18-H ) :   0.8513

MP2 TOTAL ENERGY:     -347.623753786 Eh
FINAL SINGLE POINT ENERGY      -347.623753785947

DIPOLE MOMENT
-------------
                                X             Y             Z
Electronic contribution:     -1.81328      -1.02629      -0.32892
Nuclear contribution   :      1.87031       0.99692       0.28403
                        -----------------------------------------
Total Dipole Moment    :      0.05703      -0.02937      -0.04489
                        -----------------------------------------
Magnitude (a.u.)       :      0.07830
Magnitude (Debye)      :      0.19901

Rotational constants in cm-1:     0.339037     0.029840     0.028803
Rotational constants in MHz : 10164.067734   894.595477   863.497281

                             ****ORCA TERMINATED NORMALLY****
TOTAL RUN TIME: 0 days 0 hours 43 minutes 57 seconds 238 msec
