                         Program Version 5.0.4 -  RELEASE  -
|  1> !ri-mp2 aug-cc-pvqz aug-cc-pvqz/c tightscf
|  2> %pal nprocs 16 end
|  3> %maxcore 3800
|  4>
|  5> * xyz 0 1
|  6> C      4.455953    0.270233    0.013128
|  7> C      3.156486   -0.532657   -0.014810
|  8> C      1.903604    0.343655    0.011250
|  9> C      0.597863   -0.451106   -0.015679
| 10> C     -0.653922    0.427229    0.009040
| 11> C     -1.958782   -0.370300   -0.022500
| 12> C     -3.196862    0.516964    0.008447
| 13> O     -4.418615   -0.215524   -0.077873
| 14> H      4.523173    0.941403   -0.845601
| 15> H      5.329459   -0.382837   -0.007953
| 16> H      4.521716    0.882668    0.914818
| 17> H      3.133472   -1.218292    0.837586
| 18> H      3.136119   -1.162088   -0.909563
| 19> H      1.926908    1.029567   -0.842248
| 20> H      1.924665    0.974859    0.906112
| 21> H      0.577344   -1.082187   -0.910093
| 22> H      0.574572   -1.136132    0.838283
| 23> H     -0.629327    1.112199   -0.844708
| 24> H     -0.633266    1.057787    0.903988
| 25> H     -1.987895   -1.054978    0.832841
| 26> H     -1.997124   -0.992014   -0.920763
| 27> H     -3.202967    1.185677   -0.853276
| 28> H     -3.189897    1.145038    0.907556
| 29> H     -4.484069   -0.800583    0.682753
| 30> *
| 31>
| 32>                          ****END OF INPUT****

CARTESIAN COORDINATES (ANGSTROEM)
---------------------------------
  C      4.455953    0.270233    0.013128
  C      3.156486   -0.532657   -0.014810
  C      1.903604    0.343655    0.011250
  C      0.597863   -0.451106   -0.015679
  C     -0.653922    0.427229    0.009040
  C     -1.958782   -0.370300   -0.022500
  C     -3.196862    0.516964    0.008447
  O     -4.418615   -0.215524   -0.077873
  H      4.523173    0.941403   -0.845601
  H      5.329459   -0.382837   -0.007953
  H      4.521716    0.882668    0.914818
  H      3.133472   -1.218292    0.837586
  H      3.136119   -1.162088   -0.909563
  H      1.926908    1.029567   -0.842248
  H      1.924665    0.974859    0.906112
  H      0.577344   -1.082187   -0.910093
  H      0.574572   -1.136132    0.838283
  H     -0.629327    1.112199   -0.844708
  H     -0.633266    1.057787    0.903988
  H     -1.987895   -1.054978    0.832841
  H     -1.997124   -0.992014   -0.920763
  H     -3.202967    1.185677   -0.853276
  H     -3.189897    1.145038    0.907556
  H     -4.484069   -0.800583    0.682753

 Total Charge           Charge          ....    0
 Multiplicity           Mult            ....    1
 Number of Electrons    NEL             ....   66
 Basis Dimension        Dim             .... 1376

ORBITAL ENERGIES
----------------

  NO   OCC          E(Eh)            E(eV)
   0   2.0000     -20.550939      -559.2195
   1   2.0000     -11.270292      -306.6802
   2   2.0000     -11.220498      -305.3253
   3   2.0000     -11.218845      -305.2803
   4   2.0000     -11.217215      -305.2359
   5   2.0000     -11.216571      -305.2184
   6   2.0000     -11.215149      -305.1797
   7   2.0000     -11.210071      -305.0415
   8   2.0000      -1.352306       -36.7981
   9   2.0000      -1.092397       -29.7256
  10   2.0000      -1.052160       -28.6307
  11   2.0000      -0.988899       -26.9093
  12   2.0000      -0.912035       -24.8177
  13   2.0000      -0.841236       -22.8912
  14   2.0000      -0.799685       -21.7605
  15   2.0000      -0.789404       -21.4808
  16   2.0000      -0.688630       -18.7386
  17   2.0000      -0.655176       -17.8282
  18   2.0000      -0.626460       -17.0468
  19   2.0000      -0.606943       -16.5158
  20   2.0000      -0.596069       -16.2199
  21   2.0000      -0.577700       -15.7200
  22   2.0000      -0.562486       -15.3060
  23   2.0000      -0.545942       -14.8558
  24   2.0000      -0.522634       -14.2216
  25   2.0000      -0.509668       -13.8688
  26   2.0000      -0.491176       -13.3656
  27   2.0000      -0.481135       -13.0924
  28   2.0000      -0.470496       -12.8028
  29   2.0000      -0.463229       -12.6051
  30   2.0000      -0.462658       -12.5896
  31   2.0000      -0.457949       -12.4614
  32   2.0000      -0.426806       -11.6140
  33   0.0000       0.025083         0.6825
  34   0.0000       0.027374         0.7449
  35   0.0000       0.030626         0.8334
  36   0.0000       0.032945         0.8965
  37   0.0000       0.040828         1.1110

MULLIKEN ATOMIC CHARGES
-----------------------
   0 C :   -0.908384
   1 C :   -0.515282
   2 C :   -0.280425
   3 C :   -0.365154
   4 C :   -0.351428
   5 C :   -0.641418
   6 C :    0.054093
   7 O :   -0.911308
   8 H :    0.224832
   9 H :    0.265188
  10 H :    0.224483
  11 H :    0.225051
  12 H :    0.224421
  13 H :    0.228886
  14 H :    0.227583
  15 H :    0.249425
  16 H :    0.253743
  17 H :    0.241355
  18 H :    0.234413
  19 H :    0.224041
  20 H :    0.269089
  21 H :    0.290515
  22 H :    0.189026
  23 H :    0.347256
Sum of atomic charges:    0.0000000

LOEWDIN ATOMIC CHARGES
----------------------
   0 C :    0.926514
   1 C :    0.509102
   2 C :    0.513244
   3 C :    0.524362
   4 C :    0.516701
   5 C :    0.506440
   6 C :    0.191092
   7 O :    1.268216
   8 H :   -0.285463
   9 H :   -0.284762
  10 H :   -0.285503
  11 H :   -0.273345
  12 H :   -0.273185
  13 H :   -0.267851
  14 H :   -0.267876
  15 H :   -0.265212
  16 H :   -0.265719
  17 H :   -0.265813
  18 H :   -0.266359
  19 H :   -0.275029
  20 H :   -0.273336
  21 H :   -0.314860
  22 H :   -0.292088
  23 H :   -0.799271

  Mayer bond orders larger than 0.100000
B(  0-C ,  1-C ) :   1.0518 B(  0-C ,  2-C ) :  -0.1338 B(  0-C ,  8-H ) :   0.9568
B(  0-C ,  9-H ) :   1.0268 B(  0-C , 10-H ) :   0.9568 B(  1-C ,  2-C ) :   1.0026
B(  1-C , 11-H ) :   0.8807 B(  1-C , 12-H ) :   0.8822 B(  2-C ,  3-C ) :   1.0789
B(  2-C ,  4-C ) :  -0.1149 B(  2-C , 13-H ) :   0.8637 B(  2-C , 14-H ) :   0.8656
B(  3-C ,  4-C ) :   1.1199 B(  3-C , 15-H ) :   0.8427 B(  3-C , 16-H ) :   0.8437
B(  4-C ,  5-C ) :   1.0390 B(  4-C ,  6-C ) :  -0.1314 B(  4-C , 17-H ) :   0.8400
B(  4-C , 18-H ) :   0.8557 B(  5-C ,  6-C ) :   1.2841 B(  5-C , 19-H ) :   0.8626
B(  5-C , 20-H ) :   0.8332 B(  6-C ,  7-O ) :   0.6165 B(  6-C , 21-H ) :   0.8476
B(  6-C , 22-H ) :   0.9548 B(  7-O , 23-H ) :   0.8585

MP2 TOTAL ENERGY:     -350.984205408 Eh
FINAL SINGLE POINT ENERGY      -350.984205408304

DIPOLE MOMENT
-------------
                                X             Y             Z
Electronic contribution:     -9.48889      -0.60723      -0.26665
Nuclear contribution   :     10.08360       0.52981       0.73441
                        -----------------------------------------
Total Dipole Moment    :      0.59471      -0.07742       0.46776
                        -----------------------------------------
Magnitude (a.u.)       :      0.76057
Magnitude (Debye)      :      1.93323

Rotational constants in cm-1:     0.379445     0.016048     0.015725
Rotational constants in MHz : 11375.460594   481.098437   471.409226

                             ****ORCA TERMINATED NORMALLY****
TOTAL RUN TIME: 0 days 1 hours 48 minutes 43 seconds 47 msec
