                         Program Version 5.0.4 -  RELEASE  -
|  1> !ri-mp2 aug-cc-pvqz aug-cc-pvqz/c tightscf
|  2> %pal nprocs 16 end
|  3> %maxcore 3800
|  4>
|  5> * xyz 0 1
|  6> C      1.811591   -0.159551   -0.096424
|  7> C     -2.556321    0.066825   -0.240521
|  8> C     -1.751190    1.356259   -0.059733
|  9> C     -1.921204   -1.099327    0.521490
| 10> C     -0.281229    1.164125   -0.442828
| 11> C     -0.451165   -1.293520    0.140424
| 12> C      0.359157   -0.006631    0.338914
| 13> C      2.843613    0.624195    0.685597
| 14> O      2.127563   -0.861400   -1.032000
| 15> H     -3.586727    0.217570    0.088357
| 16> H     -2.602212   -0.181621   -1.305799
| 17> H     -2.183986    2.161109   -0.657926
| 18> H     -1.812407    1.678111    0.985184
| 19> H     -1.997578   -0.910144    1.597770
| 20> H     -2.475926   -2.020574    0.331373
| 21> H     -0.204618    0.946364   -1.511824
| 22> H      0.274902    2.088076   -0.268004
| 23> H     -0.011128   -2.101922    0.728414
| 24> H     -0.371415   -1.596118   -0.905549
| 25> H      0.351723    0.262560    1.401185
| 26> H      2.520697    1.654562    0.843527
| 27> H      2.957113    0.173697    1.675299
| 28> H      3.801543    0.605286    0.172476
| 29> *
| 30>
| 31>                          ****END OF INPUT****

CARTESIAN COORDINATES (ANGSTROEM)
---------------------------------
  C      1.811591   -0.159551   -0.096424
  C     -2.556321    0.066825   -0.240521
  C     -1.751190    1.356259   -0.059733
  C     -1.921204   -1.099327    0.521490
  C     -0.281229    1.164125   -0.442828
  C     -0.451165   -1.293520    0.140424
  C      0.359157   -0.006631    0.338914
  C      2.843613    0.624195    0.685597
  O      2.127563   -0.861400   -1.032000
  H     -3.586727    0.217570    0.088357
  H     -2.602212   -0.181621   -1.305799
  H     -2.183986    2.161109   -0.657926
  H     -1.812407    1.678111    0.985184
  H     -1.997578   -0.910144    1.597770
  H     -2.475926   -2.020574    0.331373
  H     -0.204618    0.946364   -1.511824
  H      0.274902    2.088076   -0.268004
  H     -0.011128   -2.101922    0.728414
  H     -0.371415   -1.596118   -0.905549
  H      0.351723    0.262560    1.401185
  H      2.520697    1.654562    0.843527
  H      2.957113    0.173697    1.675299
  H      3.801543    0.605286    0.172476

 Total Charge           Charge          ....    0
 Multiplicity           Mult            ....    1
 Number of Electrons    NEL             ....   70
 Basis Dimension        Dim             .... 1364

ORBITAL ENERGIES
----------------

  NO   OCC          E(Eh)            E(eV)
   0   2.0000     -20.537395      -558.8509
   1   2.0000     -11.323036      -308.1155
   2   2.0000     -11.235114      -305.7230
   3   2.0000     -11.230698      -305.6028
   4   2.0000     -11.228722      -305.5490
   5   2.0000     -11.222103      -305.3689
   6   2.0000     -11.218123      -305.2606
   7   2.0000     -11.217528      -305.2445
   8   2.0000     -11.216712      -305.2223
   9   2.0000      -1.381737       -37.5990
  10   2.0000      -1.125891       -30.6371
  11   2.0000      -1.038743       -28.2656
  12   2.0000      -1.009186       -27.4613
  13   2.0000      -0.990485       -26.9525
  14   2.0000      -0.859008       -23.3748
  15   2.0000      -0.838650       -22.8208
  16   2.0000      -0.767915       -20.8960
  17   2.0000      -0.729587       -19.8531
  18   2.0000      -0.663375       -18.0513
  19   2.0000      -0.643873       -17.5207
  20   2.0000      -0.620150       -16.8751
  21   2.0000      -0.611981       -16.6529
  22   2.0000      -0.596690       -16.2368
  23   2.0000      -0.592181       -16.1141
  24   2.0000      -0.577388       -15.7115
  25   2.0000      -0.539148       -14.6709
  26   2.0000      -0.532230       -14.4827
  27   2.0000      -0.526540       -14.3279
  28   2.0000      -0.492721       -13.4076
  29   2.0000      -0.490073       -13.3356
  30   2.0000      -0.481625       -13.1057
  31   2.0000      -0.462163       -12.5761
  32   2.0000      -0.455870       -12.4049
  33   2.0000      -0.433585       -11.7985
  34   2.0000      -0.395634       -10.7657
  35   0.0000       0.021963         0.5976
  36   0.0000       0.027387         0.7452
  37   0.0000       0.028670         0.7802
  38   0.0000       0.033737         0.9180
  39   0.0000       0.040994         1.1155

MULLIKEN ATOMIC CHARGES
-----------------------
   0 C :    0.874188
   1 C :   -0.437841
   2 C :   -0.470521
   3 C :   -0.504182
   4 C :   -0.472969
   5 C :   -0.430670
   6 C :    0.350592
   7 C :   -1.004369
   8 O :   -0.886339
   9 H :    0.248004
  10 H :    0.105843
  11 H :    0.240864
  12 H :    0.143989
  13 H :    0.119210
  14 H :    0.229902
  15 H :    0.239969
  16 H :    0.267666
  17 H :    0.282461
  18 H :    0.163643
  19 H :    0.164598
  20 H :    0.187794
  21 H :    0.258955
  22 H :    0.329211
Sum of atomic charges:   -0.0000000

LOEWDIN ATOMIC CHARGES
----------------------
   0 C :   -0.633084
   1 C :    0.540507
   2 C :    0.547131
   3 C :    0.545024
   4 C :    0.531292
   5 C :    0.516710
   6 C :    0.080764
   7 C :    0.909993
   8 O :    0.762710
   9 H :   -0.260577
  10 H :   -0.262873
  11 H :   -0.258502
  12 H :   -0.261809
  13 H :   -0.262569
  14 H :   -0.259391
  15 H :   -0.259854
  16 H :   -0.260800
  17 H :   -0.253189
  18 H :   -0.280175
  19 H :   -0.290102
  20 H :   -0.296319
  21 H :   -0.284532
  22 H :   -0.310354

  Mayer bond orders larger than 0.100000
B(  0-C ,  6-C ) :   0.7655 B(  0-C ,  7-C ) :   1.0364 B(  0-C ,  8-O ) :   0.7561
B(  1-C ,  2-C ) :   0.8676 B(  1-C ,  3-C ) :   0.8639 B(  1-C ,  9-H ) :   0.9563
B(  1-C , 10-H ) :   1.0638 B(  2-C ,  4-C ) :   0.8432 B(  2-C , 11-H ) :   0.9736
B(  2-C , 12-H ) :   1.0304 B(  3-C ,  5-C ) :   0.8732 B(  3-C ,  6-C ) :  -0.1065
B(  3-C , 13-H ) :   1.0585 B(  3-C , 14-H ) :   0.9940 B(  4-C ,  6-C ) :   0.7317
B(  4-C ,  8-O ) :   0.1124 B(  4-C , 15-H ) :   0.9496 B(  4-C , 16-H ) :   0.9557
B(  5-C ,  6-C ) :   0.6424 B(  5-C , 17-H ) :   0.9355 B(  5-C , 18-H ) :   1.0138
B(  6-C ,  7-C ) :  -0.1934 B(  6-C ,  8-O ) :   0.3441 B(  6-C , 19-H ) :   0.9390
B(  7-C , 20-H ) :   1.0354 B(  7-C , 21-H ) :   0.9242 B(  7-C , 22-H ) :   0.9588

MP2 TOTAL ENERGY:     -387.838819659 Eh
FINAL SINGLE POINT ENERGY      -387.838819659117

DIPOLE MOMENT
-------------
                                X             Y             Z
Electronic contribution:      5.04507      -2.35802      -2.37370
Nuclear contribution   :     -5.52791       3.08703       3.29000
                        -----------------------------------------
Total Dipole Moment    :     -0.48284       0.72901       0.91630
                        -----------------------------------------
Magnitude (a.u.)       :      1.26657
Magnitude (Debye)      :      3.21936

Rotational constants in cm-1:     0.103110     0.034576     0.030117
Rotational constants in MHz :  3091.156412  1036.573732   902.893852

                             ****ORCA TERMINATED NORMALLY****
TOTAL RUN TIME: 0 days 2 hours 38 minutes 56 seconds 434 msec
