                         Program Version 5.0.4 -  RELEASE  -
|  1> !ri-mp2 aug-cc-pvqz aug-cc-pvqz/c tightscf
|  2> %pal nprocs 16 end
|  3>
|  4> * xyz 0 1
|  5> O     -1.911245    0.085603   -0.071095
|  6> O      1.911245   -0.085603   -0.071094
|  7> C     -0.597007   -0.013624    0.006112
|  8> C      0.597007    0.013624    0.006111
|  9> H     -2.328814   -0.541074    0.532088
| 10> H      2.328813    0.541078    0.532085
| 11> *
| 12>
| 13>                          ****END OF INPUT****

CARTESIAN COORDINATES (ANGSTROEM)
---------------------------------
  O     -1.911245    0.085603   -0.071095
  O      1.911245   -0.085603   -0.071094
  C     -0.597007   -0.013624    0.006112
  C      0.597007    0.013624    0.006111
  H     -2.328814   -0.541074    0.532088
  H      2.328813    0.541078    0.532085

 Total Charge           Charge          ....    0
 Multiplicity           Mult            ....    1
 Number of Electrons    NEL             ....   30
 Basis Dimension        Dim             ....  412

ORBITAL ENERGIES
----------------

  NO   OCC          E(Eh)            E(eV)
   0   2.0000     -20.624084      -561.2098
   1   2.0000     -20.624082      -561.2098
   2   2.0000     -11.281457      -306.9841
   3   2.0000     -11.277556      -306.8779
   4   2.0000      -1.435499       -39.0619
   5   2.0000      -1.430498       -38.9258
   6   2.0000      -1.018546       -27.7161
   7   2.0000      -0.819983       -22.3129
   8   2.0000      -0.779862       -21.2211
   9   2.0000      -0.664329       -18.0773
  10   2.0000      -0.655043       -17.8246
  11   2.0000      -0.607122       -16.5206
  12   2.0000      -0.605655       -16.4807
  13   2.0000      -0.368813       -10.0359
  14   2.0000      -0.367209        -9.9923
  15   0.0000       0.020566         0.5596
  16   0.0000       0.028501         0.7756
  17   0.0000       0.066522         1.8102
  18   0.0000       0.070974         1.9313
  19   0.0000       0.085333         2.3220

MULLIKEN ATOMIC CHARGES
-----------------------
   0 O :   -0.722907
   1 O :   -0.722907
   2 C :    0.384310
   3 C :    0.384311
   4 H :    0.338597
   5 H :    0.338597
Sum of atomic charges:   -0.0000000

LOEWDIN ATOMIC CHARGES
----------------------
   0 O :    1.137532
   1 O :    1.137533
   2 C :   -0.325678
   3 C :   -0.325678
   4 H :   -0.811855
   5 H :   -0.811855

  Mayer bond orders larger than 0.100000
B(  0-O ,  2-C ) :   0.8162 B(  0-O ,  3-C ) :   0.1219 B(  0-O ,  4-H ) :   0.9157
B(  1-O ,  2-C ) :   0.1219 B(  1-O ,  3-C ) :   0.8162 B(  1-O ,  5-H ) :   0.9157
B(  2-C ,  3-C ) :   2.8419

MP2 TOTAL ENERGY:     -227.454216759 Eh
FINAL SINGLE POINT ENERGY      -227.454216758972

DIPOLE MOMENT
-------------
                                X             Y             Z
Electronic contribution:      0.00000      -0.00000      -0.21387
Nuclear contribution   :     -0.00000       0.00000       1.03094
                        -----------------------------------------
Total Dipole Moment    :     -0.00000       0.00000       0.81707
                        -----------------------------------------
Magnitude (a.u.)       :      0.81707
Magnitude (Debye)      :      2.07682

Rotational constants in cm-1:    11.258902     0.122923     0.122861
Rotational constants in MHz : 337533.385472  3685.141380  3683.291528

                             ****ORCA TERMINATED NORMALLY****
TOTAL RUN TIME: 0 days 0 hours 2 minutes 5 seconds 543 msec
