                         Program Version 5.0.4 -  RELEASE  -
|  1> !ri-mp2 aug-cc-pvqz aug-cc-pvqz/c tightscf
|  2> %pal nprocs 16 end
|  3>
|  4> * xyz 0 1
|  5> C     -2.312498   -2.277578    0.000000
|  6> C     -1.228339   -1.763422    0.000000
|  7> C      1.311092    2.604422    0.000000
|  8> C      0.077794   -1.116147    0.000000
|  9> C      1.378741    1.078321    0.000000
| 10> C      0.000000    0.420250    0.000000
| 11> H     -3.268709   -2.737512    0.000000
| 12> H      2.308010    3.046780    0.000000
| 13> H      0.783276    2.975425    0.880761
| 14> H      0.783276    2.975425   -0.880761
| 15> H      0.642365   -1.452734    0.874593
| 16> H      0.642365   -1.452734   -0.874593
| 17> H      1.941609    0.738131   -0.874478
| 18> H      1.941609    0.738131    0.874478
| 19> H     -0.567271    0.747005    0.874792
| 20> H     -0.567271    0.747005   -0.874792
| 21> *
| 22>
| 23>                          ****END OF INPUT****

CARTESIAN COORDINATES (ANGSTROEM)
---------------------------------
  C     -2.312498   -2.277578    0.000000
  C     -1.228339   -1.763422    0.000000
  C      1.311092    2.604422    0.000000
  C      0.077794   -1.116147    0.000000
  C      1.378741    1.078321    0.000000
  C      0.000000    0.420250    0.000000
  H     -3.268709   -2.737512    0.000000
  H      2.308010    3.046780    0.000000
  H      0.783276    2.975425    0.880761
  H      0.783276    2.975425   -0.880761
  H      0.642365   -1.452734    0.874593
  H      0.642365   -1.452734   -0.874593
  H      1.941609    0.738131   -0.874478
  H      1.941609    0.738131    0.874478
  H     -0.567271    0.747005    0.874792
  H     -0.567271    0.747005   -0.874792

 Total Charge           Charge          ....    0
 Multiplicity           Mult            ....    1
 Number of Electrons    NEL             ....   46
 Basis Dimension        Dim             ....  940

ORBITAL ENERGIES
----------------

  NO   OCC          E(Eh)            E(eV)
   0   2.0000     -11.248240      -306.0802
   1   2.0000     -11.228764      -305.5502
   2   2.0000     -11.226550      -305.4899
   3   2.0000     -11.223195      -305.3987
   4   2.0000     -11.214524      -305.1627
   5   2.0000     -11.214287      -305.1563
   6   2.0000      -1.096831       -29.8463
   7   2.0000      -1.039207       -28.2783
   8   2.0000      -0.976827       -26.5808
   9   2.0000      -0.884572       -24.0704
  10   2.0000      -0.802697       -21.8425
  11   2.0000      -0.715579       -19.4719
  12   2.0000      -0.654291       -17.8042
  13   2.0000      -0.632108       -17.2005
  14   2.0000      -0.594850       -16.1867
  15   2.0000      -0.590460       -16.0672
  16   2.0000      -0.538574       -14.6553
  17   2.0000      -0.515479       -14.0269
  18   2.0000      -0.491667       -13.3789
  19   2.0000      -0.478554       -13.0221
  20   2.0000      -0.473509       -12.8848
  21   2.0000      -0.382224       -10.4008
  22   2.0000      -0.381167       -10.3721
  23   0.0000       0.025445         0.6924
  24   0.0000       0.028746         0.7822
  25   0.0000       0.033913         0.9228
  26   0.0000       0.035703         0.9715
  27   0.0000       0.041483         1.1288

MULLIKEN ATOMIC CHARGES
-----------------------
   0 C :   -1.114934
   1 C :    0.062914
   2 C :   -0.880555
   3 C :   -0.082987
   4 C :   -0.380141
   5 C :   -0.193728
   6 H :    0.357851
   7 H :    0.265514
   8 H :    0.225768
   9 H :    0.225768
  10 H :    0.277140
  11 H :    0.277140
  12 H :    0.243550
  13 H :    0.243550
  14 H :    0.236575
  15 H :    0.236575
Sum of atomic charges:    0.0000000

LOEWDIN ATOMIC CHARGES
----------------------
   0 C :    0.572198
   1 C :    0.100107
   2 C :    0.928726
   3 C :    0.419921
   4 C :    0.504897
   5 C :    0.488506
   6 H :   -0.471357
   7 H :   -0.283745
   8 H :   -0.284210
   9 H :   -0.284210
  10 H :   -0.300436
  11 H :   -0.300436
  12 H :   -0.273263
  13 H :   -0.273263
  14 H :   -0.271718
  15 H :   -0.271718

  Mayer bond orders larger than 0.100000
B(  0-C ,  1-C ) :   2.5993 B(  0-C ,  3-C ) :  -0.3799 B(  0-C ,  6-H ) :   1.1335
B(  1-C ,  3-C ) :   0.7771 B(  1-C ,  5-C ) :  -0.3032 B(  1-C ,  6-H ) :  -0.1769
B(  2-C ,  4-C ) :   0.9635 B(  2-C ,  7-H ) :   1.0108 B(  2-C ,  8-H ) :   0.9562
B(  2-C ,  9-H ) :   0.9562 B(  3-C ,  5-C ) :   0.9855 B(  3-C , 10-H ) :   0.8708
B(  3-C , 11-H ) :   0.8708 B(  4-C ,  5-C ) :   0.9287 B(  4-C , 12-H ) :   0.8725
B(  4-C , 13-H ) :   0.8725 B(  5-C , 14-H ) :   0.8826 B(  5-C , 15-H ) :   0.8826

MP2 TOTAL ENERGY:     -234.139300979 Eh
FINAL SINGLE POINT ENERGY      -234.139300979111

DIPOLE MOMENT
-------------
                                X             Y             Z
Electronic contribution:     -4.58375      -6.42466      -0.00000
Nuclear contribution   :      4.87902       6.65180       0.00000
                        -----------------------------------------
Total Dipole Moment    :      0.29527       0.22713      -0.00000
                        -----------------------------------------
Magnitude (a.u.)       :      0.37252
Magnitude (Debye)      :      0.94688

Rotational constants in cm-1:     0.501982     0.043919     0.041620
Rotational constants in MHz : 15049.053286  1316.662662  1247.742536

                             ****ORCA TERMINATED NORMALLY****
TOTAL RUN TIME: 0 days 0 hours 30 minutes 58 seconds 647 msec
