                         Program Version 5.0.4 -  RELEASE  -
|  1> !ri-mp2 aug-cc-pvqz aug-cc-pvqz/c tightscf
|  2> %pal nprocs 16 end
|  3>
|  4> * xyz 0 1
|  5> C     0.245890   -0.471484   -0.000001
|  6> C     1.412981    0.161547    0.000001
|  7> C    -1.126370    0.134384   -0.000001
|  8> F     0.234429   -1.812633    0.000002
|  9> F     2.559922   -0.475620    0.000002
| 10> F     1.575610    1.460961    0.000000
| 11> F    -1.821022   -0.263524    1.082021
| 12> F    -1.082861    1.471534   -0.000098
| 13> F    -1.821079   -0.263683   -1.081926
| 14> *
| 15>
| 16>                          ****END OF INPUT****

CARTESIAN COORDINATES (ANGSTROEM)
---------------------------------
  C      0.245890   -0.471484   -0.000001
  C      1.412981    0.161547    0.000001
  C     -1.126370    0.134384   -0.000001
  F      0.234429   -1.812633    0.000002
  F      2.559922   -0.475620    0.000002
  F      1.575610    1.460961    0.000000
  F     -1.821022   -0.263524    1.082021
  F     -1.082861    1.471534   -0.000098
  F     -1.821079   -0.263683   -1.081926

 Total Charge           Charge          ....    0
 Multiplicity           Mult            ....    1
 Number of Electrons    NEL             ....   72
 Basis Dimension        Dim             ....  720

ORBITAL ENERGIES
----------------

  NO   OCC          E(Eh)            E(eV)
   0   2.0000     -26.387838      -718.0496
   1   2.0000     -26.385640      -717.9898
   2   2.0000     -26.364557      -717.4161
   3   2.0000     -26.356868      -717.2068
   4   2.0000     -26.356846      -717.2062
   5   2.0000     -26.356146      -717.1872
   6   2.0000     -11.548072      -314.2390
   7   2.0000     -11.479294      -312.3675
   8   2.0000     -11.381716      -309.7122
   9   2.0000      -1.753405       -47.7126
  10   2.0000      -1.746520       -47.5252
  11   2.0000      -1.685251       -45.8580
  12   2.0000      -1.672721       -45.5170
  13   2.0000      -1.659045       -45.1449
  14   2.0000      -1.652555       -44.9683
  15   2.0000      -1.141414       -31.0595
  16   2.0000      -1.017337       -27.6832
  17   2.0000      -0.927149       -25.2290
  18   2.0000      -0.879668       -23.9370
  19   2.0000      -0.857632       -23.3374
  20   2.0000      -0.847105       -23.0509
  21   2.0000      -0.835644       -22.7390
  22   2.0000      -0.808196       -21.9921
  23   2.0000      -0.801865       -21.8199
  24   2.0000      -0.747087       -20.3293
  25   2.0000      -0.732038       -19.9198
  26   2.0000      -0.729926       -19.8623
  27   2.0000      -0.728945       -19.8356
  28   2.0000      -0.720425       -19.6038
  29   2.0000      -0.712359       -19.3843
  30   2.0000      -0.706184       -19.2162
  31   2.0000      -0.683569       -18.6009
  32   2.0000      -0.682713       -18.5776
  33   2.0000      -0.670845       -18.2546
  34   2.0000      -0.612040       -16.6545
  35   2.0000      -0.432413       -11.7666
  36   0.0000       0.042387         1.1534
  37   0.0000       0.053225         1.4483
  38   0.0000       0.056446         1.5360
  39   0.0000       0.062379         1.6974
  40   0.0000       0.076562         2.0834

MULLIKEN ATOMIC CHARGES
-----------------------
   0 C :    0.116689
   1 C :    1.344518
   2 C :    2.044203
   3 F :   -0.619512
   4 F :   -0.572342
   5 F :   -0.578602
   6 F :   -0.565777
   7 F :   -0.603390
   8 F :   -0.565787
Sum of atomic charges:   -0.0000000

LOEWDIN ATOMIC CHARGES
----------------------
   0 C :   -0.919799
   1 C :   -1.386766
   2 C :   -2.227758
   3 F :    0.753581
   4 F :    0.763280
   5 F :    0.767640
   6 F :    0.744079
   7 F :    0.761661
   8 F :    0.744082

  Mayer bond orders larger than 0.100000
B(  0-C ,  1-C ) :   1.8864 B(  0-C ,  2-C ) :   0.9298 B(  0-C ,  3-F ) :   0.4987
B(  1-C ,  4-F ) :   0.5711 B(  1-C ,  5-F ) :   0.5771 B(  2-C ,  6-F ) :   0.4766
B(  2-C ,  7-F ) :   0.4906 B(  2-C ,  8-F ) :   0.4766

MP2 TOTAL ENERGY:     -712.658468317 Eh
FINAL SINGLE POINT ENERGY      -712.658468317431

DIPOLE MOMENT
-------------
                                X             Y             Z
Electronic contribution:      0.10920       0.26380      -0.00000
Nuclear contribution   :      0.31601      -0.10418      -0.00000
                        -----------------------------------------
Total Dipole Moment    :      0.42521       0.15962      -0.00000
                        -----------------------------------------
Magnitude (a.u.)       :      0.45418
Magnitude (Debye)      :      1.15444

Rotational constants in cm-1:     0.084828     0.041582     0.032722
Rotational constants in MHz :  2543.080261  1246.588658   980.984170

                             ****ORCA TERMINATED NORMALLY****
TOTAL RUN TIME: 0 days 0 hours 12 minutes 11 seconds 580 msec
