                         Program Version 5.0.4 -  RELEASE  -
|  1> !ri-mp2 aug-cc-pvqz aug-cc-pvqz/c tightscf
|  2> %pal nprocs 16 end
|  3>
|  4> * xyz 0 1
|  5> C      2.489725   -0.124251    0.000000
|  6> C     -2.342568    0.613953    0.000000
|  7> C      1.086798   -0.728805    0.000000
|  8> C      0.000000    0.330652    0.000000
|  9> O     -1.268327   -0.300846    0.000000
| 10> H      2.655854    0.498469    0.881326
| 11> H      3.251026   -0.904383    0.000000
| 12> H      2.655854    0.498469   -0.881326
| 13> H     -2.324263    1.255246    0.889932
| 14> H     -3.263750    0.034649    0.000000
| 15> H     -2.324263    1.255246   -0.889932
| 16> H      0.951134   -1.366811    0.875899
| 17> H      0.951134   -1.366811   -0.875899
| 18> H      0.095077    0.976700    0.885030
| 19> H      0.095077    0.976700   -0.885030
| 20> *
| 21>
| 22>                          ****END OF INPUT****

CARTESIAN COORDINATES (ANGSTROEM)
---------------------------------
  C      2.489725   -0.124251    0.000000
  C     -2.342568    0.613953    0.000000
  C      1.086798   -0.728805    0.000000
  C      0.000000    0.330652    0.000000
  O     -1.268327   -0.300846    0.000000
  H      2.655854    0.498469    0.881326
  H      3.251026   -0.904383    0.000000
  H      2.655854    0.498469   -0.881326
  H     -2.324263    1.255246    0.889932
  H     -3.263750    0.034649    0.000000
  H     -2.324263    1.255246   -0.889932
  H      0.951134   -1.366811    0.875899
  H      0.951134   -1.366811   -0.875899
  H      0.095077    0.976700    0.885030
  H      0.095077    0.976700   -0.885030

 Total Charge           Charge          ....    0
 Multiplicity           Mult            ....    1
 Number of Electrons    NEL             ....   42
 Basis Dimension        Dim             ....  860

ORBITAL ENERGIES
----------------

  NO   OCC          E(Eh)            E(eV)
   0   2.0000     -20.549373      -559.1769
   1   2.0000     -11.268901      -306.6424
   2   2.0000     -11.266380      -306.5738
   3   2.0000     -11.215726      -305.1954
   4   2.0000     -11.213610      -305.1378
   5   2.0000      -1.368626       -37.2422
   6   2.0000      -1.055682       -28.7266
   7   2.0000      -0.950217       -25.8567
   8   2.0000      -0.877472       -23.8772
   9   2.0000      -0.806761       -21.9531
  10   2.0000      -0.671263       -18.2660
  11   2.0000      -0.648313       -17.6415
  12   2.0000      -0.625829       -17.0297
  13   2.0000      -0.605846       -16.4859
  14   2.0000      -0.563865       -15.3436
  15   2.0000      -0.539403       -14.6779
  16   2.0000      -0.504151       -13.7187
  17   2.0000      -0.489219       -13.3123
  18   2.0000      -0.477481       -12.9929
  19   2.0000      -0.465634       -12.6705
  20   2.0000      -0.420206       -11.4344
  21   0.0000       0.026596         0.7237
  22   0.0000       0.031423         0.8551
  23   0.0000       0.035934         0.9778
  24   0.0000       0.036409         0.9907
  25   0.0000       0.049683         1.3519

MULLIKEN ATOMIC CHARGES
-----------------------
   0 C :   -0.852670
   1 C :   -0.666180
   2 C :   -0.497525
   3 C :    0.288874
   4 O :   -0.829459
   5 H :    0.225630
   6 H :    0.268213
   7 H :    0.225630
   8 H :    0.257794
   9 H :    0.395380
  10 H :    0.257794
  11 H :    0.248568
  12 H :    0.248568
  13 H :    0.214690
  14 H :    0.214690
Sum of atomic charges:    0.0000000

LOEWDIN ATOMIC CHARGES
----------------------
   0 C :    0.917119
   1 C :    0.559048
   2 C :    0.485058
   3 C :    0.123360
   4 O :    0.876695
   5 H :   -0.286079
   6 H :   -0.285881
   7 H :   -0.286079
   8 H :   -0.310812
   9 H :   -0.329041
  10 H :   -0.310812
  11 H :   -0.281085
  12 H :   -0.281085
  13 H :   -0.295203
  14 H :   -0.295203

  Mayer bond orders larger than 0.100000
B(  0-C ,  2-C ) :   1.0175 B(  0-C ,  5-H ) :   0.9440 B(  0-C ,  6-H ) :   0.9985
B(  0-C ,  7-H ) :   0.9440 B(  1-C ,  3-C ) :  -0.1019 B(  1-C ,  4-O ) :   0.9371
B(  1-C ,  8-H ) :   0.9200 B(  1-C ,  9-H ) :   0.8759 B(  1-C , 10-H ) :   0.9200
B(  2-C ,  3-C ) :   0.9440 B(  2-C , 11-H ) :   0.8745 B(  2-C , 12-H ) :   0.8745
B(  3-C ,  4-O ) :   0.7263 B(  3-C , 13-H ) :   0.9012 B(  3-C , 14-H ) :   0.9012

MP2 TOTAL ENERGY:     -233.259494312 Eh
FINAL SINGLE POINT ENERGY      -233.259494312180

DIPOLE MOMENT
-------------
                                X             Y             Z
Electronic contribution:     -2.79211      -1.48284       0.00000
Nuclear contribution   :      2.89760       1.97161       0.00000
                        -----------------------------------------
Total Dipole Moment    :      0.10550       0.48877       0.00000
                        -----------------------------------------
Magnitude (a.u.)       :      0.50003
Magnitude (Debye)      :      1.27097

Rotational constants in cm-1:     0.673290     0.070219     0.066754
Rotational constants in MHz : 20184.738572  2105.110942  2001.235536

                             ****ORCA TERMINATED NORMALLY****
TOTAL RUN TIME: 0 days 0 hours 22 minutes 39 seconds 246 msec
