                         Program Version 5.0.4 -  RELEASE  -
|  1> !ri-mp2 aug-cc-pvqz aug-cc-pvqz/c tightscf
|  2> %pal nprocs 16 end
|  3>
|  4> * xyz 0 1
|  5> H     -1.638593   -1.153756    0.688314
|  6> H     -1.454271   -0.881074   -1.060827
|  7> C     -1.031076   -0.669148   -0.077087
|  8> H     -0.970288    1.084448    1.225130
|  9> H     -1.528273    1.455561   -0.426021
| 10> C     -0.860191    0.833461    0.164191
| 11> O      0.306808   -1.179852   -0.027728
| 12> O      0.477289    1.074627   -0.266338
| 13> H      1.499157    0.001110    1.176675
| 14> H      2.050598   -0.197573   -0.525731
| 15> C      1.186084   -0.075466    0.125395
| 16> *
| 17>
| 18>                          ****END OF INPUT****

CARTESIAN COORDINATES (ANGSTROEM)
---------------------------------
  H     -1.638593   -1.153756    0.688314
  H     -1.454271   -0.881074   -1.060827
  C     -1.031076   -0.669148   -0.077087
  H     -0.970288    1.084448    1.225130
  H     -1.528273    1.455561   -0.426021
  C     -0.860191    0.833461    0.164191
  O      0.306808   -1.179852   -0.027728
  O      0.477289    1.074627   -0.266338
  H      1.499157    0.001110    1.176675
  H      2.050598   -0.197573   -0.525731
  C      1.186084   -0.075466    0.125395

 Total Charge           Charge          ....    0
 Multiplicity           Mult            ....    1
 Number of Electrons    NEL             ....   40
 Basis Dimension        Dim             ....  676

ORBITAL ENERGIES
----------------

  NO   OCC          E(Eh)            E(eV)
   0   2.0000     -20.568421      -559.6952
   1   2.0000     -20.560308      -559.4744
   2   2.0000     -11.328203      -308.2561
   3   2.0000     -11.286379      -307.1180
   4   2.0000     -11.283156      -307.0303
   5   2.0000      -1.437353       -39.1124
   6   2.0000      -1.330851       -36.2143
   7   2.0000      -1.032149       -28.0862
   8   2.0000      -0.869505       -23.6604
   9   2.0000      -0.853671       -23.2296
  10   2.0000      -0.716874       -19.5071
  11   2.0000      -0.705146       -19.1880
  12   2.0000      -0.637326       -17.3425
  13   2.0000      -0.612348       -16.6628
  14   2.0000      -0.581923       -15.8349
  15   2.0000      -0.566147       -15.4056
  16   2.0000      -0.515840       -14.0367
  17   2.0000      -0.499691       -13.5973
  18   2.0000      -0.447653       -12.1813
  19   2.0000      -0.425255       -11.5718
  20   0.0000       0.026197         0.7129
  21   0.0000       0.034804         0.9471
  22   0.0000       0.036638         0.9970
  23   0.0000       0.038973         1.0605
  24   0.0000       0.051562         1.4031

MULLIKEN ATOMIC CHARGES
-----------------------
   0 H :    0.343144
   1 H :    0.303707
   2 C :   -0.274460
   3 H :    0.269397
   4 H :    0.436032
   5 C :   -0.278513
   6 O :   -0.777664
   7 O :   -0.803823
   8 H :    0.236642
   9 H :    0.446026
  10 C :    0.099512
Sum of atomic charges:    0.0000000

LOEWDIN ATOMIC CHARGES
----------------------
   0 H :   -0.302968
   1 H :   -0.303966
   2 C :    0.173681
   3 H :   -0.293959
   4 H :   -0.304025
   5 C :    0.161616
   6 O :    0.859681
   7 O :    0.862169
   8 H :   -0.318759
   9 H :   -0.337321
  10 C :   -0.196150

  Mayer bond orders larger than 0.100000
B(  0-H ,  2-C ) :   0.8396 B(  1-H ,  2-C ) :   0.8684 B(  2-C ,  5-C ) :   1.1420
B(  2-C ,  6-O ) :   0.7518 B(  3-H ,  5-C ) :   0.8777 B(  4-H ,  5-C ) :   0.7882
B(  5-C ,  7-O ) :   0.7458 B(  6-O , 10-C ) :   0.8651 B(  7-O , 10-C ) :   0.8449
B(  8-H , 10-C ) :   0.9030 B(  9-H , 10-C ) :   0.7585

MP2 TOTAL ENERGY:     -267.964404594 Eh
FINAL SINGLE POINT ENERGY      -267.964404594446

DIPOLE MOMENT
-------------
                                X             Y             Z
Electronic contribution:      1.54247      -0.17064      -0.77496
Nuclear contribution   :     -2.05791       0.31138       1.08802
                        -----------------------------------------
Total Dipole Moment    :     -0.51544       0.14074       0.31306
                        -----------------------------------------
Magnitude (a.u.)       :      0.61927
Magnitude (Debye)      :      1.57405

Rotational constants in cm-1:     0.260021     0.252143     0.142454
Rotational constants in MHz :  7795.227232  7559.052110  4270.654186

                             ****ORCA TERMINATED NORMALLY****
TOTAL RUN TIME: 0 days 0 hours 16 minutes 44 seconds 117 msec
