                         Program Version 5.0.4 -  RELEASE  -
|  1> !ri-mp2 aug-cc-pvqz aug-cc-pvqz/c tightscf
|  2> %pal nprocs 16 end
|  3> %maxcore 3800
|  4>
|  5> * xyz 0 1
|  6> C    -1.656245   -2.355698    0.000000
|  7> S     0.088738   -1.905377    0.000000
|  8> O     0.654560   -2.357841    1.267005
|  9> O     0.654560   -2.357841   -1.267005
| 10> C     0.080334   -0.110707    0.000000
| 11> C     0.087584    0.574569   -1.208898
| 12> C     0.087584    1.962499   -1.199749
| 13> C     0.081470    2.677518    0.000000
| 14> C     0.055105    4.182111    0.000000
| 15> C     0.087584    1.962499    1.199749
| 16> C     0.087584    0.574569    1.208898
| 17> H    -2.123209   -1.961947   -0.898464
| 18> H    -1.678863   -3.443534    0.000000
| 19> H    -2.123209   -1.961947    0.898464
| 20> H     0.119138    0.024829   -2.138786
| 21> H     0.104503    2.498591   -2.139961
| 22> H     0.546532    4.588743    0.883175
| 23> H    -0.973845    4.550449    0.000000
| 24> H     0.546532    4.588743   -0.883175
| 25> H     0.104503    2.498591    2.139961
| 26> H     0.119138    0.024829    2.138786
| 27> *
| 28>
| 29>                          ****END OF INPUT****

CARTESIAN COORDINATES (ANGSTROEM)
---------------------------------
  C     -1.656245   -2.355698    0.000000
  S      0.088738   -1.905377    0.000000
  O      0.654560   -2.357841    1.267005
  O      0.654560   -2.357841   -1.267005
  C      0.080334   -0.110707    0.000000
  C      0.087584    0.574569   -1.208898
  C      0.087584    1.962499   -1.199749
  C      0.081470    2.677518    0.000000
  C      0.055105    4.182111    0.000000
  C      0.087584    1.962499    1.199749
  C      0.087584    0.574569    1.208898
  H     -2.123209   -1.961947   -0.898464
  H     -1.678863   -3.443534    0.000000
  H     -2.123209   -1.961947    0.898464
  H      0.119138    0.024829   -2.138786
  H      0.104503    2.498591   -2.139961
  H      0.546532    4.588743    0.883175
  H     -0.973845    4.550449    0.000000
  H      0.546532    4.588743   -0.883175
  H      0.104503    2.498591    2.139961
  H      0.119138    0.024829    2.138786

 Total Charge           Charge          ....    0
 Multiplicity           Mult            ....    1
 Number of Electrons    NEL             ....   90
 Basis Dimension        Dim             .... 1344

ORBITAL ENERGIES
----------------

  NO   OCC          E(Eh)            E(eV)
   0   2.0000     -92.171382     -2508.1108
   1   2.0000     -20.536758      -558.8336
   2   2.0000     -20.536738      -558.8331
   3   2.0000     -11.272584      -306.7426
   4   2.0000     -11.270968      -306.6986
   5   2.0000     -11.269667      -306.6632
   6   2.0000     -11.263810      -306.5038
   7   2.0000     -11.263706      -306.5010
   8   2.0000     -11.250167      -306.1326
   9   2.0000     -11.250122      -306.1314
  10   2.0000     -11.240789      -305.8774
  11   2.0000      -9.140432      -248.7238
  12   2.0000      -6.825772      -185.7387
  13   2.0000      -6.825290      -185.7256
  14   2.0000      -6.824850      -185.7136
  15   2.0000      -1.436518       -39.0897
  16   2.0000      -1.326618       -36.0991
  17   2.0000      -1.185206       -32.2511
  18   2.0000      -1.083931       -29.4953
  19   2.0000      -1.041182       -28.3320
  20   2.0000      -1.033579       -28.1251
  21   2.0000      -0.964528       -26.2461
  22   2.0000      -0.864991       -23.5376
  23   2.0000      -0.856556       -23.3081
  24   2.0000      -0.796285       -21.6680
  25   2.0000      -0.721933       -19.6448
  26   2.0000      -0.672325       -18.2949
  27   2.0000      -0.664474       -18.0813
  28   2.0000      -0.653856       -17.7923
  29   2.0000      -0.639859       -17.4114
  30   2.0000      -0.634480       -17.2651
  31   2.0000      -0.612356       -16.6631
  32   2.0000      -0.597049       -16.2465
  33   2.0000      -0.596728       -16.2378
  34   2.0000      -0.593416       -16.1477
  35   2.0000      -0.561123       -15.2689
  36   2.0000      -0.532154       -14.4806
  37   2.0000      -0.517685       -14.0869
  38   2.0000      -0.513048       -13.9607
  39   2.0000      -0.491861       -13.3842
  40   2.0000      -0.489304       -13.3146
  41   2.0000      -0.464965       -12.6523
  42   2.0000      -0.435881       -11.8609
  43   2.0000      -0.360880        -9.8200
  44   2.0000      -0.357817        -9.7367
  45   0.0000       0.018048         0.4911
  46   0.0000       0.024987         0.6799
  47   0.0000       0.026203         0.7130
  48   0.0000       0.033888         0.9221
  49   0.0000       0.037098         1.0095

MULLIKEN ATOMIC CHARGES
-----------------------
   0 C :   -1.065507
   1 S :    2.867196
   2 O :   -1.354862
   3 O :   -1.354866
   4 C :   -0.423704
   5 C :   -0.321245
   6 C :   -0.225226
   7 C :    0.328280
   8 C :   -0.838227
   9 C :   -0.225445
  10 C :   -0.321362
  11 H :    0.346767
  12 H :    0.405563
  13 H :    0.346755
  14 H :    0.319158
  15 H :    0.222734
  16 H :    0.233882
  17 H :    0.284368
  18 H :    0.233879
  19 H :    0.222688
  20 H :    0.319174
Sum of atomic charges:    0.0000000

LOEWDIN ATOMIC CHARGES
----------------------
   0 C :    0.834561
   1 S :   -0.216982
   2 O :    0.304603
   3 O :    0.304603
   4 C :   -0.231915
   5 C :    0.296011
   6 C :    0.363688
   7 C :   -0.062867
   8 C :    0.917358
   9 C :    0.363688
  10 C :    0.296011
  11 H :   -0.327186
  12 H :   -0.332932
  13 H :   -0.327186
  14 H :   -0.340681
  15 H :   -0.316559
  16 H :   -0.296180
  17 H :   -0.274619
  18 H :   -0.296180
  19 H :   -0.316559
  20 H :   -0.340681

  Mayer bond orders larger than 0.100000
B(  0-C ,  1-S ) :   0.9750 B(  0-C , 11-H ) :   0.8717 B(  0-C , 12-H ) :   0.8361
B(  0-C , 13-H ) :   0.8717 B(  1-S ,  2-O ) :   0.7901 B(  1-S ,  3-O ) :   0.7901
B(  1-S ,  4-C ) :   0.8206 B(  1-S ,  5-C ) :  -0.1434 B(  1-S , 10-C ) :  -0.1433
B(  4-C ,  5-C ) :   0.9403 B(  4-C ,  6-C ) :  -0.2325 B(  4-C ,  9-C ) :  -0.2324
B(  4-C , 10-C ) :   0.9405 B(  4-C , 14-H ) :  -0.1177 B(  4-C , 20-H ) :  -0.1176
B(  5-C ,  6-C ) :   1.3158 B(  5-C ,  9-C ) :   0.1528 B(  5-C , 14-H ) :   0.9453
B(  5-C , 15-H ) :  -0.1464 B(  6-C ,  7-C ) :   0.9897 B(  6-C ,  9-C ) :  -0.1404
B(  6-C , 10-C ) :   0.1528 B(  6-C , 15-H ) :   1.0831 B(  7-C ,  8-C ) :   0.7355
B(  7-C ,  9-C ) :   0.9897 B(  7-C , 15-H ) :  -0.1168 B(  7-C , 16-H ) :  -0.1144
B(  7-C , 18-H ) :  -0.1144 B(  7-C , 19-H ) :  -0.1169 B(  8-C , 16-H ) :   1.0375
B(  8-C , 17-H ) :   0.9336 B(  8-C , 18-H ) :   1.0375 B(  9-C , 10-C ) :   1.3155
B(  9-C , 19-H ) :   1.0831 B( 10-C , 19-H ) :  -0.1464 B( 10-C , 20-H ) :   0.9453

MP2 TOTAL ENERGY:     -858.317985570 Eh
FINAL SINGLE POINT ENERGY      -858.317985569776

DIPOLE MOMENT
-------------
                                X             Y             Z
Electronic contribution:      3.75742      -9.45576      -0.00000
Nuclear contribution   :     -5.30325      11.31153       0.00000
                        -----------------------------------------
Total Dipole Moment    :     -1.54583       1.85578      -0.00000
                        -----------------------------------------
Magnitude (a.u.)       :      2.41526
Magnitude (Debye)      :      6.13911

Rotational constants in cm-1:     0.082992     0.018455     0.016930
Rotational constants in MHz :  2488.050880   553.278764   507.555718

                             ****ORCA TERMINATED NORMALLY****
TOTAL RUN TIME: 0 days 2 hours 7 minutes 11 seconds 947 msec
