                         Program Version 5.0.4 -  RELEASE  -
|  1> !ri-mp2 aug-cc-pvqz aug-cc-pvqz/c tightscf
|  2> %pal nprocs 16 end
|  3>
|  4> * xyz 0 1
|  5> C     -1.663197    0.594398    0.145760
|  6> C     -1.313787   -0.870942    0.411302
|  7> C     -0.347274    1.331041   -0.152189
|  8> N     -0.238792   -1.138186   -0.555395
|  9> O      1.706481   -0.033622    0.889358
| 10> S      0.987654    0.059920   -0.421492
| 11> H     -2.320976    0.654479   -0.720214
| 12> H     -2.180873    1.039574    0.994418
| 13> H     -0.990263   -1.021403    1.445604
| 14> H     -2.153940   -1.534637    0.209646
| 15> H     -0.400187    1.966309   -1.033577
| 16> H      0.034328    1.907959    0.686849
| 17> H      0.174693   -2.061706   -0.495193
| 18> *
| 19>
| 20>                          ****END OF INPUT****

CARTESIAN COORDINATES (ANGSTROEM)
---------------------------------
  C     -1.663197    0.594398    0.145760
  C     -1.313787   -0.870942    0.411302
  C     -0.347274    1.331041   -0.152189
  N     -0.238792   -1.138186   -0.555395
  O      1.706481   -0.033622    0.889358
  S      0.987654    0.059920   -0.421492
  H     -2.320976    0.654479   -0.720214
  H     -2.180873    1.039574    0.994418
  H     -0.990263   -1.021403    1.445604
  H     -2.153940   -1.534637    0.209646
  H     -0.400187    1.966309   -1.033577
  H      0.034328    1.907959    0.686849
  H      0.174693   -2.061706   -0.495193

 Total Charge           Charge          ....    0
 Multiplicity           Mult            ....    1
 Number of Electrons    NEL             ....   56
 Basis Dimension        Dim             ....  806

ORBITAL ENERGIES
----------------

  NO   OCC          E(Eh)            E(eV)
   0   2.0000     -92.083949     -2505.7317
   1   2.0000     -20.507086      -558.0262
   2   2.0000     -15.585659      -424.1073
   3   2.0000     -11.272612      -306.7434
   4   2.0000     -11.265135      -306.5399
   5   2.0000     -11.247883      -306.0704
   6   2.0000      -9.067347      -246.7351
   7   2.0000      -6.749407      -183.6607
   8   2.0000      -6.748818      -183.6447
   9   2.0000      -6.747577      -183.6109
  10   2.0000      -1.346331       -36.6355
  11   2.0000      -1.226462       -33.3737
  12   2.0000      -1.060771       -28.8651
  13   2.0000      -0.988173       -26.8895
  14   2.0000      -0.830986       -22.6123
  15   2.0000      -0.818296       -22.2670
  16   2.0000      -0.702093       -19.1049
  17   2.0000      -0.678790       -18.4708
  18   2.0000      -0.621144       -16.9022
  19   2.0000      -0.590726       -16.0745
  20   2.0000      -0.562772       -15.3138
  21   2.0000      -0.555633       -15.1195
  22   2.0000      -0.545911       -14.8550
  23   2.0000      -0.514946       -14.0124
  24   2.0000      -0.500529       -13.6201
  25   2.0000      -0.449982       -12.2446
  26   2.0000      -0.404361       -11.0032
  27   2.0000      -0.375343       -10.2136
  28   0.0000       0.022197         0.6040
  29   0.0000       0.030407         0.8274
  30   0.0000       0.033849         0.9211
  31   0.0000       0.038130         1.0376
  32   0.0000       0.050110         1.3636

MULLIKEN ATOMIC CHARGES
-----------------------
   0 C :   -0.565761
   1 C :   -0.418061
   2 C :   -0.600173
   3 N :   -0.565323
   4 O :   -1.167650
   5 S :    1.219880
   6 H :    0.292156
   7 H :    0.368660
   8 H :    0.240589
   9 H :    0.415052
  10 H :    0.341146
  11 H :    0.258206
  12 H :    0.181278
Sum of atomic charges:   -0.0000000

LOEWDIN ATOMIC CHARGES
----------------------
   0 C :    0.464418
   1 C :    0.281982
   2 C :    0.370231
   3 N :    0.624577
   4 O :    0.072644
   5 S :    0.590587
   6 H :   -0.284314
   7 H :   -0.268754
   8 H :   -0.281111
   9 H :   -0.281520
  10 H :   -0.333120
  11 H :   -0.360341
  12 H :   -0.595279

  Mayer bond orders larger than 0.100000
B(  0-C ,  1-C ) :   1.0352 B(  0-C ,  2-C ) :   1.0081 B(  0-C ,  6-H ) :   0.8823
B(  0-C ,  7-H ) :   0.8016 B(  1-C ,  3-N ) :   0.9562 B(  1-C ,  8-H ) :   0.9351
B(  1-C ,  9-H ) :   0.7992 B(  2-C ,  5-S ) :   0.9304 B(  2-C , 10-H ) :   0.8711
B(  2-C , 11-H ) :   0.9122 B(  3-N ,  5-S ) :   0.8386 B(  3-N , 12-H ) :   0.9686
B(  4-O ,  5-S ) :   1.2622

MP2 TOTAL ENERGY:     -645.841182162 Eh
FINAL SINGLE POINT ENERGY      -645.841182162340

DIPOLE MOMENT
-------------
                                X             Y             Z
Electronic contribution:      6.37841      -0.87026      -1.62074
Nuclear contribution   :     -7.84347       0.94167       1.11148
                        -----------------------------------------
Total Dipole Moment    :     -1.46505       0.07141      -0.50926
                        -----------------------------------------
Magnitude (a.u.)       :      1.55269
Magnitude (Debye)      :      3.94661

Rotational constants in cm-1:     0.167978     0.093523     0.076859
Rotational constants in MHz :  5035.858093  2803.756584  2304.179496

                             ****ORCA TERMINATED NORMALLY****
TOTAL RUN TIME: 0 days 0 hours 24 minutes 33 seconds 803 msec
