                         Program Version 5.0.4 -  RELEASE  -
|  1> !ri-mp2 aug-cc-pvqz aug-cc-pvqz/c tightscf
|  2> %pal nprocs 16 end
|  3>
|  4> * xyz 0 1
|  5> C     0.285090     0.705076    1.402750
|  6> C    -0.285090    -0.705076    1.402750
|  7> C     0.285090     0.705076   -1.402750
|  8> C    -0.285090    -0.705076   -1.402750
|  9> S    -0.285090     1.732970    0.000000
| 10> S     0.285090    -1.732970    0.000000
| 11> H    -0.049188     1.244965    2.289919
| 12> H     1.374611     0.679803    1.411268
| 13> H     0.049188    -1.244965    2.289919
| 14> H    -1.374611    -0.679803    1.411268
| 15> H     1.374611     0.679803   -1.411268
| 16> H    -0.049188     1.244965   -2.289919
| 17> H    -1.374611    -0.679803   -1.411268
| 18> H     0.049188    -1.244965   -2.289919
| 19> *
| 20>
| 21>                          ****END OF INPUT****

CARTESIAN COORDINATES (ANGSTROEM)
---------------------------------
  C      0.285090    0.705076    1.402750
  C     -0.285090   -0.705076    1.402750
  C      0.285090    0.705076   -1.402750
  C     -0.285090   -0.705076   -1.402750
  S     -0.285090    1.732970    0.000000
  S      0.285090   -1.732970    0.000000
  H     -0.049188    1.244965    2.289919
  H      1.374611    0.679803    1.411268
  H      0.049188   -1.244965    2.289919
  H     -1.374611   -0.679803    1.411268
  H      1.374611    0.679803   -1.411268
  H     -0.049188    1.244965   -2.289919
  H     -1.374611   -0.679803   -1.411268
  H      0.049188   -1.244965   -2.289919

 Total Charge           Charge          ....    0
 Multiplicity           Mult            ....    1
 Number of Electrons    NEL             ....   64
 Basis Dimension        Dim             ....  856

ORBITAL ENERGIES
----------------

  NO   OCC          E(Eh)            E(eV)
   0   2.0000     -91.946652     -2501.9956
   1   2.0000     -91.946652     -2501.9956
   2   2.0000     -11.264427      -306.5207
   3   2.0000     -11.264417      -306.5204
   4   2.0000     -11.263796      -306.5035
   5   2.0000     -11.263789      -306.5033
   6   2.0000      -8.948376      -243.4977
   7   2.0000      -8.948374      -243.4976
   8   2.0000      -6.629893      -180.4086
   9   2.0000      -6.629893      -180.4086
  10   2.0000      -6.628962      -180.3832
  11   2.0000      -6.628961      -180.3832
  12   2.0000      -6.628135      -180.3607
  13   2.0000      -6.628135      -180.3607
  14   2.0000      -1.121394       -30.5147
  15   2.0000      -1.039802       -28.2944
  16   2.0000      -1.008618       -27.4459
  17   2.0000      -0.859857       -23.3979
  18   2.0000      -0.847466       -23.0607
  19   2.0000      -0.760210       -20.6864
  20   2.0000      -0.635008       -17.2794
  21   2.0000      -0.633430       -17.2365
  22   2.0000      -0.620150       -16.8751
  23   2.0000      -0.572859       -15.5883
  24   2.0000      -0.566217       -15.4075
  25   2.0000      -0.543380       -14.7861
  26   2.0000      -0.515819       -14.0362
  27   2.0000      -0.447028       -12.1642
  28   2.0000      -0.446985       -12.1631
  29   2.0000      -0.421194       -11.4613
  30   2.0000      -0.352721        -9.5980
  31   2.0000      -0.337405        -9.1813
  32   0.0000       0.027410         0.7459
  33   0.0000       0.027972         0.7611
  34   0.0000       0.035679         0.9709
  35   0.0000       0.040887         1.1126
  36   0.0000       0.045755         1.2451

MULLIKEN ATOMIC CHARGES
-----------------------
   0 C :   -0.570176
   1 C :   -0.570176
   2 C :   -0.570175
   3 C :   -0.570175
   4 S :   -0.089097
   5 S :   -0.089097
   6 H :    0.340980
   7 H :    0.273744
   8 H :    0.340980
   9 H :    0.273744
  10 H :    0.273745
  11 H :    0.340979
  12 H :    0.273745
  13 H :    0.340979
Sum of atomic charges:    0.0000000

LOEWDIN ATOMIC CHARGES
----------------------
   0 C :    0.087043
   1 C :    0.087043
   2 C :    0.087043
   3 C :    0.087043
   4 S :    1.330498
   5 S :    1.330498
   6 H :   -0.381499
   7 H :   -0.370793
   8 H :   -0.381499
   9 H :   -0.370793
  10 H :   -0.370793
  11 H :   -0.381499
  12 H :   -0.370793
  13 H :   -0.381499

  Mayer bond orders larger than 0.100000
B(  0-C ,  1-C ) :   1.0155 B(  0-C ,  4-S ) :   0.9840 B(  0-C ,  6-H ) :   0.8262
B(  0-C ,  7-H ) :   0.8925 B(  1-C ,  5-S ) :   0.9840 B(  1-C ,  8-H ) :   0.8262
B(  1-C ,  9-H ) :   0.8925 B(  2-C ,  3-C ) :   1.0155 B(  2-C ,  4-S ) :   0.9840
B(  2-C , 10-H ) :   0.8925 B(  2-C , 11-H ) :   0.8262 B(  3-C ,  5-S ) :   0.9840
B(  3-C , 12-H ) :   0.8925 B(  3-C , 13-H ) :   0.8262

MP2 TOTAL ENERGY:     -952.414945932 Eh
FINAL SINGLE POINT ENERGY      -952.414945932349

DIPOLE MOMENT
-------------
                                X             Y             Z
Electronic contribution:      0.00000       0.00000      -0.00000
Nuclear contribution   :     -0.00000       0.00000      -0.00000
                        -----------------------------------------
Total Dipole Moment    :      0.00000       0.00000      -0.00000
                        -----------------------------------------
Magnitude (a.u.)       :      0.00000
Magnitude (Debye)      :      0.00000

Rotational constants in cm-1:     0.121435     0.069860     0.048178
Rotational constants in MHz :  3640.530076  2094.352583  1444.333707

                             ****ORCA TERMINATED NORMALLY****
TOTAL RUN TIME: 0 days 0 hours 30 minutes 20 seconds 953 msec
