                         Program Version 5.0.4 -  RELEASE  -
|  1> !ri-mp2 aug-cc-pvqz aug-cc-pvqz/c tightscf
|  2> %pal nprocs 16 end
|  3>
|  4> * xyz 0 1
|  5> C      0.754145    0.274218   -0.000001
|  6> C      2.080251   -0.448669    0.000000
|  7> C     -2.006474    0.397153    0.000001
|  8> O      0.648332    1.474901    0.000000
|  9> S     -0.661464   -0.824798    0.000000
| 10> H      1.966836   -1.530536   -0.000035
| 11> H      2.644386   -0.141223    0.880822
| 12> H      2.644418   -0.141166   -0.880780
| 13> H     -1.944496    1.019312    0.888116
| 14> H     -2.937384   -0.164322    0.000020
| 15> H     -1.944520    1.019289   -0.888133
| 16> *
| 17>
| 18>                          ****END OF INPUT****

CARTESIAN COORDINATES (ANGSTROEM)
---------------------------------
  C      0.754145    0.274218   -0.000001
  C      2.080251   -0.448669    0.000000
  C     -2.006474    0.397153    0.000001
  O      0.648332    1.474901    0.000000
  S     -0.661464   -0.824798    0.000000
  H      1.966836   -1.530536   -0.000035
  H      2.644386   -0.141223    0.880822
  H      2.644418   -0.141166   -0.880780
  H     -1.944496    1.019312    0.888116
  H     -2.937384   -0.164322    0.000020
  H     -1.944520    1.019289   -0.888133

 Total Charge           Charge          ....    0
 Multiplicity           Mult            ....    1
 Number of Electrons    NEL             ....   48
 Basis Dimension        Dim             ....  680

ORBITAL ENERGIES
----------------

  NO   OCC          E(Eh)            E(eV)
   0   2.0000     -91.969377     -2502.6140
   1   2.0000     -20.553822      -559.2979
   2   2.0000     -11.363259      -309.2100
   3   2.0000     -11.258423      -306.3573
   4   2.0000     -11.244507      -305.9786
   5   2.0000      -8.971916      -244.1382
   6   2.0000      -6.653354      -181.0470
   7   2.0000      -6.652292      -181.0181
   8   2.0000      -6.651722      -181.0025
   9   2.0000      -1.402957       -38.1764
  10   2.0000      -1.067977       -29.0611
  11   2.0000      -1.015551       -27.6345
  12   2.0000      -0.893668       -24.3179
  13   2.0000      -0.733888       -19.9701
  14   2.0000      -0.653285       -17.7768
  15   2.0000      -0.637688       -17.3524
  16   2.0000      -0.620577       -16.8868
  17   2.0000      -0.591356       -16.0916
  18   2.0000      -0.587830       -15.9957
  19   2.0000      -0.542838       -14.7714
  20   2.0000      -0.516522       -14.0553
  21   2.0000      -0.481341       -13.0980
  22   2.0000      -0.407534       -11.0896
  23   2.0000      -0.371805       -10.1173
  24   0.0000       0.026350         0.7170
  25   0.0000       0.029489         0.8024
  26   0.0000       0.038837         1.0568
  27   0.0000       0.040823         1.1108
  28   0.0000       0.050782         1.3818

MULLIKEN ATOMIC CHARGES
-----------------------
   0 C :    0.524855
   1 C :   -0.783798
   2 C :   -0.957893
   3 O :   -0.779726
   4 S :    0.171226
   5 H :    0.285306
   6 H :    0.278418
   7 H :    0.278415
   8 H :    0.279665
   9 H :    0.423869
  10 H :    0.279662
Sum of atomic charges:    0.0000000

LOEWDIN ATOMIC CHARGES
----------------------
   0 C :   -1.100117
   1 C :    0.777414
   2 C :    0.532480
   3 O :    0.630492
   4 S :    1.279033
   5 H :   -0.355533
   6 H :   -0.309123
   7 H :   -0.309126
   8 H :   -0.376609
   9 H :   -0.392305
  10 H :   -0.376606

  Mayer bond orders larger than 0.100000
B(  0-C ,  1-C ) :   0.8044 B(  0-C ,  3-O ) :   1.4370 B(  0-C ,  4-S ) :   0.9969
B(  1-C ,  5-H ) :   0.9661 B(  1-C ,  6-H ) :   0.9446 B(  1-C ,  7-H ) :   0.9447
B(  2-C ,  4-S ) :   1.0359 B(  2-C ,  8-H ) :   0.9120 B(  2-C ,  9-H ) :   0.8139
B(  2-C , 10-H ) :   0.9120

MP2 TOTAL ENERGY:     -590.593193866 Eh
FINAL SINGLE POINT ENERGY      -590.593193865634

DIPOLE MOMENT
-------------
                                X             Y             Z
Electronic contribution:     -0.51491      -0.71070      -0.00001
Nuclear contribution   :      0.45991       0.11006       0.00001
                        -----------------------------------------
Total Dipole Moment    :     -0.05500      -0.60064       0.00000
                        -----------------------------------------
Magnitude (a.u.)       :      0.60315
Magnitude (Debye)      :      1.53309

Rotational constants in cm-1:     0.244423     0.101600     0.073749
Rotational constants in MHz :  7327.608863  3045.893160  2210.928544

                             ****ORCA TERMINATED NORMALLY****
TOTAL RUN TIME: 0 days 0 hours 13 minutes 11 seconds 453 msec
