                         Program Version 5.0.4 -  RELEASE  -
|  1> !ri-mp2 aug-cc-pvqz aug-cc-pvqz/c tightscf
|  2> %pal nprocs 16 end
|  3>
|  4> * xyz 0 1
|  5> C      2.237512   -1.080208   -0.077675
|  6> C      1.403583   -0.280902   -0.719892
|  7> S      0.000000    0.441332    0.117731
|  8> O      0.000000   -0.012068    1.503955
|  9> C     -1.403588   -0.280896   -0.719890
| 10> C     -2.237510   -1.080210   -0.077674
| 11> O      0.000003    1.864598   -0.204444
| 12> H      2.063322   -1.347346    0.955947
| 13> H      3.118409   -1.474130   -0.566836
| 14> H      1.522477    0.047345   -1.743611
| 15> H     -1.522490    0.047360   -1.743604
| 16> H     -2.063312   -1.347358    0.955944
| 17> H     -3.118410   -1.474129   -0.566832
| 18> *
| 19>
| 20>                          ****END OF INPUT****

CARTESIAN COORDINATES (ANGSTROEM)
---------------------------------
  C      2.237512   -1.080208   -0.077675
  C      1.403583   -0.280902   -0.719892
  S      0.000000    0.441332    0.117731
  O      0.000000   -0.012068    1.503955
  C     -1.403588   -0.280896   -0.719890
  C     -2.237510   -1.080210   -0.077674
  O      0.000003    1.864598   -0.204444
  H      2.063322   -1.347346    0.955947
  H      3.118409   -1.474130   -0.566836
  H      1.522477    0.047345   -1.743611
  H     -1.522490    0.047360   -1.743604
  H     -2.063312   -1.347358    0.955944
  H     -3.118410   -1.474129   -0.566832

 Total Charge           Charge          ....    0
 Multiplicity           Mult            ....    1
 Number of Electrons    NEL             ....   62
 Basis Dimension        Dim             ....  840

ORBITAL ENERGIES
----------------

  NO   OCC          E(Eh)            E(eV)
   0   2.0000     -92.178098     -2508.2936
   1   2.0000     -20.544963      -559.0569
   2   2.0000     -20.540188      -558.9269
   3   2.0000     -11.279953      -306.9431
   4   2.0000     -11.279941      -306.9428
   5   2.0000     -11.274538      -306.7958
   6   2.0000     -11.274536      -306.7957
   7   2.0000      -9.146786      -248.8967
   8   2.0000      -6.832223      -185.9142
   9   2.0000      -6.831809      -185.9030
  10   2.0000      -6.831199      -185.8864
  11   2.0000      -1.442252       -39.2457
  12   2.0000      -1.332324       -36.2544
  13   2.0000      -1.106151       -30.0999
  14   2.0000      -1.085258       -29.5314
  15   2.0000      -0.935828       -25.4652
  16   2.0000      -0.835429       -22.7332
  17   2.0000      -0.772157       -21.0115
  18   2.0000      -0.715239       -19.4626
  19   2.0000      -0.683449       -18.5976
  20   2.0000      -0.671114       -18.2620
  21   2.0000      -0.645315       -17.5599
  22   2.0000      -0.621954       -16.9242
  23   2.0000      -0.578981       -15.7549
  24   2.0000      -0.575149       -15.6506
  25   2.0000      -0.499341       -13.5878
  26   2.0000      -0.498655       -13.5691
  27   2.0000      -0.477321       -12.9886
  28   2.0000      -0.444751       -12.1023
  29   2.0000      -0.438503       -11.9323
  30   2.0000      -0.407390       -11.0857
  31   0.0000       0.020325         0.5531
  32   0.0000       0.025594         0.6964
  33   0.0000       0.031394         0.8543
  34   0.0000       0.044012         1.1976
  35   0.0000       0.045488         1.2378

MULLIKEN ATOMIC CHARGES
-----------------------
   0 C :   -0.759416
   1 C :   -0.719962
   2 S :    2.886636
   3 O :   -1.247645
   4 C :   -0.719960
   5 C :   -0.759415
   6 O :   -1.229571
   7 H :    0.444341
   8 H :    0.380180
   9 H :    0.450146
  10 H :    0.450145
  11 H :    0.444341
  12 H :    0.380179
Sum of atomic charges:    0.0000000

LOEWDIN ATOMIC CHARGES
----------------------
   0 C :    0.741578
   1 C :    0.214805
   2 S :   -0.286892
   3 O :    0.305408
   4 C :    0.214806
   5 C :    0.741578
   6 O :    0.276374
   7 H :   -0.380896
   8 H :   -0.339566
   9 H :   -0.383366
  10 H :   -0.383367
  11 H :   -0.380896
  12 H :   -0.339566

  Mayer bond orders larger than 0.100000
B(  0-C ,  1-C ) :   1.6721 B(  0-C ,  7-H ) :   0.7812 B(  0-C ,  8-H ) :   0.9701
B(  1-C ,  2-S ) :   0.7584 B(  1-C ,  3-O ) :  -0.1018 B(  1-C ,  4-C ) :  -0.1355
B(  1-C ,  9-H ) :   0.8355 B(  2-S ,  3-O ) :   1.0914 B(  2-S ,  4-C ) :   0.7584
B(  2-S ,  6-O ) :   0.8194 B(  3-O ,  4-C ) :  -0.1018 B(  4-C ,  5-C ) :   1.6721
B(  4-C , 10-H ) :   0.8355 B(  5-C , 11-H ) :   0.7812 B(  5-C , 12-H ) :   0.9701

MP2 TOTAL ENERGY:     -703.695056753 Eh
FINAL SINGLE POINT ENERGY      -703.695056752758

DIPOLE MOMENT
-------------
                                X             Y             Z
Electronic contribution:      0.00000       3.77324       1.47805
Nuclear contribution   :     -0.00000      -5.45262      -2.65319
                        -----------------------------------------
Total Dipole Moment    :     -0.00000      -1.67938      -1.17513
                        -----------------------------------------
Magnitude (a.u.)       :      2.04970
Magnitude (Debye)      :      5.20993

Rotational constants in cm-1:     0.106667     0.065117     0.056181
Rotational constants in MHz :  3197.810352  1952.164495  1684.276043

                             ****ORCA TERMINATED NORMALLY****
TOTAL RUN TIME: 0 days 0 hours 23 minutes 46 seconds 472 msec
