                         Program Version 5.0.4 -  RELEASE  -
|  1> !ri-mp2 aug-cc-pvqz aug-cc-pvqz/c tightscf
|  2> %pal nprocs 16 end
|  3>
|  4> * xyz 0 1
|  5> F      2.330214   -0.536042    0.000001
|  6> F     -2.393334   -0.522974   -0.000003
|  7> N      1.036400   -0.102187    0.000000
|  8> C     -1.116301   -0.113298    0.000000
|  9> C     -0.028009   -0.957326   -0.000003
| 10> C      0.691209    1.205519    0.000003
| 11> C     -0.693561    1.228172    0.000003
| 12> H      0.078795   -2.024555   -0.000006
| 13> H      1.428370    1.986186    0.000006
| 14> H     -1.313902    2.106420    0.000004
| 15> *
| 16>
| 17>                          ****END OF INPUT****

CARTESIAN COORDINATES (ANGSTROEM)
---------------------------------
  F      2.330214   -0.536042    0.000001
  F     -2.393334   -0.522974   -0.000003
  N      1.036400   -0.102187    0.000000
  C     -1.116301   -0.113298    0.000000
  C     -0.028009   -0.957326   -0.000003
  C      0.691209    1.205519    0.000003
  C     -0.693561    1.228172    0.000003
  H      0.078795   -2.024555   -0.000006
  H      1.428370    1.986186    0.000006
  H     -1.313902    2.106420    0.000004

 Total Charge           Charge          ....    0
 Multiplicity           Mult            ....    1
 Number of Electrons    NEL             ....   52
 Basis Dimension        Dim             ....  698

ORBITAL ENERGIES
----------------

  NO   OCC          E(Eh)            E(eV)
   0   2.0000     -26.367381      -717.4929
   1   2.0000     -26.309999      -715.9315
   2   2.0000     -15.715618      -427.6437
   3   2.0000     -11.322600      -308.1036
   4   2.0000     -11.291228      -307.2499
   5   2.0000     -11.280826      -306.9669
   6   2.0000     -11.239828      -305.8513
   7   2.0000      -1.677137       -45.6372
   8   2.0000      -1.627040       -44.2740
   9   2.0000      -1.313955       -35.7545
  10   2.0000      -1.052696       -28.6453
  11   2.0000      -1.030169       -28.0323
  12   2.0000      -0.840610       -22.8742
  13   2.0000      -0.834830       -22.7169
  14   2.0000      -0.778686       -21.1891
  15   2.0000      -0.756886       -20.5959
  16   2.0000      -0.728179       -19.8148
  17   2.0000      -0.700752       -19.0684
  18   2.0000      -0.697337       -18.9755
  19   2.0000      -0.667283       -18.1577
  20   2.0000      -0.625162       -17.0115
  21   2.0000      -0.604723       -16.4554
  22   2.0000      -0.582435       -15.8489
  23   2.0000      -0.554437       -15.0870
  24   2.0000      -0.368139       -10.0176
  25   2.0000      -0.330841        -9.0026
  26   0.0000       0.025248         0.6870
  27   0.0000       0.030644         0.8339
  28   0.0000       0.035166         0.9569
  29   0.0000       0.059386         1.6160
  30   0.0000       0.064029         1.7423

MULLIKEN ATOMIC CHARGES
-----------------------
   0 F :   -0.499377
   1 F :   -0.708445
   2 N :    0.213730
   3 C :    0.924310
   4 C :   -0.438889
   5 C :   -0.378040
   6 C :   -0.521867
   7 H :    0.477496
   8 H :    0.502475
   9 H :    0.428607
Sum of atomic charges:    0.0000000

LOEWDIN ATOMIC CHARGES
----------------------
   0 F :    0.639410
   1 F :    0.745351
   2 N :   -0.212628
   3 C :   -0.756507
   4 C :    0.134644
   5 C :    0.145473
   6 C :    0.273010
   7 H :   -0.322045
   8 H :   -0.312300
   9 H :   -0.334408

  Mayer bond orders larger than 0.100000
B(  0-F ,  2-N ) :   0.4690 B(  1-F ,  3-C ) :   0.1512 B(  2-N ,  4-C ) :   1.0581
B(  2-N ,  5-C ) :   1.1184 B(  3-C ,  4-C ) :   1.5480 B(  3-C ,  5-C ) :  -0.1846
B(  3-C ,  6-C ) :   1.3627 B(  4-C ,  7-H ) :   0.7784 B(  5-C ,  6-C ) :   1.4169
B(  5-C ,  8-H ) :   0.8140 B(  6-C ,  9-H ) :   0.8111

MP2 TOTAL ENERGY:     -408.034931627 Eh
FINAL SINGLE POINT ENERGY      -408.034931626564

DIPOLE MOMENT
-------------
                                X             Y             Z
Electronic contribution:      0.26379      -2.64118      -0.00001
Nuclear contribution   :      0.24794       2.94988       0.00001
                        -----------------------------------------
Total Dipole Moment    :      0.51173       0.30870       0.00000
                        -----------------------------------------
Magnitude (a.u.)       :      0.59763
Magnitude (Debye)      :      1.51906

Rotational constants in cm-1:     0.240743     0.065513     0.051498
Rotational constants in MHz :  7217.278969  1964.019050  1543.885555

                             ****ORCA TERMINATED NORMALLY****
TOTAL RUN TIME: 0 days 0 hours 11 minutes 1 seconds 145 msec
