                         Program Version 5.0.4 -  RELEASE  -
|  1> !ri-mp2 aug-cc-pvqz aug-cc-pvqz/c tightscf
|  2> %pal nprocs 16 end
|  3>
|  4> * xyz 0 1
|  5> C     -0.828503    1.164117   -0.040476
|  6> C     -2.134122    0.751924   -0.019718
|  7> C     -0.858343   -1.090763    0.034212
|  8> C     -0.008337   -0.005922   -0.006066
|  9> C      1.460971   -0.144754   -0.008282
| 10> N     -2.135628   -0.622343    0.026759
| 11> N      2.177223    1.021662    0.019301
| 12> O      2.017893   -1.232462   -0.050329
| 13> H     -0.508559    2.191256   -0.090948
| 14> H     -3.051869    1.312081   -0.038511
| 15> H     -0.625407   -2.139469    0.067307
| 16> H     -2.958272   -1.197272    0.051277
| 17> H      1.744712    1.904010    0.219798
| 18> H      3.175101    0.946245    0.113271
| 19> *
| 20>
| 21>                          ****END OF INPUT****

CARTESIAN COORDINATES (ANGSTROEM)
---------------------------------
  C     -0.828503    1.164117   -0.040476
  C     -2.134122    0.751924   -0.019718
  C     -0.858343   -1.090763    0.034212
  C     -0.008337   -0.005922   -0.006066
  C      1.460971   -0.144754   -0.008282
  N     -2.135628   -0.622343    0.026759
  N      2.177223    1.021662    0.019301
  O      2.017893   -1.232462   -0.050329
  H     -0.508559    2.191256   -0.090948
  H     -3.051869    1.312081   -0.038511
  H     -0.625407   -2.139469    0.067307
  H     -2.958272   -1.197272    0.051277
  H      1.744712    1.904010    0.219798
  H      3.175101    0.946245    0.113271

 Total Charge           Charge          ....    0
 Multiplicity           Mult            ....    1
 Number of Electrons    NEL             ....   58
 Basis Dimension        Dim             ....  916

ORBITAL ENERGIES
----------------

  NO   OCC          E(Eh)            E(eV)
   0   2.0000     -20.501903      -557.8851
   1   2.0000     -15.624282      -425.1583
   2   2.0000     -15.572773      -423.7567
   3   2.0000     -11.345500      -308.7268
   4   2.0000     -11.274328      -306.7901
   5   2.0000     -11.268134      -306.6215
   6   2.0000     -11.231518      -305.6251
   7   2.0000     -11.226144      -305.4789
   8   2.0000      -1.367106       -37.2009
   9   2.0000      -1.312457       -35.7138
  10   2.0000      -1.200351       -32.6632
  11   2.0000      -1.068996       -29.0888
  12   2.0000      -1.002741       -27.2860
  13   2.0000      -0.870838       -23.6967
  14   2.0000      -0.805437       -21.9171
  15   2.0000      -0.760246       -20.6873
  16   2.0000      -0.757804       -20.6209
  17   2.0000      -0.705719       -19.2036
  18   2.0000      -0.638018       -17.3614
  19   2.0000      -0.601135       -16.3577
  20   2.0000      -0.599646       -16.3172
  21   2.0000      -0.595963       -16.2170
  22   2.0000      -0.579264       -15.7626
  23   2.0000      -0.555157       -15.1066
  24   2.0000      -0.546830       -14.8800
  25   2.0000      -0.421273       -11.4634
  26   2.0000      -0.406765       -11.0686
  27   2.0000      -0.367008        -9.9868
  28   2.0000      -0.315870        -8.5953
  29   0.0000       0.017910         0.4873
  30   0.0000       0.024250         0.6599
  31   0.0000       0.031002         0.8436
  32   0.0000       0.043540         1.1848
  33   0.0000       0.049503         1.3470

MULLIKEN ATOMIC CHARGES
-----------------------
   0 C :   -0.249299
   1 C :   -0.362081
   2 C :   -0.014809
   3 C :   -0.328582
   4 C :    1.175565
   5 N :   -0.483270
   6 N :   -0.754302
   7 O :   -0.828649
   8 H :    0.342430
   9 H :    0.454863
  10 H :    0.448382
  11 H :    0.055384
  12 H :    0.340427
  13 H :    0.203941
Sum of atomic charges:   -0.0000000

LOEWDIN ATOMIC CHARGES
----------------------
   0 C :    0.311262
   1 C :    0.227399
   2 C :    0.205959
   3 C :   -0.181945
   4 C :   -0.877221
   5 N :    0.810813
   6 N :    1.227750
   7 O :    0.669743
   8 H :   -0.325571
   9 H :   -0.305399
  10 H :   -0.287035
  11 H :   -0.442120
  12 H :   -0.529352
  13 H :   -0.504283

  Mayer bond orders larger than 0.100000
B(  0-C ,  1-C ) :   1.5036 B(  0-C ,  3-C ) :   1.0294 B(  0-C ,  4-C ) :  -0.2804
B(  0-C ,  8-H ) :   0.9547 B(  1-C ,  3-C ) :  -0.2079 B(  1-C ,  5-N ) :   1.0158
B(  1-C ,  9-H ) :   0.8664 B(  2-C ,  3-C ) :   1.4358 B(  2-C ,  4-C ) :  -0.2059
B(  2-C ,  5-N ) :   1.0863 B(  2-C , 10-H ) :   0.8036 B(  3-C ,  4-C ) :   1.1935
B(  3-C ,  5-N ) :  -0.1448 B(  3-C ,  6-N ) :  -0.1152 B(  3-C ,  7-O ) :   0.3284
B(  4-C ,  6-N ) :   1.1641 B(  4-C ,  7-O ) :   0.9883 B(  5-N , 11-H ) :   1.2578
B(  6-N ,  7-O ) :   0.1580 B(  6-N , 12-H ) :   0.8654 B(  6-N , 13-H ) :   1.0375

MP2 TOTAL ENERGY:     -378.305903781 Eh
FINAL SINGLE POINT ENERGY      -378.305903781432

DIPOLE MOMENT
-------------
                                X             Y             Z
Electronic contribution:      0.70733      -2.01026      -0.09066
Nuclear contribution   :     -2.16859       2.96741       0.31820
                        -----------------------------------------
Total Dipole Moment    :     -1.46126       0.95715       0.22754
                        -----------------------------------------
Magnitude (a.u.)       :      1.76159
Magnitude (Debye)      :      4.47760

Rotational constants in cm-1:     0.170139     0.051830     0.039760
Rotational constants in MHz :  5100.634912  1553.836866  1191.975893

                             ****ORCA TERMINATED NORMALLY****
TOTAL RUN TIME: 0 days 0 hours 27 minutes 29 seconds 129 msec
