                         Program Version 5.0.4 -  RELEASE  -
|  1> !ri-mp2 aug-cc-pvqz aug-cc-pvqz/c tightscf
|  2> %pal nprocs 16 end
|  3>
|  4> * xyz 0 1
|  5> S     -2.085780   -0.900716    0.006105
|  6> O      2.215947   -1.569659    0.000507
|  7> N      0.569237   -0.210430    0.014654
|  8> N     -0.824348    1.471103   -0.076104
|  9> N      1.006426   -1.480170    0.031513
| 10> C     -0.797846    0.120492   -0.016313
| 11> C      1.454352    0.955921   -0.068349
| 12> C      0.468196    2.125120    0.088754
| 13> H     -1.707844    1.945974   -0.009085
| 14> H      1.968507    0.956565   -1.029568
| 15> H      2.206495    0.910570    0.715423
| 16> H      0.550123    2.589299    1.074075
| 17> H      0.620197    2.893610   -0.667587
| 18> *
| 19>
| 20>                          ****END OF INPUT****

CARTESIAN COORDINATES (ANGSTROEM)
---------------------------------
  S     -2.085780   -0.900716    0.006105
  O      2.215947   -1.569659    0.000507
  N      0.569237   -0.210430    0.014654
  N     -0.824348    1.471103   -0.076104
  N      1.006426   -1.480170    0.031513
  C     -0.797846    0.120492   -0.016313
  C      1.454352    0.955921   -0.068349
  C      0.468196    2.125120    0.088754
  H     -1.707844    1.945974   -0.009085
  H      1.968507    0.956565   -1.029568
  H      2.206495    0.910570    0.715423
  H      0.550123    2.589299    1.074075
  H      0.620197    2.893610   -0.667587

 Total Charge           Charge          ....    0
 Multiplicity           Mult            ....    1
 Number of Electrons    NEL             ....   68
 Basis Dimension        Dim             ....  874

ORBITAL ENERGIES
----------------

  NO   OCC          E(Eh)            E(eV)
   0   2.0000     -91.907906     -2500.9413
   1   2.0000     -20.617296      -561.0251
   2   2.0000     -15.752685      -428.6523
   3   2.0000     -15.664614      -426.2558
   4   2.0000     -15.624962      -425.1768
   5   2.0000     -11.399016      -310.1830
   6   2.0000     -11.314496      -307.8831
   7   2.0000     -11.311178      -307.7928
   8   2.0000      -8.912263      -242.5150
   9   2.0000      -6.594036      -179.4329
  10   2.0000      -6.592222      -179.3835
  11   2.0000      -6.591546      -179.3651
  12   2.0000      -1.547066       -42.0978
  13   2.0000      -1.371541       -37.3215
  14   2.0000      -1.253219       -34.1018
  15   2.0000      -1.095986       -29.8233
  16   2.0000      -1.022104       -27.8129
  17   2.0000      -0.947087       -25.7715
  18   2.0000      -0.898913       -24.4607
  19   2.0000      -0.806638       -21.9497
  20   2.0000      -0.732296       -19.9268
  21   2.0000      -0.729992       -19.8641
  22   2.0000      -0.718936       -19.5633
  23   2.0000      -0.675359       -18.3775
  24   2.0000      -0.648686       -17.6517
  25   2.0000      -0.621479       -16.9113
  26   2.0000      -0.585011       -15.9189
  27   2.0000      -0.573025       -15.5928
  28   2.0000      -0.544186       -14.8081
  29   2.0000      -0.533445       -14.5158
  30   2.0000      -0.444939       -12.1074
  31   2.0000      -0.421407       -11.4671
  32   2.0000      -0.343970        -9.3599
  33   2.0000      -0.339306        -9.2330
  34   0.0000       0.013122         0.3571
  35   0.0000       0.027173         0.7394
  36   0.0000       0.028431         0.7736
  37   0.0000       0.039885         1.0853
  38   0.0000       0.048639         1.3235

MULLIKEN ATOMIC CHARGES
-----------------------
   0 S :   -0.156434
   1 O :   -0.546419
   2 N :    0.116922
   3 N :   -0.351949
   4 N :    0.200819
   5 C :    0.164061
   6 C :   -0.535646
   7 C :   -0.369427
   8 H :    0.196098
   9 H :    0.314882
  10 H :    0.332073
  11 H :    0.282441
  12 H :    0.352578
Sum of atomic charges:    0.0000000

LOEWDIN ATOMIC CHARGES
----------------------
   0 S :    1.032063
   1 O :    0.418049
   2 N :    0.014473
   3 N :    0.749965
   4 N :   -0.157779
   5 C :   -1.226006
   6 C :    0.337271
   7 C :    0.417173
   8 H :   -0.498128
   9 H :   -0.271109
  10 H :   -0.286269
  11 H :   -0.263233
  12 H :   -0.266471

  Mayer bond orders larger than 0.100000
B(  0-S ,  5-C ) :   1.4655 B(  1-O ,  4-N ) :   1.5268 B(  2-N ,  4-N ) :   0.8950
B(  2-N ,  5-C ) :   1.0363 B(  2-N ,  6-C ) :   0.7053 B(  3-N ,  5-C ) :   1.1327
B(  3-N ,  7-C ) :   0.7304 B(  3-N ,  8-H ) :   1.0469 B(  6-C ,  7-C ) :   1.1617
B(  6-C ,  9-H ) :   0.9035 B(  6-C , 10-H ) :   0.8848 B(  7-C , 11-H ) :   0.9175
B(  7-C , 12-H ) :   0.8520

MP2 TOTAL ENERGY:     -753.947182112 Eh
FINAL SINGLE POINT ENERGY      -753.947182112295

DIPOLE MOMENT
-------------
                                X             Y             Z
Electronic contribution:     -2.89465      -6.48239      -0.03021
Nuclear contribution   :      3.64294       9.05362       0.08073
                        -----------------------------------------
Total Dipole Moment    :      0.74829       2.57124       0.05051
                        -----------------------------------------
Magnitude (a.u.)       :      2.67838
Magnitude (Debye)      :      6.80791

Rotational constants in cm-1:     0.078106     0.056580     0.033258
Rotational constants in MHz :  2341.567734  1696.237308   997.050711

                             ****ORCA TERMINATED NORMALLY****
TOTAL RUN TIME: 0 days 0 hours 29 minutes 32 seconds 868 msec
