                         Program Version 5.0.4 -  RELEASE  -
|  1> !ri-mp2 aug-cc-pvqz aug-cc-pvqz/c tightscf
|  2> %pal nprocs 16 end
|  3>
|  4> * xyz 0 1
|  5> O     -0.475052   -0.494394    1.113221
|  6> O     -0.475052   -0.494394   -1.113221
|  7> C     -0.475052    0.274157    2.299349
|  8> C     -0.475052    0.274157   -2.299349
|  9> C      0.108864    0.139234    0.000000
| 10> C      1.624653   -0.011059    0.000000
| 11> H      0.536031    0.457395    2.678474
| 12> H      0.536031    0.457395   -2.678474
| 13> H     -1.025623   -0.297309    3.043115
| 14> H     -1.025623   -0.297309   -3.043115
| 15> H     -0.974551    1.238607    2.149797
| 16> H     -0.974551    1.238607   -2.149797
| 17> H     -0.175109    1.205677    0.000000
| 18> H      1.876897   -1.070780    0.000000
| 19> H      2.063428    0.459549   -0.880282
| 20> H      2.063428    0.459549    0.880282
| 21> *
| 22>
| 23>                          ****END OF INPUT****

CARTESIAN COORDINATES (ANGSTROEM)
---------------------------------
  O     -0.475052   -0.494394    1.113221
  O     -0.475052   -0.494394   -1.113221
  C     -0.475052    0.274157    2.299349
  C     -0.475052    0.274157   -2.299349
  C      0.108864    0.139234    0.000000
  C      1.624653   -0.011059    0.000000
  H      0.536031    0.457395    2.678474
  H      0.536031    0.457395   -2.678474
  H     -1.025623   -0.297309    3.043115
  H     -1.025623   -0.297309   -3.043115
  H     -0.974551    1.238607    2.149797
  H     -0.974551    1.238607   -2.149797
  H     -0.175109    1.205677    0.000000
  H      1.876897   -1.070780    0.000000
  H      2.063428    0.459549   -0.880282
  H      2.063428    0.459549    0.880282

 Total Charge           Charge          ....    0
 Multiplicity           Mult            ....    1
 Number of Electrons    NEL             ....   50
 Basis Dimension        Dim             ....  940

ORBITAL ENERGIES
----------------

  NO   OCC          E(Eh)            E(eV)
   0   2.0000     -20.552765      -559.2692
   1   2.0000     -20.552754      -559.2689
   2   2.0000     -11.332354      -308.3690
   3   2.0000     -11.272197      -306.7321
   4   2.0000     -11.272196      -306.7321
   5   2.0000     -11.215256      -305.1826
   6   2.0000      -1.410757       -38.3887
   7   2.0000      -1.342590       -36.5337
   8   2.0000      -1.019794       -27.7500
   9   2.0000      -0.946880       -25.7659
  10   2.0000      -0.912589       -24.8328
  11   2.0000      -0.817009       -22.2319
  12   2.0000      -0.690785       -18.7972
  13   2.0000      -0.683764       -18.6062
  14   2.0000      -0.657883       -17.9019
  15   2.0000      -0.626016       -17.0348
  16   2.0000      -0.592146       -16.1131
  17   2.0000      -0.568906       -15.4807
  18   2.0000      -0.568461       -15.4686
  19   2.0000      -0.545464       -14.8428
  20   2.0000      -0.527876       -14.3642
  21   2.0000      -0.496369       -13.5069
  22   2.0000      -0.471425       -12.8281
  23   2.0000      -0.441327       -12.0091
  24   2.0000      -0.414391       -11.2761
  25   0.0000       0.024618         0.6699
  26   0.0000       0.032255         0.8777
  27   0.0000       0.034426         0.9368
  28   0.0000       0.037713         1.0262
  29   0.0000       0.047789         1.3004

MULLIKEN ATOMIC CHARGES
-----------------------
   0 O :   -0.830657
   1 O :   -0.830657
   2 C :   -0.661237
   3 C :   -0.661237
   4 C :    1.155542
   5 C :   -1.007423
   6 H :    0.259686
   7 H :    0.259686
   8 H :    0.394249
   9 H :    0.394249
  10 H :    0.269706
  11 H :    0.269706
  12 H :    0.130033
  13 H :    0.270626
  14 H :    0.293865
  15 H :    0.293865
Sum of atomic charges:    0.0000000

LOEWDIN ATOMIC CHARGES
----------------------
   0 O :    0.868704
   1 O :    0.868704
   2 C :    0.566694
   3 C :    0.566694
   4 C :   -0.649311
   5 C :    0.903328
   6 H :   -0.314442
   7 H :   -0.314442
   8 H :   -0.324180
   9 H :   -0.324180
  10 H :   -0.307936
  11 H :   -0.307936
  12 H :   -0.345568
  13 H :   -0.285418
  14 H :   -0.300355
  15 H :   -0.300355

  Mayer bond orders larger than 0.100000
B(  0-O ,  2-C ) :   0.9392 B(  0-O ,  4-C ) :   0.4841 B(  1-O ,  3-C ) :   0.9392
B(  1-O ,  4-C ) :   0.4841 B(  2-C ,  4-C ) :  -0.1403 B(  2-C ,  6-H ) :   0.9247
B(  2-C ,  8-H ) :   0.8818 B(  2-C , 10-H ) :   0.9093 B(  3-C ,  4-C ) :  -0.1403
B(  3-C ,  7-H ) :   0.9247 B(  3-C ,  9-H ) :   0.8818 B(  3-C , 11-H ) :   0.9093
B(  4-C ,  5-C ) :   0.8919 B(  4-C , 12-H ) :   0.9612 B(  5-C , 13-H ) :   0.8972
B(  5-C , 14-H ) :   0.9271 B(  5-C , 15-H ) :   0.9271

MP2 TOTAL ENERGY:     -308.393100552 Eh
FINAL SINGLE POINT ENERGY      -308.393100552132

DIPOLE MOMENT
-------------
                                X             Y             Z
Electronic contribution:     -2.56323      -3.00243      -0.00000
Nuclear contribution   :      3.00645       3.99675       0.00000
                        -----------------------------------------
Total Dipole Moment    :      0.44323       0.99432      -0.00000
                        -----------------------------------------
Magnitude (a.u.)       :      1.08863
Magnitude (Debye)      :      2.76707

Rotational constants in cm-1:     0.217194     0.074275     0.061978
Rotational constants in MHz :  6511.303208  2226.721596  1858.047473

                             ****ORCA TERMINATED NORMALLY****
TOTAL RUN TIME: 0 days 0 hours 29 minutes 18 seconds 473 msec
