                         Program Version 5.0.4 -  RELEASE  -
|  1> !ri-mp2 aug-cc-pvqz aug-cc-pvqz/c tightscf
|  2> %pal nprocs 16 end
|  3>
|  4> * xyz 0 1
|  5> F      2.208132    0.011420        0.000000
|  6> N     -2.522866   -0.216097        0.000001
|  7> C     -0.054551    0.505268        0.000000
|  8> C      0.934896   -0.381578        0.000000
|  9> C     -1.412545    0.093056        0.000000
| 10> H      0.158393    1.565950        0.000001
| 11> H      0.821683   -1.456525        0.000000
| 12> *
| 13>
| 14>                          ****END OF INPUT****

CARTESIAN COORDINATES (ANGSTROEM)
---------------------------------
  F      2.208132    0.011420    0.000000
  N     -2.522866   -0.216097    0.000001
  C     -0.054551    0.505268    0.000000
  C      0.934896   -0.381578    0.000000
  C     -1.412545    0.093056    0.000000
  H      0.158393    1.565950    0.000001
  H      0.821683   -1.456525    0.000000

 Total Charge           Charge          ....    0
 Multiplicity           Mult            ....    1
 Number of Electrons    NEL             ....   36
 Basis Dimension        Dim             ....  492

ORBITAL ENERGIES
----------------

  NO   OCC          E(Eh)            E(eV)
   0   2.0000     -26.352036      -717.0754
   1   2.0000     -15.583188      -424.0401
   2   2.0000     -11.383476      -309.7601
   3   2.0000     -11.297501      -307.4206
   4   2.0000     -11.289739      -307.2094
   5   2.0000      -1.673327       -45.5335
   6   2.0000      -1.236162       -33.6377
   7   2.0000      -1.118398       -30.4332
   8   2.0000      -0.913349       -24.8535
   9   2.0000      -0.805780       -21.9264
  10   2.0000      -0.756771       -20.5928
  11   2.0000      -0.734162       -19.9776
  12   2.0000      -0.686759       -18.6877
  13   2.0000      -0.615084       -16.7373
  14   2.0000      -0.570876       -15.5343
  15   2.0000      -0.532456       -14.4889
  16   2.0000      -0.481838       -13.1115
  17   2.0000      -0.404782       -11.0147
  18   0.0000       0.022951         0.6245
  19   0.0000       0.029698         0.8081
  20   0.0000       0.051559         1.4030
  21   0.0000       0.060387         1.6432
  22   0.0000       0.071793         1.9536

MULLIKEN ATOMIC CHARGES
-----------------------
   0 F :   -0.621669
   1 N :   -0.622095
   2 C :   -0.586237
   3 C :    0.247915
   4 C :    0.451387
   5 H :    0.547693
   6 H :    0.583006
Sum of atomic charges:    0.0000000

LOEWDIN ATOMIC CHARGES
----------------------
   0 F :    0.773887
   1 N :    0.392673
   2 C :    0.193079
   3 C :   -0.239307
   4 C :   -0.361980
   5 H :   -0.382151
   6 H :   -0.376201

  Mayer bond orders larger than 0.100000
B(  0-F ,  2-C ) :   0.1296 B(  0-F ,  3-C ) :   0.6121 B(  1-N ,  4-C ) :   2.5613
B(  2-C ,  3-C ) :   1.8818 B(  2-C ,  4-C ) :   1.1899 B(  2-C ,  5-H ) :   0.6586
B(  3-C ,  6-H ) :   0.6377

MP2 TOTAL ENERGY:     -269.702249807 Eh
FINAL SINGLE POINT ENERGY      -269.702249807001

DIPOLE MOMENT
-------------
                                X             Y             Z
Electronic contribution:      2.30285      -0.01969      -0.00000
Nuclear contribution   :     -1.15656       0.09218       0.00000
                        -----------------------------------------
Total Dipole Moment    :      1.14629       0.07249      -0.00000
                        -----------------------------------------
Magnitude (a.u.)       :      1.14858
Magnitude (Debye)      :      2.91945

Rotational constants in cm-1:     1.655734     0.077695     0.074212
Rotational constants in MHz : 49637.654004  2329.230334  2224.830888

                             ****ORCA TERMINATED NORMALLY****
TOTAL RUN TIME: 0 days 0 hours 3 minutes 10 seconds 311 msec
