                         Program Version 5.0.4 -  RELEASE  -
|  1> !ri-mp2 aug-cc-pvqz aug-cc-pvqz/c tightscf
|  2> %pal nprocs 16 end
|  3> %maxcore 3800
|  4>
|  5> * xyz 0 1
|  6> C      5.089909   -0.352288   -0.006234
|  7> C      3.812557    0.485486    0.017342
|  8> C      2.536468   -0.356683   -0.009704
|  9> C      1.252161    0.472558    0.012261
| 10> C     -0.022805   -0.371121   -0.013333
| 11> C     -1.306858    0.459456    0.007688
| 12> C     -2.580564   -0.387028   -0.021920
| 13> C     -3.851423    0.452738    0.005891
| 14> O     -5.044544   -0.325727   -0.078454
| 15> H      5.140854   -0.967918   -0.906694
| 16> H      5.136911   -1.023546    0.853797
| 17> H      5.980865    0.276784    0.015618
| 18> H      3.809761    1.169734   -0.836459
| 19> H      3.807307    1.117177    0.910784
| 20> H      2.542544   -0.990137   -0.903143
| 21> H      2.539557   -1.041269    0.845242
| 22> H      1.249543    1.155909   -0.843424
| 23> H      1.247470    1.106707    0.905111
| 24> H     -0.018787   -1.005273   -0.905757
| 25> H     -0.021131   -1.053901    0.842702
| 26> H     -1.307512    1.142029   -0.848333
| 27> H     -1.310614    1.093278    0.900561
| 28> H     -2.584132   -1.069525    0.835632
| 29> H     -2.594832   -1.012605   -0.918195
| 30> H     -3.868468    1.083342    0.903101
| 31> H     -3.882554    1.118124   -0.857873
| 32> H     -5.087108   -0.911803    0.683019
| 33> *
| 34>
| 35>                          ****END OF INPUT****

CARTESIAN COORDINATES (ANGSTROEM)
---------------------------------
  C      5.089909   -0.352288   -0.006234
  C      3.812557    0.485486    0.017342
  C      2.536468   -0.356683   -0.009704
  C      1.252161    0.472558    0.012261
  C     -0.022805   -0.371121   -0.013333
  C     -1.306858    0.459456    0.007688
  C     -2.580564   -0.387028   -0.021920
  C     -3.851423    0.452738    0.005891
  O     -5.044544   -0.325727   -0.078454
  H      5.140854   -0.967918   -0.906694
  H      5.136911   -1.023546    0.853797
  H      5.980865    0.276784    0.015618
  H      3.809761    1.169734   -0.836459
  H      3.807307    1.117177    0.910784
  H      2.542544   -0.990137   -0.903143
  H      2.539557   -1.041269    0.845242
  H      1.249543    1.155909   -0.843424
  H      1.247470    1.106707    0.905111
  H     -0.018787   -1.005273   -0.905757
  H     -0.021131   -1.053901    0.842702
  H     -1.307512    1.142029   -0.848333
  H     -1.310614    1.093278    0.900561
  H     -2.584132   -1.069525    0.835632
  H     -2.594832   -1.012605   -0.918195
  H     -3.868468    1.083342    0.903101
  H     -3.882554    1.118124   -0.857873
  H     -5.087108   -0.911803    0.683019

 Total Charge           Charge          ....    0
 Multiplicity           Mult            ....    1
 Number of Electrons    NEL             ....   74
 Basis Dimension        Dim             .... 1548

ORBITAL ENERGIES
----------------

  NO   OCC          E(Eh)            E(eV)
   0   2.0000     -20.550879      -559.2178
   1   2.0000     -11.270218      -306.6782
   2   2.0000     -11.220359      -305.3215
   3   2.0000     -11.218762      -305.2780
   4   2.0000     -11.217076      -305.2322
   5   2.0000     -11.215698      -305.1947
   6   2.0000     -11.215133      -305.1793
   7   2.0000     -11.213925      -305.1464
   8   2.0000     -11.209421      -305.0239
   9   2.0000      -1.352244       -36.7964
  10   2.0000      -1.094518       -29.7834
  11   2.0000      -1.062921       -28.9236
  12   2.0000      -1.011835       -27.5334
  13   2.0000      -0.946510       -25.7559
  14   2.0000      -0.876856       -23.8605
  15   2.0000      -0.821505       -22.3543
  16   2.0000      -0.793622       -21.5956
  17   2.0000      -0.787648       -21.4330
  18   2.0000      -0.688503       -18.7351
  19   2.0000      -0.657498       -17.8914
  20   2.0000      -0.632742       -17.2178
  21   2.0000      -0.606759       -16.5107
  22   2.0000      -0.603382       -16.4189
  23   2.0000      -0.587452       -15.9854
  24   2.0000      -0.570288       -15.5183
  25   2.0000      -0.556094       -15.1321
  26   2.0000      -0.538047       -14.6410
  27   2.0000      -0.522600       -14.2207
  28   2.0000      -0.508996       -13.8505
  29   2.0000      -0.493912       -13.4400
  30   2.0000      -0.478252       -13.0139
  31   2.0000      -0.475513       -12.9394
  32   2.0000      -0.466575       -12.6961
  33   2.0000      -0.461357       -12.5542
  34   2.0000      -0.460888       -12.5414
  35   2.0000      -0.453648       -12.3444
  36   2.0000      -0.424748       -11.5580
  37   0.0000       0.025087         0.6826
  38   0.0000       0.026662         0.7255
  39   0.0000       0.030264         0.8235
  40   0.0000       0.032346         0.8802
  41   0.0000       0.038268         1.0413

MULLIKEN ATOMIC CHARGES
-----------------------
   0 C :   -0.913538
   1 C :   -0.529136
   2 C :   -0.300873
   3 C :   -0.349688
   4 C :   -0.443946
   5 C :   -0.347957
   6 C :   -0.653433
   7 C :    0.053841
   8 O :   -0.915813
   9 H :    0.224911
  10 H :    0.224653
  11 H :    0.267240
  12 H :    0.223141
  13 H :    0.223229
  14 H :    0.230658
  15 H :    0.231538
  16 H :    0.246944
  17 H :    0.248634
  18 H :    0.241780
  19 H :    0.240774
  20 H :    0.238464
  21 H :    0.237471
  22 H :    0.224239
  23 H :    0.272431
  24 H :    0.188260
  25 H :    0.288333
  26 H :    0.347843
Sum of atomic charges:   -0.0000000

LOEWDIN ATOMIC CHARGES
----------------------
   0 C :    0.926265
   1 C :    0.508884
   2 C :    0.513334
   3 C :    0.526025
   4 C :    0.527480
   5 C :    0.517331
   6 C :    0.506534
   7 C :    0.191115
   8 O :    1.268223
   9 H :   -0.285548
  10 H :   -0.285651
  11 H :   -0.284855
  12 H :   -0.273381
  13 H :   -0.273402
  14 H :   -0.267816
  15 H :   -0.268017
  16 H :   -0.265112
  17 H :   -0.265204
  18 H :   -0.264498
  19 H :   -0.265065
  20 H :   -0.265692
  21 H :   -0.266291
  22 H :   -0.275070
  23 H :   -0.273289
  24 H :   -0.292117
  25 H :   -0.314852
  26 H :   -0.799331

  Mayer bond orders larger than 0.100000
B(  0-C ,  1-C ) :   1.0552 B(  0-C ,  2-C ) :  -0.1403 B(  0-C ,  9-H ) :   0.9576
B(  0-C , 10-H ) :   0.9581 B(  0-C , 11-H ) :   1.0266 B(  1-C ,  2-C ) :   1.0132
B(  1-C ,  3-C ) :  -0.1127 B(  1-C , 12-H ) :   0.8827 B(  1-C , 13-H ) :   0.8829
B(  2-C ,  3-C ) :   1.1180 B(  2-C ,  4-C ) :  -0.1356 B(  2-C , 14-H ) :   0.8569
B(  2-C , 15-H ) :   0.8571 B(  3-C ,  4-C ) :   1.1811 B(  3-C ,  5-C ) :  -0.1452
B(  3-C , 16-H ) :   0.8392 B(  3-C , 17-H ) :   0.8372 B(  4-C ,  5-C ) :   1.1772
B(  4-C , 18-H ) :   0.8386 B(  4-C , 19-H ) :   0.8461 B(  5-C ,  6-C ) :   1.0481
B(  5-C ,  7-C ) :  -0.1504 B(  5-C , 20-H ) :   0.8381 B(  5-C , 21-H ) :   0.8480
B(  6-C ,  7-C ) :   1.2941 B(  6-C , 22-H ) :   0.8591 B(  6-C , 23-H ) :   0.8273
B(  7-C ,  8-O ) :   0.6118 B(  7-C , 24-H ) :   0.9584 B(  7-C , 25-H ) :   0.8475
B(  8-O , 26-H ) :   0.8572

MP2 TOTAL ENERGY:     -390.220488688 Eh
FINAL SINGLE POINT ENERGY      -390.220488688456

DIPOLE MOMENT
-------------
                                X             Y             Z
Electronic contribution:    -10.81777      -0.21611      -0.25171
Nuclear contribution   :     11.41878       0.19419       0.71975
                        -----------------------------------------
Total Dipole Moment    :      0.60101      -0.02191       0.46804
                        -----------------------------------------
Magnitude (a.u.)       :      0.76207
Magnitude (Debye)      :      1.93703

Rotational constants in cm-1:     0.329628     0.011330     0.011142
Rotational constants in MHz :  9881.988419   339.679700   334.017362

                             ****ORCA TERMINATED NORMALLY****
TOTAL RUN TIME: 0 days 2 hours 13 minutes 41 seconds 987 msec
