                         Program Version 5.0.4 -  RELEASE  -
|  1> !ri-mp2 aug-cc-pvqz aug-cc-pvqz/c tightscf
|  2> %pal nprocs 16 end
|  3> %maxcore 3800
|  4>
|  5> * xyz 0 1
|  6> O     -2.016926   -1.216020   -0.772187
|  7> O     -1.054020   -0.153372   -1.018473
|  8> C     -0.594460    0.399667    0.242789
|  9> C     -1.748089    1.091571    0.961695
| 10> C      0.047512   -0.692223    1.111646
| 11> C      1.271993   -1.337332    0.459293
| 12> C      2.312818   -0.289435    0.056807
| 13> C      1.699456    0.775969   -0.855005
| 14> C      0.461929    1.417906   -0.220985
| 15> H     -2.812365   -0.822759   -1.154034
| 16> H     -2.514347    0.371918    1.247143
| 17> H     -2.198490    1.849073    0.318379
| 18> H     -1.393009    1.581890    1.868465
| 19> H      0.337697   -0.229451    2.059796
| 20> H     -0.704912   -1.445089    1.346701
| 21> H      0.955390   -1.894817   -0.424991
| 22> H      1.710071   -2.062943    1.147967
| 23> H      3.159370   -0.767676   -0.440398
| 24> H      2.711283    0.189455    0.958403
| 25> H      1.423587    0.321303   -1.808390
| 26> H      2.433947    1.553119   -1.077801
| 27> H     -0.005539    2.120714   -0.913867
| 28> H      0.757931    1.993648    0.660473
| 29> *
| 30>
| 31>                          ****END OF INPUT****

CARTESIAN COORDINATES (ANGSTROEM)
---------------------------------
  O     -2.016926   -1.216020   -0.772187
  O     -1.054020   -0.153372   -1.018473
  C     -0.594460    0.399667    0.242789
  C     -1.748089    1.091571    0.961695
  C      0.047512   -0.692223    1.111646
  C      1.271993   -1.337332    0.459293
  C      2.312818   -0.289435    0.056807
  C      1.699456    0.775969   -0.855005
  C      0.461929    1.417906   -0.220985
  H     -2.812365   -0.822759   -1.154034
  H     -2.514347    0.371918    1.247143
  H     -2.198490    1.849073    0.318379
  H     -1.393009    1.581890    1.868465
  H      0.337697   -0.229451    2.059796
  H     -0.704912   -1.445089    1.346701
  H      0.955390   -1.894817   -0.424991
  H      1.710071   -2.062943    1.147967
  H      3.159370   -0.767676   -0.440398
  H      2.711283    0.189455    0.958403
  H      1.423587    0.321303   -1.808390
  H      2.433947    1.553119   -1.077801
  H     -0.005539    2.120714   -0.913867
  H      0.757931    1.993648    0.660473

 Total Charge           Charge          ....    0
 Multiplicity           Mult            ....    1
 Number of Electrons    NEL             ....   72
 Basis Dimension        Dim             .... 1364

ORBITAL ENERGIES
----------------

  NO   OCC          E(Eh)            E(eV)
   0   2.0000     -20.613142      -560.9121
   1   2.0000     -20.609986      -560.8262
   2   2.0000     -11.285832      -307.1031
   3   2.0000     -11.218786      -305.2787
   4   2.0000     -11.213890      -305.1455
   5   2.0000     -11.212322      -305.1028
   6   2.0000     -11.211386      -305.0773
   7   2.0000     -11.210703      -305.0587
   8   2.0000     -11.208588      -305.0012
   9   2.0000      -1.459363       -39.7113
  10   2.0000      -1.226884       -33.3852
  11   2.0000      -1.098918       -29.9031
  12   2.0000      -1.022766       -27.8309
  13   2.0000      -1.004591       -27.3363
  14   2.0000      -0.926219       -25.2037
  15   2.0000      -0.839080       -22.8325
  16   2.0000      -0.799439       -21.7538
  17   2.0000      -0.741884       -20.1877
  18   2.0000      -0.705746       -19.2043
  19   2.0000      -0.664144       -18.0723
  20   2.0000      -0.629720       -17.1356
  21   2.0000      -0.625568       -17.0226
  22   2.0000      -0.601900       -16.3785
  23   2.0000      -0.586468       -15.9586
  24   2.0000      -0.575981       -15.6732
  25   2.0000      -0.546410       -14.8686
  26   2.0000      -0.536728       -14.6051
  27   2.0000      -0.527285       -14.3481
  28   2.0000      -0.519405       -14.1337
  29   2.0000      -0.495597       -13.4859
  30   2.0000      -0.485128       -13.2010
  31   2.0000      -0.476644       -12.9702
  32   2.0000      -0.462596       -12.5879
  33   2.0000      -0.448129       -12.1942
  34   2.0000      -0.426336       -11.6012
  35   2.0000      -0.418227       -11.3805
  36   0.0000       0.024382         0.6635
  37   0.0000       0.028908         0.7866
  38   0.0000       0.030880         0.8403
  39   0.0000       0.033077         0.9001
  40   0.0000       0.044151         1.2014

MULLIKEN ATOMIC CHARGES
-----------------------
   0 O :   -0.644173
   1 O :   -0.645007
   2 C :    1.884883
   3 C :   -1.148136
   4 C :   -0.581858
   5 C :   -0.449603
   6 C :   -0.490409
   7 C :   -0.441674
   8 C :   -0.645827
   9 H :    0.355203
  10 H :    0.208287
  11 H :    0.210168
  12 H :    0.261303
  13 H :    0.160051
  14 H :    0.345937
  15 H :    0.204735
  16 H :    0.231458
  17 H :    0.236959
  18 H :    0.102824
  19 H :    0.186229
  20 H :    0.224156
  21 H :    0.275373
  22 H :    0.159123
Sum of atomic charges:   -0.0000000

LOEWDIN ATOMIC CHARGES
----------------------
   0 O :    0.958357
   1 O :    0.599102
   2 C :   -0.657078
   3 C :    0.900834
   4 C :    0.498458
   5 C :    0.541744
   6 C :    0.538761
   7 C :    0.542770
   8 C :    0.482360
   9 H :   -0.883189
  10 H :   -0.294091
  11 H :   -0.276866
  12 H :   -0.274726
  13 H :   -0.266298
  14 H :   -0.288918
  15 H :   -0.269368
  16 H :   -0.258651
  17 H :   -0.260388
  18 H :   -0.264199
  19 H :   -0.273876
  20 H :   -0.259982
  21 H :   -0.266670
  22 H :   -0.268085

  Mayer bond orders larger than 0.100000
B(  0-O ,  1-O ) :   0.8896 B(  0-O ,  2-C ) :  -0.3987 B(  0-O ,  9-H ) :   0.8741
B(  1-O ,  4-C ) :   0.1359 B(  1-O ,  8-C ) :   0.2398 B(  2-C ,  3-C ) :   0.2190
B(  2-C ,  4-C ) :   0.6699 B(  2-C ,  8-C ) :   0.5317 B(  2-C , 10-H ) :  -0.1595
B(  2-C , 11-H ) :  -0.1498 B(  2-C , 12-H ) :  -0.1078 B(  3-C ,  4-C ) :   0.1030
B(  3-C , 10-H ) :   1.1001 B(  3-C , 11-H ) :   1.1117 B(  3-C , 12-H ) :   1.0201
B(  4-C ,  5-C ) :   0.8425 B(  4-C , 13-H ) :   1.0073 B(  4-C , 14-H ) :   0.8902
B(  5-C ,  6-C ) :   0.8365 B(  5-C , 15-H ) :   0.9711 B(  5-C , 16-H ) :   1.0031
B(  6-C ,  7-C ) :   0.8563 B(  6-C , 17-H ) :   0.9625 B(  6-C , 18-H ) :   1.0695
B(  7-C ,  8-C ) :   0.8653 B(  7-C , 19-H ) :   0.9992 B(  7-C , 20-H ) :   1.0051
B(  8-C , 21-H ) :   0.9581 B(  8-C , 22-H ) :   1.0460

MP2 TOTAL ENERGY:     -424.858986214 Eh
FINAL SINGLE POINT ENERGY      -424.858986214461

DIPOLE MOMENT
-------------
                                X             Y             Z
Electronic contribution:     -4.17191      -2.34744      -3.56535
Nuclear contribution   :      3.95962       2.84263       3.90500
                        -----------------------------------------
Total Dipole Moment    :     -0.21229       0.49519       0.33965
                        -----------------------------------------
Magnitude (a.u.)       :      0.63690
Magnitude (Debye)      :      1.61886

Rotational constants in cm-1:     0.078870     0.044111     0.039672
Rotational constants in MHz :  2364.464359  1322.425775  1189.324418

                             ****ORCA TERMINATED NORMALLY****
TOTAL RUN TIME: 0 days 2 hours 33 minutes 43 seconds 166 msec
