                         Program Version 5.0.4 -  RELEASE  -
|  1> !ri-mp2 aug-cc-pvqz aug-cc-pvqz/c tightscf
|  2> %pal nprocs 16 end
|  3>
|  4> * xyz 0 1
|  5> C      0.728933   -1.997108        0.000000
|  6> N     -0.543008   -1.810437        0.000000
|  7> C     -0.914571   -0.487179        0.000000
|  8> C      0.000000    0.605212        0.000000
|  9> C     -0.793070    1.736321        0.000000
| 10> N     -2.058612    1.279355        0.000000
| 11> N     -2.176192   -0.065847        0.000000
| 12> N      1.685510   -1.008834        0.000000
| 13> C      1.424753    0.375734        0.000000
| 14> H      1.120457   -3.007750        0.000000
| 15> O      2.329973    1.187587        0.000000
| 16> H     -0.552002    2.784573        0.000000
| 17> H      2.661361   -1.265449        0.000000
| 18> H     -2.899755    1.830394        0.000000
| 19> *
| 20>
| 21>                          ****END OF INPUT****

CARTESIAN COORDINATES (ANGSTROEM)
---------------------------------
  C      0.728933   -1.997108    0.000000
  N     -0.543008   -1.810437    0.000000
  C     -0.914571   -0.487179    0.000000
  C      0.000000    0.605212    0.000000
  C     -0.793070    1.736321    0.000000
  N     -2.058612    1.279355    0.000000
  N     -2.176192   -0.065847    0.000000
  N      1.685510   -1.008834    0.000000
  C      1.424753    0.375734    0.000000
  H      1.120457   -3.007750    0.000000
  O      2.329973    1.187587    0.000000
  H     -0.552002    2.784573    0.000000
  H      2.661361   -1.265449    0.000000
  H     -2.899755    1.830394    0.000000

 Total Charge           Charge          ....    0
 Multiplicity           Mult            ....    1
 Number of Electrons    NEL             ....   70
 Basis Dimension        Dim             ....  984

ORBITAL ENERGIES
----------------

  NO   OCC          E(Eh)            E(eV)
   0   2.0000     -20.536384      -558.8234
   1   2.0000     -15.667419      -426.3322
   2   2.0000     -15.629620      -425.3036
   3   2.0000     -15.594933      -424.3597
   4   2.0000     -15.569491      -423.6674
   5   2.0000     -11.378422      -309.6226
   6   2.0000     -11.351251      -308.8833
   7   2.0000     -11.312793      -307.8367
   8   2.0000     -11.306524      -307.6662
   9   2.0000     -11.243519      -305.9517
  10   2.0000      -1.409079       -38.3430
  11   2.0000      -1.396596       -38.0033
  12   2.0000      -1.318417       -35.8760
  13   2.0000      -1.218815       -33.1656
  14   2.0000      -1.112652       -30.2768
  15   2.0000      -1.093181       -29.7470
  16   2.0000      -0.943407       -25.6714
  17   2.0000      -0.898767       -24.4567
  18   2.0000      -0.819077       -22.2882
  19   2.0000      -0.783545       -21.3213
  20   2.0000      -0.761594       -20.7240
  21   2.0000      -0.722898       -19.6710
  22   2.0000      -0.684307       -18.6209
  23   2.0000      -0.654369       -17.8063
  24   2.0000      -0.632619       -17.2144
  25   2.0000      -0.618419       -16.8280
  26   2.0000      -0.615481       -16.7481
  27   2.0000      -0.605680       -16.4814
  28   2.0000      -0.530663       -14.4401
  29   2.0000      -0.498948       -13.5771
  30   2.0000      -0.450517       -12.2592
  31   2.0000      -0.444021       -12.0824
  32   2.0000      -0.441856       -12.0235
  33   2.0000      -0.374604       -10.1935
  34   2.0000      -0.341762        -9.2998
  35   0.0000       0.019246         0.5237
  36   0.0000       0.021005         0.5716
  37   0.0000       0.037472         1.0197
  38   0.0000       0.043608         1.1866
  39   0.0000       0.048881         1.3301

MULLIKEN ATOMIC CHARGES
-----------------------
   0 C :    0.030697
   1 N :   -0.625941
   2 C :    0.781914
   3 C :   -0.411006
   4 C :   -0.251679
   5 N :   -0.314393
   6 N :   -0.422937
   7 N :   -0.640274
   8 C :    1.379118
   9 H :    0.560568
  10 O :   -0.829540
  11 H :    0.415938
  12 H :    0.063490
  13 H :    0.264043
Sum of atomic charges:   -0.0000000

LOEWDIN ATOMIC CHARGES
----------------------
   0 C :   -0.034805
   1 N :    0.590399
   2 C :   -0.719795
   3 C :   -0.206768
   4 C :    0.241708
   5 N :    0.568740
   6 N :    0.499025
   7 N :    0.813198
   8 C :   -0.849475
   9 H :   -0.333773
  10 O :    0.678791
  11 H :   -0.274343
  12 H :   -0.501074
  13 H :   -0.471827

  Mayer bond orders larger than 0.100000
B(  0-C ,  1-N ) :   1.7275 B(  0-C ,  7-N ) :   0.9718 B(  0-C ,  9-H ) :   0.7387
B(  1-N ,  2-C ) :   0.7519 B(  2-C ,  3-C ) :   1.2343 B(  2-C ,  4-C ) :  -0.1164
B(  2-C ,  6-N ) :   1.3022 B(  2-C ,  8-C ) :  -0.1341 B(  3-C ,  4-C ) :   1.3749
B(  3-C ,  5-N ) :  -0.1561 B(  3-C ,  7-N ) :  -0.1047 B(  3-C ,  8-C ) :   1.1423
B(  3-C , 10-O ) :   0.4758 B(  4-C ,  5-N ) :   1.3720 B(  4-C , 11-H ) :   0.8782
B(  5-N ,  6-N ) :   0.6308 B(  5-N , 13-H ) :   1.0273 B(  7-N ,  8-C ) :   1.0238
B(  7-N , 10-O ) :   0.2665 B(  7-N , 12-H ) :   1.2195 B(  8-C , 10-O ) :   0.7954

MP2 TOTAL ENERGY:     -486.456691352 Eh
FINAL SINGLE POINT ENERGY      -486.456691352039

DIPOLE MOMENT
-------------
                                X             Y             Z
Electronic contribution:     -0.27991      -0.07607      -0.00000
Nuclear contribution   :      0.33673       0.33907       0.00000
                        -----------------------------------------
Total Dipole Moment    :      0.05682       0.26301      -0.00000
                        -----------------------------------------
Magnitude (a.u.)       :      0.26907
Magnitude (Debye)      :      0.68393

Rotational constants in cm-1:     0.080709     0.050493     0.031061
Rotational constants in MHz :  2419.604036  1513.748634   931.183296

                             ****ORCA TERMINATED NORMALLY****
TOTAL RUN TIME: 0 days 0 hours 40 minutes 29 seconds 688 msec
