                         Program Version 5.0.4 -  RELEASE  -
|  1> !ri-mp2 aug-cc-pvqz aug-cc-pvqz/c tightscf
|  2> %pal nprocs 16 end
|  3>
|  4> * xyz 0 1
|  5> C     0.000000     0.000000    1.419313
|  6> C     0.000000     0.000000    0.079174
|  7> H     0.000000     0.919976    1.976204
|  8> H     0.000000    -0.919976    1.976204
|  9> O     0.000000     1.079169   -0.727837
| 10> O     0.000000    -1.079169   -0.727837
| 11> C     0.000000     2.361498   -0.117979
| 12> C     0.000000    -2.361498   -0.117979
| 13> H     0.000000     3.078298   -0.933962
| 14> H     0.000000    -3.078298   -0.933962
| 15> H    -0.891567     2.503674    0.496436
| 16> H     0.891567     2.503674    0.496436
| 17> H     0.891567    -2.503674    0.496436
| 18> H    -0.891567    -2.503674    0.496436
| 19> *
| 20>
| 21>                          ****END OF INPUT****

CARTESIAN COORDINATES (ANGSTROEM)
---------------------------------
  C      0.000000    0.000000    1.419313
  C      0.000000    0.000000    0.079174
  H      0.000000    0.919976    1.976204
  H      0.000000   -0.919976    1.976204
  O      0.000000    1.079169   -0.727837
  O      0.000000   -1.079169   -0.727837
  C      0.000000    2.361498   -0.117979
  C      0.000000   -2.361498   -0.117979
  H      0.000000    3.078298   -0.933962
  H      0.000000   -3.078298   -0.933962
  H     -0.891567    2.503674    0.496436
  H      0.891567    2.503674    0.496436
  H      0.891567   -2.503674    0.496436
  H     -0.891567   -2.503674    0.496436

 Total Charge           Charge          ....    0
 Multiplicity           Mult            ....    1
 Number of Electrons    NEL             ....   48
 Basis Dimension        Dim             ....  848

ORBITAL ENERGIES
----------------

  NO   OCC          E(Eh)            E(eV)
   0   2.0000     -20.586880      -560.1975
   1   2.0000     -20.586862      -560.1970
   2   2.0000     -11.355690      -309.0040
   3   2.0000     -11.282847      -307.0219
   4   2.0000     -11.282846      -307.0218
   5   2.0000     -11.197028      -304.6866
   6   2.0000      -1.455882       -39.6166
   7   2.0000      -1.378086       -37.4996
   8   2.0000      -1.025886       -27.9158
   9   2.0000      -0.977589       -26.6015
  10   2.0000      -0.931200       -25.3393
  11   2.0000      -0.766704       -20.8631
  12   2.0000      -0.722973       -19.6731
  13   2.0000      -0.682128       -18.5616
  14   2.0000      -0.679444       -18.4886
  15   2.0000      -0.636205       -17.3120
  16   2.0000      -0.612449       -16.6656
  17   2.0000      -0.590890       -16.0789
  18   2.0000      -0.551036       -14.9945
  19   2.0000      -0.529285       -14.4026
  20   2.0000      -0.522332       -14.2134
  21   2.0000      -0.503162       -13.6917
  22   2.0000      -0.462331       -12.5807
  23   2.0000      -0.331620        -9.0239
  24   0.0000       0.025945         0.7060
  25   0.0000       0.030771         0.8373
  26   0.0000       0.035823         0.9748
  27   0.0000       0.039723         1.0809
  28   0.0000       0.047562         1.2942

MULLIKEN ATOMIC CHARGES
-----------------------
   0 C :   -1.063792
   1 C :    1.182967
   2 H :    0.321811
   3 H :    0.321811
   4 O :   -0.715397
   5 O :   -0.715397
   6 C :   -0.599204
   7 C :   -0.599204
   8 H :    0.433955
   9 H :    0.433955
  10 H :    0.249624
  11 H :    0.249624
  12 H :    0.249624
  13 H :    0.249624
Sum of atomic charges:    0.0000000

LOEWDIN ATOMIC CHARGES
----------------------
   0 C :    0.738631
   1 C :   -0.850563
   2 H :   -0.405305
   3 H :   -0.405305
   4 O :    0.838986
   5 O :    0.838986
   6 C :    0.564702
   7 C :    0.564702
   8 H :   -0.319015
   9 H :   -0.319015
  10 H :   -0.311701
  11 H :   -0.311701
  12 H :   -0.311701
  13 H :   -0.311701

  Mayer bond orders larger than 0.100000
B(  0-C ,  1-C ) :   1.5690 B(  0-C ,  2-H ) :   0.9596 B(  0-C ,  3-H ) :   0.9596
B(  1-C ,  4-O ) :   0.7444 B(  1-C ,  5-O ) :   0.7444 B(  4-O ,  6-C ) :   0.9111
B(  5-O ,  7-C ) :   0.9111 B(  6-C ,  8-H ) :   0.8137 B(  6-C , 10-H ) :   0.9276
B(  6-C , 11-H ) :   0.9276 B(  7-C ,  9-H ) :   0.8137 B(  7-C , 12-H ) :   0.9276
B(  7-C , 13-H ) :   0.9276

MP2 TOTAL ENERGY:     -307.181623857 Eh
FINAL SINGLE POINT ENERGY      -307.181623856812

DIPOLE MOMENT
-------------
                                X             Y             Z
Electronic contribution:     -0.00000      -0.00000      -3.61275
Nuclear contribution   :      0.00000       0.00000       4.14106
                        -----------------------------------------
Total Dipole Moment    :     -0.00000      -0.00000       0.52831
                        -----------------------------------------
Magnitude (a.u.)       :      0.52831
Magnitude (Debye)      :      1.34286

Rotational constants in cm-1:     0.305376     0.076446     0.062596
Rotational constants in MHz :  9154.948930  2291.796657  1876.574425

                             ****ORCA TERMINATED NORMALLY****
TOTAL RUN TIME: 0 days 0 hours 22 minutes 48 seconds 209 msec
