                         Program Version 5.0.4 -  RELEASE  -
|  1> !ri-mp2 aug-cc-pvqz aug-cc-pvqz/c tightscf
|  2> %pal nprocs 16 end
|  3>
|  4> * xyz 0 1
|  5> S     -1.711330   -0.591498    0.000002
|  6> N     -0.125713   -1.050663    0.000000
|  7> N      3.206102   -0.162108   -0.000004
|  8> C     -0.041278    1.287387    0.000000
|  9> C      0.631726    0.033488   -0.000001
| 10> C     -1.390605    1.091295    0.000002
| 11> C      2.056708   -0.099158   -0.000002
| 12> H      0.453822    2.244922    0.000000
| 13> H     -2.174575    1.830378    0.000003
| 14> *
| 15>
| 16>                          ****END OF INPUT****

CARTESIAN COORDINATES (ANGSTROEM)
---------------------------------
  S     -1.711330   -0.591498    0.000002
  N     -0.125713   -1.050663    0.000000
  N      3.206102   -0.162108   -0.000004
  C     -0.041278    1.287387    0.000000
  C      0.631726    0.033488   -0.000001
  C     -1.390605    1.091295    0.000002
  C      2.056708   -0.099158   -0.000002
  H      0.453822    2.244922    0.000000
  H     -2.174575    1.830378    0.000003

 Total Charge           Charge          ....    0
 Multiplicity           Mult            ....    1
 Number of Electrons    NEL             ....   56
 Basis Dimension        Dim             ....  656

ORBITAL ENERGIES
----------------

  NO   OCC          E(Eh)            E(eV)
   0   2.0000     -92.043441     -2504.6294
   1   2.0000     -15.628181      -425.2644
   2   2.0000     -15.589671      -424.2165
   3   2.0000     -11.341917      -308.6292
   4   2.0000     -11.311958      -307.8140
   5   2.0000     -11.289169      -307.1939
   6   2.0000     -11.280767      -306.9653
   7   2.0000      -9.041789      -246.0396
   8   2.0000      -6.722911      -182.9397
   9   2.0000      -6.722015      -182.9153
  10   2.0000      -6.721621      -182.9046
  11   2.0000      -1.318285       -35.8724
  12   2.0000      -1.234914       -33.6037
  13   2.0000      -1.099875       -29.9291
  14   2.0000      -1.058435       -28.8015
  15   2.0000      -0.871184       -23.7061
  16   2.0000      -0.834314       -22.7028
  17   2.0000      -0.752288       -20.4708
  18   2.0000      -0.650999       -17.7146
  19   2.0000      -0.624437       -16.9918
  20   2.0000      -0.610299       -16.6071
  21   2.0000      -0.576570       -15.6893
  22   2.0000      -0.525381       -14.2963
  23   2.0000      -0.504559       -13.7298
  24   2.0000      -0.494760       -13.4631
  25   2.0000      -0.485358       -13.2073
  26   2.0000      -0.404276       -11.0009
  27   2.0000      -0.381466       -10.3802
  28   0.0000       0.015923         0.4333
  29   0.0000       0.030098         0.8190
  30   0.0000       0.045241         1.2311
  31   0.0000       0.045754         1.2450
  32   0.0000       0.059070         1.6074

MULLIKEN ATOMIC CHARGES
-----------------------
   0 S :    0.522202
   1 N :   -0.609285
   2 N :   -0.689494
   3 C :   -0.243191
   4 C :    0.094164
   5 C :   -0.657869
   6 C :    0.738666
   7 H :    0.457418
   8 H :    0.387388
Sum of atomic charges:    0.0000000

LOEWDIN ATOMIC CHARGES
----------------------
   0 S :    1.137977
   1 N :    0.094953
   2 N :    0.407907
   3 C :    0.166600
   4 C :   -0.690609
   5 C :   -0.063443
   6 C :   -0.338004
   7 H :   -0.324084
   8 H :   -0.391297

  Mayer bond orders larger than 0.100000
B(  0-S ,  1-N ) :   1.0656 B(  0-S ,  5-C ) :   1.2251 B(  1-N ,  4-C ) :   1.2064
B(  2-N ,  6-C ) :   2.4710 B(  3-C ,  4-C ) :   1.0443 B(  3-C ,  5-C ) :   1.4202
B(  3-C ,  6-C ) :  -0.2041 B(  3-C ,  7-H ) :   0.7834 B(  4-C ,  5-C ) :  -0.2188
B(  4-C ,  6-C ) :   1.2607 B(  5-C ,  8-H ) :   0.9250

MP2 TOTAL ENERGY:     -660.419231287 Eh
FINAL SINGLE POINT ENERGY      -660.419231287213

DIPOLE MOMENT
-------------
                                X             Y             Z
Electronic contribution:     -0.24372      -2.72555      -0.00000
Nuclear contribution   :     -1.57553       3.90233       0.00000
                        -----------------------------------------
Total Dipole Moment    :     -1.81926       1.17678       0.00000
                        -----------------------------------------
Magnitude (a.u.)       :      2.16668
Magnitude (Debye)      :      5.50726

Rotational constants in cm-1:     0.241998     0.052365     0.043050
Rotational constants in MHz :  7254.916615  1569.857277  1290.592119

                             ****ORCA TERMINATED NORMALLY****
TOTAL RUN TIME: 0 days 0 hours 12 minutes 23 seconds 259 msec
