                         Program Version 5.0.4 -  RELEASE  -
|  1> !ri-mp2 aug-cc-pvqz aug-cc-pvqz/c tightscf
|  2> %pal nprocs 16 end
|  3>
|  4> * xyz 0 1
|  5> N      0.000000    1.355099   -0.047558
|  6> N      0.000000    0.655407   -1.178699
|  7> N      0.000000   -0.655407   -1.178699
|  8> N      0.000000   -1.355099   -0.047558
|  9> C      0.000000   -0.693285    1.096489
| 10> C      0.000000    0.693285    1.096489
| 11> H      0.000000   -1.283068    2.004868
| 12> H      0.000000    1.283068    2.004868
| 13> *
| 14>
| 15>                          ****END OF INPUT****

CARTESIAN COORDINATES (ANGSTROEM)
---------------------------------
  N      0.000000    1.355099   -0.047558
  N      0.000000    0.655407   -1.178699
  N      0.000000   -0.655407   -1.178699
  N      0.000000   -1.355099   -0.047558
  C      0.000000   -0.693285    1.096489
  C      0.000000    0.693285    1.096489
  H      0.000000   -1.283068    2.004868
  H      0.000000    1.283068    2.004868

 Total Charge           Charge          ....    0
 Multiplicity           Mult            ....    1
 Number of Electrons    NEL             ....   42
 Basis Dimension        Dim             ....  572

ORBITAL ENERGIES
----------------

  NO   OCC          E(Eh)            E(eV)
   0   2.0000     -15.679316      -426.6559
   1   2.0000     -15.678360      -426.6299
   2   2.0000     -15.654649      -425.9847
   3   2.0000     -15.654634      -425.9842
   4   2.0000     -11.329305      -308.2861
   5   2.0000     -11.328038      -308.2516
   6   2.0000      -1.462224       -39.7891
   7   2.0000      -1.304366       -35.4936
   8   2.0000      -1.210276       -32.9333
   9   2.0000      -0.985839       -26.8260
  10   2.0000      -0.985230       -26.8095
  11   2.0000      -0.787973       -21.4418
  12   2.0000      -0.754129       -20.5209
  13   2.0000      -0.693025       -18.8582
  14   2.0000      -0.650587       -17.7034
  15   2.0000      -0.602525       -16.3956
  16   2.0000      -0.549691       -14.9579
  17   2.0000      -0.483347       -13.1525
  18   2.0000      -0.463181       -12.6038
  19   2.0000      -0.446185       -12.1413
  20   2.0000      -0.433976       -11.8091
  21   0.0000       0.016326         0.4442
  22   0.0000       0.029831         0.8117
  23   0.0000       0.035985         0.9792
  24   0.0000       0.054281         1.4771
  25   0.0000       0.061530         1.6743

MULLIKEN ATOMIC CHARGES
-----------------------
   0 N :   -0.389667
   1 N :   -0.009470
   2 N :   -0.009470
   3 N :   -0.389667
   4 C :   -0.122315
   5 C :   -0.122315
   6 H :    0.521452
   7 H :    0.521452
Sum of atomic charges:   -0.0000000

LOEWDIN ATOMIC CHARGES
----------------------
   0 N :    0.299043
   1 N :    0.035059
   2 N :    0.035059
   3 N :    0.299043
   4 C :    0.018709
   5 C :    0.018709
   6 H :   -0.352811
   7 H :   -0.352811

  Mayer bond orders larger than 0.100000
B(  0-N ,  1-N ) :   1.0466 B(  0-N ,  4-C ) :   0.1198 B(  0-N ,  5-C ) :   1.2309
B(  1-N ,  2-N ) :   1.2385 B(  2-N ,  3-N ) :   1.0466 B(  3-N ,  4-C ) :   1.2309
B(  3-N ,  5-C ) :   0.1198 B(  4-C ,  5-C ) :   1.2086 B(  4-C ,  6-H ) :   0.7759
B(  5-C ,  7-H ) :   0.7759

MP2 TOTAL ENERGY:     -295.865996607 Eh
FINAL SINGLE POINT ENERGY      -295.865996606605

DIPOLE MOMENT
-------------
                                X             Y             Z
Electronic contribution:      0.00000       0.00000      -1.96471
Nuclear contribution   :      0.00000       0.00000       3.84019
                        -----------------------------------------
Total Dipole Moment    :      0.00000       0.00000       1.87547
                        -----------------------------------------
Magnitude (a.u.)       :      1.87547
Magnitude (Debye)      :      4.76708

Rotational constants in cm-1:     0.222465     0.215184     0.109382
Rotational constants in MHz :  6669.330867  6451.065423  3279.191329

                             ****ORCA TERMINATED NORMALLY****
TOTAL RUN TIME: 0 days 0 hours 6 minutes 23 seconds 225 msec
