                         Program Version 5.0.4 -  RELEASE  -
|  1> !ri-mp2 aug-cc-pvqz aug-cc-pvqz/c tightscf
|  2> %pal nprocs 16 end
|  3>
|  4> * xyz 0 1
|  5> C      2.514552   -0.302534   -0.010159
|  6> C      1.228558    0.521535    0.028293
|  7> C     -0.036512   -0.336644   -0.027812
|  8> C     -1.316665    0.487981    0.016814
|  9> O     -2.500646   -0.301127   -0.092060
| 10> H      2.565348   -0.993371    0.833797
| 11> H      2.575280   -0.895054   -0.925011
| 12> H      3.397647    0.336304    0.030805
| 13> H      1.214362    1.130960    0.936793
| 14> H      1.223025    1.225237   -0.809202
| 15> H     -0.039872   -0.939383   -0.939874
| 16> H     -0.034575   -1.041035    0.812011
| 17> H     -1.343796    1.095071    0.929885
| 18> H     -1.352146    1.175054   -0.829661
| 19> H     -2.539703   -0.906796    0.654122
| 20> *
| 21>
| 22>                          ****END OF INPUT****

CARTESIAN COORDINATES (ANGSTROEM)
---------------------------------
  C      2.514552   -0.302534   -0.010159
  C      1.228558    0.521535    0.028293
  C     -0.036512   -0.336644   -0.027812
  C     -1.316665    0.487981    0.016814
  O     -2.500646   -0.301127   -0.092060
  H      2.565348   -0.993371    0.833797
  H      2.575280   -0.895054   -0.925011
  H      3.397647    0.336304    0.030805
  H      1.214362    1.130960    0.936793
  H      1.223025    1.225237   -0.809202
  H     -0.039872   -0.939383   -0.939874
  H     -0.034575   -1.041035    0.812011
  H     -1.343796    1.095071    0.929885
  H     -1.352146    1.175054   -0.829661
  H     -2.539703   -0.906796    0.654122

 Total Charge           Charge          ....    0
 Multiplicity           Mult            ....    1
 Number of Electrons    NEL             ....   42
 Basis Dimension        Dim             ....  860

ORBITAL ENERGIES
----------------

  NO   OCC          E(Eh)            E(eV)
   0   2.0000     -20.551411      -559.2323
   1   2.0000     -11.270810      -306.6943
   2   2.0000     -11.223392      -305.4040
   3   2.0000     -11.219487      -305.2978
   4   2.0000     -11.214491      -305.1618
   5   2.0000      -1.352807       -36.8118
   6   2.0000      -1.073299       -29.2059
   7   2.0000      -0.975229       -26.5373
   8   2.0000      -0.861139       -23.4328
   9   2.0000      -0.802396       -21.8343
  10   2.0000      -0.689077       -18.7507
  11   2.0000      -0.639795       -17.4097
  12   2.0000      -0.610638       -16.6163
  13   2.0000      -0.597760       -16.2659
  14   2.0000      -0.553451       -15.0602
  15   2.0000      -0.542218       -14.7545
  16   2.0000      -0.516337       -14.0502
  17   2.0000      -0.482452       -13.1282
  18   2.0000      -0.477690       -12.9986
  19   2.0000      -0.467921       -12.7328
  20   2.0000      -0.434521       -11.8239
  21   0.0000       0.025613         0.6970
  22   0.0000       0.030964         0.8426
  23   0.0000       0.033881         0.9219
  24   0.0000       0.036998         1.0068
  25   0.0000       0.048984         1.3329

MULLIKEN ATOMIC CHARGES
-----------------------
   0 C :   -0.856527
   1 C :   -0.386066
   2 C :   -0.501400
   3 C :    0.068488
   4 O :   -0.878871
   5 H :    0.228371
   6 H :    0.224755
   7 H :    0.254212
   8 H :    0.237967
   9 H :    0.237687
  10 H :    0.267975
  11 H :    0.250621
  12 H :    0.200979
  13 H :    0.306168
  14 H :    0.345639
Sum of atomic charges:   -0.0000000

LOEWDIN ATOMIC CHARGES
----------------------
   0 C :    0.925810
   1 C :    0.496829
   2 C :    0.489887
   3 C :    0.187227
   4 O :    1.267902
   5 H :   -0.285598
   6 H :   -0.285001
   7 H :   -0.284107
   8 H :   -0.275021
   9 H :   -0.274404
  10 H :   -0.276882
  11 H :   -0.278719
  12 H :   -0.292963
  13 H :   -0.315690
  14 H :   -0.799270

  Mayer bond orders larger than 0.100000
B(  0-C ,  1-C ) :   0.9505 B(  0-C ,  5-H ) :   0.9590 B(  0-C ,  6-H ) :   0.9542
B(  0-C ,  7-H ) :   1.0113 B(  1-C ,  2-C ) :   0.8576 B(  1-C ,  8-H ) :   0.8848
B(  1-C ,  9-H ) :   0.8830 B(  2-C ,  3-C ) :   1.1185 B(  2-C , 10-H ) :   0.8614
B(  2-C , 11-H ) :   0.8716 B(  3-C ,  4-O ) :   0.6382 B(  3-C , 12-H ) :   0.9365
B(  3-C , 13-H ) :   0.8564 B(  4-O , 14-H ) :   0.8639

MP2 TOTAL ENERGY:     -233.275329782 Eh
FINAL SINGLE POINT ENERGY      -233.275329782469

DIPOLE MOMENT
-------------
                                X             Y             Z
Electronic contribution:     -5.41226      -0.22277      -0.26357
Nuclear contribution   :      5.98715       0.19393       0.73663
                        -----------------------------------------
Total Dipole Moment    :      0.57489      -0.02884       0.47306
                        -----------------------------------------
Magnitude (a.u.)       :      0.74506
Magnitude (Debye)      :      1.89379

Rotational constants in cm-1:     0.625282     0.064971     0.061784
Rotational constants in MHz : 18745.468122  1947.790401  1852.251282

                             ****ORCA TERMINATED NORMALLY****
TOTAL RUN TIME: 0 days 0 hours 22 minutes 44 seconds 100 msec
