                         Program Version 5.0.4 -  RELEASE  -
|  1> !ri-mp2 aug-cc-pvqz aug-cc-pvqz/c tightscf
|  2> %pal nprocs 16 end
|  3> %maxcore 3800
|  4>
|  5> * xyz 0 1
|  6> C      1.958541   -0.478093    0.193954
|  7> C     -1.985911   -0.370129    0.044281
|  8> C      3.315328   -0.651679   -0.427177
|  9> C     -2.706370   -1.406200   -0.772082
| 10> C     -0.282027    2.350782   -0.151313
| 11> C      0.025654    0.906381    0.152375
| 12> O      1.466249   -1.192700    1.024364
| 13> O     -2.348571    0.063105    1.107404
| 14> O      1.336474    0.624435   -0.316945
| 15> O     -0.847020    0.027067   -0.577278
| 16> H      3.206350   -0.834642   -1.496483
| 17> H      3.901786    0.259171   -0.311364
| 18> H      3.823877   -1.488732    0.040209
| 19> H     -2.793777   -1.084287   -1.808678
| 20> H     -2.130275   -2.332268   -0.762710
| 21> H     -3.688403   -1.585106   -0.345883
| 22> H      0.418059    2.997677    0.375816
| 23> H     -1.291702    2.583448    0.181303
| 24> H     -0.200399    2.536528   -1.221464
| 25> H     -0.053858    0.666591    1.208658
| 26> *
| 27>
| 28>                          ****END OF INPUT****

CARTESIAN COORDINATES (ANGSTROEM)
---------------------------------
  C      1.958541   -0.478093    0.193954
  C     -1.985911   -0.370129    0.044281
  C      3.315328   -0.651679   -0.427177
  C     -2.706370   -1.406200   -0.772082
  C     -0.282027    2.350782   -0.151313
  C      0.025654    0.906381    0.152375
  O      1.466249   -1.192700    1.024364
  O     -2.348571    0.063105    1.107404
  O      1.336474    0.624435   -0.316945
  O     -0.847020    0.027067   -0.577278
  H      3.206350   -0.834642   -1.496483
  H      3.901786    0.259171   -0.311364
  H      3.823877   -1.488732    0.040209
  H     -2.793777   -1.084287   -1.808678
  H     -2.130275   -2.332268   -0.762710
  H     -3.688403   -1.585106   -0.345883
  H      0.418059    2.997677    0.375816
  H     -1.291702    2.583448    0.181303
  H     -0.200399    2.536528   -1.221464
  H     -0.053858    0.666591    1.208658

 Total Charge           Charge          ....    0
 Multiplicity           Mult            ....    1
 Number of Electrons    NEL             ....   78
 Basis Dimension        Dim             .... 1260

ORBITAL ENERGIES
----------------

  NO   OCC          E(Eh)            E(eV)
   0   2.0000     -20.608947      -560.7980
   1   2.0000     -20.603524      -560.6504
   2   2.0000     -20.551861      -559.2446
   3   2.0000     -20.545421      -559.0693
   4   2.0000     -11.389449      -309.9227
   5   2.0000     -11.385176      -309.8064
   6   2.0000     -11.357768      -309.0606
   7   2.0000     -11.245841      -306.0149
   8   2.0000     -11.240625      -305.8730
   9   2.0000     -11.228550      -305.5444
  10   2.0000      -1.487024       -40.4640
  11   2.0000      -1.450222       -39.4625
  12   2.0000      -1.379661       -37.5425
  13   2.0000      -1.353556       -36.8321
  14   2.0000      -1.070521       -29.1304
  15   2.0000      -1.022417       -27.8214
  16   2.0000      -1.003252       -27.2999
  17   2.0000      -0.888198       -24.1691
  18   2.0000      -0.811037       -22.0694
  19   2.0000      -0.790354       -21.5066
  20   2.0000      -0.709552       -19.3079
  21   2.0000      -0.698901       -19.0181
  22   2.0000      -0.695492       -18.9253
  23   2.0000      -0.661530       -18.0011
  24   2.0000      -0.652752       -17.7623
  25   2.0000      -0.638955       -17.3868
  26   2.0000      -0.599262       -16.3067
  27   2.0000      -0.587443       -15.9851
  28   2.0000      -0.581388       -15.8204
  29   2.0000      -0.573674       -15.6105
  30   2.0000      -0.568865       -15.4796
  31   2.0000      -0.550727       -14.9860
  32   2.0000      -0.549895       -14.9634
  33   2.0000      -0.529354       -14.4044
  34   2.0000      -0.508341       -13.8327
  35   2.0000      -0.487182       -13.2569
  36   2.0000      -0.471126       -12.8200
  37   2.0000      -0.454877       -12.3778
  38   2.0000      -0.450313       -12.2536
  39   0.0000       0.022279         0.6062
  40   0.0000       0.028094         0.7645
  41   0.0000       0.029930         0.8144
  42   0.0000       0.036992         1.0066
  43   0.0000       0.044809         1.2193

MULLIKEN ATOMIC CHARGES
-----------------------
   0 C :    0.854469
   1 C :    0.935383
   2 C :   -0.735068
   3 C :   -0.783853
   4 C :   -0.991412
   5 C :    0.966208
   6 O :   -0.768056
   7 O :   -0.788086
   8 O :   -0.879930
   9 O :   -0.787835
  10 H :    0.287076
  11 H :    0.295049
  12 H :    0.317531
  13 H :    0.273445
  14 H :    0.302495
  15 H :    0.315464
  16 H :    0.298144
  17 H :    0.289479
  18 H :    0.290507
  19 H :    0.308992
Sum of atomic charges:   -0.0000000

LOEWDIN ATOMIC CHARGES
----------------------
   0 C :   -1.036018
   1 C :   -1.053755
   2 C :    0.876940
   3 C :    0.878172
   4 C :    0.910393
   5 C :   -0.637938
   6 O :    0.727777
   7 O :    0.728727
   8 O :    0.856477
   9 O :    0.859767
  10 H :   -0.297921
  11 H :   -0.301414
  12 H :   -0.320819
  13 H :   -0.303666
  14 H :   -0.295812
  15 H :   -0.320159
  16 H :   -0.282687
  17 H :   -0.294144
  18 H :   -0.287783
  19 H :   -0.406136

  Mayer bond orders larger than 0.100000
B(  0-C ,  2-C ) :   0.8602 B(  0-C ,  6-O ) :   1.4156 B(  0-C ,  8-O ) :   0.9765
B(  1-C ,  3-C ) :   0.8772 B(  1-C ,  7-O ) :   1.3668 B(  1-C ,  9-O ) :   1.0026
B(  2-C , 10-H ) :   0.9172 B(  2-C , 11-H ) :   0.9240 B(  2-C , 12-H ) :   0.9691
B(  3-C , 13-H ) :   0.9502 B(  3-C , 14-H ) :   0.8995 B(  3-C , 15-H ) :   0.9639
B(  4-C ,  5-C ) :   0.6450 B(  4-C ,  8-O ) :   0.1009 B(  4-C , 16-H ) :   0.9607
B(  4-C , 17-H ) :   1.0097 B(  4-C , 18-H ) :   0.9052 B(  5-C ,  8-O ) :   0.4838
B(  5-C ,  9-O ) :   0.3525 B(  5-C , 17-H ) :  -0.1070 B(  5-C , 19-H ) :   0.9103

MP2 TOTAL ENERGY:     -534.841057689 Eh
FINAL SINGLE POINT ENERGY      -534.841057688616

DIPOLE MOMENT
-------------
                                X             Y             Z
Electronic contribution:     -0.58372      -1.42547       2.94187
Nuclear contribution   :      1.18828       1.71491      -4.13089
                        -----------------------------------------
Total Dipole Moment    :      0.60456       0.28944      -1.18902
                        -----------------------------------------
Magnitude (a.u.)       :      1.36494
Magnitude (Debye)      :      3.46939

Rotational constants in cm-1:     0.071268     0.027701     0.023438
Rotational constants in MHz :  2136.556987   830.447820   702.644260

                             ****ORCA TERMINATED NORMALLY****
TOTAL RUN TIME: 0 days 1 hours 19 minutes 10 seconds 598 msec
