                         Program Version 5.0.4 -  RELEASE  -
|  1> !ri-mp2 aug-cc-pvqz aug-cc-pvqz/c tightscf
|  2> %pal nprocs 16 end
|  3>
|  4> * xyz 0 1
|  5> C    -0.985328     0.000000    0.000000
|  6> C     0.985328     0.000000    0.000000
|  7> O     0.000000     1.035861    0.000000
|  8> O     0.000000    -1.035861    0.000000
|  9> H    -1.603663     0.000000    0.903194
| 10> H     1.603663     0.000000    0.903194
| 11> H    -1.603663     0.000000   -0.903194
| 12> H     1.603663     0.000000   -0.903194
| 13> *
| 14>
| 15>                          ****END OF INPUT****

CARTESIAN COORDINATES (ANGSTROEM)
---------------------------------
  C     -0.985328    0.000000    0.000000
  C      0.985328    0.000000    0.000000
  O      0.000000    1.035861    0.000000
  O      0.000000   -1.035861    0.000000
  H     -1.603663    0.000000    0.903194
  H      1.603663    0.000000    0.903194
  H     -1.603663    0.000000   -0.903194
  H      1.603663    0.000000   -0.903194

 Total Charge           Charge          ....    0
 Multiplicity           Mult            ....    1
 Number of Electrons    NEL             ....   32
 Basis Dimension        Dim             ....  504

ORBITAL ENERGIES
----------------

  NO   OCC          E(Eh)            E(eV)
   0   2.0000     -20.572793      -559.8142
   1   2.0000     -20.572757      -559.8132
   2   2.0000     -11.347193      -308.7728
   3   2.0000     -11.347189      -308.7727
   4   2.0000      -1.482639       -40.3447
   5   2.0000      -1.299047       -35.3489
   6   2.0000      -0.975710       -26.5504
   7   2.0000      -0.820238       -22.3198
   8   2.0000      -0.733588       -19.9619
   9   2.0000      -0.707139       -19.2422
  10   2.0000      -0.670324       -18.2404
  11   2.0000      -0.596942       -16.2436
  12   2.0000      -0.554279       -15.0827
  13   2.0000      -0.512094       -13.9348
  14   2.0000      -0.500389       -13.6163
  15   2.0000      -0.417924       -11.3723
  16   0.0000       0.027702         0.7538
  17   0.0000       0.034754         0.9457
  18   0.0000       0.036962         1.0058
  19   0.0000       0.051304         1.3961
  20   0.0000       0.060418         1.6441

MULLIKEN ATOMIC CHARGES
-----------------------
   0 C :    0.047918
   1 C :    0.047918
   2 O :   -0.748051
   3 O :   -0.748051
   4 H :    0.350067
   5 H :    0.350067
   6 H :    0.350067
   7 H :    0.350067
Sum of atomic charges:    0.0000000

LOEWDIN ATOMIC CHARGES
----------------------
   0 C :   -0.188542
   1 C :   -0.188542
   2 O :    0.814282
   3 O :    0.814282
   4 H :   -0.312870
   5 H :   -0.312870
   6 H :   -0.312870
   7 H :   -0.312870

  Mayer bond orders larger than 0.100000
B(  0-C ,  1-C ) :   0.1750 B(  0-C ,  2-O ) :   0.8359 B(  0-C ,  3-O ) :   0.8359
B(  0-C ,  4-H ) :   0.8252 B(  0-C ,  6-H ) :   0.8252 B(  1-C ,  2-O ) :   0.8359
B(  1-C ,  3-O ) :   0.8359 B(  1-C ,  5-H ) :   0.8252 B(  1-C ,  7-H ) :   0.8252
B(  2-O ,  3-O ) :   0.1027

MP2 TOTAL ENERGY:     -228.699588304 Eh
FINAL SINGLE POINT ENERGY      -228.699588303811

DIPOLE MOMENT
-------------
                                X             Y             Z
Electronic contribution:      0.00000      -0.00000      -0.00000
Nuclear contribution   :      0.00000       0.00000       0.00000
                        -----------------------------------------
Total Dipole Moment    :      0.00000      -0.00000      -0.00000
                        -----------------------------------------
Magnitude (a.u.)       :      0.00000
Magnitude (Debye)      :      0.00000

Rotational constants in cm-1:     0.455850     0.448065     0.247813
Rotational constants in MHz : 13666.052908 13432.636718  7429.252580

                             ****ORCA TERMINATED NORMALLY****
TOTAL RUN TIME: 0 days 0 hours 4 minutes 21 seconds 144 msec
