                         Program Version 5.0.4 -  RELEASE  -
|  1> !ri-mp2 aug-cc-pvqz aug-cc-pvqz/c tightscf
|  2> %pal nprocs 16 end
|  3>
|  4> * xyz 0 1
|  5> C     -0.355891    0.007246    0.000000
|  6> C     -0.817838    1.438371    0.000000
|  7> Cl     1.445175   -0.130990    0.000000
|  8> F     -0.817838   -0.654552    1.085396
|  9> F     -0.817838   -0.654552   -1.085396
| 10> H     -1.907414    1.446254    0.000000
| 11> H     -0.448549    1.944401    0.887913
| 12> H     -0.448549    1.944401   -0.887913
| 13> *
| 14>
| 15>                          ****END OF INPUT****

CARTESIAN COORDINATES (ANGSTROEM)
---------------------------------
  C     -0.355891    0.007246    0.000000
  C     -0.817838    1.438371    0.000000
  Cl     1.445175   -0.130990    0.000000
  F     -0.817838   -0.654552    1.085396
  F     -0.817838   -0.654552   -1.085396
  H     -1.907414    1.446254    0.000000
  H     -0.448549    1.944401    0.887913
  H     -0.448549    1.944401   -0.887913

 Total Charge           Charge          ....    0
 Multiplicity           Mult            ....    1
 Number of Electrons    NEL             ....   50
 Basis Dimension        Dim             ....  542

ORBITAL ENERGIES
----------------

  NO   OCC          E(Eh)            E(eV)
   0   2.0000    -104.851846     -2853.1638
   1   2.0000     -26.333213      -716.5632
   2   2.0000     -26.333193      -716.5626
   3   2.0000     -11.486740      -312.5701
   4   2.0000     -11.260339      -306.4094
   5   2.0000     -10.577697      -287.8338
   6   2.0000      -8.044649      -218.9060
   7   2.0000      -8.042917      -218.8589
   8   2.0000      -8.042889      -218.8581
   9   2.0000      -1.692055       -46.0432
  10   2.0000      -1.625818       -44.2408
  11   2.0000      -1.153985       -31.4015
  12   2.0000      -1.045727       -28.4557
  13   2.0000      -0.896110       -24.3844
  14   2.0000      -0.792749       -21.5718
  15   2.0000      -0.765259       -20.8237
  16   2.0000      -0.759199       -20.6589
  17   2.0000      -0.693080       -18.8597
  18   2.0000      -0.656031       -17.8515
  19   2.0000      -0.639239       -17.3946
  20   2.0000      -0.591685       -16.1006
  21   2.0000      -0.586207       -15.9515
  22   2.0000      -0.530887       -14.4462
  23   2.0000      -0.477669       -12.9980
  24   2.0000      -0.472352       -12.8534
  25   0.0000       0.025071         0.6822
  26   0.0000       0.040870         1.1121
  27   0.0000       0.040915         1.1134
  28   0.0000       0.055299         1.5048
  29   0.0000       0.070492         1.9182

MULLIKEN ATOMIC CHARGES
-----------------------
   0 C :    1.368765
   1 C :   -0.867551
   2 Cl:   -0.213242
   3 F :   -0.598999
   4 F :   -0.598999
   5 H :    0.282398
   6 H :    0.313815
   7 H :    0.313815
Sum of atomic charges:   -0.0000000

LOEWDIN ATOMIC CHARGES
----------------------
   0 C :   -2.207352
   1 C :    0.721666
   2 Cl:    1.061049
   3 F :    0.696895
   4 F :    0.696895
   5 H :   -0.312375
   6 H :   -0.328389
   7 H :   -0.328389

  Mayer bond orders larger than 0.100000
B(  0-C ,  1-C ) :   0.9342 B(  0-C ,  2-Cl) :   0.9145 B(  0-C ,  3-F ) :   0.4716
B(  0-C ,  4-F ) :   0.4716 B(  1-C ,  5-H ) :   0.8925 B(  1-C ,  6-H ) :   0.9061
B(  1-C ,  7-H ) :   0.9061

MP2 TOTAL ENERGY:     -737.144557547 Eh
FINAL SINGLE POINT ENERGY      -737.144557546958

DIPOLE MOMENT
-------------
                                X             Y             Z
Electronic contribution:      2.77570      -5.44473       0.00000
Nuclear contribution   :     -3.04308       6.36831       0.00000
                        -----------------------------------------
Total Dipole Moment    :     -0.26738       0.92357       0.00000
                        -----------------------------------------
Magnitude (a.u.)       :      0.96150
Magnitude (Debye)      :      2.44394

Rotational constants in cm-1:     0.173816     0.105550     0.102795
Rotational constants in MHz :  5210.872909  3164.320410  3081.701662

                             ****ORCA TERMINATED NORMALLY****
TOTAL RUN TIME: 0 days 0 hours 5 minutes 30 seconds 89 msec
