                         Program Version 5.0.4 -  RELEASE  -
|  1> !ri-mp2 aug-cc-pvqz aug-cc-pvqz/c tightscf
|  2> %pal nprocs 16 end
|  3>
|  4> * xyz 0 1
|  5> S     -1.224006    0.049081   -0.107328
|  6> O      1.242809   -0.702537   -0.222880
|  7> N     -0.052232   -1.238625    0.159007
|  8> C      0.065658    1.249525    0.142810
|  9> C      1.244683    0.655383    0.012729
| 10> H     -0.124065    2.299324    0.277492
| 11> H      2.227513    1.098553    0.002818
| 12> H      0.041759   -1.321948    1.173704
| 13> *
| 14>
| 15>                          ****END OF INPUT****

CARTESIAN COORDINATES (ANGSTROEM)
---------------------------------
  S     -1.224006    0.049081   -0.107328
  O      1.242809   -0.702537   -0.222880
  N     -0.052232   -1.238625    0.159007
  C      0.065658    1.249525    0.142810
  C      1.244683    0.655383    0.012729
  H     -0.124065    2.299324    0.277492
  H      2.227513    1.098553    0.002818
  H      0.041759   -1.321948    1.173704

 Total Charge           Charge          ....    0
 Multiplicity           Mult            ....    1
 Number of Electrons    NEL             ....   46
 Basis Dimension        Dim             ....  542

ORBITAL ENERGIES
----------------

  NO   OCC          E(Eh)            E(eV)
   0   2.0000     -91.997669     -2503.3838
   1   2.0000     -20.627213      -561.2950
   2   2.0000     -15.654916      -425.9919
   3   2.0000     -11.312133      -307.8188
   4   2.0000     -11.268563      -306.6332
   5   2.0000      -8.996394      -244.8043
   6   2.0000      -6.677722      -181.7101
   7   2.0000      -6.676750      -181.6836
   8   2.0000      -6.675489      -181.6493
   9   2.0000      -1.453732       -39.5581
  10   2.0000      -1.149112       -31.2689
  11   2.0000      -1.084171       -29.5018
  12   2.0000      -0.886665       -24.1274
  13   2.0000      -0.808045       -21.9880
  14   2.0000      -0.723607       -19.6904
  15   2.0000      -0.695837       -18.9347
  16   2.0000      -0.619928       -16.8691
  17   2.0000      -0.582747       -15.8574
  18   2.0000      -0.542807       -14.7705
  19   2.0000      -0.497513       -13.5380
  20   2.0000      -0.473292       -12.8789
  21   2.0000      -0.431257       -11.7351
  22   2.0000      -0.321438        -8.7468
  23   0.0000       0.023591         0.6419
  24   0.0000       0.032982         0.8975
  25   0.0000       0.036874         1.0034
  26   0.0000       0.056124         1.5272
  27   0.0000       0.072093         1.9618

MULLIKEN ATOMIC CHARGES
-----------------------
   0 S :    0.313248
   1 O :   -0.581452
   2 N :   -0.255630
   3 C :   -0.780333
   4 C :    0.032849
   5 H :    0.450309
   6 H :    0.576184
   7 H :    0.244824
Sum of atomic charges:   -0.0000000

LOEWDIN ATOMIC CHARGES
----------------------
   0 S :    1.069004
   1 O :    0.582497
   2 N :    0.177121
   3 C :   -0.108099
   4 C :   -0.198950
   5 H :   -0.427587
   6 H :   -0.363950
   7 H :   -0.730037

  Mayer bond orders larger than 0.100000
B(  0-S ,  2-N ) :   0.8963 B(  0-S ,  3-C ) :   0.9914 B(  1-O ,  2-N ) :   0.7585
B(  1-O ,  3-C ) :   0.1164 B(  1-O ,  4-C ) :   0.8111 B(  2-N ,  7-H ) :   0.9041
B(  3-C ,  4-C ) :   1.7056 B(  3-C ,  5-H ) :   0.7922 B(  4-C ,  6-H ) :   0.6888

MP2 TOTAL ENERGY:     -605.320398934 Eh
FINAL SINGLE POINT ENERGY      -605.320398933863

DIPOLE MOMENT
-------------
                                X             Y             Z
Electronic contribution:     -1.90532      -1.15035      -0.80625
Nuclear contribution   :      2.13502       1.99330       1.41033
                        -----------------------------------------
Total Dipole Moment    :      0.22970       0.84295       0.60408
                        -----------------------------------------
Magnitude (a.u.)       :      1.06218
Magnitude (Debye)      :      2.69986

Rotational constants in cm-1:     0.260499     0.169030     0.106657
Rotational constants in MHz :  7809.562857  5067.383644  3197.493559

                             ****ORCA TERMINATED NORMALLY****
TOTAL RUN TIME: 0 days 0 hours 6 minutes 16 seconds 993 msec
