                         Program Version 5.0.4 -  RELEASE  -
|  1> !ri-mp2 aug-cc-pvqz aug-cc-pvqz/c tightscf
|  2> %pal nprocs 16 end
|  3> %maxcore 3800
|  4>
|  5> * xyz 0 1
|  6> C      2.405659   -0.121060    0.246773
|  7> C      1.838083   -1.367505    0.021924
|  8> C      1.605620    1.013405    0.195074
|  9> C      0.478870   -1.458493   -0.249138
| 10> C      0.238294    0.935373   -0.073405
| 11> C     -0.337705   -0.327932   -0.297810
| 12> C     -0.578927    2.201942   -0.131830
| 13> C     -2.647406   -0.664207    0.717826
| 14> C     -1.815959   -0.498821   -0.563287
| 15> H      3.462852   -0.029350    0.457059
| 16> H      2.446720   -2.261366    0.052064
| 17> H      2.051065    1.985879    0.364968
| 18> H      0.037240   -2.430840   -0.432374
| 19> H     -1.016171    2.353512   -1.121381
| 20> H     -1.404257    2.191747    0.581999
| 21> H      0.039631    3.069984    0.091030
| 22> H     -2.324469   -1.542269    1.278281
| 23> H     -3.705954   -0.783854    0.481579
| 24> H     -2.545656    0.200048    1.374935
| 25> H     -2.198729    0.349580   -1.132566
| 26> H     -1.961452   -1.379284   -1.192367
| 27> *
| 28>
| 29>                          ****END OF INPUT****

CARTESIAN COORDINATES (ANGSTROEM)
---------------------------------
  C      2.405659   -0.121060    0.246773
  C      1.838083   -1.367505    0.021924
  C      1.605620    1.013405    0.195074
  C      0.478870   -1.458493   -0.249138
  C      0.238294    0.935373   -0.073405
  C     -0.337705   -0.327932   -0.297810
  C     -0.578927    2.201942   -0.131830
  C     -2.647406   -0.664207    0.717826
  C     -1.815959   -0.498821   -0.563287
  H      3.462852   -0.029350    0.457059
  H      2.446720   -2.261366    0.052064
  H      2.051065    1.985879    0.364968
  H      0.037240   -2.430840   -0.432374
  H     -1.016171    2.353512   -1.121381
  H     -1.404257    2.191747    0.581999
  H      0.039631    3.069984    0.091030
  H     -2.324469   -1.542269    1.278281
  H     -3.705954   -0.783854    0.481579
  H     -2.545656    0.200048    1.374935
  H     -2.198729    0.349580   -1.132566
  H     -1.961452   -1.379284   -1.192367

 Total Charge           Charge          ....    0
 Multiplicity           Mult            ....    1
 Number of Electrons    NEL             ....   66
 Basis Dimension        Dim             .... 1272

ORBITAL ENERGIES
----------------

  NO   OCC          E(Eh)            E(eV)
   0   2.0000     -11.234707      -305.7119
   1   2.0000     -11.231187      -305.6161
   2   2.0000     -11.225178      -305.4526
   3   2.0000     -11.224578      -305.4363
   4   2.0000     -11.224304      -305.4288
   5   2.0000     -11.223425      -305.4049
   6   2.0000     -11.223042      -305.3945
   7   2.0000     -11.220356      -305.3214
   8   2.0000     -11.214529      -305.1628
   9   2.0000      -1.155108       -31.4321
  10   2.0000      -1.061226       -28.8774
  11   2.0000      -1.037318       -28.2269
  12   2.0000      -0.982914       -26.7464
  13   2.0000      -0.930345       -25.3160
  14   2.0000      -0.860530       -23.4162
  15   2.0000      -0.808716       -22.0063
  16   2.0000      -0.777045       -21.1445
  17   2.0000      -0.678162       -18.4537
  18   2.0000      -0.651032       -17.7155
  19   2.0000      -0.624848       -17.0030
  20   2.0000      -0.591542       -16.0967
  21   2.0000      -0.586213       -15.9517
  22   2.0000      -0.571409       -15.5488
  23   2.0000      -0.566373       -15.4118
  24   2.0000      -0.543501       -14.7894
  25   2.0000      -0.530530       -14.4365
  26   2.0000      -0.517521       -14.0825
  27   2.0000      -0.496760       -13.5175
  28   2.0000      -0.477503       -12.9935
  29   2.0000      -0.472239       -12.8503
  30   2.0000      -0.464652       -12.6438
  31   2.0000      -0.327134        -8.9018
  32   2.0000      -0.317036        -8.6270
  33   0.0000       0.026120         0.7108
  34   0.0000       0.028289         0.7698
  35   0.0000       0.028446         0.7741
  36   0.0000       0.036277         0.9871
  37   0.0000       0.039487         1.0745

MULLIKEN ATOMIC CHARGES
-----------------------
   0 C :   -0.338691
   1 C :   -0.313088
   2 C :   -0.598913
   3 C :   -0.587984
   4 C :    0.406147
   5 C :    0.665257
   6 C :   -0.819344
   7 C :   -0.969761
   8 C :   -0.296498
   9 H :    0.259945
  10 H :    0.253200
  11 H :    0.231718
  12 H :    0.228865
  13 H :    0.185594
  14 H :    0.161349
  15 H :    0.277209
  16 H :    0.244945
  17 H :    0.330238
  18 H :    0.246797
  19 H :    0.207758
  20 H :    0.225257
Sum of atomic charges:   -0.0000000

LOEWDIN ATOMIC CHARGES
----------------------
   0 C :    0.345075
   1 C :    0.347515
   2 C :    0.345255
   3 C :    0.344551
   4 C :   -0.049093
   5 C :   -0.062997
   6 C :    0.909114
   7 C :    0.940764
   8 C :    0.490153
   9 H :   -0.324391
  10 H :   -0.324014
  11 H :   -0.326619
  12 H :   -0.317722
  13 H :   -0.278666
  14 H :   -0.288092
  15 H :   -0.305931
  16 H :   -0.279460
  17 H :   -0.276402
  18 H :   -0.290718
  19 H :   -0.306337
  20 H :   -0.291986

  Mayer bond orders larger than 0.100000
B(  0-C ,  1-C ) :   1.1688 B(  0-C ,  2-C ) :   1.2523 B(  0-C ,  4-C ) :  -0.3118
B(  0-C ,  9-H ) :   1.1354 B(  1-C ,  3-C ) :   1.3211 B(  1-C ,  5-C ) :  -0.3441
B(  1-C , 10-H ) :   1.1324 B(  2-C ,  3-C ) :   0.1428 B(  2-C ,  4-C ) :   1.0386
B(  2-C ,  5-C ) :  -0.2637 B(  2-C ,  6-C ) :  -0.1132 B(  2-C ,  9-H ) :  -0.1761
B(  2-C , 11-H ) :   1.0511 B(  3-C ,  5-C ) :   0.8935 B(  3-C ,  8-C ) :  -0.1865
B(  3-C , 10-H ) :  -0.1662 B(  3-C , 12-H ) :   1.0254 B(  4-C ,  5-C ) :   1.1084
B(  4-C ,  6-C ) :   0.5937 B(  4-C ,  8-C ) :  -0.1385 B(  4-C , 13-H ) :  -0.1366
B(  4-C , 15-H ) :  -0.1041 B(  5-C ,  8-C ) :   0.5907 B(  6-C , 13-H ) :   1.0806
B(  6-C , 14-H ) :   1.0543 B(  6-C , 15-H ) :   1.0108 B(  7-C ,  8-C ) :   0.9710
B(  7-C , 16-H ) :   0.9681 B(  7-C , 17-H ) :   0.9297 B(  7-C , 18-H ) :   0.9390
B(  8-C , 19-H ) :   0.9902 B(  8-C , 20-H ) :   0.9943

MP2 TOTAL ENERGY:     -349.528162890 Eh
FINAL SINGLE POINT ENERGY      -349.528162889852

DIPOLE MOMENT
-------------
                                X             Y             Z
Electronic contribution:      7.10540      -1.68235      -0.85599
Nuclear contribution   :     -7.34175       1.77768       0.82834
                        -----------------------------------------
Total Dipole Moment    :     -0.23635       0.09533      -0.02765
                        -----------------------------------------
Magnitude (a.u.)       :      0.25635
Magnitude (Debye)      :      0.65158

Rotational constants in cm-1:     0.083925     0.047463     0.032915
Rotational constants in MHz :  2516.004380  1422.919739   986.755948

                             ****ORCA TERMINATED NORMALLY****
TOTAL RUN TIME: 0 days 1 hours 46 minutes 41 seconds 934 msec
