                         Program Version 5.0.4 -  RELEASE  -
|  1> !ri-mp2 aug-cc-pvqz aug-cc-pvqz/c tightscf
|  2> %pal nprocs 16 end
|  3>
|  4> * xyz 0 1
|  5> N     -0.215113    1.497969   -0.037148
|  6> N     -2.925719   -0.543036    0.011247
|  7> N      2.995579   -0.108089    0.011842
|  8> C     -0.435847    0.155615   -0.006082
|  9> C      0.526381   -0.803968   -0.007016
| 10> C     -1.814276   -0.244776   -0.000475
| 11> C      1.891978   -0.450754    0.001475
| 12> H      0.725085    1.844501    0.057268
| 13> H     -0.969933    2.136882    0.130733
| 14> H      0.252209   -1.846001   -0.016996
| 15> *
| 16>
| 17>                          ****END OF INPUT****

CARTESIAN COORDINATES (ANGSTROEM)
---------------------------------
  N     -0.215113    1.497969   -0.037148
  N     -2.925719   -0.543036    0.011247
  N      2.995579   -0.108089    0.011842
  C     -0.435847    0.155615   -0.006082
  C      0.526381   -0.803968   -0.007016
  C     -1.814276   -0.244776   -0.000475
  C      1.891978   -0.450754    0.001475
  H      0.725085    1.844501    0.057268
  H     -0.969933    2.136882    0.130733
  H      0.252209   -1.846001   -0.016996

 Total Charge           Charge          ....    0
 Multiplicity           Mult            ....    1
 Number of Electrons    NEL             ....   48
 Basis Dimension        Dim             ....  698

ORBITAL ENERGIES
----------------

  NO   OCC          E(Eh)            E(eV)
   0   2.0000     -15.628713      -425.2789
   1   2.0000     -15.615643      -424.9232
   2   2.0000     -15.585168      -424.0940
   3   2.0000     -11.382012      -309.7203
   4   2.0000     -11.312226      -307.8213
   5   2.0000     -11.291475      -307.2566
   6   2.0000     -11.290393      -307.2272
   7   2.0000      -1.305956       -35.5369
   8   2.0000      -1.254312       -34.1316
   9   2.0000      -1.234441       -33.5909
  10   2.0000      -1.100496       -29.9460
  11   2.0000      -0.956051       -26.0155
  12   2.0000      -0.802832       -21.8462
  13   2.0000      -0.773734       -21.0544
  14   2.0000      -0.697532       -18.9808
  15   2.0000      -0.662189       -18.0191
  16   2.0000      -0.608447       -16.5567
  17   2.0000      -0.598143       -16.2763
  18   2.0000      -0.572684       -15.5835
  19   2.0000      -0.518178       -14.1003
  20   2.0000      -0.514422       -13.9981
  21   2.0000      -0.497442       -13.5361
  22   2.0000      -0.483471       -13.1559
  23   2.0000      -0.364609        -9.9215
  24   0.0000       0.016189         0.4405
  25   0.0000       0.028464         0.7745
  26   0.0000       0.040986         1.1153
  27   0.0000       0.042565         1.1582
  28   0.0000       0.059251         1.6123

MULLIKEN ATOMIC CHARGES
-----------------------
   0 N :   -0.626629
   1 N :   -0.680686
   2 N :   -0.648214
   3 C :    0.169550
   4 C :   -0.417010
   5 C :    0.727319
   6 C :    0.483127
   7 H :    0.291722
   8 H :    0.288981
   9 H :    0.411841
Sum of atomic charges:    0.0000000

LOEWDIN ATOMIC CHARGES
----------------------
   0 N :    1.257873
   1 N :    0.440752
   2 N :    0.415630
   3 C :   -0.349861
   4 C :    0.230945
   5 C :   -0.303567
   6 C :   -0.344963
   7 H :   -0.496647
   8 H :   -0.476394
   9 H :   -0.373769

  Mayer bond orders larger than 0.100000
B(  0-N ,  3-C ) :   0.9585 B(  0-N ,  7-H ) :   0.9078 B(  0-N ,  8-H ) :   0.9461
B(  1-N ,  5-C ) :   2.4971 B(  2-N ,  6-C ) :   2.5222 B(  3-C ,  4-C ) :   1.1944
B(  3-C ,  5-C ) :   1.3380 B(  3-C ,  6-C ) :  -0.2633 B(  4-C ,  5-C ) :  -0.2740
B(  4-C ,  6-C ) :   1.3674 B(  4-C ,  9-H ) :   0.8282

MP2 TOTAL ENERGY:     -317.942198666 Eh
FINAL SINGLE POINT ENERGY      -317.942198665675

DIPOLE MOMENT
-------------
                                X             Y             Z
Electronic contribution:     -0.47827      -1.33472      -0.03279
Nuclear contribution   :      0.00630       2.07272       0.16552
                        -----------------------------------------
Total Dipole Moment    :     -0.47197       0.73800       0.13273
                        -----------------------------------------
Magnitude (a.u.)       :      0.88601
Magnitude (Debye)      :      2.25206

Rotational constants in cm-1:     0.288673     0.050177     0.042756
Rotational constants in MHz :  8654.189724  1504.258362  1281.779086

                             ****ORCA TERMINATED NORMALLY****
TOTAL RUN TIME: 0 days 0 hours 12 minutes 15 seconds 506 msec
