                         Program Version 5.0.4 -  RELEASE  -
|  1> !ri-mp2 aug-cc-pvqz aug-cc-pvqz/c tightscf
|  2> %pal nprocs 16 end
|  3>
|  4> * xyz 0 1
|  5> C      1.064770    0.234648        0.000000
|  6> N      0.637569   -1.003032        0.000000
|  7> N     -0.722757   -0.922964        0.000000
|  8> N     -1.117376    0.298568        0.000000
|  9> N      0.000000    1.052457        0.000000
| 10> H      2.089591    0.560077        0.000000
| 11> H     -0.060257    2.056832        0.000000
| 12> *
| 13>
| 14>                          ****END OF INPUT****

CARTESIAN COORDINATES (ANGSTROEM)
---------------------------------
  C      1.064770    0.234648    0.000000
  N      0.637569   -1.003032    0.000000
  N     -0.722757   -0.922964    0.000000
  N     -1.117376    0.298568    0.000000
  N      0.000000    1.052457    0.000000
  H      2.089591    0.560077    0.000000
  H     -0.060257    2.056832    0.000000

 Total Charge           Charge          ....    0
 Multiplicity           Mult            ....    1
 Number of Electrons    NEL             ....   36
 Basis Dimension        Dim             ....  492

ORBITAL ENERGIES
----------------

  NO   OCC          E(Eh)            E(eV)
   0   2.0000     -15.680856      -426.6978
   1   2.0000     -15.663919      -426.2369
   2   2.0000     -15.647856      -425.7998
   3   2.0000     -15.603333      -424.5883
   4   2.0000     -11.337664      -308.5135
   5   2.0000      -1.495943       -40.7067
   6   2.0000      -1.256008       -34.1777
   7   2.0000      -1.197936       -32.5975
   8   2.0000      -0.908843       -24.7309
   9   2.0000      -0.890312       -24.2266
  10   2.0000      -0.801517       -21.8104
  11   2.0000      -0.679489       -18.4898
  12   2.0000      -0.678678       -18.4678
  13   2.0000      -0.572071       -15.5668
  14   2.0000      -0.480219       -13.0674
  15   2.0000      -0.475026       -12.9261
  16   2.0000      -0.457500       -12.4492
  17   2.0000      -0.421988       -11.4829
  18   0.0000       0.012582         0.3424
  19   0.0000       0.031189         0.8487
  20   0.0000       0.057613         1.5677
  21   0.0000       0.061720         1.6795
  22   0.0000       0.081876         2.2280

MULLIKEN ATOMIC CHARGES
-----------------------
   0 C :    0.032637
   1 N :   -0.382301
   2 N :   -0.143960
   3 N :   -0.101874
   4 N :   -0.293572
   5 H :    0.586487
   6 H :    0.302583
Sum of atomic charges:    0.0000000

LOEWDIN ATOMIC CHARGES
----------------------
   0 C :   -0.158293
   1 N :    0.274216
   2 N :    0.017297
   3 N :    0.166048
   4 N :    0.508740
   5 H :   -0.327817
   6 H :   -0.480192

  Mayer bond orders larger than 0.100000
B(  0-C ,  1-N ) :   1.6008 B(  0-C ,  4-N ) :   1.2468 B(  0-C ,  5-H ) :   0.6682
B(  1-N ,  2-N ) :   1.0327 B(  2-N ,  3-N ) :   1.5274 B(  3-N ,  4-N ) :   0.9801
B(  4-N ,  6-H ) :   0.9302

MP2 TOTAL ENERGY:     -257.896634410 Eh
FINAL SINGLE POINT ENERGY      -257.896634409772

DIPOLE MOMENT
-------------
                                X             Y             Z
Electronic contribution:     -0.91791      -0.60259      -0.00000
Nuclear contribution   :      1.95171       2.52234       0.00000
                        -----------------------------------------
Total Dipole Moment    :      1.03380       1.91975      -0.00000
                        -----------------------------------------
Magnitude (a.u.)       :      2.18041
Magnitude (Debye)      :      5.54217

Rotational constants in cm-1:     0.352715     0.346845     0.174877
Rotational constants in MHz : 10574.117452 10398.138191  5242.694748

                             ****ORCA TERMINATED NORMALLY****
TOTAL RUN TIME: 0 days 0 hours 3 minutes 51 seconds 195 msec
