                         Program Version 5.0.4 -  RELEASE  -
|  1> !ri-mp2 aug-cc-pvqz aug-cc-pvqz/c tightscf
|  2> %pal nprocs 16 end
|  3>
|  4> * xyz 0 1
|  5> O     0.569873    2.594176    0.155646
|  6> O    -2.539726   -0.757181    0.081104
|  7> O     2.008157   -1.846819    0.105094
|  8> N     0.242253    1.348825   -0.423189
|  9> N    -1.244557   -0.381906   -0.375129
| 10> N    -0.961120    0.888970    0.212235
| 11> C     1.064960   -0.864269    0.012715
| 12> C     1.310785    0.421165   -0.255557
| 13> C    -0.329937   -1.403053    0.142311
| 14> H     0.854272    2.424313    1.072480
| 15> H    -3.127779   -0.379891   -0.584305
| 16> H     2.891387   -1.470128    0.025779
| 17> H    -0.747833    0.743910    1.215313
| 18> H     2.292040    0.814411   -0.479160
| 19> H    -0.568583   -1.662971    1.182597
| 20> H    -0.430815   -2.305323   -0.461686
| 21> *
| 22>
| 23>                          ****END OF INPUT****

CARTESIAN COORDINATES (ANGSTROEM)
---------------------------------
  O      0.569873    2.594176    0.155646
  O     -2.539726   -0.757181    0.081104
  O      2.008157   -1.846819    0.105094
  N      0.242253    1.348825   -0.423189
  N     -1.244557   -0.381906   -0.375129
  N     -0.961120    0.888970    0.212235
  C      1.064960   -0.864269    0.012715
  C      1.310785    0.421165   -0.255557
  C     -0.329937   -1.403053    0.142311
  H      0.854272    2.424313    1.072480
  H     -3.127779   -0.379891   -0.584305
  H      2.891387   -1.470128    0.025779
  H     -0.747833    0.743910    1.215313
  H      2.292040    0.814411   -0.479160
  H     -0.568583   -1.662971    1.182597
  H     -0.430815   -2.305323   -0.461686

 Total Charge           Charge          ....    0
 Multiplicity           Mult            ....    1
 Number of Electrons    NEL             ....   70
 Basis Dimension        Dim             .... 1042

ORBITAL ENERGIES
----------------

  NO   OCC          E(Eh)            E(eV)
   0   2.0000     -20.607608      -560.7615
   1   2.0000     -20.606936      -560.7432
   2   2.0000     -20.601756      -560.6023
   3   2.0000     -15.659265      -426.1103
   4   2.0000     -15.657143      -426.0525
   5   2.0000     -15.625403      -425.1888
   6   2.0000     -11.319872      -308.0294
   7   2.0000     -11.279124      -306.9206
   8   2.0000     -11.265106      -306.5391
   9   2.0000      -1.459763       -39.7222
  10   2.0000      -1.427251       -38.8375
  11   2.0000      -1.422701       -38.7137
  12   2.0000      -1.282175       -34.8897
  13   2.0000      -1.124825       -30.6081
  14   2.0000      -1.097949       -29.8767
  15   2.0000      -0.940402       -25.5896
  16   2.0000      -0.923834       -25.1388
  17   2.0000      -0.805708       -21.9244
  18   2.0000      -0.758372       -20.6363
  19   2.0000      -0.743483       -20.2312
  20   2.0000      -0.714280       -19.4366
  21   2.0000      -0.690282       -18.7835
  22   2.0000      -0.665935       -18.1210
  23   2.0000      -0.639265       -17.3953
  24   2.0000      -0.629249       -17.1227
  25   2.0000      -0.609038       -16.5728
  26   2.0000      -0.592700       -16.1282
  27   2.0000      -0.569788       -15.5047
  28   2.0000      -0.541974       -14.7479
  29   2.0000      -0.532731       -14.4964
  30   2.0000      -0.496724       -13.5166
  31   2.0000      -0.492000       -13.3880
  32   2.0000      -0.431830       -11.7507
  33   2.0000      -0.402007       -10.9392
  34   2.0000      -0.336079        -9.1452
  35   0.0000       0.018546         0.5047
  36   0.0000       0.030288         0.8242
  37   0.0000       0.031959         0.8696
  38   0.0000       0.038114         1.0371
  39   0.0000       0.047673         1.2973

MULLIKEN ATOMIC CHARGES
-----------------------
   0 O :   -0.648230
   1 O :   -0.740701
   2 O :   -0.834492
   3 N :   -0.097708
   4 N :    0.085384
   5 N :   -0.128066
   6 C :    0.720784
   7 C :   -0.403787
   8 C :   -0.241797
   9 H :    0.341878
  10 H :    0.345339
  11 H :    0.366491
  12 H :    0.179440
  13 H :    0.382217
  14 H :    0.295897
  15 H :    0.377352
Sum of atomic charges:   -0.0000000

LOEWDIN ATOMIC CHARGES
----------------------
   0 O :    1.080403
   1 O :    1.108196
   2 O :    1.278753
   3 N :   -0.031824
   4 N :    0.016330
   5 N :    0.525174
   6 C :   -0.418053
   7 C :    0.135058
   8 C :    0.256022
   9 H :   -0.826457
  10 H :   -0.823952
  11 H :   -0.792860
  12 H :   -0.576482
  13 H :   -0.343055
  14 H :   -0.287426
  15 H :   -0.299827

  Mayer bond orders larger than 0.100000
B(  0-O ,  3-N ) :   0.6357 B(  0-O ,  9-H ) :   0.8498 B(  1-O ,  4-N ) :   0.5932
B(  1-O , 10-H ) :   0.9211 B(  2-O ,  6-C ) :   0.3564 B(  2-O ,  7-C ) :   0.2673
B(  2-O , 11-H ) :   0.8880 B(  3-N ,  5-N ) :   0.7363 B(  3-N ,  7-C ) :   0.8372
B(  4-N ,  5-N ) :   0.7758 B(  4-N ,  8-C ) :   0.9340 B(  5-N , 12-H ) :   0.8542
B(  6-C ,  7-C ) :   1.6749 B(  6-C ,  8-C ) :   0.8732 B(  7-C , 13-H ) :   0.9241
B(  8-C , 14-H ) :   0.8719 B(  8-C , 15-H ) :   0.8602

MP2 TOTAL ENERGY:     -507.578831665 Eh
FINAL SINGLE POINT ENERGY      -507.578831665329

DIPOLE MOMENT
-------------
                                X             Y             Z
Electronic contribution:     -0.25844       1.28781      -1.29792
Nuclear contribution   :      1.13756      -1.80243       1.94863
                        -----------------------------------------
Total Dipole Moment    :      0.87912      -0.51462       0.65071
                        -----------------------------------------
Magnitude (a.u.)       :      1.20877
Magnitude (Debye)      :      3.07244

Rotational constants in cm-1:     0.061675     0.059869     0.031706
Rotational constants in MHz :  1848.983674  1794.818101   950.513653

                             ****ORCA TERMINATED NORMALLY****
TOTAL RUN TIME: 0 days 0 hours 41 minutes 14 seconds 708 msec
