                         Program Version 5.0.4 -  RELEASE  -
|  1> !ri-mp2 aug-cc-pvqz aug-cc-pvqz/c tightscf
|  2> %pal nprocs 16 end
|  3>
|  4> * xyz 0 1
|  5> C      0.008318    0.961105   -0.023694
|  6> C     -1.114125    0.158565    0.611742
|  7> C      1.116320    0.099589   -0.621439
|  8> O     -1.812567   -0.530130   -0.430109
|  9> O      1.810846   -0.677414    0.357585
| 10> H     -0.412195    1.593028   -0.810995
| 11> H      0.431966    1.633237    0.729520
| 12> H     -0.700353   -0.553181    1.331700
| 13> H     -1.795932    0.830612    1.143845
| 14> H      1.818672    0.728131   -1.178324
| 15> H      0.691233   -0.621872   -1.316811
| 16> H     -2.402771   -1.178879   -0.038359
| 17> H      2.320068   -0.086283    0.919958
| 18> *
| 19>
| 20>                          ****END OF INPUT****

CARTESIAN COORDINATES (ANGSTROEM)
---------------------------------
  C      0.008318    0.961105   -0.023694
  C     -1.114125    0.158565    0.611742
  C      1.116320    0.099589   -0.621439
  O     -1.812567   -0.530130   -0.430109
  O      1.810846   -0.677414    0.357585
  H     -0.412195    1.593028   -0.810995
  H      0.431966    1.633237    0.729520
  H     -0.700353   -0.553181    1.331700
  H     -1.795932    0.830612    1.143845
  H      1.818672    0.728131   -1.178324
  H      0.691233   -0.621872   -1.316811
  H     -2.402771   -1.178879   -0.038359
  H      2.320068   -0.086283    0.919958

 Total Charge           Charge          ....    0
 Multiplicity           Mult            ....    1
 Number of Electrons    NEL             ....   42
 Basis Dimension        Dim             ....  768

ORBITAL ENERGIES
----------------

  NO   OCC          E(Eh)            E(eV)
   0   2.0000     -20.553115      -559.2787
   1   2.0000     -20.552078      -559.2505
   2   2.0000     -11.272749      -306.7471
   3   2.0000     -11.268972      -306.6443
   4   2.0000     -11.222375      -305.3764
   5   2.0000      -1.356672       -36.9169
   6   2.0000      -1.350839       -36.7582
   7   2.0000      -1.043929       -28.4067
   8   2.0000      -0.912420       -24.8282
   9   2.0000      -0.807060       -21.9612
  10   2.0000      -0.703264       -19.1368
  11   2.0000      -0.679655       -18.4944
  12   2.0000      -0.650777       -17.7085
  13   2.0000      -0.610590       -16.6150
  14   2.0000      -0.569824       -15.5057
  15   2.0000      -0.567333       -15.4379
  16   2.0000      -0.523731       -14.2514
  17   2.0000      -0.498647       -13.5689
  18   2.0000      -0.475981       -12.9521
  19   2.0000      -0.450173       -12.2498
  20   2.0000      -0.433166       -11.7870
  21   0.0000       0.024359         0.6628
  22   0.0000       0.030936         0.8418
  23   0.0000       0.035924         0.9775
  24   0.0000       0.037411         1.0180
  25   0.0000       0.053953         1.4681

MULLIKEN ATOMIC CHARGES
-----------------------
   0 C :   -0.624069
   1 C :    0.005574
   2 C :    0.000913
   3 O :   -0.779487
   4 O :   -0.849511
   5 H :    0.271217
   6 H :    0.292390
   7 H :    0.233566
   8 H :    0.256054
   9 H :    0.254012
  10 H :    0.292752
  11 H :    0.299407
  12 H :    0.347181
Sum of atomic charges:   -0.0000000

LOEWDIN ATOMIC CHARGES
----------------------
   0 C :    0.476277
   1 C :    0.179293
   2 C :    0.189454
   3 O :    1.264192
   4 O :    1.264931
   5 H :   -0.284706
   6 H :   -0.285717
   7 H :   -0.304835
   8 H :   -0.294302
   9 H :   -0.294211
  10 H :   -0.326857
  11 H :   -0.787742
  12 H :   -0.795778

  Mayer bond orders larger than 0.100000
B(  0-C ,  1-C ) :   0.8977 B(  0-C ,  2-C ) :   0.9419 B(  0-C ,  5-H ) :   0.8780
B(  0-C ,  6-H ) :   0.8778 B(  1-C ,  3-O ) :   0.6929 B(  1-C ,  7-H ) :   0.9191
B(  1-C ,  8-H ) :   0.9511 B(  2-C ,  4-O ) :   0.6290 B(  2-C ,  9-H ) :   0.9475
B(  2-C , 10-H ) :   0.8909 B(  3-O , 11-H ) :   0.9310 B(  4-O , 12-H ) :   0.8638

MP2 TOTAL ENERGY:     -269.183472970 Eh
FINAL SINGLE POINT ENERGY      -269.183472969982

DIPOLE MOMENT
-------------
                                X             Y             Z
Electronic contribution:     -0.03386      -1.83459      -0.23389
Nuclear contribution   :     -0.05114       2.41085       0.80791
                        -----------------------------------------
Total Dipole Moment    :     -0.08500       0.57626       0.57402
                        -----------------------------------------
Magnitude (a.u.)       :      0.81781
Magnitude (Debye)      :      2.07870

Rotational constants in cm-1:     0.311087     0.095476     0.090627
Rotational constants in MHz :  9326.139729  2862.294379  2716.932675

                             ****ORCA TERMINATED NORMALLY****
TOTAL RUN TIME: 0 days 0 hours 16 minutes 14 seconds 944 msec
