                         Program Version 5.0.4 -  RELEASE  -
|  1> !ri-mp2 aug-cc-pvqz aug-cc-pvqz/c tightscf
|  2> %pal nprocs 16 end
|  3> %maxcore 3800
|  4>
|  5> * xyz 0 1
|  6> C      1.600593    1.193755    0.000030
|  7> C      1.362015   -1.179084   -0.000623
|  8> C      0.214960    1.329237    0.000273
|  9> C     -0.018274   -1.043342   -0.000385
| 10> C      2.201025   -0.061784   -0.000327
| 11> C     -0.622831    0.217224    0.000106
| 12> C      3.699139   -0.219727    0.000340
| 13> C     -2.774529   -0.208537    1.265773
| 14> C     -2.774681   -0.207345   -1.265700
| 15> C     -2.132337    0.379225    0.000275
| 16> H      2.220883    2.081689    0.000055
| 17> H      1.797012   -2.171508   -0.001121
| 18> H     -0.219605    2.321673    0.000499
| 19> H     -0.631041   -1.935901   -0.000690
| 20> H      4.039551   -0.780061   -0.872912
| 21> H      4.199664    0.747760   -0.008810
| 22> H      4.040365   -0.763522    0.883764
| 23> H     -2.623372   -1.288055    1.321226
| 24> H     -3.850322   -0.023817    1.272330
| 25> H     -2.347796    0.233736    2.166427
| 26> H     -2.348059    0.235781   -2.165987
| 27> H     -3.850477   -0.022626   -1.271955
| 28> H     -2.623518   -1.286809   -1.322188
| 29> H     -2.333765    1.453939    0.000792
| 30> *
| 31>
| 32>                          ****END OF INPUT****

CARTESIAN COORDINATES (ANGSTROEM)
---------------------------------
  C      1.600593    1.193755    0.000030
  C      1.362015   -1.179084   -0.000623
  C      0.214960    1.329237    0.000273
  C     -0.018274   -1.043342   -0.000385
  C      2.201025   -0.061784   -0.000327
  C     -0.622831    0.217224    0.000106
  C      3.699139   -0.219727    0.000340
  C     -2.774529   -0.208537    1.265773
  C     -2.774681   -0.207345   -1.265700
  C     -2.132337    0.379225    0.000275
  H      2.220883    2.081689    0.000055
  H      1.797012   -2.171508   -0.001121
  H     -0.219605    2.321673    0.000499
  H     -0.631041   -1.935901   -0.000690
  H      4.039551   -0.780061   -0.872912
  H      4.199664    0.747760   -0.008810
  H      4.040365   -0.763522    0.883764
  H     -2.623372   -1.288055    1.321226
  H     -3.850322   -0.023817    1.272330
  H     -2.347796    0.233736    2.166427
  H     -2.348059    0.235781   -2.165987
  H     -3.850477   -0.022626   -1.271955
  H     -2.623518   -1.286809   -1.322188
  H     -2.333765    1.453939    0.000792

 Total Charge           Charge          ....    0
 Multiplicity           Mult            ....    1
 Number of Electrons    NEL             ....   74
 Basis Dimension        Dim             .... 1444

ORBITAL ENERGIES
----------------

  NO   OCC          E(Eh)            E(eV)
   0   2.0000     -11.232857      -305.6616
   1   2.0000     -11.230537      -305.5984
   2   2.0000     -11.228454      -305.5418
   3   2.0000     -11.224673      -305.4389
   4   2.0000     -11.223858      -305.4167
   5   2.0000     -11.223358      -305.4031
   6   2.0000     -11.222633      -305.3834
   7   2.0000     -11.219200      -305.2899
   8   2.0000     -11.210556      -305.0547
   9   2.0000     -11.210536      -305.0542
  10   2.0000      -1.155202       -31.4346
  11   2.0000      -1.085078       -29.5265
  12   2.0000      -1.019285       -27.7362
  13   2.0000      -1.007384       -27.4123
  14   2.0000      -0.928719       -25.2717
  15   2.0000      -0.927576       -25.2406
  16   2.0000      -0.831374       -22.6228
  17   2.0000      -0.815812       -22.1994
  18   2.0000      -0.764330       -20.7985
  19   2.0000      -0.672082       -18.2883
  20   2.0000      -0.644318       -17.5328
  21   2.0000      -0.625000       -17.0071
  22   2.0000      -0.595214       -16.1966
  23   2.0000      -0.588516       -16.0143
  24   2.0000      -0.576009       -15.6740
  25   2.0000      -0.574396       -15.6301
  26   2.0000      -0.563488       -15.3333
  27   2.0000      -0.537082       -14.6148
  28   2.0000      -0.536366       -14.5953
  29   2.0000      -0.516521       -14.0553
  30   2.0000      -0.491828       -13.3833
  31   2.0000      -0.487987       -13.2788
  32   2.0000      -0.466483       -12.6937
  33   2.0000      -0.462902       -12.5962
  34   2.0000      -0.458914       -12.4877
  35   2.0000      -0.331639        -9.0244
  36   2.0000      -0.312613        -8.5066
  37   0.0000       0.024637         0.6704
  38   0.0000       0.027292         0.7427
  39   0.0000       0.029482         0.8022
  40   0.0000       0.035110         0.9554
  41   0.0000       0.038468         1.0468

MULLIKEN ATOMIC CHARGES
-----------------------
   0 C :   -0.183030
   1 C :   -0.144048
   2 C :   -0.697381
   3 C :   -0.614625
   4 C :    0.473915
   5 C :    0.644778
   6 C :   -0.911756
   7 C :   -0.974178
   8 C :   -0.974594
   9 C :    0.273511
  10 H :    0.143949
  11 H :    0.196588
  12 H :    0.065478
  13 H :    0.194761
  14 H :    0.232172
  15 H :    0.226746
  16 H :    0.232762
  17 H :    0.194007
  18 H :    0.292604
  19 H :    0.282204
  20 H :    0.282453
  21 H :    0.292690
  22 H :    0.193884
  23 H :    0.277112
Sum of atomic charges:   -0.0000000

LOEWDIN ATOMIC CHARGES
----------------------
   0 C :    0.358791
   1 C :    0.360075
   2 C :    0.367092
   3 C :    0.352060
   4 C :   -0.072749
   5 C :   -0.075596
   6 C :    0.903932
   7 C :    0.927599
   8 C :    0.927605
   9 C :    0.078870
  10 H :   -0.322163
  11 H :   -0.313610
  12 H :   -0.315406
  13 H :   -0.320030
  14 H :   -0.285363
  15 H :   -0.310711
  16 H :   -0.284920
  17 H :   -0.286686
  18 H :   -0.275578
  19 H :   -0.268198
  20 H :   -0.268200
  21 H :   -0.275577
  22 H :   -0.286677
  23 H :   -0.314560

  Mayer bond orders larger than 0.100000
B(  0-C ,  1-C ) :  -0.1224 B(  0-C ,  2-C ) :   1.2839 B(  0-C ,  3-C ) :   0.2149
B(  0-C ,  4-C ) :   0.9747 B(  0-C ,  5-C ) :  -0.4244 B(  0-C , 10-H ) :   1.1729
B(  0-C , 12-H ) :  -0.1867 B(  1-C ,  2-C ) :   0.2046 B(  1-C ,  3-C ) :   1.3158
B(  1-C ,  4-C ) :   0.7711 B(  1-C ,  5-C ) :  -0.4254 B(  1-C , 11-H ) :   1.1340
B(  1-C , 13-H ) :  -0.1201 B(  2-C ,  4-C ) :  -0.1033 B(  2-C ,  5-C ) :   0.9130
B(  2-C ,  9-C ) :  -0.2681 B(  2-C , 10-H ) :  -0.1598 B(  2-C , 12-H ) :   1.2587
B(  3-C ,  5-C ) :   1.0591 B(  3-C , 11-H ) :  -0.1239 B(  3-C , 13-H ) :   1.0582
B(  4-C ,  5-C ) :  -0.1435 B(  4-C ,  6-C ) :   0.6615 B(  4-C , 10-H ) :  -0.1422
B(  4-C , 11-H ) :  -0.1217 B(  4-C , 14-H ) :  -0.1360 B(  4-C , 16-H ) :  -0.1348
B(  5-C ,  9-C ) :   0.6548 B(  6-C , 14-H ) :   1.0431 B(  6-C , 15-H ) :   1.0462
B(  6-C , 16-H ) :   1.0417 B(  7-C ,  8-C ) :   0.1471 B(  7-C ,  9-C ) :   0.7264
B(  7-C , 17-H ) :   0.9955 B(  7-C , 18-H ) :   0.9911 B(  7-C , 19-H ) :   0.9818
B(  8-C ,  9-C ) :   0.7261 B(  8-C , 20-H ) :   0.9817 B(  8-C , 21-H ) :   0.9912
B(  8-C , 22-H ) :   0.9956 B(  9-C , 23-H ) :   0.9028

MP2 TOTAL ENERGY:     -388.766851102 Eh
FINAL SINGLE POINT ENERGY      -388.766851101698

DIPOLE MOMENT
-------------
                                X             Y             Z
Electronic contribution:      4.69049       1.23799      -0.00112
Nuclear contribution   :     -4.69099      -1.24016       0.00148
                        -----------------------------------------
Total Dipole Moment    :     -0.00050      -0.00217       0.00036
                        -----------------------------------------
Magnitude (a.u.)       :      0.00226
Magnitude (Debye)      :      0.00573

Rotational constants in cm-1:     0.109448     0.024213     0.022853
Rotational constants in MHz :  3281.165643   725.892989   685.100869

                             ****ORCA TERMINATED NORMALLY****
TOTAL RUN TIME: 0 days 2 hours 23 minutes 1 seconds 53 msec
