                         Program Version 5.0.4 -  RELEASE  -
|  1> !ri-mp2 aug-cc-pvqz aug-cc-pvqz/c tightscf
|  2> %pal nprocs 16 end
|  3>
|  4> * xyz 0 1
|  5> N      0.000164    1.282141    0.000519
|  6> N     -0.000164   -1.282141    0.000519
|  7> C      0.000164    0.780285    1.382256
|  8> C     -1.196693    0.781006   -0.691218
|  9> C      1.196818    0.780687   -0.691334
| 10> C     -0.000164   -0.780285    1.382256
| 11> C      1.196693   -0.781006   -0.691218
| 12> C     -1.196818   -0.780687   -0.691334
| 13> H     -0.879522    1.179699    1.890037
| 14> H      0.880122    1.179356    1.889830
| 15> H     -1.194813    1.179661   -1.707165
| 16> H     -2.076388    1.180253   -0.183417
| 17> H      2.076725    1.179835   -0.183814
| 18> H      1.194755    1.179230   -1.707324
| 19> H      0.879522   -1.179699    1.890037
| 20> H     -0.880122   -1.179356    1.889830
| 21> H      1.194813   -1.179661   -1.707165
| 22> H      2.076388   -1.180253   -0.183417
| 23> H     -2.076725   -1.179835   -0.183814
| 24> H     -1.194755   -1.179230   -1.707324
| 25> *
| 26>
| 27>                          ****END OF INPUT****

CARTESIAN COORDINATES (ANGSTROEM)
---------------------------------
  N      0.000164    1.282141    0.000519
  N     -0.000164   -1.282141    0.000519
  C      0.000164    0.780285    1.382256
  C     -1.196693    0.781006   -0.691218
  C      1.196818    0.780687   -0.691334
  C     -0.000164   -0.780285    1.382256
  C      1.196693   -0.781006   -0.691218
  C     -1.196818   -0.780687   -0.691334
  H     -0.879522    1.179699    1.890037
  H      0.880122    1.179356    1.889830
  H     -1.194813    1.179661   -1.707165
  H     -2.076388    1.180253   -0.183417
  H      2.076725    1.179835   -0.183814
  H      1.194755    1.179230   -1.707324
  H      0.879522   -1.179699    1.890037
  H     -0.880122   -1.179356    1.889830
  H      1.194813   -1.179661   -1.707165
  H      2.076388   -1.180253   -0.183417
  H     -2.076725   -1.179835   -0.183814
  H     -1.194755   -1.179230   -1.707324

 Total Charge           Charge          ....    0
 Multiplicity           Mult            ....    1
 Number of Electrons    NEL             ....   62
 Basis Dimension        Dim             .... 1192

ORBITAL ENERGIES
----------------

  NO   OCC          E(Eh)            E(eV)
   0   2.0000     -15.542247      -422.9261
   1   2.0000     -15.542236      -422.9257
   2   2.0000     -11.242691      -305.9292
   3   2.0000     -11.242675      -305.9287
   4   2.0000     -11.242580      -305.9262
   5   2.0000     -11.242147      -305.9144
   6   2.0000     -11.242139      -305.9141
   7   2.0000     -11.242040      -305.9115
   8   2.0000      -1.270670       -34.5767
   9   2.0000      -1.174531       -31.9606
  10   2.0000      -1.016429       -27.6584
  11   2.0000      -1.016163       -27.6512
  12   2.0000      -0.861650       -23.4467
  13   2.0000      -0.861509       -23.4429
  14   2.0000      -0.857756       -23.3407
  15   2.0000      -0.710935       -19.3455
  16   2.0000      -0.673339       -18.3225
  17   2.0000      -0.673234       -18.3196
  18   2.0000      -0.669761       -18.2251
  19   2.0000      -0.568498       -15.4696
  20   2.0000      -0.567065       -15.4306
  21   2.0000      -0.566916       -15.4266
  22   2.0000      -0.539698       -14.6859
  23   2.0000      -0.539439       -14.6789
  24   2.0000      -0.523647       -14.2492
  25   2.0000      -0.523329       -14.2405
  26   2.0000      -0.468481       -12.7480
  27   2.0000      -0.453797       -12.3484
  28   2.0000      -0.453566       -12.3422
  29   2.0000      -0.418030       -11.3752
  30   2.0000      -0.314212        -8.5501
  31   0.0000       0.027343         0.7440
  32   0.0000       0.032463         0.8834
  33   0.0000       0.032464         0.8834
  34   0.0000       0.036581         0.9954
  35   0.0000       0.044617         1.2141

MULLIKEN ATOMIC CHARGES
-----------------------
   0 N :   -0.673144
   1 N :   -0.673152
   2 C :   -0.395551
   3 C :   -0.395854
   4 C :   -0.395832
   5 C :   -0.395547
   6 C :   -0.395809
   7 C :   -0.395820
   8 H :    0.309912
   9 H :    0.310133
  10 H :    0.309748
  11 H :    0.310413
  12 H :    0.310257
  13 H :    0.309896
  14 H :    0.309913
  15 H :    0.310087
  16 H :    0.309750
  17 H :    0.310418
  18 H :    0.310379
  19 H :    0.309805
Sum of atomic charges:   -0.0000000

LOEWDIN ATOMIC CHARGES
----------------------
   0 N :    0.521911
   1 N :    0.521911
   2 C :    0.385108
   3 C :    0.386021
   4 C :    0.386014
   5 C :    0.385108
   6 C :    0.386021
   7 C :    0.386014
   8 H :   -0.279747
   9 H :   -0.279764
  10 H :   -0.280068
  11 H :   -0.279705
  12 H :   -0.279683
  13 H :   -0.280088
  14 H :   -0.279747
  15 H :   -0.279764
  16 H :   -0.280068
  17 H :   -0.279705
  18 H :   -0.279683
  19 H :   -0.280088

  Mayer bond orders larger than 0.100000
B(  0-N ,  2-C ) :   0.9195 B(  0-N ,  3-C ) :   0.9201 B(  0-N ,  4-C ) :   0.9201
B(  1-N ,  5-C ) :   0.9194 B(  1-N ,  6-C ) :   0.9201 B(  1-N ,  7-C ) :   0.9201
B(  2-C ,  5-C ) :   1.0843 B(  2-C ,  8-H ) :   0.8949 B(  2-C ,  9-H ) :   0.8946
B(  3-C ,  7-C ) :   1.0845 B(  3-C , 10-H ) :   0.8951 B(  3-C , 11-H ) :   0.8943
B(  4-C ,  6-C ) :   1.0845 B(  4-C , 12-H ) :   0.8945 B(  4-C , 13-H ) :   0.8949
B(  5-C , 14-H ) :   0.8948 B(  5-C , 15-H ) :   0.8946 B(  6-C , 16-H ) :   0.8951
B(  6-C , 17-H ) :   0.8943 B(  7-C , 18-H ) :   0.8944 B(  7-C , 19-H ) :   0.8950

MP2 TOTAL ENERGY:     -344.729018920 Eh
FINAL SINGLE POINT ENERGY      -344.729018920462

DIPOLE MOMENT
-------------
                                X             Y             Z
Electronic contribution:     -0.00000      -0.00000       0.00302
Nuclear contribution   :      0.00000       0.00000      -0.00384
                        -----------------------------------------
Total Dipole Moment    :     -0.00000      -0.00000      -0.00082
                        -----------------------------------------
Magnitude (a.u.)       :      0.00082
Magnitude (Debye)      :      0.00208

Rotational constants in cm-1:     0.088623     0.083505     0.083475
Rotational constants in MHz :  2656.840963  2503.403314  2502.506605

                             ****ORCA TERMINATED NORMALLY****
TOTAL RUN TIME: 0 days 1 hours 16 minutes 22 seconds 207 msec
