                         Program Version 5.0.4 -  RELEASE  -
|  1> !ri-mp2 aug-cc-pvqz aug-cc-pvqz/c tightscf
|  2> %pal nprocs 16 end
|  3>
|  4> * xyz 0 1
|  5> C     0.578488    0.148776    0.311897
|  6> C    -0.726971   -0.530081   -0.225129
|  7> F     0.477526    0.252431    1.648651
|  8> Cl    1.977285   -0.887503   -0.077159
|  9> Cl    0.788750    1.767240   -0.389497
| 10> Cl   -2.180351    0.394434    0.227356
| 11> F    -0.665283   -0.645666   -1.555470
| 12> F    -0.819545   -1.759329    0.300984
| 13> *
| 14>
| 15>                          ****END OF INPUT****

CARTESIAN COORDINATES (ANGSTROEM)
---------------------------------
  C      0.578488    0.148776    0.311897
  C     -0.726971   -0.530081   -0.225129
  F      0.477526    0.252431    1.648651
  Cl     1.977285   -0.887503   -0.077159
  Cl     0.788750    1.767240   -0.389497
  Cl    -2.180351    0.394434    0.227356
  F     -0.665283   -0.645666   -1.555470
  F     -0.819545   -1.759329    0.300984

 Total Charge           Charge          ....    0
 Multiplicity           Mult            ....    1
 Number of Electrons    NEL             ....   90
 Basis Dimension        Dim             ....  652

ORBITAL ENERGIES
----------------

  NO   OCC          E(Eh)            E(eV)
   0   2.0000    -104.883176     -2854.0163
   1   2.0000    -104.881118     -2853.9603
   2   2.0000    -104.879827     -2853.9252
   3   2.0000     -26.366665      -717.4734
   4   2.0000     -26.364823      -717.4233
   5   2.0000     -26.364219      -717.4069
   6   2.0000     -11.526742      -313.6586
   7   2.0000     -11.500274      -312.9384
   8   2.0000     -10.608706      -288.6776
   9   2.0000     -10.606584      -288.6198
  10   2.0000     -10.605525      -288.5910
  11   2.0000      -8.075705      -219.7511
  12   2.0000      -8.073696      -219.6964
  13   2.0000      -8.073678      -219.6959
  14   2.0000      -8.073577      -219.6932
  15   2.0000      -8.072531      -219.6647
  16   2.0000      -8.071570      -219.6386
  17   2.0000      -8.071545      -219.6379
  18   2.0000      -8.070568      -219.6113
  19   2.0000      -8.070559      -219.6111
  20   2.0000      -1.730611       -47.0923
  21   2.0000      -1.692559       -46.0569
  22   2.0000      -1.661336       -45.2072
  23   2.0000      -1.229572       -33.4583
  24   2.0000      -1.175456       -31.9858
  25   2.0000      -1.133832       -30.8531
  26   2.0000      -1.012614       -27.5546
  27   2.0000      -0.908855       -24.7312
  28   2.0000      -0.837854       -22.7992
  29   2.0000      -0.827495       -22.5173
  30   2.0000      -0.797994       -21.7145
  31   2.0000      -0.765591       -20.8328
  32   2.0000      -0.752022       -20.4636
  33   2.0000      -0.721640       -19.6368
  34   2.0000      -0.709735       -19.3129
  35   2.0000      -0.686187       -18.6721
  36   2.0000      -0.644069       -17.5260
  37   2.0000      -0.590345       -16.0641
  38   2.0000      -0.574676       -15.6377
  39   2.0000      -0.521474       -14.1900
  40   2.0000      -0.511812       -13.9271
  41   2.0000      -0.507850       -13.8193
  42   2.0000      -0.494925       -13.4676
  43   2.0000      -0.489490       -13.3197
  44   2.0000      -0.471956       -12.8426
  45   0.0000       0.042500         1.1565
  46   0.0000       0.050618         1.3774
  47   0.0000       0.055018         1.4971
  48   0.0000       0.061571         1.6754
  49   0.0000       0.073981         2.0131

MULLIKEN ATOMIC CHARGES
-----------------------
   0 C :    0.859897
   1 C :    1.319922
   2 F :   -0.571564
   3 Cl:   -0.167588
   4 Cl:   -0.156697
   5 Cl:   -0.149935
   6 F :   -0.571954
   7 F :   -0.562080
Sum of atomic charges:   -0.0000000

LOEWDIN ATOMIC CHARGES
----------------------
   0 C :   -2.592832
   1 C :   -2.584960
   2 F :    0.631374
   3 Cl:    1.053261
   4 Cl:    1.043927
   5 Cl:    1.083758
   6 F :    0.681742
   7 F :    0.683729

  Mayer bond orders larger than 0.100000
B(  0-C ,  1-C ) :   0.8974 B(  0-C ,  2-F ) :   0.4857 B(  0-C ,  3-Cl) :   0.8661
B(  0-C ,  4-Cl) :   0.8633 B(  1-C ,  5-Cl) :   0.9150 B(  1-C ,  6-F ) :   0.5227
B(  1-C ,  7-F ) :   0.5078

MP2 TOTAL ENERGY:    -1754.567046230 Eh
FINAL SINGLE POINT ENERGY     -1754.567046229527

DIPOLE MOMENT
-------------
                                X             Y             Z
Electronic contribution:     -0.08986      -0.06084      -0.03855
Nuclear contribution   :      0.14153       0.27328      -0.04232
                        -----------------------------------------
Total Dipole Moment    :      0.05167       0.21245      -0.08087
                        -----------------------------------------
Magnitude (a.u.)       :      0.23311
Magnitude (Debye)      :      0.59253

Rotational constants in cm-1:     0.051988     0.035595     0.029024
Rotational constants in MHz :  1558.551422  1067.107277   870.122978

                             ****ORCA TERMINATED NORMALLY****
TOTAL RUN TIME: 0 days 0 hours 11 minutes 16 seconds 441 msec
