                         Program Version 5.0.4 -  RELEASE  -
|  1> !ri-mp2 aug-cc-pvqz aug-cc-pvqz/c tightscf
|  2> %pal nprocs 16 end
|  3> %maxcore 3800
|  4>
|  5> * xyz 0 1
|  6> C     -2.143446   -2.929295    0.000000
|  7> C      1.157418    2.955149    0.000000
|  8> C     -0.838198   -2.133417    0.000000
|  9> C     -0.055932    2.033897    0.000000
| 10> C     -1.094835   -0.628266    0.000000
| 11> O      1.157418    0.026179    1.262499
| 12> O      1.157418    0.026179   -1.262499
| 13> S      0.468746    0.293929    0.000000
| 14> H     -1.938473   -3.999896    0.000000
| 15> H     -2.746355   -2.706824    0.882228
| 16> H     -2.746355   -2.706824   -0.882228
| 17> H      0.824711    3.992976    0.000000
| 18> H      1.770380    2.790531    0.884210
| 19> H      1.770380    2.790531   -0.884210
| 20> H     -0.242657   -2.391528   -0.876212
| 21> H     -0.242657   -2.391528    0.876212
| 22> H     -0.670671    2.165871   -0.889878
| 23> H     -0.670671    2.165871    0.889878
| 24> H     -1.638152   -0.309656   -0.890168
| 25> H     -1.638152   -0.309656    0.890168
| 26> *
| 27>
| 28>                          ****END OF INPUT****

CARTESIAN COORDINATES (ANGSTROEM)
---------------------------------
  C     -2.143446   -2.929295    0.000000
  C      1.157418    2.955149    0.000000
  C     -0.838198   -2.133417    0.000000
  C     -0.055932    2.033897    0.000000
  C     -1.094835   -0.628266    0.000000
  O      1.157418    0.026179    1.262499
  O      1.157418    0.026179   -1.262499
  S      0.468746    0.293929    0.000000
  H     -1.938473   -3.999896    0.000000
  H     -2.746355   -2.706824    0.882228
  H     -2.746355   -2.706824   -0.882228
  H      0.824711    3.992976    0.000000
  H      1.770380    2.790531    0.884210
  H      1.770380    2.790531   -0.884210
  H     -0.242657   -2.391528   -0.876212
  H     -0.242657   -2.391528    0.876212
  H     -0.670671    2.165871   -0.889878
  H     -0.670671    2.165871    0.889878
  H     -1.638152   -0.309656   -0.890168
  H     -1.638152   -0.309656    0.890168

 Total Charge           Charge          ....    0
 Multiplicity           Mult            ....    1
 Number of Electrons    NEL             ....   74
 Basis Dimension        Dim             .... 1196

ORBITAL ENERGIES
----------------

  NO   OCC          E(Eh)            E(eV)
   0   2.0000     -92.161292     -2507.8363
   1   2.0000     -20.533035      -558.7323
   2   2.0000     -20.533015      -558.7317
   3   2.0000     -11.277737      -306.8828
   4   2.0000     -11.274747      -306.8015
   5   2.0000     -11.241242      -305.8898
   6   2.0000     -11.236760      -305.7678
   7   2.0000     -11.228517      -305.5435
   8   2.0000      -9.131916      -248.4921
   9   2.0000      -6.817020      -185.5005
  10   2.0000      -6.816449      -185.4850
  11   2.0000      -6.816094      -185.4753
  12   2.0000      -1.430707       -38.9315
  13   2.0000      -1.320136       -35.9227
  14   2.0000      -1.099681       -29.9238
  15   2.0000      -1.074392       -29.2357
  16   2.0000      -0.987121       -26.8609
  17   2.0000      -0.907158       -24.6850
  18   2.0000      -0.835634       -22.7388
  19   2.0000      -0.790918       -21.5220
  20   2.0000      -0.689029       -18.7494
  21   2.0000      -0.676051       -18.3963
  22   2.0000      -0.654036       -17.7972
  23   2.0000      -0.649577       -17.6759
  24   2.0000      -0.613840       -16.7034
  25   2.0000      -0.593968       -16.1627
  26   2.0000      -0.573279       -15.5997
  27   2.0000      -0.570937       -15.5360
  28   2.0000      -0.550174       -14.9710
  29   2.0000      -0.528267       -14.3749
  30   2.0000      -0.528190       -14.3728
  31   2.0000      -0.507499       -13.8097
  32   2.0000      -0.498642       -13.5687
  33   2.0000      -0.484653       -13.1881
  34   2.0000      -0.476081       -12.9548
  35   2.0000      -0.458437       -12.4747
  36   2.0000      -0.421505       -11.4697
  37   0.0000       0.019474         0.5299
  38   0.0000       0.024557         0.6682
  39   0.0000       0.031746         0.8638
  40   0.0000       0.033755         0.9185
  41   0.0000       0.044802         1.2191

MULLIKEN ATOMIC CHARGES
-----------------------
   0 C :   -0.915271
   1 C :   -0.910089
   2 C :   -0.415123
   3 C :   -0.560059
   4 C :   -0.467341
   5 O :   -1.328015
   6 O :   -1.328017
   7 S :    2.534705
   8 H :    0.275319
   9 H :    0.236129
  10 H :    0.236129
  11 H :    0.299498
  12 H :    0.255607
  13 H :    0.255613
  14 H :    0.264788
  15 H :    0.264790
  16 H :    0.321471
  17 H :    0.321465
  18 H :    0.329196
  19 H :    0.329206
Sum of atomic charges:   -0.0000000

LOEWDIN ATOMIC CHARGES
----------------------
   0 C :    0.933521
   1 C :    0.888591
   2 C :    0.468597
   3 C :    0.414203
   4 C :    0.411108
   5 O :    0.315357
   6 O :    0.315357
   7 S :   -0.182441
   8 H :   -0.280771
   9 H :   -0.283051
  10 H :   -0.283051
  11 H :   -0.282896
  12 H :   -0.295643
  13 H :   -0.295643
  14 H :   -0.287629
  15 H :   -0.287629
  16 H :   -0.319799
  17 H :   -0.319799
  18 H :   -0.314192
  19 H :   -0.314192

  Mayer bond orders larger than 0.100000
B(  0-C ,  2-C ) :   0.9801 B(  0-C ,  8-H ) :   1.0217 B(  0-C ,  9-H ) :   0.9460
B(  0-C , 10-H ) :   0.9460 B(  1-C ,  3-C ) :   0.9152 B(  1-C , 11-H ) :   0.9581
B(  1-C , 12-H ) :   0.9471 B(  1-C , 13-H ) :   0.9471 B(  2-C ,  4-C ) :   0.8133
B(  2-C , 14-H ) :   0.8634 B(  2-C , 15-H ) :   0.8634 B(  3-C ,  7-S ) :   0.9507
B(  3-C , 16-H ) :   0.8379 B(  3-C , 17-H ) :   0.8379 B(  4-C ,  7-S ) :   0.9348
B(  4-C , 18-H ) :   0.8471 B(  4-C , 19-H ) :   0.8471 B(  5-O ,  7-S ) :   0.8112
B(  6-O ,  7-S ) :   0.8112

MP2 TOTAL ENERGY:     -745.399907274 Eh
FINAL SINGLE POINT ENERGY      -745.399907273613

DIPOLE MOMENT
-------------
                                X             Y             Z
Electronic contribution:      6.48341       1.57917       0.00000
Nuclear contribution   :     -8.31222      -0.93704       0.00000
                        -----------------------------------------
Total Dipole Moment    :     -1.82881       0.64213       0.00000
                        -----------------------------------------
Magnitude (a.u.)       :      1.93826
Magnitude (Debye)      :      4.92668

Rotational constants in cm-1:     0.128637     0.029762     0.029080
Rotational constants in MHz :  3856.433105   892.233464   871.807322

                             ****ORCA TERMINATED NORMALLY****
TOTAL RUN TIME: 0 days 1 hours 10 minutes 50 seconds 776 msec
