                         Program Version 5.0.4 -  RELEASE  -
|  1> !ri-mp2 aug-cc-pvqz aug-cc-pvqz/c tightscf
|  2> %pal nprocs 16 end
|  3>
|  4> * xyz 0 1
|  5> C     0.000000     3.710922   -0.232233
|  6> C     0.000000    -3.710922   -0.232233
|  7> C     0.000000     2.389208    0.533807
|  8> C     0.000000    -2.389208    0.533807
|  9> C     0.000000     1.184713   -0.390496
| 10> C     0.000000    -1.184713   -0.390496
| 11> O     0.000000     0.000000    0.385340
| 12> H    -0.881297     3.802170   -0.870295
| 13> H     0.000000     4.559288    0.452278
| 14> H     0.881297     3.802170   -0.870295
| 15> H     0.881297    -3.802170   -0.870295
| 16> H     0.000000    -4.559288    0.452278
| 17> H    -0.881297    -3.802170   -0.870295
| 18> H    -0.875832     2.330147    1.183540
| 19> H     0.875832     2.330147    1.183540
| 20> H     0.875832    -2.330147    1.183540
| 21> H    -0.875832    -2.330147    1.183540
| 22> H    -0.884755     1.205018   -1.043297
| 23> H     0.884755     1.205018   -1.043297
| 24> H     0.884755    -1.205018   -1.043297
| 25> H    -0.884755    -1.205018   -1.043297
| 26> *
| 27>
| 28>                          ****END OF INPUT****

CARTESIAN COORDINATES (ANGSTROEM)
---------------------------------
  C      0.000000    3.710922   -0.232233
  C      0.000000   -3.710922   -0.232233
  C      0.000000    2.389208    0.533807
  C      0.000000   -2.389208    0.533807
  C      0.000000    1.184713   -0.390496
  C      0.000000   -1.184713   -0.390496
  O      0.000000    0.000000    0.385340
  H     -0.881297    3.802170   -0.870295
  H      0.000000    4.559288    0.452278
  H      0.881297    3.802170   -0.870295
  H      0.881297   -3.802170   -0.870295
  H      0.000000   -4.559288    0.452278
  H     -0.881297   -3.802170   -0.870295
  H     -0.875832    2.330147    1.183540
  H      0.875832    2.330147    1.183540
  H      0.875832   -2.330147    1.183540
  H     -0.875832   -2.330147    1.183540
  H     -0.884755    1.205018   -1.043297
  H      0.884755    1.205018   -1.043297
  H      0.884755   -1.205018   -1.043297
  H     -0.884755   -1.205018   -1.043297

 Total Charge           Charge          ....    0
 Multiplicity           Mult            ....    1
 Number of Electrons    NEL             ....   58
 Basis Dimension        Dim             .... 1204

ORBITAL ENERGIES
----------------

  NO   OCC          E(Eh)            E(eV)
   0   2.0000     -20.545657      -559.0757
   1   2.0000     -11.267244      -306.5973
   2   2.0000     -11.267224      -306.5967
   3   2.0000     -11.214691      -305.1673
   4   2.0000     -11.214691      -305.1672
   5   2.0000     -11.212749      -305.1144
   6   2.0000     -11.212749      -305.1144
   7   2.0000      -1.366848       -37.1938
   8   2.0000      -1.066824       -29.0298
   9   2.0000      -1.037720       -28.2378
  10   2.0000      -0.937982       -25.5238
  11   2.0000      -0.881218       -23.9791
  12   2.0000      -0.811754       -22.0890
  13   2.0000      -0.796659       -21.6782
  14   2.0000      -0.677992       -18.4491
  15   2.0000      -0.653947       -17.7948
  16   2.0000      -0.629197       -17.1213
  17   2.0000      -0.613371       -16.6907
  18   2.0000      -0.582220       -15.8430
  19   2.0000      -0.568139       -15.4598
  20   2.0000      -0.533778       -14.5249
  21   2.0000      -0.532041       -14.4776
  22   2.0000      -0.509143       -13.8545
  23   2.0000      -0.494846       -13.4655
  24   2.0000      -0.483836       -13.1659
  25   2.0000      -0.468681       -12.7535
  26   2.0000      -0.464083       -12.6283
  27   2.0000      -0.461716       -12.5639
  28   2.0000      -0.416614       -11.3366
  29   0.0000       0.026729         0.7273
  30   0.0000       0.027395         0.7455
  31   0.0000       0.033417         0.9093
  32   0.0000       0.034297         0.9333
  33   0.0000       0.042815         1.1651

MULLIKEN ATOMIC CHARGES
-----------------------
   0 C :   -0.871473
   1 C :   -0.871481
   2 C :   -0.504669
   3 C :   -0.504615
   4 C :    0.225536
   5 C :    0.225548
   6 O :   -0.919327
   7 H :    0.234490
   8 H :    0.274305
   9 H :    0.234496
  10 H :    0.234492
  11 H :    0.274299
  12 H :    0.234495
  13 H :    0.229792
  14 H :    0.229796
  15 H :    0.229810
  16 H :    0.229789
  17 H :    0.203678
  18 H :    0.203690
  19 H :    0.203655
  20 H :    0.203693
Sum of atomic charges:   -0.0000000

LOEWDIN ATOMIC CHARGES
----------------------
   0 C :    0.917801
   1 C :    0.917801
   2 C :    0.488661
   3 C :    0.488661
   4 C :    0.139971
   5 C :    0.139971
   6 O :    0.908642
   7 H :   -0.286031
   8 H :   -0.285907
   9 H :   -0.286031
  10 H :   -0.286031
  11 H :   -0.285907
  12 H :   -0.286031
  13 H :   -0.280019
  14 H :   -0.280019
  15 H :   -0.280019
  16 H :   -0.280019
  17 H :   -0.291373
  18 H :   -0.291373
  19 H :   -0.291373
  20 H :   -0.291373

  Mayer bond orders larger than 0.100000
B(  0-C ,  2-C ) :   1.0378 B(  0-C ,  7-H ) :   0.9396 B(  0-C ,  8-H ) :   1.0048
B(  0-C ,  9-H ) :   0.9396 B(  1-C ,  3-C ) :   1.0378 B(  1-C , 10-H ) :   0.9396
B(  1-C , 11-H ) :   1.0048 B(  1-C , 12-H ) :   0.9396 B(  2-C ,  4-C ) :   0.8738
B(  2-C ,  8-H ) :  -0.1054 B(  2-C , 13-H ) :   0.8921 B(  2-C , 14-H ) :   0.8921
B(  3-C ,  5-C ) :   0.8738 B(  3-C , 11-H ) :  -0.1054 B(  3-C , 15-H ) :   0.8920
B(  3-C , 16-H ) :   0.8920 B(  4-C ,  6-O ) :   0.8800 B(  4-C , 17-H ) :   0.8896
B(  4-C , 18-H ) :   0.8895 B(  5-C ,  6-O ) :   0.8799 B(  5-C , 19-H ) :   0.8896
B(  5-C , 20-H ) :   0.8896

MP2 TOTAL ENERGY:     -311.736215511 Eh
FINAL SINGLE POINT ENERGY      -311.736215510569

DIPOLE MOMENT
-------------
                                X             Y             Z
Electronic contribution:     -0.00000      -0.00000       1.71244
Nuclear contribution   :      0.00000      -0.00000      -2.14236
                        -----------------------------------------
Total Dipole Moment    :     -0.00000      -0.00000      -0.42992
                        -----------------------------------------
Magnitude (a.u.)       :      0.42992
Magnitude (Debye)      :      1.09278

Rotational constants in cm-1:     0.455319     0.026383     0.025649
Rotational constants in MHz : 13650.114421   790.928863   768.951370

                             ****ORCA TERMINATED NORMALLY****
TOTAL RUN TIME: 0 days 1 hours 1 minutes 32 seconds 843 msec
