                         Program Version 5.0.4 -  RELEASE  -
|  1> !ri-mp2 aug-cc-pvqz aug-cc-pvqz/c tightscf
|  2> %pal nprocs 16 end
|  3>
|  4> * xyz 0 1
|  5> Cl   -3.572987   -0.567278   -0.510317
|  6> S     3.299035   -1.317260   -0.006901
|  7> N     2.079494    1.156701   -0.250864
|  8> C     0.857173    1.910593   -0.125215
|  9> C    -2.394964   -0.380030    0.871471
| 10> C    -0.304421    1.103913    0.230165
| 11> C    -1.256817    0.432000    0.515067
| 12> C     2.559311    0.073133   -0.131631
| 13> H     0.675175    2.422451   -1.072973
| 14> H     1.016661    2.691477    0.622020
| 15> H    -2.961711    0.058649    1.688357
| 16> H    -2.092050   -1.387238    1.145296
| 17> *
| 18>
| 19>                          ****END OF INPUT****

CARTESIAN COORDINATES (ANGSTROEM)
---------------------------------
  Cl    -3.572987   -0.567278   -0.510317
  S      3.299035   -1.317260   -0.006901
  N      2.079494    1.156701   -0.250864
  C      0.857173    1.910593   -0.125215
  C     -2.394964   -0.380030    0.871471
  C     -0.304421    1.103913    0.230165
  C     -1.256817    0.432000    0.515067
  C      2.559311    0.073133   -0.131631
  H      0.675175    2.422451   -1.072973
  H      1.016661    2.691477    0.622020
  H     -2.961711    0.058649    1.688357
  H     -2.092050   -1.387238    1.145296

 Total Charge           Charge          ....    0
 Multiplicity           Mult            ....    1
 Number of Electrons    NEL             ....   74
 Basis Dimension        Dim             ....  832

ORBITAL ENERGIES
----------------

  NO   OCC          E(Eh)            E(eV)
   0   2.0000    -104.838480     -2852.8001
   1   2.0000     -91.952259     -2502.1482
   2   2.0000     -15.612052      -424.8255
   3   2.0000     -11.379916      -309.6633
   4   2.0000     -11.340461      -308.5896
   5   2.0000     -11.334229      -308.4200
   6   2.0000     -11.262296      -306.4627
   7   2.0000     -11.258187      -306.3508
   8   2.0000     -10.563443      -287.4459
   9   2.0000      -8.956381      -243.7155
  10   2.0000      -8.030455      -218.5198
  11   2.0000      -8.028705      -218.4722
  12   2.0000      -8.028663      -218.4710
  13   2.0000      -6.638201      -180.6346
  14   2.0000      -6.635929      -180.5728
  15   2.0000      -6.635647      -180.5651
  16   2.0000      -1.303666       -35.4746
  17   2.0000      -1.154677       -31.4204
  18   2.0000      -1.100388       -29.9431
  19   2.0000      -1.046524       -28.4774
  20   2.0000      -1.005881       -27.3714
  21   2.0000      -0.941920       -25.6309
  22   2.0000      -0.776222       -21.1221
  23   2.0000      -0.705744       -19.2043
  24   2.0000      -0.677386       -18.4326
  25   2.0000      -0.673724       -18.3330
  26   2.0000      -0.657328       -17.8868
  27   2.0000      -0.602441       -16.3932
  28   2.0000      -0.576532       -15.6882
  29   2.0000      -0.552259       -15.0277
  30   2.0000      -0.541727       -14.7412
  31   2.0000      -0.458777       -12.4840
  32   2.0000      -0.455748       -12.4015
  33   2.0000      -0.416705       -11.3391
  34   2.0000      -0.408719       -11.1218
  35   2.0000      -0.373366       -10.1598
  36   2.0000      -0.360977        -9.8227
  37   0.0000       0.020220         0.5502
  38   0.0000       0.026697         0.7265
  39   0.0000       0.036159         0.9839
  40   0.0000       0.039617         1.0780
  41   0.0000       0.054355         1.4791

MULLIKEN ATOMIC CHARGES
-----------------------
   0 Cl:   -0.301638
   1 S :    0.016918
   2 N :   -0.525387
   3 C :   -0.000816
   4 C :   -0.182329
   5 C :   -0.153127
   6 C :   -0.161217
   7 C :    0.133354
   8 H :    0.316108
   9 H :    0.309672
  10 H :    0.276094
  11 H :    0.272369
Sum of atomic charges:    0.0000000

LOEWDIN ATOMIC CHARGES
----------------------
   0 Cl:    1.071606
   1 S :    0.955733
   2 N :    0.386643
   3 C :    0.191349
   4 C :   -0.208146
   5 C :    0.126934
   6 C :    0.029125
   7 C :   -1.028758
   8 H :   -0.332298
   9 H :   -0.332512
  10 H :   -0.430640
  11 H :   -0.429036

  Mayer bond orders larger than 0.100000
B(  0-Cl,  4-C ) :   0.9022 B(  0-Cl,  6-C ) :  -0.1204 B(  1-S ,  7-C ) :   1.5043
B(  2-N ,  3-C ) :   0.7132 B(  2-N ,  7-C ) :   2.1596 B(  3-C ,  5-C ) :   0.7577
B(  3-C ,  8-H ) :   0.9159 B(  3-C ,  9-H ) :   0.9439 B(  4-C ,  6-C ) :   0.8557
B(  4-C , 10-H ) :   0.9295 B(  4-C , 11-H ) :   0.9255 B(  5-C ,  6-C ) :   3.0156

MP2 TOTAL ENERGY:    -1104.648917536 Eh
FINAL SINGLE POINT ENERGY     -1104.648917535616

DIPOLE MOMENT
-------------
                                X             Y             Z
Electronic contribution:     -2.00669      -3.56104      -2.35010
Nuclear contribution   :      1.58461       4.43289       2.96986
                        -----------------------------------------
Total Dipole Moment    :     -0.42208       0.87186       0.61976
                        -----------------------------------------
Magnitude (a.u.)       :      1.14995
Magnitude (Debye)      :      2.92294

Rotational constants in cm-1:     0.087648     0.015574     0.013854
Rotational constants in MHz :  2627.616892   466.899520   415.340395

                             ****ORCA TERMINATED NORMALLY****
TOTAL RUN TIME: 0 days 0 hours 18 minutes 39 seconds 685 msec
