                         Program Version 5.0.4 -  RELEASE  -
|  1> !ri-mp2 aug-cc-pvqz aug-cc-pvqz/c tightscf
|  2> %pal nprocs 16 end
|  3>
|  4> * xyz 0 1
|  5> S     0.596501   -1.254311   -0.215908
|  6> N    -0.521489    0.078464   -0.630668
|  7> N     0.161630    1.335417   -0.521980
|  8> N    -2.690102    0.007425    0.617646
|  9> C     1.600362   -0.083701    0.655744
| 10> C     1.269049    1.169256    0.363538
| 11> C    -1.667835    0.056671    0.083610
| 12> H     0.450648    1.618461   -1.455320
| 13> H     2.392643   -0.412715    1.306776
| 14> H     1.752966    2.060731    0.730728
| 15> *
| 16>
| 17>                          ****END OF INPUT****

CARTESIAN COORDINATES (ANGSTROEM)
---------------------------------
  S      0.596501   -1.254311   -0.215908
  N     -0.521489    0.078464   -0.630668
  N      0.161630    1.335417   -0.521980
  N     -2.690102    0.007425    0.617646
  C      1.600362   -0.083701    0.655744
  C      1.269049    1.169256    0.363538
  C     -1.667835    0.056671    0.083610
  H      0.450648    1.618461   -1.455320
  H      2.392643   -0.412715    1.306776
  H      1.752966    2.060731    0.730728

 Total Charge           Charge          ....    0
 Multiplicity           Mult            ....    1
 Number of Electrons    NEL             ....   58
 Basis Dimension        Dim             ....  702

ORBITAL ENERGIES
----------------

  NO   OCC          E(Eh)            E(eV)
   0   2.0000     -92.026406     -2504.1658
   1   2.0000     -15.679455      -426.6597
   2   2.0000     -15.643134      -425.6713
   3   2.0000     -15.564617      -423.5348
   4   2.0000     -11.304233      -307.6038
   5   2.0000     -11.301693      -307.5347
   6   2.0000     -11.291746      -307.2640
   7   2.0000      -9.024560      -245.5708
   8   2.0000      -6.705768      -182.4732
   9   2.0000      -6.704624      -182.4421
  10   2.0000      -6.703377      -182.4082
  11   2.0000      -1.379980       -37.5512
  12   2.0000      -1.223598       -33.2958
  13   2.0000      -1.144806       -31.1518
  14   2.0000      -1.098747       -29.8984
  15   2.0000      -0.938405       -25.5353
  16   2.0000      -0.821754       -22.3611
  17   2.0000      -0.770124       -20.9561
  18   2.0000      -0.728338       -19.8191
  19   2.0000      -0.672684       -18.3047
  20   2.0000      -0.625760       -17.0278
  21   2.0000      -0.577077       -15.7031
  22   2.0000      -0.559261       -15.2183
  23   2.0000      -0.537707       -14.6317
  24   2.0000      -0.505170       -13.7464
  25   2.0000      -0.465892       -12.6776
  26   2.0000      -0.448248       -12.1974
  27   2.0000      -0.418428       -11.3860
  28   2.0000      -0.342817        -9.3285
  29   0.0000       0.017116         0.4657
  30   0.0000       0.026174         0.7122
  31   0.0000       0.032792         0.8923
  32   0.0000       0.053114         1.4453
  33   0.0000       0.054797         1.4911

MULLIKEN ATOMIC CHARGES
-----------------------
   0 S :    0.268677
   1 N :   -0.409846
   2 N :   -0.342170
   3 N :   -0.704408
   4 C :   -0.598242
   5 C :   -0.286332
   6 C :    0.827138
   7 H :    0.292429
   8 H :    0.449857
   9 H :    0.502898
Sum of atomic charges:    0.0000000

LOEWDIN ATOMIC CHARGES
----------------------
   0 S :    1.159787
   1 N :   -0.184478
   2 N :    0.599215
   3 N :    0.370299
   4 C :   -0.060513
   5 C :    0.065692
   6 C :   -0.683234
   7 H :   -0.532084
   8 H :   -0.409037
   9 H :   -0.325648

  Mayer bond orders larger than 0.100000
B(  0-S ,  1-N ) :   0.8391 B(  0-S ,  4-C ) :   0.9985 B(  1-N ,  2-N ) :   0.7841
B(  1-N ,  6-C ) :   1.2135 B(  2-N ,  5-C ) :   0.9730 B(  2-N ,  7-H ) :   0.8835
B(  3-N ,  6-C ) :   2.5621 B(  4-C ,  5-C ) :   1.6970 B(  4-C ,  8-H ) :   0.7931
B(  5-C ,  9-H ) :   0.7685

MP2 TOTAL ENERGY:     -677.568699108 Eh
FINAL SINGLE POINT ENERGY      -677.568699107820

DIPOLE MOMENT
-------------
                                X             Y             Z
Electronic contribution:     -2.13571      -2.79363      -0.97510
Nuclear contribution   :      4.39028       3.19023       0.56391
                        -----------------------------------------
Total Dipole Moment    :      2.25457       0.39660      -0.41119
                        -----------------------------------------
Magnitude (a.u.)       :      2.32582
Magnitude (Debye)      :      5.91176

Rotational constants in cm-1:     0.133462     0.071161     0.054644
Rotational constants in MHz :  4001.086701  2133.347500  1638.176507

                             ****ORCA TERMINATED NORMALLY****
TOTAL RUN TIME: 0 days 0 hours 12 minutes 42 seconds 248 msec
