                         Program Version 5.0.4 -  RELEASE  -
|  1> !ri-mp2 aug-cc-pvqz aug-cc-pvqz/c tightscf
|  2> %pal nprocs 16 end
|  3>
|  4> * xyz 0 1
|  5> O     -0.307443   -0.870123   -1.164144
|  6> O     -0.307406   -0.869880    1.164290
|  7> O     -2.627780    0.100056    0.000029
|  8> O      3.229423    0.053522    0.000030
|  9> N      0.941114    0.662461   -0.000117
| 10> C     -0.281383   -0.078177   -0.000011
| 11> C     -1.450502    0.910137   -0.000090
| 12> C      2.088626    0.280911   -0.000031
| 13> H     -1.215065   -1.172916   -1.295790
| 14> H     -1.215054   -1.172515    1.296121
| 15> H     -3.410450    0.656719   -0.000033
| 16> H     -1.390992    1.532924    0.893801
| 17> H     -1.391037    1.532728   -0.894121
| 18> *
| 19>
| 20>                          ****END OF INPUT****

CARTESIAN COORDINATES (ANGSTROEM)
---------------------------------
  O     -0.307443   -0.870123   -1.164144
  O     -0.307406   -0.869880    1.164290
  O     -2.627780    0.100056    0.000029
  O      3.229423    0.053522    0.000030
  N      0.941114    0.662461   -0.000117
  C     -0.281383   -0.078177   -0.000011
  C     -1.450502    0.910137   -0.000090
  C      2.088626    0.280911   -0.000031
  H     -1.215065   -1.172916   -1.295790
  H     -1.215054   -1.172515    1.296121
  H     -3.410450    0.656719   -0.000033
  H     -1.390992    1.532924    0.893801
  H     -1.391037    1.532728   -0.894121

 Total Charge           Charge          ....    0
 Multiplicity           Mult            ....    1
 Number of Electrons    NEL             ....   62
 Basis Dimension        Dim             ....  870

ORBITAL ENERGIES
----------------

  NO   OCC          E(Eh)            E(eV)
   0   2.0000     -20.615140      -560.9665
   1   2.0000     -20.599021      -560.5279
   2   2.0000     -20.579493      -559.9965
   3   2.0000     -20.579472      -559.9959
   4   2.0000     -15.582614      -424.0245
   5   2.0000     -11.411758      -310.5297
   6   2.0000     -11.407595      -310.4165
   7   2.0000     -11.307027      -307.6799
   8   2.0000      -1.471591       -40.0440
   9   2.0000      -1.448418       -39.4135
  10   2.0000      -1.394488       -37.9459
  11   2.0000      -1.355783       -36.8927
  12   2.0000      -1.267332       -34.4858
  13   2.0000      -1.026303       -27.9271
  14   2.0000      -0.898920       -24.4608
  15   2.0000      -0.768957       -20.9244
  16   2.0000      -0.748324       -20.3629
  17   2.0000      -0.744370       -20.2553
  18   2.0000      -0.724111       -19.7041
  19   2.0000      -0.686294       -18.6750
  20   2.0000      -0.674866       -18.3640
  21   2.0000      -0.646154       -17.5827
  22   2.0000      -0.635043       -17.2804
  23   2.0000      -0.593886       -16.1605
  24   2.0000      -0.578539       -15.7428
  25   2.0000      -0.572407       -15.5760
  26   2.0000      -0.502388       -13.6707
  27   2.0000      -0.494830       -13.4650
  28   2.0000      -0.487366       -13.2619
  29   2.0000      -0.462387       -12.5822
  30   2.0000      -0.442780       -12.0486
  31   0.0000       0.014714         0.4004
  32   0.0000       0.032312         0.8792
  33   0.0000       0.034562         0.9405
  34   0.0000       0.037527         1.0212
  35   0.0000       0.055236         1.5030

MULLIKEN ATOMIC CHARGES
-----------------------
   0 O :   -0.895943
   1 O :   -0.895947
   2 O :   -0.800922
   3 O :   -0.639256
   4 N :   -1.021414
   5 C :    1.771303
   6 C :   -0.265726
   7 C :    1.181341
   8 H :    0.344249
   9 H :    0.344254
  10 H :    0.303633
  11 H :    0.287212
  12 H :    0.287217
Sum of atomic charges:    0.0000000

LOEWDIN ATOMIC CHARGES
----------------------
   0 O :    1.266526
   1 O :    1.266528
   2 O :    1.281036
   3 O :    0.621717
   4 N :    0.453352
   5 C :   -1.308806
   6 C :    0.142417
   7 C :   -0.717571
   8 H :   -0.828494
   9 H :   -0.828506
  10 H :   -0.756049
  11 H :   -0.296075
  12 H :   -0.296074

  Mayer bond orders larger than 0.100000
B(  0-O ,  4-N ) :   0.1004 B(  0-O ,  5-C ) :   0.2655 B(  0-O ,  6-C ) :   0.1329
B(  0-O ,  8-H ) :   0.8606 B(  1-O ,  4-N ) :   0.1004 B(  1-O ,  5-C ) :   0.2655
B(  1-O ,  6-C ) :   0.1329 B(  1-O ,  9-H ) :   0.8606 B(  2-O ,  6-C ) :   0.7441
B(  2-O , 10-H ) :   0.9234 B(  3-O ,  4-N ) :   0.2943 B(  3-O ,  7-C ) :   1.5687
B(  4-N ,  5-C ) :   0.7625 B(  4-N ,  6-C ) :   0.1103 B(  4-N ,  7-C ) :   2.1985
B(  5-C ,  6-C ) :   0.9273 B(  6-C , 11-H ) :   0.8893 B(  6-C , 12-H ) :   0.8893

MP2 TOTAL ENERGY:     -472.390220973 Eh
FINAL SINGLE POINT ENERGY      -472.390220972588

DIPOLE MOMENT
-------------
                                X             Y             Z
Electronic contribution:      6.36027      -0.70263       0.00002
Nuclear contribution   :     -8.42656       1.32581      -0.00002
                        -----------------------------------------
Total Dipole Moment    :     -2.06629       0.62318       0.00000
                        -----------------------------------------
Magnitude (a.u.)       :      2.15822
Magnitude (Debye)      :      5.48575

Rotational constants in cm-1:     0.172372     0.038508     0.038414
Rotational constants in MHz :  5167.580426  1154.429427  1151.630826

                             ****ORCA TERMINATED NORMALLY****
TOTAL RUN TIME: 0 days 0 hours 22 minutes 14 seconds 776 msec
