                         Program Version 5.0.4 -  RELEASE  -
|  1> !ri-mp2 aug-cc-pvqz aug-cc-pvqz/c tightscf
|  2> %pal nprocs 16 end
|  3>
|  4> * xyz 0 1
|  5> Cl    -1.906509   -0.012464   -0.000003
|  6> N     -0.208360    0.009411    0.000000
|  7> N      0.477354   -1.136970    0.000000
|  8> C      0.568717    1.122667    0.000002
|  9> C      1.748562   -0.743730    0.000002
| 10> C      1.865057    0.659271    0.000004
| 11> H      0.143298    2.109292    0.000002
| 12> H      2.528586   -1.486330    0.000002
| 13> H      2.761801    1.252584    0.000006
| 14> *
| 15>
| 16>                          ****END OF INPUT****

CARTESIAN COORDINATES (ANGSTROEM)
---------------------------------
  Cl    -1.906509   -0.012464   -0.000003
  N     -0.208360    0.009411    0.000000
  N      0.477354   -1.136970    0.000000
  C      0.568717    1.122667    0.000002
  C      1.748562   -0.743730    0.000002
  C      1.865057    0.659271    0.000004
  H      0.143298    2.109292    0.000002
  H      2.528586   -1.486330    0.000002
  H      2.761801    1.252584    0.000006

 Total Charge           Charge          ....    0
 Multiplicity           Mult            ....    1
 Number of Electrons    NEL             ....   52
 Basis Dimension        Dim             ....  622

ORBITAL ENERGIES
----------------

  NO   OCC          E(Eh)            E(eV)
   0   2.0000    -104.894892     -2854.3351
   1   2.0000     -15.695895      -427.1070
   2   2.0000     -15.603295      -424.5872
   3   2.0000     -11.294442      -307.3374
   4   2.0000     -11.267349      -306.6002
   5   2.0000     -11.236443      -305.7592
   6   2.0000     -10.616568      -288.8915
   7   2.0000      -8.083913      -219.9745
   8   2.0000      -8.081327      -219.9041
   9   2.0000      -8.081094      -219.8978
  10   2.0000      -1.412860       -38.4459
  11   2.0000      -1.188836       -32.3499
  12   2.0000      -1.088548       -29.6209
  13   2.0000      -1.020524       -27.7699
  14   2.0000      -0.829853       -22.5814
  15   2.0000      -0.794048       -21.6071
  16   2.0000      -0.739553       -20.1243
  17   2.0000      -0.657392       -17.8885
  18   2.0000      -0.619539       -16.8585
  19   2.0000      -0.601297       -16.3621
  20   2.0000      -0.583025       -15.8649
  21   2.0000      -0.502571       -13.6757
  22   2.0000      -0.491167       -13.3653
  23   2.0000      -0.478801       -13.0288
  24   2.0000      -0.367711       -10.0059
  25   2.0000      -0.362206        -9.8561
  26   0.0000       0.024030         0.6539
  27   0.0000       0.030091         0.8188
  28   0.0000       0.038855         1.0573
  29   0.0000       0.056598         1.5401
  30   0.0000       0.063577         1.7300

MULLIKEN ATOMIC CHARGES
-----------------------
   0 Cl:    0.018872
   1 N :    0.089895
   2 N :   -0.586520
   3 C :   -0.220393
   4 C :   -0.185344
   5 C :   -0.571058
   6 H :    0.449202
   7 H :    0.507579
   8 H :    0.497767
Sum of atomic charges:    0.0000000

LOEWDIN ATOMIC CHARGES
----------------------
   0 Cl:    1.041066
   1 N :   -0.651621
   2 N :    0.322349
   3 C :    0.025802
   4 C :    0.003649
   5 C :    0.279532
   6 H :   -0.331955
   7 H :   -0.351948
   8 H :   -0.336874

  Mayer bond orders larger than 0.100000
B(  0-Cl,  1-N ) :   0.7534 B(  1-N ,  2-N ) :   0.6699 B(  1-N ,  3-C ) :   1.2456
B(  1-N ,  4-C ) :  -0.1015 B(  2-N ,  4-C ) :   1.4590 B(  2-N ,  5-C ) :   0.1141
B(  3-C ,  4-C ) :  -0.1711 B(  3-C ,  5-C ) :   1.5204 B(  3-C ,  6-H ) :   0.8649
B(  4-C ,  5-C ) :   1.3229 B(  4-C ,  7-H ) :   0.7933 B(  5-C ,  8-H ) :   0.7219

MP2 TOTAL ENERGY:     -684.931493181 Eh
FINAL SINGLE POINT ENERGY      -684.931493181178

DIPOLE MOMENT
-------------
                                X             Y             Z
Electronic contribution:     -7.46609      -0.91168      -0.00001
Nuclear contribution   :      7.77554       1.79724       0.00001
                        -----------------------------------------
Total Dipole Moment    :      0.30945       0.88557       0.00000
                        -----------------------------------------
Magnitude (a.u.)       :      0.93808
Magnitude (Debye)      :      2.38440

Rotational constants in cm-1:     0.315835     0.073755     0.059792
Rotational constants in MHz :  9468.488179  2211.112115  1792.517586

                             ****ORCA TERMINATED NORMALLY****
TOTAL RUN TIME: 0 days 0 hours 9 minutes 39 seconds 75 msec
