                         Program Version 5.0.4 -  RELEASE  -
|  1> !ri-mp2 aug-cc-pvqz aug-cc-pvqz/c tightscf
|  2> %pal nprocs 16 end
|  3>
|  4> * xyz 0 1
|  5> Cl     2.984399   -0.417879   -0.152987
|  6> O      0.545008    1.604346   -0.451726
|  7> N     -1.674474   -0.203357   -0.321610
|  8> N     -2.891489   -0.320120   -0.222649
|  9> N     -4.011018   -0.462784   -0.239944
| 10> C      0.486114    0.564884    0.505089
| 11> C     -0.961721    0.258054    0.891001
| 12> C      1.212507   -0.698086    0.052682
| 13> H      0.985966    0.954778    1.392928
| 14> H     -1.421537    1.170797    1.275391
| 15> H     -0.999608   -0.510498    1.668236
| 16> H      1.110587   -1.489064    0.791667
| 17> H      0.836499   -1.050422   -0.903648
| 18> H      0.010714    1.348290   -1.213192
| 19> *
| 20>
| 21>                          ****END OF INPUT****

CARTESIAN COORDINATES (ANGSTROEM)
---------------------------------
  Cl     2.984399   -0.417879   -0.152987
  O      0.545008    1.604346   -0.451726
  N     -1.674474   -0.203357   -0.321610
  N     -2.891489   -0.320120   -0.222649
  N     -4.011018   -0.462784   -0.239944
  C      0.486114    0.564884    0.505089
  C     -0.961721    0.258054    0.891001
  C      1.212507   -0.698086    0.052682
  H      0.985966    0.954778    1.392928
  H     -1.421537    1.170797    1.275391
  H     -0.999608   -0.510498    1.668236
  H      1.110587   -1.489064    0.791667
  H      0.836499   -1.050422   -0.903648
  H      0.010714    1.348290   -1.213192

 Total Charge           Charge          ....    0
 Multiplicity           Mult            ....    1
 Number of Electrons    NEL             ....   70
 Basis Dimension        Dim             ....  920

ORBITAL ENERGIES
----------------

  NO   OCC          E(Eh)            E(eV)
   0   2.0000    -104.822283     -2852.3593
   1   2.0000     -20.569044      -559.7121
   2   2.0000     -15.798339      -429.8947
   3   2.0000     -15.681741      -426.7219
   4   2.0000     -15.621586      -425.0850
   5   2.0000     -11.310682      -307.7793
   6   2.0000     -11.299256      -307.4684
   7   2.0000     -11.298570      -307.4497
   8   2.0000     -10.547593      -287.0146
   9   2.0000      -8.014654      -218.0898
  10   2.0000      -8.013004      -218.0449
  11   2.0000      -8.012970      -218.0440
  12   2.0000      -1.524247       -41.4769
  13   2.0000      -1.381872       -37.6027
  14   2.0000      -1.310933       -35.6723
  15   2.0000      -1.135314       -30.8935
  16   2.0000      -1.061863       -28.8948
  17   2.0000      -0.946684       -25.7606
  18   2.0000      -0.854095       -23.2411
  19   2.0000      -0.761850       -20.7310
  20   2.0000      -0.729973       -19.8636
  21   2.0000      -0.725074       -19.7303
  22   2.0000      -0.693639       -18.8749
  23   2.0000      -0.674911       -18.3653
  24   2.0000      -0.655067       -17.8253
  25   2.0000      -0.642602       -17.4861
  26   2.0000      -0.603076       -16.4105
  27   2.0000      -0.576031       -15.6746
  28   2.0000      -0.537940       -14.6381
  29   2.0000      -0.509360       -13.8604
  30   2.0000      -0.477070       -12.9817
  31   2.0000      -0.460970       -12.5436
  32   2.0000      -0.434909       -11.8345
  33   2.0000      -0.429428       -11.6853
  34   2.0000      -0.397808       -10.8249
  35   0.0000       0.022766         0.6195
  36   0.0000       0.031508         0.8574
  37   0.0000       0.033756         0.9185
  38   0.0000       0.040478         1.1014
  39   0.0000       0.052546         1.4299

MULLIKEN ATOMIC CHARGES
-----------------------
   0 Cl:   -0.385364
   1 O :   -0.964126
   2 N :   -0.166972
   3 N :    0.148643
   4 N :   -0.373831
   5 C :    0.647241
   6 C :   -0.382097
   7 C :   -0.412068
   8 H :    0.395081
   9 H :    0.284475
  10 H :    0.295107
  11 H :    0.277851
  12 H :    0.278094
  13 H :    0.357966
Sum of atomic charges:   -0.0000000

LOEWDIN ATOMIC CHARGES
----------------------
   0 Cl:    1.132901
   1 O :    1.280470
   2 N :    0.337245
   3 N :   -0.251799
   4 N :    0.373169
   5 C :   -0.374835
   6 C :    0.228561
   7 C :   -0.155349
   8 H :   -0.346000
   9 H :   -0.302509
  10 H :   -0.298949
  11 H :   -0.397493
  12 H :   -0.406610
  13 H :   -0.818800

  Mayer bond orders larger than 0.100000
B(  0-Cl,  7-C ) :   0.7412 B(  1-O ,  5-C ) :   0.3536 B(  1-O ,  6-C ) :   0.1210
B(  1-O , 13-H ) :   0.8495 B(  2-N ,  3-N ) :   1.4388 B(  2-N ,  4-N ) :   0.1383
B(  2-N ,  5-C ) :  -0.1282 B(  2-N ,  6-C ) :   0.7951 B(  3-N ,  4-N ) :   2.2152
B(  5-C ,  6-C ) :   0.9208 B(  5-C ,  7-C ) :   0.8657 B(  5-C ,  8-H ) :   0.8148
B(  6-C ,  9-H ) :   0.8912 B(  6-C , 10-H ) :   0.8983 B(  7-C , 11-H ) :   0.9177
B(  7-C , 12-H ) :   0.8744

MP2 TOTAL ENERGY:     -816.564609108 Eh
FINAL SINGLE POINT ENERGY      -816.564609107681

DIPOLE MOMENT
-------------
                                X             Y             Z
Electronic contribution:      2.76474      -1.41535      -2.49004
Nuclear contribution   :     -3.67449       1.00982       3.12144
                        -----------------------------------------
Total Dipole Moment    :     -0.90975      -0.40553       0.63141
                        -----------------------------------------
Magnitude (a.u.)       :      1.17931
Magnitude (Debye)      :      2.99758

Rotational constants in cm-1:     0.169351     0.021931     0.020803
Rotational constants in MHz :  5077.000464   657.476579   623.669011

                             ****ORCA TERMINATED NORMALLY****
TOTAL RUN TIME: 0 days 0 hours 27 minutes 12 seconds 760 msec
