                         Program Version 5.0.4 -  RELEASE  -
|  1> !ri-mp2 aug-cc-pvqz aug-cc-pvqz/c tightscf
|  2> %pal nprocs 16 end
|  3>
|  4> * xyz 0 1
|  5> C     -2.900530   -2.061190    0.000000
|  6> C     -2.210491   -0.698205    0.000000
|  7> C      2.318193    2.117672    0.000000
|  8> S      1.820699    0.367544    0.000000
|  9> C      0.000000    0.560581    0.000000
| 10> C     -0.683216   -0.803015    0.000000
| 11> H      3.406072    2.138869    0.000000
| 12> H     -3.986273   -1.956738    0.000000
| 13> H     -2.623158   -2.643745    0.880787
| 14> H     -2.623158   -2.643745   -0.880787
| 15> H     -2.533340   -0.125846    0.874655
| 16> H     -2.533340   -0.125846   -0.874655
| 17> H      1.955763    2.628694    0.891218
| 18> H      1.955763    2.628694   -0.891218
| 19> H     -0.357222   -1.371028   -0.875684
| 20> H     -0.357222   -1.371028    0.875684
| 21> H     -0.289402    1.132982   -0.883547
| 22> H     -0.289402    1.132982    0.883547
| 23> *
| 24>
| 25>                          ****END OF INPUT****

CARTESIAN COORDINATES (ANGSTROEM)
---------------------------------
  C     -2.900530   -2.061190    0.000000
  C     -2.210491   -0.698205    0.000000
  C      2.318193    2.117672    0.000000
  S      1.820699    0.367544    0.000000
  C      0.000000    0.560581    0.000000
  C     -0.683216   -0.803015    0.000000
  H      3.406072    2.138869    0.000000
  H     -3.986273   -1.956738    0.000000
  H     -2.623158   -2.643745    0.880787
  H     -2.623158   -2.643745   -0.880787
  H     -2.533340   -0.125846    0.874655
  H     -2.533340   -0.125846   -0.874655
  H      1.955763    2.628694    0.891218
  H      1.955763    2.628694   -0.891218
  H     -0.357222   -1.371028   -0.875684
  H     -0.357222   -1.371028    0.875684
  H     -0.289402    1.132982   -0.883547
  H     -0.289402    1.132982    0.883547

 Total Charge           Charge          ....    0
 Multiplicity           Mult            ....    1
 Number of Electrons    NEL             ....   58
 Basis Dimension        Dim             .... 1036

ORBITAL ENERGIES
----------------

  NO   OCC          E(Eh)            E(eV)
   0   2.0000     -91.937259     -2501.7400
   1   2.0000     -11.250506      -306.1418
   2   2.0000     -11.247433      -306.0582
   3   2.0000     -11.223619      -305.4102
   4   2.0000     -11.221963      -305.3651
   5   2.0000     -11.212837      -305.1168
   6   2.0000      -8.938750      -243.2357
   7   2.0000      -6.620321      -180.1481
   8   2.0000      -6.619435      -180.1240
   9   2.0000      -6.618546      -180.0998
  10   2.0000      -1.091506       -29.7014
  11   2.0000      -1.038933       -28.2708
  12   2.0000      -0.975818       -26.5533
  13   2.0000      -0.884029       -24.0557
  14   2.0000      -0.805822       -21.9275
  15   2.0000      -0.788782       -21.4639
  16   2.0000      -0.653005       -17.7692
  17   2.0000      -0.597182       -16.2501
  18   2.0000      -0.597008       -16.2454
  19   2.0000      -0.588434       -16.0121
  20   2.0000      -0.572157       -15.5692
  21   2.0000      -0.543576       -14.7914
  22   2.0000      -0.529149       -14.3989
  23   2.0000      -0.509154       -13.8548
  24   2.0000      -0.480176       -13.0663
  25   2.0000      -0.471234       -12.8229
  26   2.0000      -0.452603       -12.3160
  27   2.0000      -0.423887       -11.5346
  28   2.0000      -0.332923        -9.0593
  29   0.0000       0.025925         0.7055
  30   0.0000       0.028257         0.7689
  31   0.0000       0.034672         0.9435
  32   0.0000       0.035172         0.9571
  33   0.0000       0.043014         1.1705

MULLIKEN ATOMIC CHARGES
-----------------------
   0 C :   -0.888597
   1 C :   -0.452995
   2 C :   -1.030309
   3 S :   -0.127917
   4 C :   -0.316637
   5 C :   -0.300656
   6 H :    0.389529
   7 H :    0.268835
   8 H :    0.231382
   9 H :    0.231382
  10 H :    0.235756
  11 H :    0.235756
  12 H :    0.272509
  13 H :    0.272509
  14 H :    0.269475
  15 H :    0.269476
  16 H :    0.220252
  17 H :    0.220251
Sum of atomic charges:   -0.0000000

LOEWDIN ATOMIC CHARGES
----------------------
   0 C :    0.926972
   1 C :    0.499821
   2 C :    0.546216
   3 S :    1.309363
   4 C :    0.142938
   5 C :    0.402657
   6 H :   -0.398207
   7 H :   -0.284104
   8 H :   -0.284594
   9 H :   -0.284594
  10 H :   -0.274912
  11 H :   -0.274912
  12 H :   -0.371467
  13 H :   -0.371467
  14 H :   -0.291914
  15 H :   -0.291914
  16 H :   -0.349941
  17 H :   -0.349941

  Mayer bond orders larger than 0.100000
B(  0-C ,  1-C ) :   1.0113 B(  0-C ,  7-H ) :   1.0123 B(  0-C ,  8-H ) :   0.9509
B(  0-C ,  9-H ) :   0.9509 B(  1-C ,  5-C ) :   0.9689 B(  1-C , 10-H ) :   0.8771
B(  1-C , 11-H ) :   0.8771 B(  2-C ,  3-S ) :   1.1005 B(  2-C ,  4-C ) :  -0.1343
B(  2-C ,  6-H ) :   0.8547 B(  2-C , 12-H ) :   0.9146 B(  2-C , 13-H ) :   0.9146
B(  3-S ,  4-C ) :   0.8806 B(  4-C ,  5-C ) :   0.9497 B(  4-C , 16-H ) :   0.8918
B(  4-C , 17-H ) :   0.8918 B(  5-C , 14-H ) :   0.8449 B(  5-C , 15-H ) :   0.8449

MP2 TOTAL ENERGY:     -595.103202712 Eh
FINAL SINGLE POINT ENERGY      -595.103202712126

DIPOLE MOMENT
-------------
                                X             Y             Z
Electronic contribution:      8.22398       1.12728       0.00000
Nuclear contribution   :     -8.70822      -0.61367       0.00000
                        -----------------------------------------
Total Dipole Moment    :     -0.48424       0.51361       0.00000
                        -----------------------------------------
Magnitude (a.u.)       :      0.70589
Magnitude (Debye)      :      1.79424

Rotational constants in cm-1:     0.369289     0.031353     0.029696
Rotational constants in MHz : 11071.006315   939.938807   890.274220

                             ****ORCA TERMINATED NORMALLY****
TOTAL RUN TIME: 0 days 0 hours 42 minutes 51 seconds 778 msec
