                         Program Version 5.0.4 -  RELEASE  -
|  1> !ri-mp2 aug-cc-pvqz aug-cc-pvqz/c tightscf
|  2> %pal nprocs 16 end
|  3>
|  4> * xyz 0 1
|  5> C    -0.987747    -0.732496    0.000000
|  6> C    -0.987747     0.732496    0.000000
|  7> C     0.280659    -1.176401    0.000000
|  8> C     0.280659     1.176401    0.000000
|  9> C     1.213319     0.000000    0.000000
| 10> H    -1.877331    -1.345222    0.000000
| 11> H    -1.877331     1.345222    0.000000
| 12> H     0.605805    -2.205253    0.000000
| 13> H     0.605805     2.205253    0.000000
| 14> H     1.874095     0.000000    0.874476
| 15> H     1.874095     0.000000   -0.874476
| 16> *
| 17>
| 18>                          ****END OF INPUT****

CARTESIAN COORDINATES (ANGSTROEM)
---------------------------------
  C     -0.987747   -0.732496    0.000000
  C     -0.987747    0.732496    0.000000
  C      0.280659   -1.176401    0.000000
  C      0.280659    1.176401    0.000000
  C      1.213319    0.000000    0.000000
  H     -1.877331   -1.345222    0.000000
  H     -1.877331    1.345222    0.000000
  H      0.605805   -2.205253    0.000000
  H      0.605805    2.205253    0.000000
  H      1.874095    0.000000    0.874476
  H      1.874095    0.000000   -0.874476

 Total Charge           Charge          ....    0
 Multiplicity           Mult            ....    1
 Number of Electrons    NEL             ....   36
 Basis Dimension        Dim             ....  676

ORBITAL ENERGIES
----------------

  NO   OCC          E(Eh)            E(eV)
   0   2.0000     -11.228796      -305.5511
   1   2.0000     -11.225660      -305.4658
   2   2.0000     -11.225137      -305.4515
   3   2.0000     -11.223691      -305.4122
   4   2.0000     -11.223471      -305.4062
   5   2.0000      -1.151243       -31.3269
   6   2.0000      -0.964239       -26.2383
   7   2.0000      -0.954806       -25.9816
   8   2.0000      -0.755394       -20.5553
   9   2.0000      -0.726812       -19.7776
  10   2.0000      -0.696215       -18.9450
  11   2.0000      -0.592208       -16.1148
  12   2.0000      -0.561351       -15.2751
  13   2.0000      -0.528542       -14.3824
  14   2.0000      -0.507437       -13.8081
  15   2.0000      -0.502320       -13.6688
  16   2.0000      -0.414020       -11.2661
  17   2.0000      -0.307852        -8.3771
  18   0.0000       0.026981         0.7342
  19   0.0000       0.032504         0.8845
  20   0.0000       0.032770         0.8917
  21   0.0000       0.041778         1.1368
  22   0.0000       0.045227         1.2307

MULLIKEN ATOMIC CHARGES
-----------------------
   0 C :   -0.455963
   1 C :   -0.455963
   2 C :   -0.373369
   3 C :   -0.373369
   4 C :   -0.410847
   5 H :    0.401508
   6 H :    0.401508
   7 H :    0.393374
   8 H :    0.393374
   9 H :    0.239873
  10 H :    0.239873
Sum of atomic charges:   -0.0000000

LOEWDIN ATOMIC CHARGES
----------------------
   0 C :    0.338738
   1 C :    0.338738
   2 C :    0.355569
   3 C :    0.355569
   4 C :    0.423488
   5 H :   -0.321594
   6 H :   -0.321594
   7 H :   -0.305610
   8 H :   -0.305610
   9 H :   -0.278848
  10 H :   -0.278848

  Mayer bond orders larger than 0.100000
B(  0-C ,  1-C ) :   0.9764 B(  0-C ,  2-C ) :   1.5369 B(  0-C ,  5-H ) :   0.8941
B(  1-C ,  3-C ) :   1.5369 B(  1-C ,  6-H ) :   0.8941 B(  2-C ,  4-C ) :   0.9428
B(  2-C ,  7-H ) :   0.8760 B(  3-C ,  4-C ) :   0.9428 B(  3-C ,  8-H ) :   0.8760
B(  4-C ,  9-H ) :   0.9219 B(  4-C , 10-H ) :   0.9219

MP2 TOTAL ENERGY:     -193.731237650 Eh
FINAL SINGLE POINT ENERGY      -193.731237650480

DIPOLE MOMENT
-------------
                                X             Y             Z
Electronic contribution:     -1.07938       0.00000       0.00000
Nuclear contribution   :      1.23262       0.00000       0.00000
                        -----------------------------------------
Total Dipole Moment    :      0.15325       0.00000       0.00000
                        -----------------------------------------
Magnitude (a.u.)       :      0.15325
Magnitude (Debye)      :      0.38953

Rotational constants in cm-1:     0.283528     0.275779     0.143468
Rotational constants in MHz :  8499.965825  8267.633492  4301.072305

                             ****ORCA TERMINATED NORMALLY****
TOTAL RUN TIME: 0 days 0 hours 12 minutes 45 seconds 494 msec
