                         Program Version 5.0.4 -  RELEASE  -
|  1> !ri-mp2 aug-cc-pvqz aug-cc-pvqz/c tightscf
|  2> %pal nprocs 16 end
|  3>
|  4> * xyz 0 1
|  5> F     -0.174377   -1.959003   -0.132114
|  6> F     -2.700777   -1.150004   -0.078605
|  7> O      2.821157    0.734982   -0.401394
|  8> O      2.306279   -1.197619    0.437397
|  9> N      2.021435   -0.091571    0.012142
| 10> C      0.601826    0.299791    0.013607
| 11> C     -0.410428   -0.657728   -0.033324
| 12> C     -1.733657   -0.226270   -0.015537
| 13> C      0.291444    1.653903    0.071365
| 14> C     -2.054339    1.114433    0.058602
| 15> C     -1.032431    2.057202    0.104097
| 16> H      1.101788    2.365330    0.093910
| 17> H     -3.095956    1.401601    0.074126
| 18> H     -1.273459    3.108243    0.162559
| 19> *
| 20>
| 21>                          ****END OF INPUT****

CARTESIAN COORDINATES (ANGSTROEM)
---------------------------------
  F     -0.174377   -1.959003   -0.132114
  F     -2.700777   -1.150004   -0.078605
  O      2.821157    0.734982   -0.401394
  O      2.306279   -1.197619    0.437397
  N      2.021435   -0.091571    0.012142
  C      0.601826    0.299791    0.013607
  C     -0.410428   -0.657728   -0.033324
  C     -1.733657   -0.226270   -0.015537
  C      0.291444    1.653903    0.071365
  C     -2.054339    1.114433    0.058602
  C     -1.032431    2.057202    0.104097
  H      1.101788    2.365330    0.093910
  H     -3.095956    1.401601    0.074126
  H     -1.273459    3.108243    0.162559

 Total Charge           Charge          ....    0
 Multiplicity           Mult            ....    1
 Number of Electrons    NEL             ....   80
 Basis Dimension        Dim             .... 1018

ORBITAL ENERGIES
----------------

  NO   OCC          E(Eh)            E(eV)
   0   2.0000     -26.347881      -716.9623
   1   2.0000     -26.342375      -716.8125
   2   2.0000     -20.615078      -560.9648
   3   2.0000     -20.611724      -560.8735
   4   2.0000     -15.868975      -431.8168
   5   2.0000     -11.387398      -309.8668
   6   2.0000     -11.369295      -309.3743
   7   2.0000     -11.338126      -308.5261
   8   2.0000     -11.293215      -307.3040
   9   2.0000     -11.291976      -307.2703
  10   2.0000     -11.284019      -307.0538
  11   2.0000      -1.676836       -45.6290
  12   2.0000      -1.658581       -45.1323
  13   2.0000      -1.621551       -44.1246
  14   2.0000      -1.414946       -38.5026
  15   2.0000      -1.225265       -33.3412
  16   2.0000      -1.118514       -30.4363
  17   2.0000      -1.072306       -29.1789
  18   2.0000      -0.989136       -26.9158
  19   2.0000      -0.900332       -24.4993
  20   2.0000      -0.879688       -23.9375
  21   2.0000      -0.810505       -22.0550
  22   2.0000      -0.789890       -21.4940
  23   2.0000      -0.780771       -21.2459
  24   2.0000      -0.751289       -20.4436
  25   2.0000      -0.738859       -20.1054
  26   2.0000      -0.733357       -19.9557
  27   2.0000      -0.724106       -19.7039
  28   2.0000      -0.715442       -19.4682
  29   2.0000      -0.692986       -18.8571
  30   2.0000      -0.690944       -18.8015
  31   2.0000      -0.634468       -17.2647
  32   2.0000      -0.587892       -15.9973
  33   2.0000      -0.583097       -15.8669
  34   2.0000      -0.553233       -15.0542
  35   2.0000      -0.510830       -13.9004
  36   2.0000      -0.506689       -13.7877
  37   2.0000      -0.465107       -12.6562
  38   2.0000      -0.400653       -10.9023
  39   2.0000      -0.380300       -10.3485
  40   0.0000       0.016070         0.4373
  41   0.0000       0.026257         0.7145
  42   0.0000       0.027540         0.7494
  43   0.0000       0.036832         1.0022
  44   0.0000       0.054345         1.4788

MULLIKEN ATOMIC CHARGES
-----------------------
   0 F :   -0.701000
   1 F :   -0.733537
   2 O :   -0.589147
   3 O :   -0.553362
   4 N :    0.768066
   5 C :   -0.191603
   6 C :    1.162072
   7 C :    0.878473
   8 C :   -0.228281
   9 C :   -0.416328
  10 C :   -0.418697
  11 H :    0.379130
  12 H :    0.428738
  13 H :    0.215476
Sum of atomic charges:    0.0000000

LOEWDIN ATOMIC CHARGES
----------------------
   0 F :    0.814021
   1 F :    0.790233
   2 O :    0.544791
   3 O :    0.542769
   4 N :   -0.853423
   5 C :   -0.350196
   6 C :   -0.755322
   7 C :   -0.725241
   8 C :    0.306830
   9 C :    0.312605
  10 C :    0.355430
  11 H :   -0.347897
  12 H :   -0.318324
  13 H :   -0.316276

  Mayer bond orders larger than 0.100000
B(  0-F ,  5-C ) :   0.3294 B(  0-F ,  6-C ) :  -0.1369 B(  1-F ,  9-C ) :   0.1864
B(  2-O ,  3-O ) :   0.1154 B(  2-O ,  4-N ) :   1.2483 B(  3-O ,  4-N ) :   1.2831
B(  3-O ,  5-C ) :   0.1336 B(  4-N ,  5-C ) :   0.8789 B(  4-N ,  6-C ) :  -0.1215
B(  5-C ,  6-C ) :   1.1781 B(  5-C ,  7-C ) :  -0.1451 B(  5-C ,  8-C ) :   1.1420
B(  5-C , 10-C ) :  -0.1785 B(  6-C ,  7-C ) :   1.5813 B(  6-C , 10-C ) :   0.1021
B(  7-C ,  9-C ) :   1.3066 B(  7-C , 10-C ) :  -0.1713 B(  8-C , 10-C ) :   1.2885
B(  8-C , 11-H ) :   0.8459 B(  8-C , 13-H ) :  -0.1232 B(  9-C , 10-C ) :   1.2161
B(  9-C , 12-H ) :   0.8315 B( 10-C , 13-H ) :   1.1478

MP2 TOTAL ENERGY:     -634.411290383 Eh
FINAL SINGLE POINT ENERGY      -634.411290383181

DIPOLE MOMENT
-------------
                                X             Y             Z
Electronic contribution:     -1.17393      -7.85268      -0.43116
Nuclear contribution   :     -0.31681       9.38525       0.50935
                        -----------------------------------------
Total Dipole Moment    :     -1.49074       1.53257       0.07819
                        -----------------------------------------
Magnitude (a.u.)       :      2.13943
Magnitude (Debye)      :      5.43801

Rotational constants in cm-1:     0.065324     0.031509     0.021604
Rotational constants in MHz :  1958.367466   944.630315   647.666569

                             ****ORCA TERMINATED NORMALLY****
TOTAL RUN TIME: 0 days 0 hours 44 minutes 46 seconds 834 msec
