                         Program Version 5.0.4 -  RELEASE  -
|  1> !ri-mp2 aug-cc-pvqz aug-cc-pvqz/c tightscf
|  2> %pal nprocs 16 end
|  3>
|  4> * xyz 0 1
|  5> O      0.000000    0.000000    1.185426
|  6> C      0.000000    1.126270    0.321884
|  7> C      0.000000   -1.126270    0.321884
|  8> O     -0.368242   -0.630282   -0.948481
|  9> O      0.368242    0.630282   -0.948481
| 10> H     -0.997388    1.574227    0.297170
| 11> H      0.997388   -1.574227    0.297170
| 12> H      0.765842    1.843110    0.617669
| 13> H     -0.765842   -1.843110    0.617669
| 14> *
| 15>
| 16>                          ****END OF INPUT****

CARTESIAN COORDINATES (ANGSTROEM)
---------------------------------
  O      0.000000    0.000000    1.185426
  C      0.000000    1.126270    0.321884
  C      0.000000   -1.126270    0.321884
  O     -0.368242   -0.630282   -0.948481
  O      0.368242    0.630282   -0.948481
  H     -0.997388    1.574227    0.297170
  H      0.997388   -1.574227    0.297170
  H      0.765842    1.843110    0.617669
  H     -0.765842   -1.843110    0.617669

 Total Charge           Charge          ....    0
 Multiplicity           Mult            ....    1
 Number of Electrons    NEL             ....   40
 Basis Dimension        Dim             ....  584

ORBITAL ENERGIES
----------------

  NO   OCC          E(Eh)            E(eV)
   0   2.0000     -20.643034      -561.7255
   1   2.0000     -20.642741      -561.7175
   2   2.0000     -20.584398      -560.1299
   3   2.0000     -11.351016      -308.8768
   4   2.0000     -11.350999      -308.8764
   5   2.0000      -1.532543       -41.7026
   6   2.0000      -1.377332       -37.4791
   7   2.0000      -1.263663       -34.3860
   8   2.0000      -0.938692       -25.5431
   9   2.0000      -0.894507       -24.3408
  10   2.0000      -0.749581       -20.3971
  11   2.0000      -0.738182       -20.0870
  12   2.0000      -0.671772       -18.2799
  13   2.0000      -0.650951       -17.7133
  14   2.0000      -0.601174       -16.3588
  15   2.0000      -0.581430       -15.8215
  16   2.0000      -0.547909       -14.9094
  17   2.0000      -0.539581       -14.6828
  18   2.0000      -0.465179       -12.6582
  19   2.0000      -0.453875       -12.3506
  20   0.0000       0.027037         0.7357
  21   0.0000       0.034702         0.9443
  22   0.0000       0.036452         0.9919
  23   0.0000       0.049583         1.3492
  24   0.0000       0.063763         1.7351

MULLIKEN ATOMIC CHARGES
-----------------------
   0 O :   -0.740677
   1 C :    0.121217
   2 C :    0.121217
   3 O :   -0.467823
   4 O :   -0.467823
   5 H :    0.274342
   6 H :    0.274342
   7 H :    0.442602
   8 H :    0.442602
Sum of atomic charges:   -0.0000000

LOEWDIN ATOMIC CHARGES
----------------------
   0 O :    0.830235
   1 C :   -0.267988
   2 C :   -0.267988
   3 O :    0.534889
   4 O :    0.534889
   5 H :   -0.334409
   6 H :   -0.334409
   7 H :   -0.347610
   8 H :   -0.347610

  Mayer bond orders larger than 0.100000
B(  0-O ,  1-C ) :   0.8367 B(  0-O ,  2-C ) :   0.8367 B(  1-C ,  2-C ) :   0.1021
B(  1-C ,  4-O ) :   0.8100 B(  1-C ,  5-H ) :   0.9046 B(  1-C ,  7-H ) :   0.7360
B(  2-C ,  3-O ) :   0.8100 B(  2-C ,  6-H ) :   0.9046 B(  2-C ,  8-H ) :   0.7360
B(  3-O ,  4-O ) :   0.8469

MP2 TOTAL ENERGY:     -303.787410343 Eh
FINAL SINGLE POINT ENERGY      -303.787410343067

DIPOLE MOMENT
-------------
                                X             Y             Z
Electronic contribution:      0.00000      -0.00000      -1.31923
Nuclear contribution   :      0.00000       0.00000       1.79627
                        -----------------------------------------
Total Dipole Moment    :      0.00000      -0.00000       0.47704
                        -----------------------------------------
Magnitude (a.u.)       :      0.47704
Magnitude (Debye)      :      1.21255

Rotational constants in cm-1:     0.275687     0.269488     0.152242
Rotational constants in MHz :  8264.889395  8079.053836  4564.098199

                             ****ORCA TERMINATED NORMALLY****
TOTAL RUN TIME: 0 days 0 hours 8 minutes 0 seconds 295 msec
