                         Program Version 5.0.4 -  RELEASE  -
|  1> !ri-mp2 aug-cc-pvqz aug-cc-pvqz/c tightscf
|  2> %pal nprocs 16 end
|  3>
|  4> * xyz 0 1
|  5> C      2.555199   -0.206184   -0.030002
|  6> C      1.904094   -1.432601   -0.092797
|  7> C      1.822358    0.969098    0.049255
|  8> C      0.521008   -1.464364   -0.071553
|  9> C      0.424347    0.981756    0.050347
| 10> C     -0.196494   -0.273992   -0.013060
| 11> C     -0.290301    2.302138    0.145550
| 12> N     -1.666810   -0.404509   -0.018623
| 13> O     -2.143297   -1.460414    0.374057
| 14> O     -2.328126    0.540642   -0.426159
| 15> H      3.635895   -0.163364   -0.037093
| 16> H      2.465502   -2.353997   -0.153385
| 17> H      2.342694    1.915301    0.114787
| 18> H     -0.021103   -2.396371   -0.103663
| 19> H     -0.772031    2.558749   -0.796957
| 20> H     -1.076089    2.289354    0.898913
| 21> H      0.422924    3.084965    0.398137
| 22> *
| 23>
| 24>                          ****END OF INPUT****

CARTESIAN COORDINATES (ANGSTROEM)
---------------------------------
  C      2.555199   -0.206184   -0.030002
  C      1.904094   -1.432601   -0.092797
  C      1.822358    0.969098    0.049255
  C      0.521008   -1.464364   -0.071553
  C      0.424347    0.981756    0.050347
  C     -0.196494   -0.273992   -0.013060
  C     -0.290301    2.302138    0.145550
  N     -1.666810   -0.404509   -0.018623
  O     -2.143297   -1.460414    0.374057
  O     -2.328126    0.540642   -0.426159
  H      3.635895   -0.163364   -0.037093
  H      2.465502   -2.353997   -0.153385
  H      2.342694    1.915301    0.114787
  H     -0.021103   -2.396371   -0.103663
  H     -0.772031    2.558749   -0.796957
  H     -1.076089    2.289354    0.898913
  H      0.422924    3.084965    0.398137

 Total Charge           Charge          ....    0
 Multiplicity           Mult            ....    1
 Number of Electrons    NEL             ....   72
 Basis Dimension        Dim             .... 1122

ORBITAL ENERGIES
----------------

  NO   OCC          E(Eh)            E(eV)
   0   2.0000     -20.597924      -560.4980
   1   2.0000     -20.596701      -560.4647
   2   2.0000     -15.849725      -431.2929
   3   2.0000     -11.306866      -307.6755
   4   2.0000     -11.285103      -307.0833
   5   2.0000     -11.269265      -306.6523
   6   2.0000     -11.266554      -306.5785
   7   2.0000     -11.256207      -306.2970
   8   2.0000     -11.255458      -306.2766
   9   2.0000     -11.236121      -305.7504
  10   2.0000      -1.603969       -43.6462
  11   2.0000      -1.396655       -38.0049
  12   2.0000      -1.199738       -32.6465
  13   2.0000      -1.090832       -29.6830
  14   2.0000      -1.073778       -29.2190
  15   2.0000      -0.981798       -26.7161
  16   2.0000      -0.933458       -25.4007
  17   2.0000      -0.849033       -23.1034
  18   2.0000      -0.826791       -22.4981
  19   2.0000      -0.767188       -20.8762
  20   2.0000      -0.725688       -19.7470
  21   2.0000      -0.719940       -19.5906
  22   2.0000      -0.694583       -18.9006
  23   2.0000      -0.663645       -18.0587
  24   2.0000      -0.638797       -17.3826
  25   2.0000      -0.600898       -16.3513
  26   2.0000      -0.591326       -16.0908
  27   2.0000      -0.565637       -15.3918
  28   2.0000      -0.544062       -14.8047
  29   2.0000      -0.523815       -14.2537
  30   2.0000      -0.522319       -14.2130
  31   2.0000      -0.493138       -13.4190
  32   2.0000      -0.485449       -13.2097
  33   2.0000      -0.451832       -12.2950
  34   2.0000      -0.373597       -10.1661
  35   2.0000      -0.357468        -9.7272
  36   0.0000       0.019113         0.5201
  37   0.0000       0.025007         0.6805
  38   0.0000       0.031379         0.8539
  39   0.0000       0.040388         1.0990
  40   0.0000       0.042268         1.1502

MULLIKEN ATOMIC CHARGES
-----------------------
   0 C :   -0.303504
   1 C :   -0.402652
   2 C :   -0.440195
   3 C :   -0.341990
   4 C :    0.753616
   5 C :    0.066832
   6 C :   -0.716806
   7 N :    0.750910
   8 O :   -0.648232
   9 O :   -0.618095
  10 H :    0.246257
  11 H :    0.284347
  12 H :    0.242994
  13 H :    0.356294
  14 H :    0.285797
  15 H :    0.195046
  16 H :    0.289380
Sum of atomic charges:   -0.0000000

LOEWDIN ATOMIC CHARGES
----------------------
   0 C :    0.365549
   1 C :    0.364129
   2 C :    0.353661
   3 C :    0.311053
   4 C :   -0.068983
   5 C :   -0.278463
   6 C :    0.892886
   7 N :   -0.823541
   8 O :    0.548172
   9 O :    0.560563
  10 H :   -0.311317
  11 H :   -0.318987
  12 H :   -0.324699
  13 H :   -0.356547
  14 H :   -0.295928
  15 H :   -0.307029
  16 H :   -0.310519

  Mayer bond orders larger than 0.100000
B(  0-C ,  1-C ) :   1.2000 B(  0-C ,  2-C ) :   1.2507 B(  0-C ,  4-C ) :  -0.2843
B(  0-C ,  5-C ) :   0.1060 B(  0-C , 10-H ) :   1.1450 B(  1-C ,  3-C ) :   1.2783
B(  1-C ,  5-C ) :  -0.1731 B(  1-C , 10-H ) :  -0.1083 B(  1-C , 11-H ) :   1.0604
B(  2-C ,  3-C ) :   0.1105 B(  2-C ,  4-C ) :   0.8848 B(  2-C ,  5-C ) :  -0.1441
B(  2-C ,  6-C ) :  -0.1276 B(  2-C , 10-H ) :  -0.1650 B(  2-C , 12-H ) :   1.0351
B(  3-C ,  5-C ) :   1.2194 B(  3-C , 11-H ) :  -0.1247 B(  3-C , 13-H ) :   0.8622
B(  4-C ,  5-C ) :   1.1157 B(  4-C ,  6-C ) :   0.5715 B(  4-C ,  7-N ) :  -0.1132
B(  4-C , 15-H ) :  -0.1044 B(  4-C , 16-H ) :  -0.1076 B(  5-C ,  7-N ) :   0.7578
B(  5-C ,  8-O ) :   0.1088 B(  6-C , 14-H ) :   0.9521 B(  6-C , 15-H ) :   1.0506
B(  6-C , 16-H ) :   0.9966 B(  7-N ,  8-O ) :   1.2353 B(  7-N ,  9-O ) :   1.2151

MP2 TOTAL ENERGY:     -475.340686211 Eh
FINAL SINGLE POINT ENERGY      -475.340686211252

DIPOLE MOMENT
-------------
                                X             Y             Z
Electronic contribution:     -4.95517      -4.48861      -0.30450
Nuclear contribution   :      6.82084       4.84903       0.31534
                        -----------------------------------------
Total Dipole Moment    :      1.86567       0.36042       0.01084
                        -----------------------------------------
Magnitude (a.u.)       :      1.90019
Magnitude (Debye)      :      4.82990

Rotational constants in cm-1:     0.075593     0.041947     0.027621
Rotational constants in MHz :  2266.230310  1257.547886   828.062224

                             ****ORCA TERMINATED NORMALLY****
TOTAL RUN TIME: 0 days 1 hours 12 minutes 32 seconds 762 msec
