                         Program Version 5.0.4 -  RELEASE  -
|  1> !ri-mp2 aug-cc-pvqz aug-cc-pvqz/c tightscf
|  2> %pal nprocs 16 end
|  3>
|  4> * xyz 0 1
|  5> O      1.787242    0.003282   -0.184204
|  6> N      0.624265   -0.739187    0.193069
|  7> N     -1.728663   -0.614242   -0.065776
|  8> N     -0.477517    1.325874    0.083465
|  9> C     -0.595184   -0.035554    0.023160
| 10> H      2.301487    0.044235    0.629806
| 11> H      0.630705   -1.583507   -0.364470
| 12> H     -1.653756   -1.625649   -0.018118
| 13> H     -1.320486    1.821828   -0.150356
| 14> H      0.388624    1.723041   -0.237498
| 15> *
| 16>
| 17>                          ****END OF INPUT****

CARTESIAN COORDINATES (ANGSTROEM)
---------------------------------
  O      1.787242    0.003282   -0.184204
  N      0.624265   -0.739187    0.193069
  N     -1.728663   -0.614242   -0.065776
  N     -0.477517    1.325874    0.083465
  C     -0.595184   -0.035554    0.023160
  H      2.301487    0.044235    0.629806
  H      0.630705   -1.583507   -0.364470
  H     -1.653756   -1.625649   -0.018118
  H     -1.320486    1.821828   -0.150356
  H      0.388624    1.723041   -0.237498

 Total Charge           Charge          ....    0
 Multiplicity           Mult            ....    1
 Number of Electrons    NEL             ....   40
 Basis Dimension        Dim             ....  630

ORBITAL ENERGIES
----------------

  NO   OCC          E(Eh)            E(eV)
   0   2.0000     -20.621599      -561.1422
   1   2.0000     -15.640182      -425.5910
   2   2.0000     -15.571709      -423.7277
   3   2.0000     -15.513468      -422.1429
   4   2.0000     -11.349129      -308.8255
   5   2.0000      -1.439107       -39.1601
   6   2.0000      -1.276492       -34.7351
   7   2.0000      -1.158048       -31.5121
   8   2.0000      -1.103473       -30.0270
   9   2.0000      -0.823919       -22.4200
  10   2.0000      -0.751258       -20.4428
  11   2.0000      -0.725966       -19.7545
  12   2.0000      -0.676574       -18.4105
  13   2.0000      -0.648799       -17.6547
  14   2.0000      -0.621997       -16.9254
  15   2.0000      -0.555600       -15.1186
  16   2.0000      -0.529055       -14.3963
  17   2.0000      -0.446232       -12.1426
  18   2.0000      -0.422204       -11.4888
  19   2.0000      -0.363443        -9.8898
  20   0.0000       0.021847         0.5945
  21   0.0000       0.031773         0.8646
  22   0.0000       0.036410         0.9908
  23   0.0000       0.048899         1.3306
  24   0.0000       0.056717         1.5433

MULLIKEN ATOMIC CHARGES
-----------------------
   0 O :   -0.601787
   1 N :   -0.200218
   2 N :   -0.806140
   3 N :   -0.669130
   4 C :    0.700913
   5 H :    0.351166
   6 H :    0.330682
   7 H :    0.279469
   8 H :    0.279486
   9 H :    0.335559
Sum of atomic charges:   -0.0000000

LOEWDIN ATOMIC CHARGES
----------------------
   0 O :    1.118434
   1 N :    0.584571
   2 N :    0.944814
   3 N :    1.225818
   4 C :   -0.690396
   5 H :   -0.811337
   6 H :   -0.579730
   7 H :   -0.708004
   8 H :   -0.515585
   9 H :   -0.568584

  Mayer bond orders larger than 0.100000
B(  0-O ,  1-N ) :   0.8372 B(  0-O ,  5-H ) :   0.9046 B(  1-N ,  4-C ) :   1.0651
B(  1-N ,  6-H ) :   0.8306 B(  2-N ,  4-C ) :   1.6788 B(  2-N ,  7-H ) :   0.8412
B(  3-N ,  4-C ) :   1.1615 B(  3-N ,  8-H ) :   0.9221 B(  3-N ,  9-H ) :   0.8576

MP2 TOTAL ENERGY:     -280.163012045 Eh
FINAL SINGLE POINT ENERGY      -280.163012044762

DIPOLE MOMENT
-------------
                                X             Y             Z
Electronic contribution:      0.79960      -0.31276       0.08526
Nuclear contribution   :      0.36572       0.38010      -0.14240
                        -----------------------------------------
Total Dipole Moment    :      1.16532       0.06734      -0.05714
                        -----------------------------------------
Magnitude (a.u.)       :      1.16866
Magnitude (Debye)      :      2.97050

Rotational constants in cm-1:     0.330971     0.142720     0.101923
Rotational constants in MHz :  9922.249972  4278.641121  3055.567086

                             ****ORCA TERMINATED NORMALLY****
TOTAL RUN TIME: 0 days 0 hours 7 minutes 40 seconds 808 msec
