                         Program Version 5.0.4 -  RELEASE  -
|  1> !ri-mp2 aug-cc-pvqz aug-cc-pvqz/c tightscf
|  2> %pal nprocs 16 end
|  3>
|  4> * xyz 0 1
|  5> C      0.000000    0.825176    0.000000
|  6> C      1.158271    1.785300    0.000000
|  7> C     -1.007571   -1.801949    0.000000
|  8> N     -1.193183    1.247338    0.000000
|  9> S      0.556958   -0.883144    0.000000
| 10> H      1.784741    1.632779    0.879911
| 11> H      1.784741    1.632779   -0.879911
| 12> H      0.775934    2.802688    0.000000
| 13> H     -0.737538   -2.855412    0.000000
| 14> H     -1.589589   -1.586821   -0.894274
| 15> H     -1.589589   -1.586821    0.894274
| 16> H     -1.891951    0.508598    0.000000
| 17> *
| 18>
| 19>                          ****END OF INPUT****

CARTESIAN COORDINATES (ANGSTROEM)
---------------------------------
  C      0.000000    0.825176    0.000000
  C      1.158271    1.785300    0.000000
  C     -1.007571   -1.801949    0.000000
  N     -1.193183    1.247338    0.000000
  S      0.556958   -0.883144    0.000000
  H      1.784741    1.632779    0.879911
  H      1.784741    1.632779   -0.879911
  H      0.775934    2.802688    0.000000
  H     -0.737538   -2.855412    0.000000
  H     -1.589589   -1.586821   -0.894274
  H     -1.589589   -1.586821    0.894274
  H     -1.891951    0.508598    0.000000

 Total Charge           Charge          ....    0
 Multiplicity           Mult            ....    1
 Number of Electrons    NEL             ....   48
 Basis Dimension        Dim             ....  726

ORBITAL ENERGIES
----------------

  NO   OCC          E(Eh)            E(eV)
   0   2.0000     -91.966516     -2502.5361
   1   2.0000     -15.547273      -423.0628
   2   2.0000     -11.318047      -307.9797
   3   2.0000     -11.267598      -306.6069
   4   2.0000     -11.231002      -305.6111
   5   2.0000      -8.968623      -244.0486
   6   2.0000      -6.650170      -180.9603
   7   2.0000      -6.649077      -180.9306
   8   2.0000      -6.648385      -180.9117
   9   2.0000      -1.223382       -33.2899
  10   2.0000      -1.052331       -28.6354
  11   2.0000      -1.001983       -27.2654
  12   2.0000      -0.889499       -24.2045
  13   2.0000      -0.748045       -20.3553
  14   2.0000      -0.660250       -17.9663
  15   2.0000      -0.610736       -16.6190
  16   2.0000      -0.602054       -16.3827
  17   2.0000      -0.587951       -15.9990
  18   2.0000      -0.570035       -15.5115
  19   2.0000      -0.528189       -14.3728
  20   2.0000      -0.483439       -13.1550
  21   2.0000      -0.456447       -12.4206
  22   2.0000      -0.402665       -10.9571
  23   2.0000      -0.355073        -9.6620
  24   0.0000       0.024306         0.6614
  25   0.0000       0.031616         0.8603
  26   0.0000       0.037103         1.0096
  27   0.0000       0.039382         1.0716
  28   0.0000       0.051055         1.3893

MULLIKEN ATOMIC CHARGES
-----------------------
   0 C :    0.100493
   1 C :   -0.742345
   2 C :   -0.829497
   3 N :   -0.721724
   4 S :    0.205444
   5 H :    0.259757
   6 H :    0.259757
   7 H :    0.327950
   8 H :    0.387712
   9 H :    0.234472
  10 H :    0.234472
  11 H :    0.283509
Sum of atomic charges:    0.0000000

LOEWDIN ATOMIC CHARGES
----------------------
   0 C :   -0.720025
   1 C :    0.761929
   2 C :    0.540644
   3 N :    0.929240
   4 S :    1.318972
   5 H :   -0.315819
   6 H :   -0.315819
   7 H :   -0.328416
   8 H :   -0.389206
   9 H :   -0.364488
  10 H :   -0.364488
  11 H :   -0.752526

  Mayer bond orders larger than 0.100000
B(  0-C ,  1-C ) :   0.8016 B(  0-C ,  3-N ) :   1.6448 B(  0-C ,  4-S ) :   0.8956
B(  1-C ,  5-H ) :   0.9464 B(  1-C ,  6-H ) :   0.9464 B(  1-C ,  7-H ) :   0.9541
B(  2-C ,  4-S ) :   0.9945 B(  2-C ,  8-H ) :   0.8491 B(  2-C ,  9-H ) :   0.9256
B(  2-C , 10-H ) :   0.9256 B(  3-N , 11-H ) :   0.8197

MP2 TOTAL ENERGY:     -570.706130850 Eh
FINAL SINGLE POINT ENERGY      -570.706130850317

DIPOLE MOMENT
-------------
                                X             Y             Z
Electronic contribution:      1.50435      -1.29204      -0.00000
Nuclear contribution   :     -1.50398       0.58884       0.00000
                        -----------------------------------------
Total Dipole Moment    :      0.00037      -0.70320      -0.00000
                        -----------------------------------------
Magnitude (a.u.)       :      0.70320
Magnitude (Debye)      :      1.78740

Rotational constants in cm-1:     0.237028     0.099881     0.072180
Rotational constants in MHz :  7105.907487  2994.364276  2163.887199

                             ****ORCA TERMINATED NORMALLY****
TOTAL RUN TIME: 0 days 0 hours 13 minutes 50 seconds 211 msec
