                         Program Version 5.0.4 -  RELEASE  -
|  1> !ri-mp2 aug-cc-pvqz aug-cc-pvqz/c tightscf
|  2> %pal nprocs 16 end
|  3>
|  4> * xyz 0 1
|  5> F      0.892126   -1.165198   -0.729105
|  6> F      1.581051   -0.215516    1.129974
|  7> O     -2.608785   -0.637675    0.169502
|  8> N     -0.853328    0.946099    0.096004
|  9> C      1.403870   -0.009908   -0.206195
| 10> C      0.452351    1.146753   -0.457655
| 11> C     -1.702891    0.095842    0.092826
| 12> H      2.382805    0.162893   -0.658127
| 13> H      0.888228    2.041357   -0.014086
| 14> H      0.393969    1.304768   -1.537510
| 15> *
| 16>
| 17>                          ****END OF INPUT****

CARTESIAN COORDINATES (ANGSTROEM)
---------------------------------
  F      0.892126   -1.165198   -0.729105
  F      1.581051   -0.215516    1.129974
  O     -2.608785   -0.637675    0.169502
  N     -0.853328    0.946099    0.096004
  C      1.403870   -0.009908   -0.206195
  C      0.452351    1.146753   -0.457655
  C     -1.702891    0.095842    0.092826
  H      2.382805    0.162893   -0.658127
  H      0.888228    2.041357   -0.014086
  H      0.393969    1.304768   -1.537510

 Total Charge           Charge          ....    0
 Multiplicity           Mult            ....    1
 Number of Electrons    NEL             ....   54
 Basis Dimension        Dim             ....  698

ORBITAL ENERGIES
----------------

  NO   OCC          E(Eh)            E(eV)
   0   2.0000     -26.323983      -716.3120
   1   2.0000     -26.321215      -716.2367
   2   2.0000     -20.609609      -560.8160
   3   2.0000     -15.595763      -424.3823
   4   2.0000     -11.428229      -310.9779
   5   2.0000     -11.406225      -310.3792
   6   2.0000     -11.322034      -308.0882
   7   2.0000      -1.673029       -45.5254
   8   2.0000      -1.612002       -43.8648
   9   2.0000      -1.464421       -39.8489
  10   2.0000      -1.288138       -35.0520
  11   2.0000      -1.075788       -29.2737
  12   2.0000      -0.933738       -25.4083
  13   2.0000      -0.800919       -21.7941
  14   2.0000      -0.782306       -21.2876
  15   2.0000      -0.775348       -21.0983
  16   2.0000      -0.734995       -20.0002
  17   2.0000      -0.704222       -19.1628
  18   2.0000      -0.692194       -18.8355
  19   2.0000      -0.663963       -18.0673
  20   2.0000      -0.653950       -17.7949
  21   2.0000      -0.644962       -17.5503
  22   2.0000      -0.615974       -16.7615
  23   2.0000      -0.604411       -16.4469
  24   2.0000      -0.564302       -15.3554
  25   2.0000      -0.454279       -12.3616
  26   2.0000      -0.435777       -11.8581
  27   0.0000       0.018097         0.4924
  28   0.0000       0.034034         0.9261
  29   0.0000       0.034224         0.9313
  30   0.0000       0.049724         1.3531
  31   0.0000       0.068926         1.8756

MULLIKEN ATOMIC CHARGES
-----------------------
   0 F :   -0.675069
   1 F :   -0.662302
   2 O :   -0.634669
   3 N :   -0.731826
   4 C :    0.896283
   5 C :   -0.401784
   6 C :    1.079799
   7 H :    0.438344
   8 H :    0.376203
   9 H :    0.315021
Sum of atomic charges:    0.0000000

LOEWDIN ATOMIC CHARGES
----------------------
   0 F :    0.777204
   1 F :    0.778414
   2 O :    0.600670
   3 N :    0.487602
   4 C :   -1.059510
   5 C :    0.186120
   6 C :   -0.741235
   7 H :   -0.384973
   8 H :   -0.328771
   9 H :   -0.315521

  Mayer bond orders larger than 0.100000
B(  0-F ,  4-C ) :   0.4405 B(  1-F ,  4-C ) :   0.4536 B(  2-O ,  3-N ) :   0.2744
B(  2-O ,  6-C ) :   1.6800 B(  3-N ,  5-C ) :   0.7572 B(  3-N ,  6-C ) :   2.1782
B(  4-C ,  5-C ) :   1.0073 B(  4-C ,  7-H ) :   0.7611 B(  5-C ,  8-H ) :   0.8396
B(  5-C ,  9-H ) :   0.8523

MP2 TOTAL ENERGY:     -445.265441351 Eh
FINAL SINGLE POINT ENERGY      -445.265441351371

DIPOLE MOMENT
-------------
                                X             Y             Z
Electronic contribution:      0.01328      -3.56132       1.67649
Nuclear contribution   :      1.11438       4.61150      -2.46521
                        -----------------------------------------
Total Dipole Moment    :      1.12765       1.05018      -0.78872
                        -----------------------------------------
Magnitude (a.u.)       :      1.73106
Magnitude (Debye)      :      4.40000

Rotational constants in cm-1:     0.156034     0.058145     0.053173
Rotational constants in MHz :  4677.786871  1743.137764  1594.081230

                             ****ORCA TERMINATED NORMALLY****
TOTAL RUN TIME: 0 days 0 hours 9 minutes 20 seconds 584 msec
