                         Program Version 5.0.4 -  RELEASE  -
|  1> !ri-mp2 aug-cc-pvqz aug-cc-pvqz/c tightscf
|  2> %pal nprocs 16 end
|  3>
|  4> * xyz 0 1
|  5> C      2.841297    0.623378   -0.306532
|  6> C      2.814080   -0.667434    0.287849
|  7> C     -2.861574    0.594094    0.254885
|  8> C     -1.540425    1.066662    0.485810
|  9> C     -2.766925   -0.654559   -0.305131
| 10> C      1.541870    1.032508   -0.460978
| 11> C      1.498859   -1.002720    0.481775
| 12> C     -0.682616    0.087435    0.048268
| 13> N     -1.432507   -0.956411   -0.430976
| 14> N      0.716428    0.038300    0.020394
| 15> H      3.714040    1.183550   -0.595045
| 16> H      3.662216   -1.274837    0.553684
| 17> H     -3.776525    1.109760    0.489826
| 18> H     -1.248499    1.997823    0.938908
| 19> H     -3.525636   -1.349731   -0.616531
| 20> H      1.122489    1.926638   -0.885807
| 21> H      1.048662   -1.865483    0.939940
| 22> H     -1.051588   -1.777123   -0.866575
| 23> *
| 24>
| 25>                          ****END OF INPUT****

CARTESIAN COORDINATES (ANGSTROEM)
---------------------------------
  C      2.841297    0.623378   -0.306532
  C      2.814080   -0.667434    0.287849
  C     -2.861574    0.594094    0.254885
  C     -1.540425    1.066662    0.485810
  C     -2.766925   -0.654559   -0.305131
  C      1.541870    1.032508   -0.460978
  C      1.498859   -1.002720    0.481775
  C     -0.682616    0.087435    0.048268
  N     -1.432507   -0.956411   -0.430976
  N      0.716428    0.038300    0.020394
  H      3.714040    1.183550   -0.595045
  H      3.662216   -1.274837    0.553684
  H     -3.776525    1.109760    0.489826
  H     -1.248499    1.997823    0.938908
  H     -3.525636   -1.349731   -0.616531
  H      1.122489    1.926638   -0.885807
  H      1.048662   -1.865483    0.939940
  H     -1.051588   -1.777123   -0.866575

 Total Charge           Charge          ....    0
 Multiplicity           Mult            ....    1
 Number of Electrons    NEL             ....   70
 Basis Dimension        Dim             .... 1168

ORBITAL ENERGIES
----------------

  NO   OCC          E(Eh)            E(eV)
   0   2.0000     -15.618976      -425.0140
   1   2.0000     -15.613119      -424.8546
   2   2.0000     -11.303348      -307.5797
   3   2.0000     -11.258843      -306.3687
   4   2.0000     -11.256826      -306.3138
   5   2.0000     -11.255990      -306.2911
   6   2.0000     -11.218202      -305.2628
   7   2.0000     -11.216689      -305.2216
   8   2.0000     -11.215880      -305.1996
   9   2.0000     -11.213474      -305.1341
  10   2.0000      -1.335721       -36.3468
  11   2.0000      -1.282306       -34.8933
  12   2.0000      -1.079695       -29.3800
  13   2.0000      -1.055988       -28.7349
  14   2.0000      -0.984860       -26.7994
  15   2.0000      -0.965677       -26.2774
  16   2.0000      -0.824432       -22.4339
  17   2.0000      -0.800448       -21.7813
  18   2.0000      -0.787835       -21.4381
  19   2.0000      -0.766214       -20.8497
  20   2.0000      -0.745328       -20.2814
  21   2.0000      -0.664116       -18.0715
  22   2.0000      -0.617632       -16.8066
  23   2.0000      -0.609098       -16.5744
  24   2.0000      -0.595344       -16.2001
  25   2.0000      -0.583523       -15.8785
  26   2.0000      -0.568875       -15.4799
  27   2.0000      -0.553547       -15.0628
  28   2.0000      -0.551833       -15.0162
  29   2.0000      -0.535466       -14.5708
  30   2.0000      -0.534215       -14.5367
  31   2.0000      -0.371377       -10.1057
  32   2.0000      -0.359787        -9.7903
  33   2.0000      -0.306129        -8.3302
  34   2.0000      -0.291437        -7.9304
  35   0.0000       0.022104         0.6015
  36   0.0000       0.029246         0.7958
  37   0.0000       0.029481         0.8022
  38   0.0000       0.035355         0.9621
  39   0.0000       0.039339         1.0705

MULLIKEN ATOMIC CHARGES
-----------------------
   0 C :   -0.369399
   1 C :   -0.398559
   2 C :   -0.240269
   3 C :   -0.724432
   4 C :   -0.595288
   5 C :   -0.466643
   6 C :   -0.367056
   7 C :    1.358306
   8 N :   -0.585647
   9 N :   -0.430019
  10 H :    0.376069
  11 H :    0.354527
  12 H :    0.381363
  13 H :    0.255226
  14 H :    0.424865
  15 H :    0.416823
  16 H :    0.410769
  17 H :    0.199364
Sum of atomic charges:   -0.0000000

LOEWDIN ATOMIC CHARGES
----------------------
   0 C :    0.316582
   1 C :    0.314396
   2 C :    0.314407
   3 C :    0.329245
   4 C :    0.216813
   5 C :    0.196472
   6 C :    0.195414
   7 C :   -0.395199
   8 N :    0.817921
   9 N :    0.356974
  10 H :   -0.330087
  11 H :   -0.329427
  12 H :   -0.330256
  13 H :   -0.316568
  14 H :   -0.309095
  15 H :   -0.301348
  16 H :   -0.303162
  17 H :   -0.443083

  Mayer bond orders larger than 0.100000
B(  0-C ,  1-C ) :   1.2191 B(  0-C ,  5-C ) :   1.4479 B(  0-C ,  6-C ) :  -0.1024
B(  0-C ,  9-N ) :  -0.1835 B(  0-C , 10-H ) :   0.9185 B(  1-C ,  6-C ) :   1.4225
B(  1-C ,  9-N ) :  -0.2056 B(  1-C , 11-H ) :   0.9454 B(  2-C ,  3-C ) :   1.2439
B(  2-C ,  4-C ) :   1.5571 B(  2-C ,  7-C ) :  -0.3942 B(  2-C , 12-H ) :   0.9298
B(  3-C ,  4-C ) :   0.1710 B(  3-C ,  7-C ) :   1.1283 B(  3-C , 13-H ) :   1.0429
B(  4-C ,  7-C ) :  -0.2918 B(  4-C ,  8-N ) :   1.1272 B(  4-C , 14-H ) :   0.8988
B(  5-C ,  6-C ) :   0.1752 B(  5-C ,  7-C ) :  -0.1587 B(  5-C ,  9-N ) :   1.0961
B(  5-C , 15-H ) :   0.8812 B(  6-C ,  7-C ) :  -0.1534 B(  6-C ,  9-N ) :   1.1286
B(  6-C , 16-H ) :   0.8770 B(  7-C ,  8-N ) :   0.6387 B(  7-C ,  9-N ) :   0.7641
B(  8-N , 17-H ) :   1.1068

MP2 TOTAL ENERGY:     -418.428084252 Eh
FINAL SINGLE POINT ENERGY      -418.428084251926

DIPOLE MOMENT
-------------
                                X             Y             Z
Electronic contribution:     -0.24617      -0.45315      -0.21329
Nuclear contribution   :     -0.05873      -0.05450      -0.04378
                        -----------------------------------------
Total Dipole Moment    :     -0.30490      -0.50765      -0.25707
                        -----------------------------------------
Magnitude (a.u.)       :      0.64557
Magnitude (Debye)      :      1.64090

Rotational constants in cm-1:     0.151994     0.028728     0.025588
Rotational constants in MHz :  4556.673479   861.244717   767.109872

                             ****ORCA TERMINATED NORMALLY****
TOTAL RUN TIME: 0 days 1 hours 8 minutes 33 seconds 373 msec
