                         Program Version 5.0.4 -  RELEASE  -
|  1> !ri-mp2 aug-cc-pvqz aug-cc-pvqz/c tightscf
|  2> %pal nprocs 16 end
|  3>
|  4> * xyz 0 1
|  5> O    -0.027776    1.986911   -0.109462
|  6> N     0.447489    0.699855    0.009592
|  7> N     0.482610   -1.505368    0.002437
|  8> N    -2.871050   -0.377420    0.004695
|  9> C    -0.304395   -0.445800   -0.010178
| 10> C     1.764045    0.350395    0.006510
| 11> C     1.757719   -1.024291    0.007880
| 12> C    -1.719987   -0.424794   -0.008428
| 13> H    -0.325015    2.249084    0.774101
| 14> H     2.543576    1.089605   -0.002664
| 15> H     2.606018   -1.686508    0.012487
| 16> *
| 17>
| 18>                          ****END OF INPUT****

CARTESIAN COORDINATES (ANGSTROEM)
---------------------------------
  O     -0.027776    1.986911   -0.109462
  N      0.447489    0.699855    0.009592
  N      0.482610   -1.505368    0.002437
  N     -2.871050   -0.377420    0.004695
  C     -0.304395   -0.445800   -0.010178
  C      1.764045    0.350395    0.006510
  C      1.757719   -1.024291    0.007880
  C     -1.719987   -0.424794   -0.008428
  H     -0.325015    2.249084    0.774101
  H      2.543576    1.089605   -0.002664
  H      2.606018   -1.686508    0.012487

 Total Charge           Charge          ....    0
 Multiplicity           Mult            ....    1
 Number of Electrons    NEL             ....   56
 Basis Dimension        Dim             ....  778

ORBITAL ENERGIES
----------------

  NO   OCC          E(Eh)            E(eV)
   0   2.0000     -20.672017      -562.5142
   1   2.0000     -15.716657      -427.6720
   2   2.0000     -15.595183      -424.3665
   3   2.0000     -15.591629      -424.2698
   4   2.0000     -11.354873      -308.9818
   5   2.0000     -11.301254      -307.5228
   6   2.0000     -11.295958      -307.3786
   7   2.0000     -11.278455      -306.9024
   8   2.0000      -1.511333       -41.1255
   9   2.0000      -1.352154       -36.7940
  10   2.0000      -1.240614       -33.7588
  11   2.0000      -1.172298       -31.8998
  12   2.0000      -1.068388       -29.0723
  13   2.0000      -0.897672       -24.4269
  14   2.0000      -0.859338       -23.3838
  15   2.0000      -0.832241       -22.6464
  16   2.0000      -0.744045       -20.2465
  17   2.0000      -0.699699       -19.0398
  18   2.0000      -0.658325       -17.9139
  19   2.0000      -0.630804       -17.1650
  20   2.0000      -0.620189       -16.8762
  21   2.0000      -0.580768       -15.8035
  22   2.0000      -0.575899       -15.6710
  23   2.0000      -0.510240       -13.8843
  24   2.0000      -0.493751       -13.4356
  25   2.0000      -0.475383       -12.9358
  26   2.0000      -0.429186       -11.6787
  27   2.0000      -0.351366        -9.5612
  28   0.0000       0.014798         0.4027
  29   0.0000       0.026457         0.7199
  30   0.0000       0.033915         0.9229
  31   0.0000       0.050846         1.3836
  32   0.0000       0.060124         1.6361

MULLIKEN ATOMIC CHARGES
-----------------------
   0 O :   -0.710544
   1 N :    0.102732
   2 N :   -0.664566
   3 N :   -0.693256
   4 C :    0.406377
   5 C :   -0.265746
   6 C :   -0.232269
   7 C :    0.777020
   8 H :    0.328914
   9 H :    0.467691
  10 H :    0.483646
Sum of atomic charges:   -0.0000000

LOEWDIN ATOMIC CHARGES
----------------------
   0 O :    1.175296
   1 N :    0.004398
   2 N :    0.548718
   3 N :    0.411594
   4 C :   -0.656302
   5 C :    0.187727
   6 C :    0.062666
   7 C :   -0.309849
   8 H :   -0.773164
   9 H :   -0.304909
  10 H :   -0.346174

  Mayer bond orders larger than 0.100000
B(  0-O ,  1-N ) :   0.4701 B(  0-O ,  8-H ) :   0.9147 B(  1-N ,  4-C ) :   1.1034
B(  1-N ,  5-C ) :   1.1569 B(  2-N ,  4-C ) :   1.3063 B(  2-N ,  6-C ) :   1.0729
B(  3-N ,  7-C ) :   2.3852 B(  4-C ,  7-C ) :   1.2109 B(  5-C ,  6-C ) :   1.5108
B(  5-C ,  9-H ) :   0.8231 B(  6-C , 10-H ) :   0.8186

MP2 TOTAL ENERGY:     -393.047622065 Eh
FINAL SINGLE POINT ENERGY      -393.047622065192

DIPOLE MOMENT
-------------
                                X             Y             Z
Electronic contribution:     -2.99478      -0.40464      -0.19501
Nuclear contribution   :      4.63999       1.61638       0.75421
                        -----------------------------------------
Total Dipole Moment    :      1.64520       1.21174       0.55920
                        -----------------------------------------
Magnitude (a.u.)       :      2.11842
Magnitude (Debye)      :      5.38460

Rotational constants in cm-1:     0.127442     0.068318     0.044658
Rotational constants in MHz :  3820.613769  2048.136224  1338.815406

                             ****ORCA TERMINATED NORMALLY****
TOTAL RUN TIME: 0 days 0 hours 18 minutes 33 seconds 789 msec
