                         Program Version 5.0.4 -  RELEASE  -
|  1> !ri-mp2 aug-cc-pvqz aug-cc-pvqz/c tightscf
|  2> %pal nprocs 16 end
|  3>
|  4> * xyz 0 1
|  5> C     0.000000     3.930707   -0.592405
|  6> C     0.000000    -3.930707   -0.592405
|  7> C     0.000000     2.732696    0.357453
|  8> C     0.000000    -2.732696    0.357453
|  9> C     0.000000     1.402662   -0.390073
| 10> C     0.000000    -1.402662   -0.390073
| 11> S     0.000000     0.000000    0.786742
| 12> H    -0.881478     3.925924   -1.236374
| 13> H     0.000000     4.869546   -0.037529
| 14> H     0.881478     3.925924   -1.236374
| 15> H     0.881478    -3.925924   -1.236374
| 16> H     0.000000    -4.869546   -0.037529
| 17> H    -0.881478    -3.925924   -1.236374
| 18> H    -0.875086     2.778860    1.009600
| 19> H     0.875086     2.778860    1.009600
| 20> H     0.875086    -2.778860    1.009600
| 21> H    -0.875086    -2.778860    1.009600
| 22> H    -0.883620     1.324451   -1.026352
| 23> H     0.883620     1.324451   -1.026352
| 24> H     0.883620    -1.324451   -1.026352
| 25> H    -0.883620    -1.324451   -1.026352
| 26> *
| 27>
| 28>                          ****END OF INPUT****

CARTESIAN COORDINATES (ANGSTROEM)
---------------------------------
  C      0.000000    3.930707   -0.592405
  C      0.000000   -3.930707   -0.592405
  C      0.000000    2.732696    0.357453
  C      0.000000   -2.732696    0.357453
  C      0.000000    1.402662   -0.390073
  C      0.000000   -1.402662   -0.390073
  S      0.000000    0.000000    0.786742
  H     -0.881478    3.925924   -1.236374
  H      0.000000    4.869546   -0.037529
  H      0.881478    3.925924   -1.236374
  H      0.881478   -3.925924   -1.236374
  H      0.000000   -4.869546   -0.037529
  H     -0.881478   -3.925924   -1.236374
  H     -0.875086    2.778860    1.009600
  H      0.875086    2.778860    1.009600
  H      0.875086   -2.778860    1.009600
  H     -0.875086   -2.778860    1.009600
  H     -0.883620    1.324451   -1.026352
  H      0.883620    1.324451   -1.026352
  H      0.883620   -1.324451   -1.026352
  H     -0.883620   -1.324451   -1.026352

 Total Charge           Charge          ....    0
 Multiplicity           Mult            ....    1
 Number of Electrons    NEL             ....   66
 Basis Dimension        Dim             .... 1208

ORBITAL ENERGIES
----------------

  NO   OCC          E(Eh)            E(eV)
   0   2.0000     -91.932605     -2501.6134
   1   2.0000     -11.249304      -306.1091
   2   2.0000     -11.249295      -306.1089
   3   2.0000     -11.224995      -305.4476
   4   2.0000     -11.224995      -305.4476
   5   2.0000     -11.215760      -305.1963
   6   2.0000     -11.215760      -305.1963
   7   2.0000      -8.934433      -243.1183
   8   2.0000      -6.615959      -180.0294
   9   2.0000      -6.615133      -180.0069
  10   2.0000      -6.614234      -179.9825
  11   2.0000      -1.091745       -29.7079
  12   2.0000      -1.063727       -28.9455
  13   2.0000      -0.993430       -27.0326
  14   2.0000      -0.928127       -25.2556
  15   2.0000      -0.846523       -23.0351
  16   2.0000      -0.801122       -21.7996
  17   2.0000      -0.783593       -21.3226
  18   2.0000      -0.648618       -17.6498
  19   2.0000      -0.636112       -17.3095
  20   2.0000      -0.589030       -16.0283
  21   2.0000      -0.589029       -16.0283
  22   2.0000      -0.566297       -15.4097
  23   2.0000      -0.562703       -15.3119
  24   2.0000      -0.542490       -14.7619
  25   2.0000      -0.525377       -14.2962
  26   2.0000      -0.497752       -13.5445
  27   2.0000      -0.486477       -13.2377
  28   2.0000      -0.483415       -13.1544
  29   2.0000      -0.476910       -12.9774
  30   2.0000      -0.442261       -12.0345
  31   2.0000      -0.419834       -11.4243
  32   2.0000      -0.330576        -8.9954
  33   0.0000       0.025990         0.7072
  34   0.0000       0.026234         0.7139
  35   0.0000       0.033322         0.9067
  36   0.0000       0.034152         0.9293
  37   0.0000       0.042628         1.1600

MULLIKEN ATOMIC CHARGES
-----------------------
   0 C :   -0.878593
   1 C :   -0.878592
   2 C :   -0.444943
   3 C :   -0.444949
   4 C :   -0.342044
   5 C :   -0.342049
   6 S :   -0.095588
   7 H :    0.237746
   8 H :    0.266961
   9 H :    0.237744
  10 H :    0.237746
  11 H :    0.266959
  12 H :    0.237747
  13 H :    0.246939
  14 H :    0.246952
  15 H :    0.246953
  16 H :    0.246938
  17 H :    0.238522
  18 H :    0.238519
  19 H :    0.238516
  20 H :    0.238517
Sum of atomic charges:   -0.0000000

LOEWDIN ATOMIC CHARGES
----------------------
   0 C :    0.918906
   1 C :    0.918906
   2 C :    0.404213
   3 C :    0.404213
   4 C :    0.147407
   5 C :    0.147407
   6 S :    1.361431
   7 H :   -0.286471
   8 H :   -0.284596
   9 H :   -0.286471
  10 H :   -0.286471
  11 H :   -0.284596
  12 H :   -0.286471
  13 H :   -0.296794
  14 H :   -0.296794
  15 H :   -0.296794
  16 H :   -0.296794
  17 H :   -0.350058
  18 H :   -0.350058
  19 H :   -0.350058
  20 H :   -0.350058

  Mayer bond orders larger than 0.100000
B(  0-C ,  2-C ) :   1.0383 B(  0-C ,  4-C ) :  -0.1154 B(  0-C ,  7-H ) :   0.9412
B(  0-C ,  8-H ) :   1.0067 B(  0-C ,  9-H ) :   0.9412 B(  1-C ,  3-C ) :   1.0383
B(  1-C ,  5-C ) :  -0.1154 B(  1-C , 10-H ) :   0.9411 B(  1-C , 11-H ) :   1.0067
B(  1-C , 12-H ) :   0.9411 B(  2-C ,  4-C ) :   0.8295 B(  2-C , 13-H ) :   0.8716
B(  2-C , 14-H ) :   0.8716 B(  3-C ,  5-C ) :   0.8295 B(  3-C , 15-H ) :   0.8716
B(  3-C , 16-H ) :   0.8716 B(  4-C ,  6-S ) :   0.9002 B(  4-C , 17-H ) :   0.8996
B(  4-C , 18-H ) :   0.8996 B(  5-C ,  6-S ) :   0.9002 B(  5-C , 19-H ) :   0.8996
B(  5-C , 20-H ) :   0.8996

MP2 TOTAL ENERGY:     -634.340646783 Eh
FINAL SINGLE POINT ENERGY      -634.340646782954

DIPOLE MOMENT
-------------
                                X             Y             Z
Electronic contribution:     -0.00000       0.00000       4.70698
Nuclear contribution   :      0.00000       0.00000      -5.35891
                        -----------------------------------------
Total Dipole Moment    :     -0.00000       0.00000      -0.65194
                        -----------------------------------------
Magnitude (a.u.)       :      0.65194
Magnitude (Debye)      :      1.65709

Rotational constants in cm-1:     0.287318     0.022318     0.021198
Rotational constants in MHz :  8613.575677   669.087498   635.488295

                             ****ORCA TERMINATED NORMALLY****
TOTAL RUN TIME: 0 days 0 hours 57 minutes 40 seconds 70 msec
