                         Program Version 5.0.4 -  RELEASE  -
|  1> !ri-mp2 aug-cc-pvqz aug-cc-pvqz/c tightscf
|  2> %pal nprocs 16 end
|  3>
|  4> * xyz 0 1
|  5> C      0.672289   -0.872864        0.000000
|  6> C      0.000000    1.080516        0.000000
|  7> N      1.115151    0.428577        0.000000
|  8> N     -0.618412   -1.018822        0.000000
|  9> O     -1.086341    0.307970        0.000000
| 10> H      1.331150   -1.725351        0.000000
| 11> H     -0.151329    2.147397        0.000000
| 12> *
| 13>
| 14>                          ****END OF INPUT****

CARTESIAN COORDINATES (ANGSTROEM)
---------------------------------
  C      0.672289   -0.872864    0.000000
  C      0.000000    1.080516    0.000000
  N      1.115151    0.428577    0.000000
  N     -0.618412   -1.018822    0.000000
  O     -1.086341    0.307970    0.000000
  H      1.331150   -1.725351    0.000000
  H     -0.151329    2.147397    0.000000

 Total Charge           Charge          ....    0
 Multiplicity           Mult            ....    1
 Number of Electrons    NEL             ....   36
 Basis Dimension        Dim             ....  492

ORBITAL ENERGIES
----------------

  NO   OCC          E(Eh)            E(eV)
   0   2.0000     -20.671111      -562.4895
   1   2.0000     -15.641579      -425.6290
   2   2.0000     -15.588216      -424.1769
   3   2.0000     -11.370372      -309.4035
   4   2.0000     -11.323099      -308.1172
   5   2.0000      -1.533407       -41.7261
   6   2.0000      -1.267904       -34.5014
   7   2.0000      -1.175142       -31.9772
   8   2.0000      -0.879651       -23.9365
   9   2.0000      -0.868479       -23.6325
  10   2.0000      -0.766419       -20.8553
  11   2.0000      -0.691695       -18.8220
  12   2.0000      -0.632475       -17.2105
  13   2.0000      -0.608444       -16.5566
  14   2.0000      -0.536777       -14.6064
  15   2.0000      -0.484910       -13.1951
  16   2.0000      -0.482967       -13.1422
  17   2.0000      -0.421493       -11.4694
  18   0.0000       0.024421         0.6645
  19   0.0000       0.030805         0.8382
  20   0.0000       0.057857         1.5744
  21   0.0000       0.060820         1.6550
  22   0.0000       0.073203         1.9920

MULLIKEN ATOMIC CHARGES
-----------------------
   0 C :   -0.140507
   1 C :    0.116849
   2 N :   -0.520994
   3 N :   -0.213740
   4 O :   -0.557115
   5 H :    0.621385
   6 H :    0.694122
Sum of atomic charges:   -0.0000000

LOEWDIN ATOMIC CHARGES
----------------------
   0 C :   -0.289572
   1 C :   -0.367243
   2 N :    0.525945
   3 N :    0.264205
   4 O :    0.579114
   5 H :   -0.369936
   6 H :   -0.342513

  Mayer bond orders larger than 0.100000
B(  0-C ,  2-N ) :   1.2082 B(  0-C ,  3-N ) :   1.6750 B(  0-C ,  5-H ) :   0.6226
B(  1-C ,  2-N ) :   1.6567 B(  1-C ,  4-O ) :   1.1233 B(  1-C ,  6-H ) :   0.5317
B(  3-N ,  4-O ) :   0.7346

MP2 TOTAL ENERGY:     -261.723487115 Eh
FINAL SINGLE POINT ENERGY      -261.723487114847

DIPOLE MOMENT
-------------
                                X             Y             Z
Electronic contribution:     -0.81871       0.06227       0.00000
Nuclear contribution   :      1.12501       0.40868       0.00000
                        -----------------------------------------
Total Dipole Moment    :      0.30629       0.47095       0.00000
                        -----------------------------------------
Magnitude (a.u.)       :      0.56179
Magnitude (Debye)      :      1.42797

Rotational constants in cm-1:     0.346777     0.339103     0.171448
Rotational constants in MHz : 10396.102765 10166.041653  5139.892590

                             ****ORCA TERMINATED NORMALLY****
TOTAL RUN TIME: 0 days 0 hours 3 minutes 40 seconds 375 msec
