                         Program Version 5.0.4 -  RELEASE  -
|  1> !ri-mp2 aug-cc-pvqz aug-cc-pvqz/c tightscf
|  2> %pal nprocs 16 end
|  3>
|  4> * xyz 0 1
|  5> Cl   -0.676413    1.647673   -0.198839
|  6> O     2.973312   -0.003864   -0.788694
|  7> N     1.171490   -0.909893    0.447772
|  8> N    -2.183834   -1.569197   -1.071477
|  9> C     0.125081   -0.508516    1.336558
| 10> C    -1.098061    0.085661    0.622655
| 11> C    -1.695846   -0.827966   -0.341528
| 12> C     2.065665   -0.383032   -0.161385
| 13> H     0.479121    0.224746    2.062267
| 14> H    -0.217303   -1.388512    1.882361
| 15> H    -1.843922    0.340978    1.373321
| 16> *
| 17>
| 18>                          ****END OF INPUT****

CARTESIAN COORDINATES (ANGSTROEM)
---------------------------------
  Cl    -0.676413    1.647673   -0.198839
  O      2.973312   -0.003864   -0.788694
  N      1.171490   -0.909893    0.447772
  N     -2.183834   -1.569197   -1.071477
  C      0.125081   -0.508516    1.336558
  C     -1.098061    0.085661    0.622655
  C     -1.695846   -0.827966   -0.341528
  C      2.065665   -0.383032   -0.161385
  H      0.479121    0.224746    2.062267
  H     -0.217303   -1.388512    1.882361
  H     -1.843922    0.340978    1.373321

 Total Charge           Charge          ....    0
 Multiplicity           Mult            ....    1
 Number of Electrons    NEL             ....   66
 Basis Dimension        Dim             ....  782

ORBITAL ENERGIES
----------------

  NO   OCC          E(Eh)            E(eV)
   0   2.0000    -104.869400     -2853.6415
   1   2.0000     -20.620798      -561.1204
   2   2.0000     -15.604881      -424.6304
   3   2.0000     -15.597505      -424.4297
   4   2.0000     -11.417033      -310.6733
   5   2.0000     -11.378109      -309.6141
   6   2.0000     -11.341913      -308.6291
   7   2.0000     -11.298064      -307.4360
   8   2.0000     -10.594494      -288.2908
   9   2.0000      -8.061496      -219.3645
  10   2.0000      -8.059658      -219.3145
  11   2.0000      -8.059618      -219.3134
  12   2.0000      -1.475982       -40.1635
  13   2.0000      -1.303030       -35.4573
  14   2.0000      -1.251209       -34.0471
  15   2.0000      -1.184215       -32.2241
  16   2.0000      -1.066600       -29.0237
  17   2.0000      -0.958112       -26.0716
  18   2.0000      -0.796006       -21.6604
  19   2.0000      -0.740476       -20.1494
  20   2.0000      -0.709597       -19.3091
  21   2.0000      -0.695746       -18.9322
  22   2.0000      -0.685345       -18.6492
  23   2.0000      -0.645818       -17.5736
  24   2.0000      -0.631783       -17.1917
  25   2.0000      -0.591863       -16.1054
  26   2.0000      -0.576596       -15.6900
  27   2.0000      -0.502832       -13.6828
  28   2.0000      -0.498200       -13.5567
  29   2.0000      -0.480784       -13.0828
  30   2.0000      -0.476668       -12.9708
  31   2.0000      -0.462200       -12.5771
  32   2.0000      -0.445455       -12.1215
  33   0.0000       0.013881         0.3777
  34   0.0000       0.030765         0.8372
  35   0.0000       0.032860         0.8942
  36   0.0000       0.045175         1.2293
  37   0.0000       0.060284         1.6404

MULLIKEN ATOMIC CHARGES
-----------------------
   0 Cl:   -0.312125
   1 O :   -0.648205
   2 N :   -0.769650
   3 N :   -0.643291
   4 C :   -0.273668
   5 C :   -0.041677
   6 C :    0.452722
   7 C :    1.106274
   8 H :    0.339131
   9 H :    0.373185
  10 H :    0.417304
Sum of atomic charges:   -0.0000000

LOEWDIN ATOMIC CHARGES
----------------------
   0 Cl:    1.204343
   1 O :    0.607485
   2 N :    0.482591
   3 N :    0.424813
   4 C :    0.124366
   5 C :   -0.630664
   6 C :   -0.409922
   7 C :   -0.747744
   8 H :   -0.320315
   9 H :   -0.315063
  10 H :   -0.419889

  Mayer bond orders larger than 0.100000
B(  0-Cl,  5-C ) :   0.7693 B(  1-O ,  2-N ) :   0.2818 B(  1-O ,  7-C ) :   1.6302
B(  2-N ,  4-C ) :   0.7527 B(  2-N ,  7-C ) :   2.1846 B(  3-N ,  6-C ) :   2.5420
B(  4-C ,  5-C ) :   1.0103 B(  4-C ,  8-H ) :   0.8587 B(  4-C ,  9-H ) :   0.8256
B(  5-C ,  6-C ) :   1.0210 B(  5-C , 10-H ) :   0.7678

MP2 TOTAL ENERGY:     -798.169613026 Eh
FINAL SINGLE POINT ENERGY      -798.169613026081

DIPOLE MOMENT
-------------
                                X             Y             Z
Electronic contribution:      0.29743       3.53643      -3.41862
Nuclear contribution   :     -0.54455      -3.03359       5.30468
                        -----------------------------------------
Total Dipole Moment    :     -0.24712       0.50284       1.88606
                        -----------------------------------------
Magnitude (a.u.)       :      1.96752
Magnitude (Debye)      :      5.00103

Rotational constants in cm-1:     0.074881     0.040578     0.033352
Rotational constants in MHz :  2244.866626  1216.504364   999.860818

                             ****ORCA TERMINATED NORMALLY****
TOTAL RUN TIME: 0 days 0 hours 17 minutes 31 seconds 923 msec
