                         Program Version 5.0.4 -  RELEASE  -
|  1> !ri-mp2 aug-cc-pvqz aug-cc-pvqz/c tightscf
|  2> %pal nprocs 16 end
|  3>
|  4> * xyz 0 1
|  5> N     0.000000    1.086138    0.759003
|  6> C     0.000000    0.000000    1.598098
|  7> S     0.000000    0.000000    3.259399
|  8> C     0.000000    0.701967   -0.573500
|  9> C     0.000000    1.422352   -1.756178
| 10> C     0.000000    0.697607   -2.946432
| 11> C     0.000000   -0.697607   -2.946432
| 12> C     0.000000   -1.422352   -1.756178
| 13> C     0.000000   -0.701967   -0.573500
| 14> N     0.000000   -1.086138    0.759003
| 15> H     0.000000    2.023318    1.120645
| 16> H     0.000000    2.503243   -1.758725
| 17> H     0.000000    1.228712   -3.887766
| 18> H     0.000000   -1.228712   -3.887766
| 19> H     0.000000   -2.503243   -1.758725
| 20> H     0.000000   -2.023318    1.120645
| 21> *
| 22>
| 23>                          ****END OF INPUT****

CARTESIAN COORDINATES (ANGSTROEM)
---------------------------------
  N      0.000000    1.086138    0.759003
  C      0.000000    0.000000    1.598098
  S      0.000000    0.000000    3.259399
  C      0.000000    0.701967   -0.573500
  C      0.000000    1.422352   -1.756178
  C      0.000000    0.697607   -2.946432
  C      0.000000   -0.697607   -2.946432
  C      0.000000   -1.422352   -1.756178
  C      0.000000   -0.701967   -0.573500
  N      0.000000   -1.086138    0.759003
  H      0.000000    2.023318    1.120645
  H      0.000000    2.503243   -1.758725
  H      0.000000    1.228712   -3.887766
  H      0.000000   -1.228712   -3.887766
  H      0.000000   -2.503243   -1.758725
  H      0.000000   -2.023318    1.120645

 Total Charge           Charge          ....    0
 Multiplicity           Mult            ....    1
 Number of Electrons    NEL             ....   78
 Basis Dimension        Dim             .... 1080

ORBITAL ENERGIES
----------------

  NO   OCC          E(Eh)            E(eV)
   0   2.0000     -91.893674     -2500.5540
   1   2.0000     -15.631446      -425.3533
   2   2.0000     -15.631418      -425.3525
   3   2.0000     -11.381500      -309.7064
   4   2.0000     -11.301090      -307.5183
   5   2.0000     -11.299903      -307.4860
   6   2.0000     -11.259510      -306.3868
   7   2.0000     -11.259498      -306.3865
   8   2.0000     -11.251779      -306.1765
   9   2.0000     -11.250567      -306.1435
  10   2.0000      -8.897692      -242.1185
  11   2.0000      -6.579602      -179.0401
  12   2.0000      -6.577612      -178.9859
  13   2.0000      -6.577147      -178.9733
  14   2.0000      -1.384321       -37.6693
  15   2.0000      -1.230771       -33.4910
  16   2.0000      -1.170166       -31.8418
  17   2.0000      -1.053549       -28.6685
  18   2.0000      -1.038924       -28.2706
  19   2.0000      -0.958340       -26.0777
  20   2.0000      -0.897579       -24.4244
  21   2.0000      -0.855200       -23.2712
  22   2.0000      -0.830432       -22.5972
  23   2.0000      -0.751014       -20.4361
  24   2.0000      -0.728415       -19.8212
  25   2.0000      -0.685904       -18.6644
  26   2.0000      -0.653593       -17.7852
  27   2.0000      -0.650763       -17.7082
  28   2.0000      -0.634996       -17.2791
  29   2.0000      -0.627637       -17.0789
  30   2.0000      -0.547445       -14.8967
  31   2.0000      -0.527861       -14.3638
  32   2.0000      -0.522014       -14.2047
  33   2.0000      -0.508976       -13.8500
  34   2.0000      -0.495649       -13.4873
  35   2.0000      -0.377820       -10.2810
  36   2.0000      -0.348850        -9.4927
  37   2.0000      -0.329774        -8.9736
  38   2.0000      -0.291984        -7.9453
  39   0.0000       0.018715         0.5093
  40   0.0000       0.021971         0.5979
  41   0.0000       0.028076         0.7640
  42   0.0000       0.038746         1.0543
  43   0.0000       0.048078         1.3083

MULLIKEN ATOMIC CHARGES
-----------------------
   0 N :   -0.398693
   1 C :    0.023425
   2 S :   -0.295142
   3 C :    0.612922
   4 C :   -0.424532
   5 C :   -0.430141
   6 C :   -0.430158
   7 C :   -0.424307
   8 C :    0.612786
   9 N :   -0.398625
  10 H :    0.212618
  11 H :    0.319926
  12 H :    0.243717
  13 H :    0.243728
  14 H :    0.319894
  15 H :    0.212583
Sum of atomic charges:   -0.0000000

LOEWDIN ATOMIC CHARGES
----------------------
   0 N :    0.760599
   1 C :   -1.173553
   2 S :    0.975244
   3 C :   -0.260620
   4 C :    0.384730
   5 C :    0.335873
   6 C :    0.335873
   7 C :    0.384730
   8 C :   -0.260620
   9 N :    0.760599
  10 H :   -0.478839
  11 H :   -0.314932
  12 H :   -0.327656
  13 H :   -0.327656
  14 H :   -0.314932
  15 H :   -0.478839

  Mayer bond orders larger than 0.100000
B(  0-N ,  1-C ) :   1.1305 B(  0-N ,  2-S ) :  -0.1093 B(  0-N ,  3-C ) :   0.6110
B(  0-N ,  4-C ) :  -0.1435 B(  0-N ,  8-C ) :   0.1198 B(  0-N , 10-H ) :   1.0439
B(  1-C ,  2-S ) :   1.4732 B(  1-C ,  9-N ) :   1.1305 B(  2-S ,  9-N ) :  -0.1092
B(  3-C ,  4-C ) :   0.8667 B(  3-C ,  5-C ) :  -0.3586 B(  3-C ,  7-C ) :  -0.1691
B(  3-C ,  8-C ) :   1.4942 B(  3-C ,  9-N ) :   0.1197 B(  3-C , 10-H ) :  -0.1427
B(  4-C ,  5-C ) :   1.3386 B(  4-C ,  7-C ) :   0.1336 B(  4-C ,  8-C ) :  -0.1690
B(  4-C , 11-H ) :   0.9605 B(  4-C , 12-H ) :  -0.1492 B(  5-C ,  6-C ) :   1.2507
B(  5-C , 12-H ) :   1.1312 B(  6-C ,  7-C ) :   1.3385 B(  6-C ,  8-C ) :  -0.3585
B(  6-C , 13-H ) :   1.1312 B(  7-C ,  8-C ) :   0.8666 B(  7-C ,  9-N ) :  -0.1436
B(  7-C , 13-H ) :  -0.1492 B(  7-C , 14-H ) :   0.9606 B(  8-C ,  9-N ) :   0.6112
B(  8-C , 15-H ) :  -0.1427 B(  9-N , 15-H ) :   1.0440

MP2 TOTAL ENERGY:     -776.985580784 Eh
FINAL SINGLE POINT ENERGY      -776.985580783677

DIPOLE MOMENT
-------------
                                X             Y             Z
Electronic contribution:      0.00000       0.00000       6.90624
Nuclear contribution   :      0.00000      -0.00000      -8.91755
                        -----------------------------------------
Total Dipole Moment    :      0.00000       0.00000      -2.01131
                        -----------------------------------------
Magnitude (a.u.)       :      2.01131
Magnitude (Debye)      :      5.11234

Rotational constants in cm-1:     0.130575     0.023523     0.019933
Rotational constants in MHz :  3914.530299   705.214284   597.561756

                             ****ORCA TERMINATED NORMALLY****
TOTAL RUN TIME: 0 days 1 hours 0 minutes 30 seconds 252 msec
