                         Program Version 5.0.4 -  RELEASE  -
|  1> !ri-mp2 aug-cc-pvqz aug-cc-pvqz/c tightscf
|  2> %pal nprocs 16 end
|  3>
|  4> * xyz 0 1
|  5> Cl    0.166446    2.029748   -0.534405
|  6> Cl   -2.226375   -0.504117    0.180096
|  7> N    -0.509875   -0.569838    0.156783
|  8> N     1.549944    0.221170    0.996445
|  9> C     0.208766    0.520260    0.714401
| 10> C     0.106052   -1.471911   -0.652182
| 11> C     1.460676   -1.542010   -0.638384
| 12> C     2.129257   -0.705879    0.304895
| 13> H    -0.325278    0.953353    1.547915
| 14> H    -0.533226   -2.118979   -1.232017
| 15> H     1.984941   -2.262604   -1.244494
| 16> H     3.183372   -0.869602    0.506885
| 17> *
| 18>
| 19>                          ****END OF INPUT****

CARTESIAN COORDINATES (ANGSTROEM)
---------------------------------
  Cl     0.166446    2.029748   -0.534405
  Cl    -2.226375   -0.504117    0.180096
  N     -0.509875   -0.569838    0.156783
  N      1.549944    0.221170    0.996445
  C      0.208766    0.520260    0.714401
  C      0.106052   -1.471911   -0.652182
  C      1.460676   -1.542010   -0.638384
  C      2.129257   -0.705879    0.304895
  H     -0.325278    0.953353    1.547915
  H     -0.533226   -2.118979   -1.232017
  H      1.984941   -2.262604   -1.244494
  H      3.183372   -0.869602    0.506885

 Total Charge           Charge          ....    0
 Multiplicity           Mult            ....    1
 Number of Electrons    NEL             ....   76
 Basis Dimension        Dim             ....  832

ORBITAL ENERGIES
----------------

  NO   OCC          E(Eh)            E(eV)
   0   2.0000    -104.903326     -2854.5646
   1   2.0000    -104.794677     -2851.6081
   2   2.0000     -15.678251      -426.6269
   3   2.0000     -15.574064      -423.7918
   4   2.0000     -11.386933      -309.8542
   5   2.0000     -11.335373      -308.4512
   6   2.0000     -11.312638      -307.8325
   7   2.0000     -11.250625      -306.1451
   8   2.0000     -10.625124      -289.1243
   9   2.0000     -10.520256      -286.2707
  10   2.0000      -8.092393      -220.2052
  11   2.0000      -8.089915      -220.1378
  12   2.0000      -8.089641      -220.1303
  13   2.0000      -7.986968      -217.3364
  14   2.0000      -7.985624      -217.2999
  15   2.0000      -7.985584      -217.2988
  16   2.0000      -1.366157       -37.1750
  17   2.0000      -1.252278       -34.0762
  18   2.0000      -1.126945       -30.6657
  19   2.0000      -1.096069       -29.8256
  20   2.0000      -1.032978       -28.1088
  21   2.0000      -0.926419       -25.2091
  22   2.0000      -0.903619       -24.5887
  23   2.0000      -0.764835       -20.8122
  24   2.0000      -0.729083       -19.8394
  25   2.0000      -0.696271       -18.9465
  26   2.0000      -0.668910       -18.2020
  27   2.0000      -0.634925       -17.2772
  28   2.0000      -0.624910       -17.0047
  29   2.0000      -0.578406       -15.7392
  30   2.0000      -0.545205       -14.8358
  31   2.0000      -0.508341       -13.8327
  32   2.0000      -0.483503       -13.1568
  33   2.0000      -0.457760       -12.4563
  34   2.0000      -0.435040       -11.8380
  35   2.0000      -0.424401       -11.5485
  36   2.0000      -0.418963       -11.4006
  37   2.0000      -0.335354        -9.1255
  38   0.0000       0.019391         0.5277
  39   0.0000       0.027850         0.7578
  40   0.0000       0.034162         0.9296
  41   0.0000       0.042938         1.1684
  42   0.0000       0.051968         1.4141

MULLIKEN ATOMIC CHARGES
-----------------------
   0 Cl:   -0.497527
   1 Cl:   -0.075591
   2 N :   -0.211529
   3 N :   -0.672056
   4 C :    0.447070
   5 C :   -0.242211
   6 C :   -0.332858
   7 C :   -0.163315
   8 H :    0.456224
   9 H :    0.421853
  10 H :    0.380849
  11 H :    0.489090
Sum of atomic charges:   -0.0000000

LOEWDIN ATOMIC CHARGES
----------------------
   0 Cl:    0.863485
   1 Cl:    1.094308
   2 N :   -0.366405
   3 N :    0.516217
   4 C :   -0.977527
   5 C :    0.021623
   6 C :    0.332725
   7 C :    0.038678
   8 H :   -0.491377
   9 H :   -0.346570
  10 H :   -0.343607
  11 H :   -0.341549

  Mayer bond orders larger than 0.100000
B(  0-Cl,  4-C ) :   0.7588 B(  1-Cl,  2-N ) :   0.8207 B(  2-N ,  4-C ) :   1.0209
B(  2-N ,  5-C ) :   1.0867 B(  3-N ,  4-C ) :   0.9329 B(  3-N ,  7-C ) :   1.5462
B(  4-C ,  8-H ) :   0.7687 B(  5-C ,  6-C ) :   1.4563 B(  5-C ,  9-H ) :   0.9379
B(  6-C ,  7-C ) :   1.0255 B(  6-C , 10-H ) :   0.9010 B(  7-C , 11-H ) :   0.8411

MP2 TOTAL ENERGY:    -1183.300978764 Eh
FINAL SINGLE POINT ENERGY     -1183.300978763665

DIPOLE MOMENT
-------------
                                X             Y             Z
Electronic contribution:     -7.03428       4.33558      -0.23267
Nuclear contribution   :      6.86554      -6.12781       0.08692
                        -----------------------------------------
Total Dipole Moment    :     -0.16875      -1.79223      -0.14575
                        -----------------------------------------
Magnitude (a.u.)       :      1.80605
Magnitude (Debye)      :      4.59060

Rotational constants in cm-1:     0.059626     0.047061     0.030957
Rotational constants in MHz :  1787.557231  1410.867086   928.082016

                             ****ORCA TERMINATED NORMALLY****
TOTAL RUN TIME: 0 days 0 hours 26 minutes 17 seconds 636 msec
