                         Program Version 5.0.4 -  RELEASE  -
|  1> !ri-mp2 aug-cc-pvqz aug-cc-pvqz/c tightscf
|  2> %pal nprocs 16 end
|  3>
|  4> * xyz 0 1
|  5> C      0.448354   -0.545579    0.000000
|  6> C     -0.285414   -0.171763    1.270135
|  7> C     -0.285414   -0.171763   -1.270135
|  8> F      0.361469   -0.731547    2.340045
|  9> F     -0.285414    1.179129    1.461730
| 10> F     -0.285414    1.179129   -1.461730
| 11> F      0.361469   -0.731547   -2.340045
| 12> H      0.581940   -1.627632    0.000000
| 13> H      1.431669   -0.074796    0.000000
| 14> H     -1.323885   -0.509706    1.300971
| 15> H     -1.323885   -0.509706   -1.300971
| 16> *
| 17>
| 18>                          ****END OF INPUT****

CARTESIAN COORDINATES (ANGSTROEM)
---------------------------------
  C      0.448354   -0.545579    0.000000
  C     -0.285414   -0.171763    1.270135
  C     -0.285414   -0.171763   -1.270135
  F      0.361469   -0.731547    2.340045
  F     -0.285414    1.179129    1.461730
  F     -0.285414    1.179129   -1.461730
  F      0.361469   -0.731547   -2.340045
  H      0.581940   -1.627632    0.000000
  H      1.431669   -0.074796    0.000000
  H     -1.323885   -0.509706    1.300971
  H     -1.323885   -0.509706   -1.300971

 Total Charge           Charge          ....    0
 Multiplicity           Mult            ....    1
 Number of Electrons    NEL             ....   58
 Basis Dimension        Dim             ....  744

ORBITAL ENERGIES
----------------

  NO   OCC          E(Eh)            E(eV)
   0   2.0000     -26.318414      -716.1605
   1   2.0000     -26.318414      -716.1605
   2   2.0000     -26.316471      -716.1076
   3   2.0000     -26.316470      -716.1075
   4   2.0000     -11.427329      -310.9534
   5   2.0000     -11.427324      -310.9533
   6   2.0000     -11.273051      -306.7553
   7   2.0000      -1.668919       -45.4136
   8   2.0000      -1.665971       -45.3334
   9   2.0000      -1.607677       -43.7471
  10   2.0000      -1.605739       -43.6944
  11   2.0000      -1.110947       -30.2304
  12   2.0000      -0.968894       -26.3650
  13   2.0000      -0.897082       -24.4108
  14   2.0000      -0.799368       -21.7519
  15   2.0000      -0.787874       -21.4391
  16   2.0000      -0.778323       -21.1792
  17   2.0000      -0.768339       -20.9076
  18   2.0000      -0.750407       -20.4196
  19   2.0000      -0.712788       -19.3960
  20   2.0000      -0.678715       -18.4688
  21   2.0000      -0.672910       -18.3108
  22   2.0000      -0.647121       -17.6091
  23   2.0000      -0.644462       -17.5367
  24   2.0000      -0.635646       -17.2968
  25   2.0000      -0.612631       -16.6705
  26   2.0000      -0.587178       -15.9779
  27   2.0000      -0.538331       -14.6487
  28   2.0000      -0.533887       -14.5278
  29   0.0000       0.021851         0.5946
  30   0.0000       0.033330         0.9069
  31   0.0000       0.039012         1.0616
  32   0.0000       0.042131         1.1464
  33   0.0000       0.072962         1.9854

MULLIKEN ATOMIC CHARGES
-----------------------
   0 C :   -0.741167
   1 C :    1.010361
   2 C :    1.010361
   3 F :   -0.689860
   4 F :   -0.656957
   5 F :   -0.656957
   6 F :   -0.689860
   7 H :    0.371003
   8 H :    0.318298
   9 H :    0.362390
  10 H :    0.362390
Sum of atomic charges:   -0.0000000

LOEWDIN ATOMIC CHARGES
----------------------
   0 C :    0.378110
   1 C :   -1.045846
   2 C :   -1.045846
   3 F :    0.776331
   4 F :    0.782008
   5 F :    0.782008
   6 F :    0.776331
   7 H :   -0.315381
   8 H :   -0.311165
   9 H :   -0.388274
  10 H :   -0.388274

  Mayer bond orders larger than 0.100000
B(  0-C ,  1-C ) :   1.0133 B(  0-C ,  2-C ) :   1.0133 B(  0-C ,  7-H ) :   0.8354
B(  0-C ,  8-H ) :   0.8166 B(  1-C ,  3-F ) :   0.4526 B(  1-C ,  4-F ) :   0.4339
B(  1-C ,  9-H ) :   0.8054 B(  2-C ,  5-F ) :   0.4339 B(  2-C ,  6-F ) :   0.4526
B(  2-C , 10-H ) :   0.8054

MP2 TOTAL ENERGY:     -515.571075018 Eh
FINAL SINGLE POINT ENERGY      -515.571075018422

DIPOLE MOMENT
-------------
                                X             Y             Z
Electronic contribution:      0.18856       2.51383       0.00000
Nuclear contribution   :     -0.73620      -3.38440      -0.00000
                        -----------------------------------------
Total Dipole Moment    :     -0.54764      -0.87058       0.00000
                        -----------------------------------------
Magnitude (a.u.)       :      1.02850
Magnitude (Debye)      :      2.61424

Rotational constants in cm-1:     0.170449     0.049379     0.040106
Rotational constants in MHz :  5109.944121  1480.353398  1202.347123

                             ****ORCA TERMINATED NORMALLY****
TOTAL RUN TIME: 0 days 0 hours 13 minutes 43 seconds 822 msec
