                         Program Version 5.0.4 -  RELEASE  -
|  1> !ri-mp2 aug-cc-pvqz aug-cc-pvqz/c tightscf
|  2> %pal nprocs 16 end
|  3>
|  4> * xyz 0 1
|  5> C      1.426873    1.298590    0.000000
|  6> C      0.000000    0.751500    0.000000
|  7> C     -0.052657   -0.779459    0.000000
|  8> N     -1.385423   -1.383272    0.000000
|  9> H      1.978422    0.962964    0.880677
| 10> H      1.978422    0.962964   -0.880677
| 11> H      1.436602    2.389035    0.000000
| 12> H     -0.539820    1.125120   -0.875744
| 13> H     -0.539820    1.125120    0.875744
| 14> H      0.483988   -1.159679    0.873422
| 15> H      0.483988   -1.159679   -0.873422
| 16> H     -1.914561   -1.093363   -0.813803
| 17> H     -1.914561   -1.093363    0.813803
| 18> *
| 19>
| 20>                          ****END OF INPUT****

CARTESIAN COORDINATES (ANGSTROEM)
---------------------------------
  C      1.426873    1.298590    0.000000
  C      0.000000    0.751500    0.000000
  C     -0.052657   -0.779459    0.000000
  N     -1.385423   -1.383272    0.000000
  H      1.978422    0.962964    0.880677
  H      1.978422    0.962964   -0.880677
  H      1.436602    2.389035    0.000000
  H     -0.539820    1.125120   -0.875744
  H     -0.539820    1.125120    0.875744
  H      0.483988   -1.159679    0.873422
  H      0.483988   -1.159679   -0.873422
  H     -1.914561   -1.093363   -0.813803
  H     -1.914561   -1.093363    0.813803

 Total Charge           Charge          ....    0
 Multiplicity           Mult            ....    1
 Number of Electrons    NEL             ....   34
 Basis Dimension        Dim             ....  734

ORBITAL ENERGIES
----------------

  NO   OCC          E(Eh)            E(eV)
   0   2.0000     -15.534543      -422.7164
   1   2.0000     -11.242800      -305.9321
   2   2.0000     -11.217240      -305.2366
   3   2.0000     -11.212990      -305.1210
   4   2.0000      -1.174288       -31.9540
   5   2.0000      -1.036156       -28.1952
   6   2.0000      -0.898354       -24.4454
   7   2.0000      -0.805304       -21.9134
   8   2.0000      -0.674598       -18.3567
   9   2.0000      -0.607306       -16.5256
  10   2.0000      -0.604031       -16.4365
  11   2.0000      -0.561326       -15.2744
  12   2.0000      -0.521767       -14.1980
  13   2.0000      -0.517402       -14.0792
  14   2.0000      -0.486893       -13.2490
  15   2.0000      -0.470595       -12.8055
  16   2.0000      -0.383294       -10.4300
  17   0.0000       0.026427         0.7191
  18   0.0000       0.032920         0.8958
  19   0.0000       0.035318         0.9611
  20   0.0000       0.036756         1.0002
  21   0.0000       0.054200         1.4749

MULLIKEN ATOMIC CHARGES
-----------------------
   0 C :   -0.830270
   1 C :   -0.451731
   2 C :   -0.204589
   3 N :   -0.755366
   4 H :    0.228626
   5 H :    0.228626
   6 H :    0.259580
   7 H :    0.247770
   8 H :    0.247770
   9 H :    0.260122
  10 H :    0.260122
  11 H :    0.254670
  12 H :    0.254670
Sum of atomic charges:   -0.0000000

LOEWDIN ATOMIC CHARGES
----------------------
   0 C :    0.917773
   1 C :    0.499331
   2 C :    0.343826
   3 N :    1.283588
   4 H :   -0.286733
   5 H :   -0.286733
   6 H :   -0.286113
   7 H :   -0.282243
   8 H :   -0.282243
   9 H :   -0.294934
  10 H :   -0.294934
  11 H :   -0.515291
  12 H :   -0.515291

  Mayer bond orders larger than 0.100000
B(  0-C ,  1-C ) :   0.9662 B(  0-C ,  4-H ) :   0.9487 B(  0-C ,  5-H ) :   0.9487
B(  0-C ,  6-H ) :   0.9908 B(  1-C ,  2-C ) :   0.9683 B(  1-C ,  7-H ) :   0.8646
B(  1-C ,  8-H ) :   0.8646 B(  2-C ,  3-N ) :   0.9036 B(  2-C ,  9-H ) :   0.9031
B(  2-C , 10-H ) :   0.9031 B(  3-N , 11-H ) :   0.9011 B(  3-N , 12-H ) :   0.9011

MP2 TOTAL ENERGY:     -174.170805348 Eh
FINAL SINGLE POINT ENERGY      -174.170805347673

DIPOLE MOMENT
-------------
                                X             Y             Z
Electronic contribution:     -1.60430      -1.65369       0.00000
Nuclear contribution   :      1.56042       2.21555       0.00000
                        -----------------------------------------
Total Dipole Moment    :     -0.04388       0.56185       0.00000
                        -----------------------------------------
Magnitude (a.u.)       :      0.56356
Magnitude (Debye)      :      1.43247

Rotational constants in cm-1:     0.832740     0.122296     0.115368
Rotational constants in MHz : 24964.919473  3666.354612  3458.649301

                             ****ORCA TERMINATED NORMALLY****
TOTAL RUN TIME: 0 days 0 hours 12 minutes 26 seconds 648 msec
