                         Program Version 5.0.4 -  RELEASE  -
|  1> !ri-mp2 aug-cc-pvqz aug-cc-pvqz/c tightscf
|  2> %pal nprocs 16 end
|  3>
|  4> * xyz 0 1
|  5> F    -0.357644   -0.471312    1.292576
|  6> F    -1.367380   -0.721561   -0.632011
|  7> O     0.767788   -0.495627   -0.659306
|  8> O     1.909998    0.165753   -0.077280
|  9> C    -0.382758   -0.035679   -0.006307
| 10> C    -0.624405    1.447497   -0.059329
| 11> H     2.203516   -0.500296    0.562031
| 12> H    -0.689198    1.760727   -1.098748
| 13> H    -1.559522    1.670655    0.449572
| 14> H     0.191108    1.972855    0.428559
| 15> *
| 16>
| 17>                          ****END OF INPUT****

CARTESIAN COORDINATES (ANGSTROEM)
---------------------------------
  F     -0.357644   -0.471312    1.292576
  F     -1.367380   -0.721561   -0.632011
  O      0.767788   -0.495627   -0.659306
  O      1.909998    0.165753   -0.077280
  C     -0.382758   -0.035679   -0.006307
  C     -0.624405    1.447497   -0.059329
  H      2.203516   -0.500296    0.562031
  H     -0.689198    1.760727   -1.098748
  H     -1.559522    1.670655    0.449572
  H      0.191108    1.972855    0.428559

 Total Charge           Charge          ....    0
 Multiplicity           Mult            ....    1
 Number of Electrons    NEL             ....   50
 Basis Dimension        Dim             ....  664

ORBITAL ENERGIES
----------------

  NO   OCC          E(Eh)            E(eV)
   0   2.0000     -26.322877      -716.2819
   1   2.0000     -26.318674      -716.1675
   2   2.0000     -20.658954      -562.1587
   3   2.0000     -20.655830      -562.0737
   4   2.0000     -11.475208      -312.2563
   5   2.0000     -11.247326      -306.0553
   6   2.0000      -1.683844       -45.8197
   7   2.0000      -1.613692       -43.9108
   8   2.0000      -1.510295       -41.0972
   9   2.0000      -1.262642       -34.3582
  10   2.0000      -1.049760       -28.5654
  11   2.0000      -0.893523       -24.3140
  12   2.0000      -0.791054       -21.5257
  13   2.0000      -0.788570       -21.4581
  14   2.0000      -0.763018       -20.7628
  15   2.0000      -0.725051       -19.7296
  16   2.0000      -0.689572       -18.7642
  17   2.0000      -0.662396       -18.0247
  18   2.0000      -0.647500       -17.6194
  19   2.0000      -0.617039       -16.7905
  20   2.0000      -0.594317       -16.1722
  21   2.0000      -0.578464       -15.7408
  22   2.0000      -0.572627       -15.5820
  23   2.0000      -0.522373       -14.2145
  24   2.0000      -0.511259       -13.9121
  25   0.0000       0.025658         0.6982
  26   0.0000       0.033828         0.9205
  27   0.0000       0.042917         1.1678
  28   0.0000       0.045528         1.2389
  29   0.0000       0.066963         1.8222

MULLIKEN ATOMIC CHARGES
-----------------------
   0 F :   -0.653498
   1 F :   -0.666307
   2 O :   -0.368824
   3 O :   -0.407099
   4 C :    1.806375
   5 C :   -0.979996
   6 H :    0.351329
   7 H :    0.291931
   8 H :    0.309969
   9 H :    0.316120
Sum of atomic charges:    0.0000000

LOEWDIN ATOMIC CHARGES
----------------------
   0 F :    0.747844
   1 F :    0.764209
   2 O :    0.476099
   3 O :    0.933310
   4 C :   -1.935928
   5 C :    0.826361
   6 H :   -0.876975
   7 H :   -0.302558
   8 H :   -0.307110
   9 H :   -0.325253

  Mayer bond orders larger than 0.100000
B(  0-F ,  4-C ) :   0.3810 B(  1-F ,  4-C ) :   0.3997 B(  2-O ,  3-O ) :   0.8430
B(  2-O ,  4-C ) :   0.6867 B(  3-O ,  6-H ) :   0.8972 B(  4-C ,  5-C ) :   0.9459
B(  5-C ,  7-H ) :   0.9075 B(  5-C ,  8-H ) :   0.9125 B(  5-C ,  9-H ) :   0.8953

MP2 TOTAL ENERGY:     -428.212758961 Eh
FINAL SINGLE POINT ENERGY      -428.212758961487

DIPOLE MOMENT
-------------
                                X             Y             Z
Electronic contribution:     -1.54535      -5.23364       0.68564
Nuclear contribution   :      1.81177       5.81995      -0.30893
                        -----------------------------------------
Total Dipole Moment    :      0.26642       0.58631       0.37671
                        -----------------------------------------
Magnitude (a.u.)       :      0.74609
Magnitude (Debye)      :      1.89641

Rotational constants in cm-1:     0.166444     0.099896     0.097163
Rotational constants in MHz :  4989.856540  2994.800688  2912.874584

                             ****ORCA TERMINATED NORMALLY****
TOTAL RUN TIME: 0 days 0 hours 9 minutes 39 seconds 759 msec
