                         Program Version 5.0.4 -  RELEASE  -
|  1> !ri-mp2 aug-cc-pvqz aug-cc-pvqz/c tightscf
|  2> %pal nprocs 16 end
|  3>
|  4> * xyz 0 1
|  5> Cl    -0.802776    1.542890   -0.140419
|  6> Cl     2.113305   -0.235887   -0.445398
|  7> O     -0.818187   -1.131783   -0.204327
|  8> O     -2.257807   -1.225852   -0.211671
|  9> C     -0.450958   -0.091853    0.628640
| 10> C      1.015455   -0.237799    0.975858
| 11> H     -1.051458   -0.091718    1.536612
| 12> H      1.314562    0.581471    1.620958
| 13> H      1.157889   -1.186487    1.487459
| 14> H     -2.479028   -0.683324   -0.985157
| 15> *
| 16>
| 17>                          ****END OF INPUT****

CARTESIAN COORDINATES (ANGSTROEM)
---------------------------------
  Cl    -0.802776    1.542890   -0.140419
  Cl     2.113305   -0.235887   -0.445398
  O     -0.818187   -1.131783   -0.204327
  O     -2.257807   -1.225852   -0.211671
  C     -0.450958   -0.091853    0.628640
  C      1.015455   -0.237799    0.975858
  H     -1.051458   -0.091718    1.536612
  H      1.314562    0.581471    1.620958
  H      1.157889   -1.186487    1.487459
  H     -2.479028   -0.683324   -0.985157

 Total Charge           Charge          ....    0
 Multiplicity           Mult            ....    1
 Number of Electrons    NEL             ....   66
 Basis Dimension        Dim             ....  672

ORBITAL ENERGIES
----------------

  NO   OCC          E(Eh)            E(eV)
   0   2.0000    -104.838367     -2852.7970
   1   2.0000    -104.837051     -2852.7612
   2   2.0000     -20.662134      -562.2453
   3   2.0000     -20.653114      -561.9998
   4   2.0000     -11.384037      -309.7754
   5   2.0000     -11.322073      -308.0893
   6   2.0000     -10.564025      -287.4617
   7   2.0000     -10.562264      -287.4138
   8   2.0000      -8.030938      -218.5329
   9   2.0000      -8.029411      -218.4914
  10   2.0000      -8.029351      -218.4897
  11   2.0000      -8.029312      -218.4887
  12   2.0000      -8.027586      -218.4417
  13   2.0000      -8.027537      -218.4404
  14   2.0000      -1.519173       -41.3388
  15   2.0000      -1.280021       -34.8311
  16   2.0000      -1.152398       -31.3584
  17   2.0000      -1.111129       -30.2354
  18   2.0000      -0.987514       -26.8716
  19   2.0000      -0.846267       -23.0281
  20   2.0000      -0.768519       -20.9125
  21   2.0000      -0.700370       -19.0580
  22   2.0000      -0.689287       -18.7564
  23   2.0000      -0.659287       -17.9401
  24   2.0000      -0.610602       -16.6153
  25   2.0000      -0.568759       -15.4767
  26   2.0000      -0.552076       -15.0227
  27   2.0000      -0.527264       -14.3476
  28   2.0000      -0.488240       -13.2857
  29   2.0000      -0.467265       -12.7149
  30   2.0000      -0.457314       -12.4442
  31   2.0000      -0.449086       -12.2203
  32   2.0000      -0.444749       -12.1022
  33   0.0000       0.024981         0.6798
  34   0.0000       0.033102         0.9007
  35   0.0000       0.039615         1.0780
  36   0.0000       0.041843         1.1386
  37   0.0000       0.061864         1.6834

MULLIKEN ATOMIC CHARGES
-----------------------
   0 Cl:   -0.339888
   1 Cl:   -0.272427
   2 O :   -0.388136
   3 O :   -0.432829
   4 C :    0.443802
   5 C :   -0.399757
   6 H :    0.410282
   7 H :    0.323944
   8 H :    0.296875
   9 H :    0.358133
Sum of atomic charges:   -0.0000000

LOEWDIN ATOMIC CHARGES
----------------------
   0 Cl:    1.068567
   1 Cl:    1.119400
   2 O :    0.463720
   3 O :    0.935999
   4 C :   -1.085797
   5 C :   -0.298398
   6 H :   -0.454721
   7 H :   -0.432443
   8 H :   -0.411470
   9 H :   -0.904857

  Mayer bond orders larger than 0.100000
B(  0-Cl,  4-C ) :   0.8042 B(  1-Cl,  5-C ) :   0.8687 B(  2-O ,  3-O ) :   0.8463
B(  2-O ,  4-C ) :   0.7756 B(  3-O ,  9-H ) :   0.8856 B(  4-C ,  5-C ) :   0.9347
B(  4-C ,  6-H ) :   0.7537 B(  5-C ,  7-H ) :   0.8936 B(  5-C ,  8-H ) :   0.8604

MP2 TOTAL ENERGY:    -1148.138631555 Eh
FINAL SINGLE POINT ENERGY     -1148.138631554782

DIPOLE MOMENT
-------------
                                X             Y             Z
Electronic contribution:      2.52687       3.14250      -3.50430
Nuclear contribution   :     -2.82196      -3.11126       4.25116
                        -----------------------------------------
Total Dipole Moment    :     -0.29509       0.03124       0.74687
                        -----------------------------------------
Magnitude (a.u.)       :      0.80366
Magnitude (Debye)      :      2.04273

Rotational constants in cm-1:     0.100933     0.050763     0.038970
Rotational constants in MHz :  3025.890594  1521.827922  1168.288785

                             ****ORCA TERMINATED NORMALLY****
TOTAL RUN TIME: 0 days 0 hours 11 minutes 9 seconds 613 msec
