                         Program Version 5.0.4 -  RELEASE  -
|  1> !ri-mp2 aug-cc-pvqz aug-cc-pvqz/c tightscf
|  2> %pal nprocs 16 end
|  3>
|  4> * xyz 0 1
|  5> F      2.238616   -0.469672   -1.083891
|  6> O     -0.514809   -2.003549    0.451487
|  7> O     -1.632764    1.813980   -0.275594
|  8> N     -0.198773    0.275717    0.380007
|  9> N     -0.548484    1.562718    0.217650
| 10> N     -2.134520   -0.747839   -0.527734
| 11> C     -0.963461   -0.934369    0.104720
| 12> C      1.144957    0.122000    0.957118
| 13> C      2.245900    0.443632   -0.031865
| 14> H     -2.462917    0.183522   -0.731508
| 15> H     -2.687718   -1.568038   -0.704569
| 16> H      1.225249   -0.904699    1.298472
| 17> H      1.231055    0.793777    1.810409
| 18> H      2.119544    1.439137   -0.458411
| 19> H      3.215888    0.378152    0.464183
| 20> *
| 21>
| 22>                          ****END OF INPUT****

CARTESIAN COORDINATES (ANGSTROEM)
---------------------------------
  F      2.238616   -0.469672   -1.083891
  O     -0.514809   -2.003549    0.451487
  O     -1.632764    1.813980   -0.275594
  N     -0.198773    0.275717    0.380007
  N     -0.548484    1.562718    0.217650
  N     -2.134520   -0.747839   -0.527734
  C     -0.963461   -0.934369    0.104720
  C      1.144957    0.122000    0.957118
  C      2.245900    0.443632   -0.031865
  H     -2.462917    0.183522   -0.731508
  H     -2.687718   -1.568038   -0.704569
  H      1.225249   -0.904699    1.298472
  H      1.231055    0.793777    1.810409
  H      2.119544    1.439137   -0.458411
  H      3.215888    0.378152    0.464183

 Total Charge           Charge          ....    0
 Multiplicity           Mult            ....    1
 Number of Electrons    NEL             ....   70
 Basis Dimension        Dim             ....  996

ORBITAL ENERGIES
----------------

  NO   OCC          E(Eh)            E(eV)
   0   2.0000     -26.284182      -715.2290
   1   2.0000     -20.622521      -561.1673
   2   2.0000     -20.540489      -558.9351
   3   2.0000     -15.764443      -428.9723
   4   2.0000     -15.662922      -426.2098
   5   2.0000     -15.597055      -424.4175
   6   2.0000     -11.413174      -310.5683
   7   2.0000     -11.325068      -308.1708
   8   2.0000     -11.292231      -307.2772
   9   2.0000      -1.594650       -43.3926
  10   2.0000      -1.548826       -42.1457
  11   2.0000      -1.423726       -38.7416
  12   2.0000      -1.302920       -35.4543
  13   2.0000      -1.236409       -33.6444
  14   2.0000      -1.060504       -28.8578
  15   2.0000      -0.983660       -26.7667
  16   2.0000      -0.899696       -24.4820
  17   2.0000      -0.817781       -22.2530
  18   2.0000      -0.762042       -20.7362
  19   2.0000      -0.759573       -20.6690
  20   2.0000      -0.723022       -19.6744
  21   2.0000      -0.714620       -19.4458
  22   2.0000      -0.690623       -18.7928
  23   2.0000      -0.683234       -18.5917
  24   2.0000      -0.660925       -17.9847
  25   2.0000      -0.648079       -17.6351
  26   2.0000      -0.613676       -16.6990
  27   2.0000      -0.597944       -16.2709
  28   2.0000      -0.585200       -15.9241
  29   2.0000      -0.548363       -14.9217
  30   2.0000      -0.537070       -14.6144
  31   2.0000      -0.480224       -13.0676
  32   2.0000      -0.442217       -12.0333
  33   2.0000      -0.438129       -11.9221
  34   2.0000      -0.431061       -11.7298
  35   0.0000       0.023601         0.6422
  36   0.0000       0.026506         0.7213
  37   0.0000       0.036472         0.9924
  38   0.0000       0.039055         1.0627
  39   0.0000       0.051331         1.3968

MULLIKEN ATOMIC CHARGES
-----------------------
   0 F :   -0.717842
   1 O :   -0.760776
   2 O :   -0.570254
   3 N :   -0.006880
   4 N :    0.138790
   5 N :   -0.716617
   6 C :    1.064799
   7 C :   -0.438512
   8 C :    0.015706
   9 H :    0.362279
  10 H :    0.195731
  11 H :    0.393220
  12 H :    0.375300
  13 H :    0.287875
  14 H :    0.377182
Sum of atomic charges:   -0.0000000

LOEWDIN ATOMIC CHARGES
----------------------
   0 F :    0.772368
   1 O :    0.721402
   2 O :    0.491972
   3 N :    0.147295
   4 N :   -0.079681
   5 N :    1.224759
   6 C :   -0.973606
   7 C :    0.273123
   8 C :   -0.015785
   9 H :   -0.725131
  10 H :   -0.487694
  11 H :   -0.385373
  12 H :   -0.296726
  13 H :   -0.342225
  14 H :   -0.324696

  Mayer bond orders larger than 0.100000
B(  0-F ,  8-C ) :   0.4386 B(  1-O ,  3-N ) :   0.1613 B(  1-O ,  5-N ) :   0.1025
B(  1-O ,  6-C ) :   1.4042 B(  2-O ,  3-N ) :   0.1113 B(  2-O ,  4-N ) :   1.4253
B(  3-N ,  4-N ) :   0.7118 B(  3-N ,  6-C ) :   1.1560 B(  3-N ,  7-C ) :   0.7419
B(  5-N ,  6-C ) :   1.2201 B(  5-N ,  9-H ) :   0.8123 B(  5-N , 10-H ) :   1.0459
B(  7-C ,  8-C ) :   1.0520 B(  7-C , 11-H ) :   0.7817 B(  7-C , 12-H ) :   0.8213
B(  8-C , 13-H ) :   0.8740 B(  8-C , 14-H ) :   0.8600

MP2 TOTAL ENERGY:     -531.743654731 Eh
FINAL SINGLE POINT ENERGY      -531.743654731051

DIPOLE MOMENT
-------------
                                X             Y             Z
Electronic contribution:     -0.41396      -0.16985      -2.21825
Nuclear contribution   :      0.36929       0.76789       2.67819
                        -----------------------------------------
Total Dipole Moment    :     -0.04466       0.59804       0.45994
                        -----------------------------------------
Magnitude (a.u.)       :      0.75577
Magnitude (Debye)      :      1.92101

Rotational constants in cm-1:     0.072220     0.044243     0.032840
Rotational constants in MHz :  2165.099252  1326.357831   984.504128

                             ****ORCA TERMINATED NORMALLY****
TOTAL RUN TIME: 0 days 0 hours 37 minutes 13 seconds 948 msec
