                         Program Version 5.0.4 -  RELEASE  -
|  1> !ri-mp2 aug-cc-pvqz aug-cc-pvqz/c tightscf
|  2> %pal nprocs 16 end
|  3>
|  4> * xyz 0 1
|  5> C      1.056688   -0.825383    0.000000
|  6> C      0.623146    0.625677    0.000000
|  7> Cl    -0.291928   -2.006932    0.000000
|  8> Cl    -0.291928    1.061629    1.479874
|  9> Cl    -0.291928    1.061629   -1.479874
| 10> H      1.650902   -1.016853   -0.889604
| 11> H      1.650902   -1.016853    0.889604
| 12> H      1.507532    1.254404    0.000000
| 13> *
| 14>
| 15>                          ****END OF INPUT****

CARTESIAN COORDINATES (ANGSTROEM)
---------------------------------
  C      1.056688   -0.825383    0.000000
  C      0.623146    0.625677    0.000000
  Cl    -0.291928   -2.006932    0.000000
  Cl    -0.291928    1.061629    1.479874
  Cl    -0.291928    1.061629   -1.479874
  H      1.650902   -1.016853   -0.889604
  H      1.650902   -1.016853    0.889604
  H      1.507532    1.254404    0.000000

 Total Charge           Charge          ....    0
 Multiplicity           Mult            ....    1
 Number of Electrons    NEL             ....   66
 Basis Dimension        Dim             ....  550

ORBITAL ENERGIES
----------------

  NO   OCC          E(Eh)            E(eV)
   0   2.0000    -104.851628     -2853.1579
   1   2.0000    -104.851628     -2853.1579
   2   2.0000    -104.839607     -2852.8307
   3   2.0000     -11.386011      -309.8291
   4   2.0000     -11.326673      -308.2144
   5   2.0000     -10.576992      -287.8146
   6   2.0000     -10.576984      -287.8144
   7   2.0000     -10.564885      -287.4851
   8   2.0000      -8.043995      -218.8882
   9   2.0000      -8.043993      -218.8882
  10   2.0000      -8.042203      -218.8395
  11   2.0000      -8.042203      -218.8395
  12   2.0000      -8.042129      -218.8375
  13   2.0000      -8.042128      -218.8374
  14   2.0000      -8.031963      -218.5608
  15   2.0000      -8.030206      -218.5130
  16   2.0000      -8.030150      -218.5115
  17   2.0000      -1.215007       -33.0620
  18   2.0000      -1.132328       -30.8122
  19   2.0000      -1.098910       -29.9029
  20   2.0000      -0.986626       -26.8475
  21   2.0000      -0.832446       -22.6520
  22   2.0000      -0.686184       -18.6720
  23   2.0000      -0.672555       -18.3012
  24   2.0000      -0.614522       -16.7220
  25   2.0000      -0.564025       -15.3479
  26   2.0000      -0.552125       -15.0241
  27   2.0000      -0.483717       -13.1626
  28   2.0000      -0.477080       -12.9820
  29   2.0000      -0.453748       -12.3471
  30   2.0000      -0.452234       -12.3059
  31   2.0000      -0.451206       -12.2779
  32   2.0000      -0.447313       -12.1720
  33   0.0000       0.022505         0.6124
  34   0.0000       0.038219         1.0400
  35   0.0000       0.038219         1.0400
  36   0.0000       0.051183         1.3928
  37   0.0000       0.067911         1.8479

MULLIKEN ATOMIC CHARGES
-----------------------
   0 C :   -0.292151
   1 C :    0.019178
   2 Cl:   -0.258011
   3 Cl:   -0.248276
   4 Cl:   -0.248276
   5 H :    0.322918
   6 H :    0.322918
   7 H :    0.381700
Sum of atomic charges:   -0.0000000

LOEWDIN ATOMIC CHARGES
----------------------
   0 C :   -0.408160
   1 C :   -1.392296
   2 Cl:    1.102408
   3 Cl:    1.064294
   4 Cl:    1.064294
   5 H :   -0.439007
   6 H :   -0.439007
   7 H :   -0.552526

  Mayer bond orders larger than 0.100000
B(  0-C ,  1-C ) :   0.9782 B(  0-C ,  2-Cl) :   0.8549 B(  0-C ,  5-H ) :   0.8551
B(  0-C ,  6-H ) :   0.8551 B(  1-C ,  3-Cl) :   0.8395 B(  1-C ,  4-Cl) :   0.8395
B(  1-C ,  7-H ) :   0.7719

MP2 TOTAL ENERGY:    -1457.075726101 Eh
FINAL SINGLE POINT ENERGY     -1457.075726101050

DIPOLE MOMENT
-------------
                                X             Y             Z
Electronic contribution:     -4.46762       0.97742      -0.00000
Nuclear contribution   :      5.63275      -0.87872       0.00000
                        -----------------------------------------
Total Dipole Moment    :      1.16512       0.09870      -0.00000
                        -----------------------------------------
Magnitude (a.u.)       :      1.16930
Magnitude (Debye)      :      2.97212

Rotational constants in cm-1:     0.088173     0.061544     0.042517
Rotational constants in MHz :  2643.372794  1845.035594  1274.637498

                             ****ORCA TERMINATED NORMALLY****
TOTAL RUN TIME: 0 days 0 hours 7 minutes 2 seconds 193 msec
