                         Program Version 5.0.4 -  RELEASE  -
|  1> !ri-mp2 aug-cc-pvqz aug-cc-pvqz/c tightscf
|  2> %pal nprocs 16 end
|  3> %maxcore 3800
|  4>
|  5> * xyz 0 1
|  6> C    -2.671994    -0.703009    0.000000
|  7> C    -2.671994     0.703009    0.000000
|  8> C    -1.484704    -1.389843    0.000000
|  9> C    -1.484704     1.389843    0.000000
| 10> C     2.165927    -0.704380    0.000000
| 11> C     2.165927     0.704380    0.000000
| 12> C    -0.238733    -0.715972    0.000000
| 13> C    -0.238733     0.715972    0.000000
| 14> C     1.000485    -1.427436    0.000000
| 15> C     1.000485     1.427436    0.000000
| 16> C     1.037034    -2.932491    0.000000
| 17> C     1.037034     2.932491    0.000000
| 18> H    -3.609860    -1.242469    0.000000
| 19> H    -3.609860     1.242469    0.000000
| 20> H    -1.499421    -2.470177    0.000000
| 21> H    -1.499421     2.470177    0.000000
| 22> H     3.114870    -1.226313    0.000000
| 23> H     3.114870     1.226313    0.000000
| 24> H     2.065976    -3.288434    0.000000
| 25> H     0.540170    -3.350821    0.878303
| 26> H     0.540170    -3.350821   -0.878303
| 27> H     0.540170     3.350821    0.878303
| 28> H     2.065976     3.288434    0.000000
| 29> H     0.540170     3.350821   -0.878303
| 30> *
| 31>
| 32>                          ****END OF INPUT****

CARTESIAN COORDINATES (ANGSTROEM)
---------------------------------
  C     -2.671994   -0.703009    0.000000
  C     -2.671994    0.703009    0.000000
  C     -1.484704   -1.389843    0.000000
  C     -1.484704    1.389843    0.000000
  C      2.165927   -0.704380    0.000000
  C      2.165927    0.704380    0.000000
  C     -0.238733   -0.715972    0.000000
  C     -0.238733    0.715972    0.000000
  C      1.000485   -1.427436    0.000000
  C      1.000485    1.427436    0.000000
  C      1.037034   -2.932491    0.000000
  C      1.037034    2.932491    0.000000
  H     -3.609860   -1.242469    0.000000
  H     -3.609860    1.242469    0.000000
  H     -1.499421   -2.470177    0.000000
  H     -1.499421    2.470177    0.000000
  H      3.114870   -1.226313    0.000000
  H      3.114870    1.226313    0.000000
  H      2.065976   -3.288434    0.000000
  H      0.540170   -3.350821    0.878303
  H      0.540170   -3.350821   -0.878303
  H      0.540170    3.350821    0.878303
  H      2.065976    3.288434    0.000000
  H      0.540170    3.350821   -0.878303

 Total Charge           Charge          ....    0
 Multiplicity           Mult            ....    1
 Number of Electrons    NEL             ....   84
 Basis Dimension        Dim             .... 1512

ORBITAL ENERGIES
----------------

  NO   OCC          E(Eh)            E(eV)
   0   2.0000     -11.238890      -305.8257
   1   2.0000     -11.238005      -305.8017
   2   2.0000     -11.236875      -305.7709
   3   2.0000     -11.236757      -305.7677
   4   2.0000     -11.232113      -305.6413
   5   2.0000     -11.231416      -305.6224
   6   2.0000     -11.230436      -305.5957
   7   2.0000     -11.230010      -305.5841
   8   2.0000     -11.224986      -305.4474
   9   2.0000     -11.223877      -305.4172
  10   2.0000     -11.221400      -305.3498
  11   2.0000     -11.221400      -305.3498
  12   2.0000      -1.176916       -32.0255
  13   2.0000      -1.112058       -30.2606
  14   2.0000      -1.077492       -29.3200
  15   2.0000      -1.004811       -27.3423
  16   2.0000      -1.000690       -27.2302
  17   2.0000      -0.973836       -26.4994
  18   2.0000      -0.895987       -24.3810
  19   2.0000      -0.844251       -22.9732
  20   2.0000      -0.837630       -22.7931
  21   2.0000      -0.769852       -20.9487
  22   2.0000      -0.701326       -19.0840
  23   2.0000      -0.691669       -18.8213
  24   2.0000      -0.661716       -18.0062
  25   2.0000      -0.624159       -16.9842
  26   2.0000      -0.606683       -16.5087
  27   2.0000      -0.583511       -15.8781
  28   2.0000      -0.580697       -15.8016
  29   2.0000      -0.573804       -15.6140
  30   2.0000      -0.571124       -15.5411
  31   2.0000      -0.549194       -14.9443
  32   2.0000      -0.540696       -14.7131
  33   2.0000      -0.528195       -14.3729
  34   2.0000      -0.518456       -14.1079
  35   2.0000      -0.510534       -13.8923
  36   2.0000      -0.476879       -12.9765
  37   2.0000      -0.464227       -12.6323
  38   2.0000      -0.440354       -11.9827
  39   2.0000      -0.368762       -10.0345
  40   2.0000      -0.317151        -8.6301
  41   2.0000      -0.280436        -7.6310
  42   0.0000       0.025159         0.6846
  43   0.0000       0.025815         0.7025
  44   0.0000       0.026682         0.7261
  45   0.0000       0.036612         0.9963
  46   0.0000       0.037048         1.0081

MULLIKEN ATOMIC CHARGES
-----------------------
   0 C :   -0.434157
   1 C :   -0.433837
   2 C :   -0.563238
   3 C :   -0.563527
   4 C :   -0.569489
   5 C :   -0.569393
   6 C :    1.054724
   7 C :    1.055031
   8 C :    0.147384
   9 C :    0.146963
  10 C :   -0.823168
  11 C :   -0.823141
  12 H :    0.241233
  13 H :    0.241535
  14 H :    0.262969
  15 H :    0.263011
  16 H :    0.132465
  17 H :    0.132467
  18 H :    0.218294
  19 H :    0.166426
  20 H :    0.166423
  21 H :    0.166470
  22 H :    0.218080
  23 H :    0.166475
Sum of atomic charges:    0.0000000

LOEWDIN ATOMIC CHARGES
----------------------
   0 C :    0.362614
   1 C :    0.362614
   2 C :    0.355818
   3 C :    0.355818
   4 C :    0.365396
   5 C :    0.365396
   6 C :   -0.080269
   7 C :   -0.080269
   8 C :   -0.043865
   9 C :   -0.043865
  10 C :    0.899967
  11 C :    0.899967
  12 H :   -0.321904
  13 H :   -0.321904
  14 H :   -0.347925
  15 H :   -0.347925
  16 H :   -0.323510
  17 H :   -0.323510
  18 H :   -0.307534
  19 H :   -0.279394
  20 H :   -0.279394
  21 H :   -0.279394
  22 H :   -0.307534
  23 H :   -0.279394

  Mayer bond orders larger than 0.100000
B(  0-C ,  1-C ) :   1.1661 B(  0-C ,  2-C ) :   1.2578 B(  0-C ,  6-C ) :  -0.2239
B(  0-C ,  7-C ) :   0.1287 B(  0-C , 12-H ) :   1.1653 B(  0-C , 14-H ) :  -0.1138
B(  1-C ,  3-C ) :   1.2584 B(  1-C ,  6-C ) :   0.1290 B(  1-C ,  7-C ) :  -0.2239
B(  1-C , 13-H ) :   1.1648 B(  1-C , 15-H ) :  -0.1136 B(  2-C ,  6-C ) :   0.6986
B(  2-C ,  7-C ) :  -0.2289 B(  2-C ,  8-C ) :  -0.1370 B(  2-C , 12-H ) :  -0.1842
B(  2-C , 14-H ) :   1.0283 B(  3-C ,  6-C ) :  -0.2287 B(  3-C ,  7-C ) :   0.6985
B(  3-C ,  9-C ) :  -0.1371 B(  3-C , 13-H ) :  -0.1839 B(  3-C , 15-H ) :   1.0280
B(  4-C ,  5-C ) :   1.0996 B(  4-C ,  6-C ) :  -0.1823 B(  4-C ,  7-C ) :   0.1031
B(  4-C ,  8-C ) :   1.3803 B(  4-C ,  9-C ) :  -0.1228 B(  4-C , 16-H ) :   1.1858
B(  4-C , 17-H ) :  -0.2237 B(  5-C ,  6-C ) :   0.1027 B(  5-C ,  7-C ) :  -0.1821
B(  5-C ,  8-C ) :  -0.1232 B(  5-C ,  9-C ) :   1.3803 B(  5-C , 16-H ) :  -0.2236
B(  5-C , 17-H ) :   1.1858 B(  6-C ,  7-C ) :   0.3761 B(  6-C ,  8-C ) :   0.1854
B(  6-C ,  9-C ) :  -0.3270 B(  6-C , 10-C ) :  -0.1851 B(  6-C , 14-H ) :  -0.2426
B(  7-C ,  8-C ) :  -0.3267 B(  7-C ,  9-C ) :   0.1854 B(  7-C , 11-C ) :  -0.1852
B(  7-C , 15-H ) :  -0.2422 B(  8-C ,  9-C ) :   0.2558 B(  8-C , 10-C ) :   0.6376
B(  8-C , 14-H ) :   0.1786 B(  8-C , 16-H ) :  -0.1433 B(  8-C , 18-H ) :  -0.1005
B(  8-C , 19-H ) :  -0.1519 B(  8-C , 20-H ) :  -0.1519 B(  9-C , 11-C ) :   0.6378
B(  9-C , 15-H ) :   0.1782 B(  9-C , 17-H ) :  -0.1435 B(  9-C , 21-H ) :  -0.1519
B(  9-C , 22-H ) :  -0.1005 B(  9-C , 23-H ) :  -0.1519 B( 10-C , 18-H ) :   1.0503
B( 10-C , 19-H ) :   1.1052 B( 10-C , 20-H ) :   1.1052 B( 11-C , 21-H ) :   1.1051
B( 11-C , 22-H ) :   1.0506 B( 11-C , 23-H ) :   1.1051

MP2 TOTAL ENERGY:     -463.659342953 Eh
FINAL SINGLE POINT ENERGY      -463.659342953450

DIPOLE MOMENT
-------------
                                X             Y             Z
Electronic contribution:     -2.30125      -0.00000       0.00000
Nuclear contribution   :      2.32638      -0.00000       0.00000
                        -----------------------------------------
Total Dipole Moment    :      0.02512      -0.00000       0.00000
                        -----------------------------------------
Magnitude (a.u.)       :      0.02512
Magnitude (Debye)      :      0.06386

Rotational constants in cm-1:     0.039511     0.037327     0.019331
Rotational constants in MHz :  1184.506011  1119.032012   579.523922

                             ****ORCA TERMINATED NORMALLY****
TOTAL RUN TIME: 0 days 3 hours 28 minutes 50 seconds 978 msec
