                         Program Version 5.0.4 -  RELEASE  -
|  1> !ri-mp2 aug-cc-pvqz aug-cc-pvqz/c tightscf
|  2> %pal nprocs 16 end
|  3>
|  4> * xyz 0 1
|  5> S     -0.941719   -0.587939    0.768936
|  6> S      1.669768    0.756964    0.287950
|  7> N     -3.415090   -0.760915   -0.639976
|  8> N      2.817085   -1.701635   -0.585142
|  9> C     -0.056728    0.618916   -0.342704
| 10> C     -2.408367   -0.687899   -0.075952
| 11> C      2.320508   -0.717745   -0.238832
| 12> C     -0.677159    2.004219   -0.337138
| 13> H     -0.021035    0.185721   -1.337080
| 14> H     -1.717428    1.940023   -0.652532
| 15> H     -0.647908    2.449729    0.656902
| 16> H     -0.145903    2.653030   -1.033882
| 17> *
| 18>
| 19>                          ****END OF INPUT****

CARTESIAN COORDINATES (ANGSTROEM)
---------------------------------
  S     -0.941719   -0.587939    0.768936
  S      1.669768    0.756964    0.287950
  N     -3.415090   -0.760915   -0.639976
  N      2.817085   -1.701635   -0.585142
  C     -0.056728    0.618916   -0.342704
  C     -2.408367   -0.687899   -0.075952
  C      2.320508   -0.717745   -0.238832
  C     -0.677159    2.004219   -0.337138
  H     -0.021035    0.185721   -1.337080
  H     -1.717428    1.940023   -0.652532
  H     -0.647908    2.449729    0.656902
  H     -0.145903    2.653030   -1.033882

 Total Charge           Charge          ....    0
 Multiplicity           Mult            ....    1
 Number of Electrons    NEL             ....   74
 Basis Dimension        Dim             ....  832

ORBITAL ENERGIES
----------------

  NO   OCC          E(Eh)            E(eV)
   0   2.0000     -92.045459     -2504.6843
   1   2.0000     -92.036044     -2504.4281
   2   2.0000     -15.601441      -424.5368
   3   2.0000     -15.597649      -424.4336
   4   2.0000     -11.364942      -309.2558
   5   2.0000     -11.313710      -307.8617
   6   2.0000     -11.310640      -307.7782
   7   2.0000     -11.274348      -306.7906
   8   2.0000      -9.046169      -246.1588
   9   2.0000      -9.036656      -245.8999
  10   2.0000      -6.727782      -183.0722
  11   2.0000      -6.726355      -183.0334
  12   2.0000      -6.725514      -183.0106
  13   2.0000      -6.718213      -182.8119
  14   2.0000      -6.716703      -182.7708
  15   2.0000      -6.715801      -182.7462
  16   2.0000      -1.250369       -34.0243
  17   2.0000      -1.246115       -33.9085
  18   2.0000      -1.166090       -31.7309
  19   2.0000      -1.058194       -28.7949
  20   2.0000      -1.024358       -27.8742
  21   2.0000      -0.873717       -23.7750
  22   2.0000      -0.736340       -20.0368
  23   2.0000      -0.707683       -19.2570
  24   2.0000      -0.645314       -17.5599
  25   2.0000      -0.615790       -16.7565
  26   2.0000      -0.603759       -16.4291
  27   2.0000      -0.580336       -15.7917
  28   2.0000      -0.570816       -15.5327
  29   2.0000      -0.557339       -15.1660
  30   2.0000      -0.548409       -14.9230
  31   2.0000      -0.539031       -14.6678
  32   2.0000      -0.532702       -14.4956
  33   2.0000      -0.483568       -13.1586
  34   2.0000      -0.467358       -12.7174
  35   2.0000      -0.410045       -11.1579
  36   2.0000      -0.404598       -11.0097
  37   0.0000       0.018014         0.4902
  38   0.0000       0.030393         0.8270
  39   0.0000       0.037883         1.0309
  40   0.0000       0.039884         1.0853
  41   0.0000       0.050090         1.3630

MULLIKEN ATOMIC CHARGES
-----------------------
   0 S :    0.450620
   1 S :    0.463374
   2 N :   -0.530072
   3 N :   -0.532235
   4 C :    0.151607
   5 C :   -0.107317
   6 C :   -0.134398
   7 C :   -0.937881
   8 H :    0.299088
   9 H :    0.313034
  10 H :    0.290545
  11 H :    0.273636
Sum of atomic charges:    0.0000000

LOEWDIN ATOMIC CHARGES
----------------------
   0 S :    1.176191
   1 S :    1.174642
   2 N :    0.292235
   3 N :    0.285425
   4 C :   -0.619700
   5 C :   -0.855322
   6 C :   -0.858250
   7 C :    0.753773
   8 H :   -0.433218
   9 H :   -0.315388
  10 H :   -0.307178
  11 H :   -0.293211

  Mayer bond orders larger than 0.100000
B(  0-S ,  4-C ) :   0.7614 B(  0-S ,  5-C ) :   0.9529 B(  1-S ,  4-C ) :   0.7365
B(  1-S ,  6-C ) :   0.9230 B(  2-N ,  5-C ) :   2.5615 B(  3-N ,  6-C ) :   2.5542
B(  4-C ,  7-C ) :   0.8098 B(  4-C ,  8-H ) :   0.8460 B(  7-C ,  9-H ) :   0.9332
B(  7-C , 10-H ) :   0.9355 B(  7-C , 11-H ) :   0.9245

MP2 TOTAL ENERGY:    -1059.334921448 Eh
FINAL SINGLE POINT ENERGY     -1059.334921447519

DIPOLE MOMENT
-------------
                                X             Y             Z
Electronic contribution:      2.73599      -5.22301       2.67020
Nuclear contribution   :     -2.46542       6.94726      -2.31908
                        -----------------------------------------
Total Dipole Moment    :      0.27057       1.72426       0.35112
                        -----------------------------------------
Magnitude (a.u.)       :      1.78032
Magnitude (Debye)      :      4.52522

Rotational constants in cm-1:     0.084816     0.029318     0.024251
Rotational constants in MHz :  2542.709765   878.920708   727.036126

                             ****ORCA TERMINATED NORMALLY****
TOTAL RUN TIME: 0 days 0 hours 23 minutes 37 seconds 254 msec
