                         Program Version 5.0.4 -  RELEASE  -
|  1> !ri-mp2 aug-cc-pvqz aug-cc-pvqz/c tightscf
|  2> %pal nprocs 16 end
|  3>
|  4> * xyz 0 1
|  5> H      1.227612   -0.261128    2.198784
|  6> C      0.724797   -0.096543    1.254344
|  7> H     -1.227612    0.261128    2.198784
|  8> C     -0.724797    0.096543    1.254344
|  9> H     -2.497556    0.149519    0.117407
| 10> C     -1.419944    0.043846    0.113143
| 11> H      2.497556   -0.149519    0.117407
| 12> C      1.419944   -0.043846    0.113143
| 13> H     -1.272086    0.182344   -2.028442
| 14> H     -0.737591   -1.338573   -1.350141
| 15> C     -0.724797   -0.251426   -1.190421
| 16> H      1.272086   -0.182344   -2.028442
| 17> H      0.737591    1.338573   -1.350141
| 18> C      0.724797    0.251426   -1.190421
| 19> *
| 20>
| 21>                          ****END OF INPUT****

CARTESIAN COORDINATES (ANGSTROEM)
---------------------------------
  H      1.227612   -0.261128    2.198784
  C      0.724797   -0.096543    1.254344
  H     -1.227612    0.261128    2.198784
  C     -0.724797    0.096543    1.254344
  H     -2.497556    0.149519    0.117407
  C     -1.419944    0.043846    0.113143
  H      2.497556   -0.149519    0.117407
  C      1.419944   -0.043846    0.113143
  H     -1.272086    0.182344   -2.028442
  H     -0.737591   -1.338573   -1.350141
  C     -0.724797   -0.251426   -1.190421
  H      1.272086   -0.182344   -2.028442
  H      0.737591    1.338573   -1.350141
  C      0.724797    0.251426   -1.190421

 Total Charge           Charge          ....    0
 Multiplicity           Mult            ....    1
 Number of Electrons    NEL             ....   44
 Basis Dimension        Dim             ....  848

ORBITAL ENERGIES
----------------

  NO   OCC          E(Eh)            E(eV)
   0   2.0000     -11.226599      -305.4913
   1   2.0000     -11.226542      -305.4897
   2   2.0000     -11.225647      -305.4654
   3   2.0000     -11.225091      -305.4502
   4   2.0000     -11.222395      -305.3769
   5   2.0000     -11.221597      -305.3552
   6   2.0000      -1.129699       -30.7407
   7   2.0000      -1.008870       -27.4528
   8   2.0000      -1.005162       -27.3519
   9   2.0000      -0.845848       -23.0167
  10   2.0000      -0.802567       -21.8390
  11   2.0000      -0.687240       -18.7008
  12   2.0000      -0.671011       -18.2591
  13   2.0000      -0.608043       -16.5457
  14   2.0000      -0.585619       -15.9355
  15   2.0000      -0.578380       -15.7385
  16   2.0000      -0.544745       -14.8233
  17   2.0000      -0.514392       -13.9973
  18   2.0000      -0.475823       -12.9478
  19   2.0000      -0.455138       -12.3849
  20   2.0000      -0.422728       -11.5030
  21   2.0000      -0.301080        -8.1928
  22   0.0000       0.026778         0.7287
  23   0.0000       0.031283         0.8513
  24   0.0000       0.031318         0.8522
  25   0.0000       0.038635         1.0513
  26   0.0000       0.043486         1.1833

MULLIKEN ATOMIC CHARGES
-----------------------
   0 H :    0.323422
   1 C :   -0.486758
   2 H :    0.323422
   3 C :   -0.486758
   4 H :    0.353396
   5 C :   -0.370942
   6 H :    0.353396
   7 C :   -0.370942
   8 H :    0.229647
   9 H :    0.249690
  10 C :   -0.298454
  11 H :    0.229646
  12 H :    0.249690
  13 C :   -0.298454
Sum of atomic charges:   -0.0000000

LOEWDIN ATOMIC CHARGES
----------------------
   0 H :   -0.335988
   1 C :    0.342798
   2 H :   -0.335988
   3 C :    0.342798
   4 H :   -0.313311
   5 C :    0.381552
   6 H :   -0.313311
   7 C :    0.381552
   8 H :   -0.283033
   9 H :   -0.272444
  10 C :    0.480426
  11 H :   -0.283033
  12 H :   -0.272444
  13 C :    0.480426

  Mayer bond orders larger than 0.100000
B(  0-H ,  1-C ) :   0.9725 B(  1-C ,  3-C ) :   0.9654 B(  1-C ,  7-C ) :   1.6787
B(  2-H ,  3-C ) :   0.9725 B(  3-C ,  5-C ) :   1.6787 B(  4-H ,  5-C ) :   0.9264
B(  5-C , 10-C ) :   0.7946 B(  6-H ,  7-C ) :   0.9264 B(  7-C , 13-C ) :   0.7946
B(  8-H , 10-C ) :   0.9902 B(  9-H , 10-C ) :   0.8611 B( 10-C , 13-C ) :   1.0170
B( 11-H , 13-C ) :   0.9902 B( 12-H , 13-C ) :   0.8611

MP2 TOTAL ENERGY:     -232.968713228 Eh
FINAL SINGLE POINT ENERGY      -232.968713228132

DIPOLE MOMENT
-------------
                                X             Y             Z
Electronic contribution:     -0.00000      -0.00000       1.99093
Nuclear contribution   :      0.00000      -0.00000      -2.19122
                        -----------------------------------------
Total Dipole Moment    :     -0.00000      -0.00000      -0.20029
                        -----------------------------------------
Magnitude (a.u.)       :      0.20029
Magnitude (Debye)      :      0.50908

Rotational constants in cm-1:     0.169771     0.169485     0.089908
Rotational constants in MHz :  5089.616323  5081.027061  2695.367828

                             ****ORCA TERMINATED NORMALLY****
TOTAL RUN TIME: 0 days 0 hours 28 minutes 11 seconds 192 msec
