                         Program Version 5.0.4 -  RELEASE  -
|  1> !ri-mp2 aug-cc-pvqz aug-cc-pvqz/c tightscf
|  2> %pal nprocs 16 end
|  3>
|  4> * xyz 0 1
|  5> S     1.472597     3.116152    0.000000
|  6> S    -1.472597    -3.116152    0.000000
|  7> C     1.472597     1.273536    0.000000
|  8> C    -1.472597    -1.273536    0.000000
|  9> C     0.034763     0.765028    0.000000
| 10> C    -0.034763    -0.765028    0.000000
| 11> H     2.807152     3.283532    0.000000
| 12> H    -2.807152    -3.283532    0.000000
| 13> H    -0.487695     1.156420    0.876726
| 14> H    -0.487695     1.156420   -0.876726
| 15> H     0.487695    -1.156420    0.876726
| 16> H     0.487695    -1.156420   -0.876726
| 17> H    -2.001588    -0.922653   -0.884650
| 18> H    -2.001588    -0.922653    0.884650
| 19> H     2.001588     0.922653   -0.884650
| 20> H     2.001588     0.922653    0.884650
| 21> *
| 22>
| 23>                          ****END OF INPUT****

CARTESIAN COORDINATES (ANGSTROEM)
---------------------------------
  S      1.472597    3.116152    0.000000
  S     -1.472597   -3.116152    0.000000
  C      1.472597    1.273536    0.000000
  C     -1.472597   -1.273536    0.000000
  C      0.034763    0.765028    0.000000
  C     -0.034763   -0.765028    0.000000
  H      2.807152    3.283532    0.000000
  H     -2.807152   -3.283532    0.000000
  H     -0.487695    1.156420    0.876726
  H     -0.487695    1.156420   -0.876726
  H      0.487695   -1.156420    0.876726
  H      0.487695   -1.156420   -0.876726
  H     -2.001588   -0.922653   -0.884650
  H     -2.001588   -0.922653    0.884650
  H      2.001588    0.922653   -0.884650
  H      2.001588    0.922653    0.884650

 Total Charge           Charge          ....    0
 Multiplicity           Mult            ....    1
 Number of Electrons    NEL             ....   66
 Basis Dimension        Dim             ....  948

ORBITAL ENERGIES
----------------

  NO   OCC          E(Eh)            E(eV)
   0   2.0000     -91.951380     -2502.1242
   1   2.0000     -91.951380     -2502.1242
   2   2.0000     -11.265307      -306.5446
   3   2.0000     -11.265305      -306.5445
   4   2.0000     -11.239474      -305.8416
   5   2.0000     -11.238867      -305.8251
   6   2.0000      -8.953521      -243.6377
   7   2.0000      -8.953521      -243.6377
   8   2.0000      -6.635108      -180.5505
   9   2.0000      -6.635108      -180.5505
  10   2.0000      -6.634197      -180.5257
  11   2.0000      -6.634197      -180.5257
  12   2.0000      -6.633265      -180.5003
  13   2.0000      -6.633265      -180.5003
  14   2.0000      -1.110362       -30.2145
  15   2.0000      -1.054768       -28.7017
  16   2.0000      -0.978693       -26.6316
  17   2.0000      -0.899773       -24.4841
  18   2.0000      -0.823222       -22.4010
  19   2.0000      -0.809725       -22.0337
  20   2.0000      -0.672834       -18.3088
  21   2.0000      -0.616657       -16.7801
  22   2.0000      -0.615803       -16.7569
  23   2.0000      -0.579169       -15.7600
  24   2.0000      -0.554892       -15.0994
  25   2.0000      -0.537573       -14.6281
  26   2.0000      -0.510819       -13.9001
  27   2.0000      -0.490785       -13.3549
  28   2.0000      -0.478460       -13.0195
  29   2.0000      -0.454408       -12.3651
  30   2.0000      -0.445073       -12.1110
  31   2.0000      -0.359128        -9.7724
  32   2.0000      -0.358777        -9.7628
  33   0.0000       0.025660         0.6982
  34   0.0000       0.026991         0.7345
  35   0.0000       0.034978         0.9518
  36   0.0000       0.036380         0.9900
  37   0.0000       0.042783         1.1642

MULLIKEN ATOMIC CHARGES
-----------------------
   0 S :   -0.281016
   1 S :   -0.281016
   2 C :   -0.523442
   3 C :   -0.523442
   4 C :   -0.219410
   5 C :   -0.219409
   6 H :    0.011312
   7 H :    0.011312
   8 H :    0.264431
   9 H :    0.264420
  10 H :    0.264431
  11 H :    0.264420
  12 H :    0.241860
  13 H :    0.241845
  14 H :    0.241860
  15 H :    0.241845
Sum of atomic charges:    0.0000000

LOEWDIN ATOMIC CHARGES
----------------------
   0 S :    1.574470
   1 S :    1.574470
   2 C :    0.115415
   3 C :    0.115415
   4 C :    0.393753
   5 C :    0.393753
   6 H :   -0.788050
   7 H :   -0.788050
   8 H :   -0.292689
   9 H :   -0.292689
  10 H :   -0.292689
  11 H :   -0.292689
  12 H :   -0.355105
  13 H :   -0.355105
  14 H :   -0.355105
  15 H :   -0.355105

  Mayer bond orders larger than 0.100000
B(  0-S ,  2-C ) :   0.9556 B(  0-S ,  4-C ) :  -0.2852 B(  0-S ,  6-H ) :   1.0876
B(  1-S ,  3-C ) :   0.9556 B(  1-S ,  5-C ) :  -0.2852 B(  1-S ,  7-H ) :   1.0876
B(  2-C ,  4-C ) :   0.9377 B(  2-C , 14-H ) :   0.9108 B(  2-C , 15-H ) :   0.9108
B(  3-C ,  5-C ) :   0.9377 B(  3-C , 12-H ) :   0.9108 B(  3-C , 13-H ) :   0.9108
B(  4-C ,  5-C ) :   0.9094 B(  4-C ,  8-H ) :   0.8567 B(  4-C ,  9-H ) :   0.8568
B(  5-C , 10-H ) :   0.8567 B(  5-C , 11-H ) :   0.8568

MP2 TOTAL ENERGY:     -953.602526773 Eh
FINAL SINGLE POINT ENERGY      -953.602526773014

DIPOLE MOMENT
-------------
                                X             Y             Z
Electronic contribution:     -0.00000       0.00000      -0.00000
Nuclear contribution   :      0.00000       0.00000       0.00000
                        -----------------------------------------
Total Dipole Moment    :     -0.00000       0.00000      -0.00000
                        -----------------------------------------
Magnitude (a.u.)       :      0.00000
Magnitude (Debye)      :      0.00000

Rotational constants in cm-1:     0.479630     0.018571     0.018119
Rotational constants in MHz : 14378.932993   556.743990   543.197344

                             ****ORCA TERMINATED NORMALLY****
TOTAL RUN TIME: 0 days 0 hours 33 minutes 39 seconds 177 msec
