                         Program Version 5.0.4 -  RELEASE  -
|  1> !ri-mp2 aug-cc-pvqz aug-cc-pvqz/c tightscf
|  2> %pal nprocs 16 end
|  3> %maxcore 3800
|  4>
|  5> * xyz 0 1
|  6> O      1.361068   -2.102147    0.000000
|  7> C      1.045295   -0.935880   -0.000003
|  8> C     -0.368855   -0.479577    0.000039
|  9> C     -0.663338    0.897964    0.000004
| 10> C     -1.998519    1.302976   -0.000021
| 11> C     -3.022439    0.362805   -0.000027
| 12> C     -2.725364   -0.995943   -0.000004
| 13> C     -1.400135   -1.413451    0.000019
| 14> C      0.412017    1.881771    0.000016
| 15> C      1.715208    1.558479    0.000033
| 16> C      2.154699    0.161657    0.000003
| 17> O      3.320597   -0.165604   -0.000046
| 18> H     -2.234107    2.359259   -0.000035
| 19> H     -4.052746    0.691593   -0.000046
| 20> H     -3.523054   -1.725709    0.000000
| 21> H     -1.145325   -2.463972    0.000055
| 22> H      0.118437    2.925051    0.000016
| 23> H      2.492067    2.310977    0.000032
| 24> *
| 25>
| 26>                          ****END OF INPUT****

CARTESIAN COORDINATES (ANGSTROEM)
---------------------------------
  O      1.361068   -2.102147    0.000000
  C      1.045295   -0.935880   -0.000003
  C     -0.368855   -0.479577    0.000039
  C     -0.663338    0.897964    0.000004
  C     -1.998519    1.302976   -0.000021
  C     -3.022439    0.362805   -0.000027
  C     -2.725364   -0.995943   -0.000004
  C     -1.400135   -1.413451    0.000019
  C      0.412017    1.881771    0.000016
  C      1.715208    1.558479    0.000033
  C      2.154699    0.161657    0.000003
  O      3.320597   -0.165604   -0.000046
  H     -2.234107    2.359259   -0.000035
  H     -4.052746    0.691593   -0.000046
  H     -3.523054   -1.725709    0.000000
  H     -1.145325   -2.463972    0.000055
  H      0.118437    2.925051    0.000016
  H      2.492067    2.310977    0.000032

 Total Charge           Charge          ....    0
 Multiplicity           Mult            ....    1
 Number of Electrons    NEL             ....   82
 Basis Dimension        Dim             .... 1236

ORBITAL ENERGIES
----------------

  NO   OCC          E(Eh)            E(eV)
   0   2.0000     -20.569888      -559.7351
   1   2.0000     -20.567457      -559.6690
   2   2.0000     -11.350866      -308.8728
   3   2.0000     -11.346887      -308.7645
   4   2.0000     -11.287368      -307.1449
   5   2.0000     -11.281810      -306.9937
   6   2.0000     -11.269384      -306.6555
   7   2.0000     -11.267698      -306.6096
   8   2.0000     -11.265953      -306.5622
   9   2.0000     -11.265811      -306.5583
  10   2.0000     -11.261438      -306.4393
  11   2.0000     -11.260405      -306.4112
  12   2.0000      -1.421542       -38.6821
  13   2.0000      -1.390799       -37.8456
  14   2.0000      -1.201669       -32.6991
  15   2.0000      -1.126655       -30.6579
  16   2.0000      -1.062271       -28.9059
  17   2.0000      -1.035570       -28.1793
  18   2.0000      -0.959393       -26.1064
  19   2.0000      -0.880060       -23.9477
  20   2.0000      -0.851553       -23.1719
  21   2.0000      -0.825099       -22.4521
  22   2.0000      -0.742811       -20.2129
  23   2.0000      -0.727725       -19.8024
  24   2.0000      -0.703247       -19.1363
  25   2.0000      -0.663566       -18.0565
  26   2.0000      -0.656236       -17.8571
  27   2.0000      -0.639872       -17.4118
  28   2.0000      -0.627366       -17.0715
  29   2.0000      -0.620650       -16.8888
  30   2.0000      -0.599656       -16.3175
  31   2.0000      -0.583146       -15.8682
  32   2.0000      -0.544562       -14.8183
  33   2.0000      -0.539369       -14.6770
  34   2.0000      -0.525296       -14.2940
  35   2.0000      -0.518704       -14.1146
  36   2.0000      -0.488229       -13.2854
  37   2.0000      -0.439649       -11.9635
  38   2.0000      -0.413267       -11.2456
  39   2.0000      -0.367818       -10.0088
  40   2.0000      -0.339233        -9.2310
  41   0.0000       0.003540         0.0963
  42   0.0000       0.015580         0.4240
  43   0.0000       0.021601         0.5878
  44   0.0000       0.029293         0.7971
  45   0.0000       0.038598         1.0503

MULLIKEN ATOMIC CHARGES
-----------------------
   0 O :   -0.793218
   1 C :    1.206433
   2 C :    0.218544
   3 C :    0.653514
   4 C :   -0.399399
   5 C :   -0.427597
   6 C :   -0.421187
   7 C :   -0.371792
   8 C :   -0.572537
   9 C :   -0.648995
  10 C :    0.811775
  11 O :   -0.741145
  12 H :    0.204249
  13 H :    0.257917
  14 H :    0.276319
  15 H :    0.299955
  16 H :    0.175319
  17 H :    0.271845
Sum of atomic charges:    0.0000000

LOEWDIN ATOMIC CHARGES
----------------------
   0 O :    0.731646
   1 C :   -0.688240
   2 C :   -0.136660
   3 C :   -0.114957
   4 C :    0.357177
   5 C :    0.368076
   6 C :    0.374316
   7 C :    0.342272
   8 C :    0.365632
   9 C :    0.339548
  10 C :   -0.707105
  11 O :    0.708104
  12 H :   -0.318347
  13 H :   -0.313667
  14 H :   -0.317257
  15 H :   -0.327588
  16 H :   -0.319237
  17 H :   -0.343713

  Mayer bond orders larger than 0.100000
B(  0-O ,  1-C ) :   0.2743 B(  0-O ,  2-C ) :   0.6328 B(  0-O ,  7-C ) :  -0.1185
B(  0-O , 10-C ) :   0.4433 B(  1-C ,  2-C ) :   0.7367 B(  1-C ,  3-C ) :  -0.3853
B(  1-C ,  7-C ) :  -0.1872 B(  1-C , 10-C ) :   1.3151 B(  1-C , 11-O ) :   0.3336
B(  2-C ,  3-C ) :   0.9609 B(  2-C ,  4-C ) :  -0.2889 B(  2-C ,  6-C ) :  -0.3288
B(  2-C ,  7-C ) :   0.9447 B(  2-C ,  8-C ) :  -0.1729 B(  2-C , 10-C ) :  -0.2589
B(  3-C ,  4-C ) :   0.7209 B(  3-C ,  5-C ) :  -0.2927 B(  3-C ,  7-C ) :  -0.1260
B(  3-C ,  8-C ) :   0.7373 B(  3-C ,  9-C ) :  -0.2304 B(  3-C , 12-H ) :  -0.1848
B(  3-C , 16-H ) :  -0.1454 B(  4-C ,  5-C ) :   1.1785 B(  4-C ,  7-C ) :   0.1263
B(  4-C ,  8-C ) :  -0.1472 B(  4-C , 12-H ) :   1.1196 B(  4-C , 13-H ) :  -0.1844
B(  5-C ,  6-C ) :   1.2983 B(  5-C , 13-H ) :   1.1523 B(  6-C ,  7-C ) :   1.2178
B(  6-C , 14-H ) :   1.0981 B(  7-C , 14-H ) :  -0.1631 B(  7-C , 15-H ) :   0.9192
B(  8-C ,  9-C ) :   1.5499 B(  8-C , 16-H ) :   1.1294 B(  8-C , 17-H ) :  -0.1389
B(  9-C , 10-C ) :   1.1776 B(  9-C , 11-O ) :   0.3861 B(  9-C , 16-H ) :  -0.1476
B(  9-C , 17-H ) :   1.0109 B( 10-C , 11-O ) :   0.5281

MP2 TOTAL ENERGY:     -534.245326118 Eh
FINAL SINGLE POINT ENERGY      -534.245326118324

DIPOLE MOMENT
-------------
                                X             Y             Z
Electronic contribution:      5.80487      -2.44107       0.00001
Nuclear contribution   :     -8.05369       3.95478       0.00002
                        -----------------------------------------
Total Dipole Moment    :     -2.24882       1.51371       0.00003
                        -----------------------------------------
Magnitude (a.u.)       :      2.71081
Magnitude (Debye)      :      6.89034

Rotational constants in cm-1:     0.066628     0.026713     0.019068
Rotational constants in MHz :  1997.467801   800.831442   571.645447

                             ****ORCA TERMINATED NORMALLY****
TOTAL RUN TIME: 0 days 2 hours 5 minutes 8 seconds 300 msec
