                         Program Version 5.0.4 -  RELEASE  -
|  1> !ri-mp2 aug-cc-pvqz aug-cc-pvqz/c tightscf
|  2> %pal nprocs 16 end
|  3>
|  4> * xyz 0 1
|  5> C      0.000000    1.019263        0.000000
|  6> C      1.348969    0.492686        0.000000
|  7> C     -1.138067    0.325279        0.000000
|  8> C      2.440288    1.261794        0.000000
|  9> H     -0.108466    2.099001        0.000000
| 10> H      1.454409   -0.585078        0.000000
| 11> H     -2.111345    0.788809        0.000000
| 12> Cl    -1.232208   -1.416011        0.000000
| 13> H      3.432030    0.832553        0.000000
| 14> H      2.373763    2.342770        0.000000
| 15> *
| 16>
| 17>                          ****END OF INPUT****

CARTESIAN COORDINATES (ANGSTROEM)
---------------------------------
  C      0.000000    1.019263    0.000000
  C      1.348969    0.492686    0.000000
  C     -1.138067    0.325279    0.000000
  C      2.440288    1.261794    0.000000
  H     -0.108466    2.099001    0.000000
  H      1.454409   -0.585078    0.000000
  H     -2.111345    0.788809    0.000000
  Cl    -1.232208   -1.416011    0.000000
  H      3.432030    0.832553    0.000000
  H      2.373763    2.342770    0.000000

 Total Charge           Charge          ....    0
 Multiplicity           Mult            ....    1
 Number of Electrons    NEL             ....   46
 Basis Dimension        Dim             ....  634

ORBITAL ENERGIES
----------------

  NO   OCC          E(Eh)            E(eV)
   0   2.0000    -104.840303     -2852.8497
   1   2.0000     -11.298589      -307.4502
   2   2.0000     -11.254649      -306.2546
   3   2.0000     -11.246245      -306.0259
   4   2.0000     -11.239887      -305.8529
   5   2.0000     -10.565547      -287.5031
   6   2.0000      -8.032671      -218.5801
   7   2.0000      -8.030967      -218.5337
   8   2.0000      -8.030954      -218.5334
   9   2.0000      -1.160491       -31.5786
  10   2.0000      -1.083913       -29.4948
  11   2.0000      -0.994812       -27.0702
  12   2.0000      -0.835014       -22.7219
  13   2.0000      -0.750980       -20.4352
  14   2.0000      -0.681734       -18.5509
  15   2.0000      -0.637798       -17.3554
  16   2.0000      -0.584256       -15.8984
  17   2.0000      -0.554057       -15.0766
  18   2.0000      -0.517429       -14.0800
  19   2.0000      -0.510444       -13.8899
  20   2.0000      -0.452889       -12.3237
  21   2.0000      -0.436492       -11.8775
  22   2.0000      -0.329614        -8.9693
  23   0.0000       0.025648         0.6979
  24   0.0000       0.029250         0.7959
  25   0.0000       0.036229         0.9858
  26   0.0000       0.048788         1.3276
  27   0.0000       0.052785         1.4363

MULLIKEN ATOMIC CHARGES
-----------------------
   0 C :   -0.481833
   1 C :   -0.410596
   2 C :   -0.237977
   3 C :   -0.725354
   4 H :    0.456822
   5 H :    0.487556
   6 H :    0.435717
   7 Cl:   -0.229600
   8 H :    0.313507
   9 H :    0.391757
Sum of atomic charges:    0.0000000

LOEWDIN ATOMIC CHARGES
----------------------
   0 C :    0.161173
   1 C :    0.261861
   2 C :   -0.383283
   3 C :    0.788408
   4 H :   -0.373655
   5 H :   -0.396255
   6 H :   -0.476165
   7 Cl:    1.125952
   8 H :   -0.352589
   9 H :   -0.355446

  Mayer bond orders larger than 0.100000
B(  0-C ,  1-C ) :   0.9202 B(  0-C ,  2-C ) :   1.7250 B(  0-C ,  3-C ) :  -0.1328
B(  0-C ,  4-H ) :   0.7674 B(  1-C ,  2-C ) :  -0.1724 B(  1-C ,  3-C ) :   1.6506
B(  1-C ,  5-H ) :   0.7621 B(  1-C ,  8-H ) :  -0.1006 B(  2-C ,  6-H ) :   0.7875
B(  2-C ,  7-Cl) :   0.8862 B(  3-C ,  8-H ) :   1.0167 B(  3-C ,  9-H ) :   0.8365

MP2 TOTAL ENERGY:     -614.826482172 Eh
FINAL SINGLE POINT ENERGY      -614.826482172130

DIPOLE MOMENT
-------------
                                X             Y             Z
Electronic contribution:     -6.43676      -6.66584       0.00000
Nuclear contribution   :      6.63838       7.32203       0.00000
                        -----------------------------------------
Total Dipole Moment    :      0.20163       0.65619       0.00000
                        -----------------------------------------
Magnitude (a.u.)       :      0.68647
Magnitude (Debye)      :      1.74486

Rotational constants in cm-1:     0.428880     0.063607     0.055392
Rotational constants in MHz : 12857.513416  1906.901362  1660.615081

                             ****ORCA TERMINATED NORMALLY****
TOTAL RUN TIME: 0 days 0 hours 9 minutes 42 seconds 711 msec
