                         Program Version 5.0.4 -  RELEASE  -
|  1> !ri-mp2 aug-cc-pvqz aug-cc-pvqz/c tightscf
|  2> %pal nprocs 16 end
|  3>
|  4> * xyz 0 1
|  5> C     4.257269   -0.037794    0.000030
|  6> C    -3.949908   -0.598011    0.000036
|  7> C     2.887553    0.627975    0.000013
|  8> C    -1.167307   -0.413074   -0.000018
|  9> C     0.091194    0.440608   -0.000020
| 10> S    -2.645575    0.670998   -0.000005
| 11> S     1.568672   -0.643862   -0.000022
| 12> H     4.392436   -0.663324    0.882566
| 13> H     4.392468   -0.663306   -0.882513
| 14> H     5.042030    0.719953    0.000052
| 15> H    -3.889650   -1.219817   -0.891752
| 16> H    -4.901476   -0.070840    0.000059
| 17> H    -3.889600   -1.219808    0.891826
| 18> H     2.763247    1.254670   -0.883576
| 19> H     2.763215    1.254650    0.883612
| 20> H    -1.197075   -1.048863    0.885008
| 21> H    -1.197083   -1.048856   -0.885049
| 22> H     0.119565    1.076575   -0.884964
| 23> H     0.119567    1.076572    0.884926
| 24> *
| 25>
| 26>                          ****END OF INPUT****

CARTESIAN COORDINATES (ANGSTROEM)
---------------------------------
  C      4.257269   -0.037794    0.000030
  C     -3.949908   -0.598011    0.000036
  C      2.887553    0.627975    0.000013
  C     -1.167307   -0.413074   -0.000018
  C      0.091194    0.440608   -0.000020
  S     -2.645575    0.670998   -0.000005
  S      1.568672   -0.643862   -0.000022
  H      4.392436   -0.663324    0.882566
  H      4.392468   -0.663306   -0.882513
  H      5.042030    0.719953    0.000052
  H     -3.889650   -1.219817   -0.891752
  H     -4.901476   -0.070840    0.000059
  H     -3.889600   -1.219808    0.891826
  H      2.763247    1.254670   -0.883576
  H      2.763215    1.254650    0.883612
  H     -1.197075   -1.048863    0.885008
  H     -1.197083   -1.048856   -0.885049
  H      0.119565    1.076575   -0.884964
  H      0.119567    1.076572    0.884926

 Total Charge           Charge          ....    0
 Multiplicity           Mult            ....    1
 Number of Electrons    NEL             ....   74
 Basis Dimension        Dim             .... 1120

ORBITAL ENERGIES
----------------

  NO   OCC          E(Eh)            E(eV)
   0   2.0000     -91.944354     -2501.9331
   1   2.0000     -91.940676     -2501.8330
   2   2.0000     -11.261177      -306.4322
   3   2.0000     -11.260473      -306.4130
   4   2.0000     -11.257470      -306.3313
   5   2.0000     -11.252256      -306.1895
   6   2.0000     -11.223984      -305.4201
   7   2.0000      -8.945828      -243.4284
   8   2.0000      -8.942492      -243.3376
   9   2.0000      -6.627391      -180.3405
  10   2.0000      -6.626504      -180.3163
  11   2.0000      -6.625592      -180.2915
  12   2.0000      -6.624005      -180.2483
  13   2.0000      -6.623158      -180.2253
  14   2.0000      -6.622244      -180.2004
  15   2.0000      -1.099852       -29.9285
  16   2.0000      -1.061109       -28.8742
  17   2.0000      -1.012266       -27.5451
  18   2.0000      -0.934642       -25.4329
  19   2.0000      -0.859013       -23.3749
  20   2.0000      -0.799976       -21.7684
  21   2.0000      -0.791145       -21.5281
  22   2.0000      -0.651328       -17.7235
  23   2.0000      -0.625509       -17.0210
  24   2.0000      -0.605484       -16.4760
  25   2.0000      -0.593035       -16.1373
  26   2.0000      -0.587356       -15.9828
  27   2.0000      -0.561548       -15.2805
  28   2.0000      -0.530473       -14.4349
  29   2.0000      -0.530249       -14.4288
  30   2.0000      -0.525811       -14.3081
  31   2.0000      -0.506411       -13.7801
  32   2.0000      -0.454484       -12.3672
  33   2.0000      -0.431752       -11.7486
  34   2.0000      -0.425402       -11.5758
  35   2.0000      -0.345121        -9.3912
  36   2.0000      -0.333081        -9.0636
  37   0.0000       0.026400         0.7184
  38   0.0000       0.027325         0.7436
  39   0.0000       0.035847         0.9754
  40   0.0000       0.035858         0.9757
  41   0.0000       0.040440         1.1004

MULLIKEN ATOMIC CHARGES
-----------------------
   0 C :   -0.856359
   1 C :   -1.006279
   2 C :   -0.440367
   3 C :   -0.335508
   4 C :   -0.423449
   5 S :   -0.107760
   6 S :   -0.122137
   7 H :    0.241949
   8 H :    0.241950
   9 H :    0.277837
  10 H :    0.272136
  11 H :    0.382240
  12 H :    0.272139
  13 H :    0.258272
  14 H :    0.258273
  15 H :    0.256952
  16 H :    0.256953
  17 H :    0.286578
  18 H :    0.286580
Sum of atomic charges:    0.0000000

LOEWDIN ATOMIC CHARGES
----------------------
   0 C :    0.820925
   1 C :    0.549823
   2 C :    0.146714
   3 C :    0.036576
   4 C :    0.046643
   5 S :    1.301322
   6 S :    1.339474
   7 H :   -0.306376
   8 H :   -0.306376
   9 H :   -0.291734
  10 H :   -0.370522
  11 H :   -0.397184
  12 H :   -0.370524
  13 H :   -0.356071
  14 H :   -0.356072
  15 H :   -0.372624
  16 H :   -0.372621
  17 H :   -0.370686
  18 H :   -0.370688

  Mayer bond orders larger than 0.100000
B(  0-C ,  2-C ) :   0.8651 B(  0-C ,  7-H ) :   0.9575 B(  0-C ,  8-H ) :   0.9575
B(  0-C ,  9-H ) :   0.9710 B(  1-C ,  3-C ) :  -0.1107 B(  1-C ,  5-S ) :   1.1035
B(  1-C , 10-H ) :   0.9147 B(  1-C , 11-H ) :   0.8515 B(  1-C , 12-H ) :   0.9147
B(  2-C ,  6-S ) :   0.9620 B(  2-C , 13-H ) :   0.8765 B(  2-C , 14-H ) :   0.8765
B(  3-C ,  4-C ) :   0.9445 B(  3-C ,  5-S ) :   0.8520 B(  3-C , 15-H ) :   0.8580
B(  3-C , 16-H ) :   0.8580 B(  4-C ,  6-S ) :   0.9168 B(  4-C , 17-H ) :   0.8432
B(  4-C , 18-H ) :   0.8432

MP2 TOTAL ENERGY:     -992.838151245 Eh
FINAL SINGLE POINT ENERGY      -992.838151244533

DIPOLE MOMENT
-------------
                                X             Y             Z
Electronic contribution:     -4.55563       0.57523      -0.00018
Nuclear contribution   :      4.64126      -0.56422       0.00020
                        -----------------------------------------
Total Dipole Moment    :      0.08562       0.01101       0.00002
                        -----------------------------------------
Magnitude (a.u.)       :      0.08633
Magnitude (Debye)      :      0.21943

Rotational constants in cm-1:     0.276937     0.017368     0.016598
Rotational constants in MHz :  8302.365049   520.680924   497.580564

                             ****ORCA TERMINATED NORMALLY****
TOTAL RUN TIME: 0 days 0 hours 45 minutes 17 seconds 3 msec
