                         Program Version 5.0.4 -  RELEASE  -
|  1> !ri-mp2 aug-cc-pvqz aug-cc-pvqz/c tightscf
|  2> %pal nprocs 16 end
|  3>
|  4> * xyz 0 1
|  5> C      0.430741    0.570041    0.000000
|  6> C     -0.305104    0.279695    1.300643
|  7> C     -0.305104    0.279695   -1.300643
|  8> Cl     0.726567    2.382023    0.000000
|  9> Cl    -0.305104   -1.475215   -1.736081
| 10> Cl    -0.305104   -1.475215    1.736081
| 11> H      1.416453    0.115060    0.000000
| 12> H      0.183833    0.788707   -2.122928
| 13> H      0.183833    0.788707    2.122928
| 14> H     -1.342701    0.596935   -1.244192
| 15> H     -1.342701    0.596935    1.244192
| 16> *
| 17>
| 18>                          ****END OF INPUT****

CARTESIAN COORDINATES (ANGSTROEM)
---------------------------------
  C      0.430741    0.570041    0.000000
  C     -0.305104    0.279695    1.300643
  C     -0.305104    0.279695   -1.300643
  Cl     0.726567    2.382023    0.000000
  Cl    -0.305104   -1.475215   -1.736081
  Cl    -0.305104   -1.475215    1.736081
  H      1.416453    0.115060    0.000000
  H      0.183833    0.788707   -2.122928
  H      0.183833    0.788707    2.122928
  H     -1.342701    0.596935   -1.244192
  H     -1.342701    0.596935    1.244192

 Total Charge           Charge          ....    0
 Multiplicity           Mult            ....    1
 Number of Electrons    NEL             ....   74
 Basis Dimension        Dim             ....  722

ORBITAL ENERGIES
----------------

  NO   OCC          E(Eh)            E(eV)
   0   2.0000    -104.846724     -2853.0244
   1   2.0000    -104.835449     -2852.7176
   2   2.0000    -104.835449     -2852.7176
   3   2.0000     -11.338474      -308.5356
   4   2.0000     -11.318956      -308.0044
   5   2.0000     -11.318933      -308.0038
   6   2.0000     -10.572222      -287.6848
   7   2.0000     -10.560827      -287.3747
   8   2.0000     -10.560825      -287.3747
   9   2.0000      -8.039158      -218.7566
  10   2.0000      -8.037556      -218.7130
  11   2.0000      -8.037512      -218.7118
  12   2.0000      -8.027862      -218.4492
  13   2.0000      -8.027862      -218.4492
  14   2.0000      -8.026166      -218.4031
  15   2.0000      -8.026166      -218.4031
  16   2.0000      -8.026119      -218.4018
  17   2.0000      -8.026119      -218.4018
  18   2.0000      -1.197895       -32.5964
  19   2.0000      -1.132820       -30.8256
  20   2.0000      -1.119532       -30.4640
  21   2.0000      -0.998871       -27.1807
  22   2.0000      -0.933501       -25.4018
  23   2.0000      -0.831279       -22.6202
  24   2.0000      -0.694729       -18.9045
  25   2.0000      -0.651922       -17.7397
  26   2.0000      -0.624395       -16.9907
  27   2.0000      -0.586827       -15.9684
  28   2.0000      -0.579566       -15.7708
  29   2.0000      -0.564545       -15.3620
  30   2.0000      -0.512766       -13.9531
  31   2.0000      -0.473268       -12.8783
  32   2.0000      -0.468295       -12.7430
  33   2.0000      -0.460682       -12.5358
  34   2.0000      -0.450140       -12.2489
  35   2.0000      -0.442572       -12.0430
  36   2.0000      -0.427659       -11.6372
  37   0.0000       0.027947         0.7605
  38   0.0000       0.033470         0.9108
  39   0.0000       0.034016         0.9256
  40   0.0000       0.047276         1.2864
  41   0.0000       0.052284         1.4227

MULLIKEN ATOMIC CHARGES
-----------------------
   0 C :    0.270835
   1 C :   -0.409290
   2 C :   -0.409290
   3 Cl:   -0.421971
   4 Cl:   -0.327764
   5 Cl:   -0.327764
   6 H :    0.394143
   7 H :    0.337008
   8 H :    0.337008
   9 H :    0.278543
  10 H :    0.278543
Sum of atomic charges:    0.0000000

LOEWDIN ATOMIC CHARGES
----------------------
   0 C :   -0.700611
   1 C :   -0.273406
   2 C :   -0.273406
   3 Cl:    1.182524
   4 Cl:    1.122781
   5 Cl:    1.122781
   6 H :   -0.436967
   7 H :   -0.454216
   8 H :   -0.454216
   9 H :   -0.417632
  10 H :   -0.417632

  Mayer bond orders larger than 0.100000
B(  0-C ,  1-C ) :   0.8809 B(  0-C ,  2-C ) :   0.8809 B(  0-C ,  3-Cl) :   0.5676
B(  0-C ,  6-H ) :   0.7617 B(  1-C ,  5-Cl) :   0.8041 B(  1-C ,  8-H ) :   0.8766
B(  1-C , 10-H ) :   0.9098 B(  2-C ,  4-Cl) :   0.8041 B(  2-C ,  7-H ) :   0.8766
B(  2-C ,  9-H ) :   0.9098

MP2 TOTAL ENERGY:    -1496.315816655 Eh
FINAL SINGLE POINT ENERGY     -1496.315816654798

DIPOLE MOMENT
-------------
                                X             Y             Z
Electronic contribution:      0.89359      -2.82653      -0.00000
Nuclear contribution   :     -1.00652       3.48739       0.00000
                        -----------------------------------------
Total Dipole Moment    :     -0.11294       0.66086      -0.00000
                        -----------------------------------------
Magnitude (a.u.)       :      0.67044
Magnitude (Debye)      :      1.70411

Rotational constants in cm-1:     0.060754     0.042287     0.025765
Rotational constants in MHz :  1821.350376  1267.740507   772.424780

                             ****ORCA TERMINATED NORMALLY****
TOTAL RUN TIME: 0 days 0 hours 15 minutes 13 seconds 588 msec
