                         Program Version 5.0.4 -  RELEASE  -
|  1> !ri-mp2 aug-cc-pvqz aug-cc-pvqz/c tightscf
|  2> %pal nprocs 16 end
|  3>
|  4> * xyz 0 1
|  5> H      0.649149    1.161865   -2.677287
|  6> H     -0.649149   -1.161865   -2.677287
|  7> S      0.000000    0.000000    2.320077
|  8> C      0.000000    0.000000    0.684261
|  9> S     -0.642955   -1.323450   -0.281165
| 10> S      0.642955    1.323450   -0.281165
| 11> H      1.004355   -1.158971   -2.032629
| 12> C      0.000000   -0.759876   -1.900808
| 13> H     -1.004355    1.158971   -2.032629
| 14> C      0.000000    0.759876   -1.900808
| 15> *
| 16>
| 17>                          ****END OF INPUT****

CARTESIAN COORDINATES (ANGSTROEM)
---------------------------------
  H      0.649149    1.161865   -2.677287
  H     -0.649149   -1.161865   -2.677287
  S      0.000000    0.000000    2.320077
  C      0.000000    0.000000    0.684261
  S     -0.642955   -1.323450   -0.281165
  S      0.642955    1.323450   -0.281165
  H      1.004355   -1.158971   -2.032629
  C      0.000000   -0.759876   -1.900808
  H     -1.004355    1.158971   -2.032629
  C      0.000000    0.759876   -1.900808

 Total Charge           Charge          ....    0
 Multiplicity           Mult            ....    1
 Number of Electrons    NEL             ....   70
 Basis Dimension        Dim             ....  676

ORBITAL ENERGIES
----------------

  NO   OCC          E(Eh)            E(eV)
   0   2.0000     -91.994644     -2503.3015
   1   2.0000     -91.994644     -2503.3015
   2   2.0000     -91.928728     -2501.5079
   3   2.0000     -11.374292      -309.5102
   4   2.0000     -11.296900      -307.4043
   5   2.0000     -11.296267      -307.3870
   6   2.0000      -8.996287      -244.8014
   7   2.0000      -8.996276      -244.8011
   8   2.0000      -8.932177      -243.0569
   9   2.0000      -6.677425      -181.7020
  10   2.0000      -6.677422      -181.7019
  11   2.0000      -6.676539      -181.6779
  12   2.0000      -6.676537      -181.6778
  13   2.0000      -6.675759      -181.6566
  14   2.0000      -6.675758      -181.6566
  15   2.0000      -6.613465      -179.9615
  16   2.0000      -6.612352      -179.9312
  17   2.0000      -6.611251      -179.9013
  18   2.0000      -1.174516       -31.9602
  19   2.0000      -1.065082       -28.9823
  20   2.0000      -1.016699       -27.6658
  21   2.0000      -0.928184       -25.2572
  22   2.0000      -0.840742       -22.8778
  23   2.0000      -0.704833       -19.1795
  24   2.0000      -0.681508       -18.5448
  25   2.0000      -0.639617       -17.4049
  26   2.0000      -0.578362       -15.7380
  27   2.0000      -0.566427       -15.4133
  28   2.0000      -0.522901       -14.2288
  29   2.0000      -0.500809       -13.6277
  30   2.0000      -0.500766       -13.6265
  31   2.0000      -0.452554       -12.3146
  32   2.0000      -0.378170       -10.2905
  33   2.0000      -0.341868        -9.3027
  34   2.0000      -0.335386        -9.1263
  35   0.0000       0.017615         0.4793
  36   0.0000       0.029646         0.8067
  37   0.0000       0.031866         0.8671
  38   0.0000       0.042060         1.1445
  39   0.0000       0.047296         1.2870

MULLIKEN ATOMIC CHARGES
-----------------------
   0 H :    0.350685
   1 H :    0.350685
   2 S :    0.004823
   3 C :   -0.642493
   4 S :    0.229559
   5 S :    0.229559
   6 H :    0.256696
   7 C :   -0.518106
   8 H :    0.256696
   9 C :   -0.518106
Sum of atomic charges:   -0.0000000

LOEWDIN ATOMIC CHARGES
----------------------
   0 H :   -0.360334
   1 H :   -0.360334
   2 S :    0.830803
   3 C :   -1.815027
   4 S :    1.139711
   5 S :    1.139711
   6 H :   -0.365310
   7 C :    0.078046
   8 H :   -0.365310
   9 C :    0.078046

  Mayer bond orders larger than 0.100000
B(  0-H ,  9-C ) :   0.8262 B(  1-H ,  7-C ) :   0.8262 B(  2-S ,  3-C ) :   1.4792
B(  3-C ,  4-S ) :   1.0493 B(  3-C ,  5-S ) :   1.0493 B(  4-S ,  7-C ) :   0.9266
B(  5-S ,  9-C ) :   0.9266 B(  6-H ,  7-C ) :   0.8991 B(  7-C ,  9-C ) :   1.0033
B(  8-H ,  9-C ) :   0.8991

MP2 TOTAL ENERGY:    -1309.718969648 Eh
FINAL SINGLE POINT ENERGY     -1309.718969648124

DIPOLE MOMENT
-------------
                                X             Y             Z
Electronic contribution:     -0.00000      -0.00000       6.95779
Nuclear contribution   :      0.00000       0.00000      -9.14169
                        -----------------------------------------
Total Dipole Moment    :     -0.00000      -0.00000      -2.18390
                        -----------------------------------------
Magnitude (a.u.)       :      2.18390
Magnitude (Debye)      :      5.55103

Rotational constants in cm-1:     0.104708     0.056470     0.037726
Rotational constants in MHz :  3139.057911  1692.917587  1130.998919

                             ****ORCA TERMINATED NORMALLY****
TOTAL RUN TIME: 0 days 0 hours 17 minutes 27 seconds 275 msec
