                         Program Version 5.0.4 -  RELEASE  -
|  1> !ri-mp2 aug-cc-pvqz aug-cc-pvqz/c tightscf
|  2> %pal nprocs 16 end
|  3>
|  4> * xyz 0 1
|  5> C      2.920911   -0.389382    0.000288
|  6> H      2.911727   -0.857297    0.984172
|  7> H      3.712820    0.363693   -0.014052
|  8> H      3.197836   -1.147075   -0.737175
|  9> C      0.524673    0.206787    0.450874
| 10> H      1.523663    0.702405   -1.305710
| 11> C      1.597085    0.217659   -0.335522
| 12> H     -1.130829    1.516651    0.856898
| 13> H     -0.715930    1.362140   -0.864008
| 14> C     -0.765272    0.842040    0.087533
| 15> Cl    -2.101674   -0.407151   -0.091662
| 16> H      0.564791   -0.281572    1.419098
| 17> *
| 18>
| 19>                          ****END OF INPUT****

CARTESIAN COORDINATES (ANGSTROEM)
---------------------------------
  C      2.920911   -0.389382    0.000288
  H      2.911727   -0.857297    0.984172
  H      3.712820    0.363693   -0.014052
  H      3.197836   -1.147075   -0.737175
  C      0.524673    0.206787    0.450874
  H      1.523663    0.702405   -1.305710
  C      1.597085    0.217659   -0.335522
  H     -1.130829    1.516651    0.856898
  H     -0.715930    1.362140   -0.864008
  C     -0.765272    0.842040    0.087533
  Cl    -2.101674   -0.407151   -0.091662
  H      0.564791   -0.281572    1.419098

 Total Charge           Charge          ....    0
 Multiplicity           Mult            ....    1
 Number of Electrons    NEL             ....   48
 Basis Dimension        Dim             ....  726

ORBITAL ENERGIES
----------------

  NO   OCC          E(Eh)            E(eV)
   0   2.0000    -104.814790     -2852.1554
   1   2.0000     -11.297472      -307.4198
   2   2.0000     -11.246387      -306.0298
   3   2.0000     -11.238137      -305.8053
   4   2.0000     -11.230291      -305.5918
   5   2.0000     -10.540035      -286.8089
   6   2.0000      -8.007001      -217.8816
   7   2.0000      -8.005427      -217.8387
   8   2.0000      -8.005393      -217.8378
   9   2.0000      -1.134001       -30.8577
  10   2.0000      -1.073775       -29.2189
  11   2.0000      -0.976261       -26.5654
  12   2.0000      -0.876201       -23.8426
  13   2.0000      -0.768743       -20.9186
  14   2.0000      -0.644921       -17.5492
  15   2.0000      -0.640845       -17.4383
  16   2.0000      -0.581547       -15.8247
  17   2.0000      -0.570263       -15.5176
  18   2.0000      -0.548209       -14.9175
  19   2.0000      -0.526880       -14.3371
  20   2.0000      -0.509501       -13.8642
  21   2.0000      -0.433571       -11.7981
  22   2.0000      -0.429159       -11.6780
  23   2.0000      -0.364630        -9.9221
  24   0.0000       0.024857         0.6764
  25   0.0000       0.031130         0.8471
  26   0.0000       0.032671         0.8890
  27   0.0000       0.040641         1.1059
  28   0.0000       0.048972         1.3326

MULLIKEN ATOMIC CHARGES
-----------------------
   0 C :   -0.680573
   1 H :    0.232429
   2 H :    0.230822
   3 H :    0.235143
   4 C :   -0.384520
   5 H :    0.405937
   6 C :   -0.398479
   7 H :    0.294061
   8 H :    0.268385
   9 C :   -0.305242
  10 Cl:   -0.342957
  11 H :    0.444995
Sum of atomic charges:    0.0000000

LOEWDIN ATOMIC CHARGES
----------------------
   0 C :    0.894671
   1 H :   -0.314025
   2 H :   -0.294551
   3 H :   -0.293816
   4 C :    0.246189
   5 H :   -0.325951
   6 C :    0.365086
   7 H :   -0.410581
   8 H :   -0.427683
   9 C :   -0.140763
  10 Cl:    1.048652
  11 H :   -0.347229

  Mayer bond orders larger than 0.100000
B(  0-C ,  1-H ) :   0.9574 B(  0-C ,  2-H ) :   0.9854 B(  0-C ,  3-H ) :   0.9900
B(  0-C ,  4-C ) :  -0.1186 B(  0-C ,  6-C ) :   0.8786 B(  4-C ,  6-C ) :   1.5657
B(  4-C ,  9-C ) :   1.0434 B(  4-C , 10-Cl) :  -0.1266 B(  4-C , 11-H ) :   0.7320
B(  5-H ,  6-C ) :   0.7853 B(  6-C ,  9-C ) :  -0.1287 B(  7-H ,  9-C ) :   0.8779
B(  8-H ,  9-C ) :   0.9020 B(  9-C , 10-Cl) :   0.8899

MP2 TOTAL ENERGY:     -616.049143526 Eh
FINAL SINGLE POINT ENERGY      -616.049143526187

DIPOLE MOMENT
-------------
                                X             Y             Z
Electronic contribution:    -12.06296      -1.70220      -0.43209
Nuclear contribution   :     13.01232       2.23140       0.46825
                        -----------------------------------------
Total Dipole Moment    :      0.94936       0.52920       0.03616
                        -----------------------------------------
Magnitude (a.u.)       :      1.08750
Magnitude (Debye)      :      2.76419

Rotational constants in cm-1:     0.482032     0.048663     0.046863
Rotational constants in MHz : 14450.968875  1458.875176  1404.906158

                             ****ORCA TERMINATED NORMALLY****
TOTAL RUN TIME: 0 days 0 hours 13 minutes 23 seconds 598 msec
