                         Program Version 5.0.4 -  RELEASE  -
|  1> !ri-mp2 aug-cc-pvqz aug-cc-pvqz/c tightscf
|  2> %pal nprocs 16 end
|  3>
|  4> * xyz 0 1
|  5> C      0.000000    0.000000    0.851993
|  6> C     -0.168984    0.745968   -1.301801
|  7> C      0.168984   -0.745968   -1.301801
|  8> O      0.000000    0.000000    2.039757
|  9> O      0.000000    1.114456    0.074557
| 10> O      0.000000   -1.114456    0.074557
| 11> H      0.504009    1.345920   -1.908473
| 12> H     -1.201132    0.944052   -1.592185
| 13> H     -0.504009   -1.345920   -1.908473
| 14> H      1.201132   -0.944052   -1.592185
| 15> *
| 16>
| 17>                          ****END OF INPUT****

CARTESIAN COORDINATES (ANGSTROEM)
---------------------------------
  C      0.000000    0.000000    0.851993
  C     -0.168984    0.745968   -1.301801
  C      0.168984   -0.745968   -1.301801
  O      0.000000    0.000000    2.039757
  O      0.000000    1.114456    0.074557
  O      0.000000   -1.114456    0.074557
  H      0.504009    1.345920   -1.908473
  H     -1.201132    0.944052   -1.592185
  H     -0.504009   -1.345920   -1.908473
  H      1.201132   -0.944052   -1.592185

 Total Charge           Charge          ....    0
 Multiplicity           Mult            ....    1
 Number of Electrons    NEL             ....   46
 Basis Dimension        Dim             ....  664

ORBITAL ENERGIES
----------------

  NO   OCC          E(Eh)            E(eV)
   0   2.0000     -20.624116      -561.2107
   1   2.0000     -20.624081      -561.2098
   2   2.0000     -20.545739      -559.0780
   3   2.0000     -11.434958      -311.1610
   4   2.0000     -11.324861      -308.1651
   5   2.0000     -11.324238      -308.1482
   6   2.0000      -1.524813       -41.4923
   7   2.0000      -1.397010       -38.0146
   8   2.0000      -1.388955       -37.7954
   9   2.0000      -1.059145       -28.8208
  10   2.0000      -0.916566       -24.9410
  11   2.0000      -0.836787       -22.7701
  12   2.0000      -0.751065       -20.4375
  13   2.0000      -0.726431       -19.7672
  14   2.0000      -0.696638       -18.9565
  15   2.0000      -0.640516       -17.4293
  16   2.0000      -0.633367       -17.2348
  17   2.0000      -0.619527       -16.8582
  18   2.0000      -0.571092       -15.5402
  19   2.0000      -0.547902       -14.9092
  20   2.0000      -0.485986       -13.2243
  21   2.0000      -0.481067       -13.0905
  22   2.0000      -0.472693       -12.8626
  23   0.0000       0.016672         0.4537
  24   0.0000       0.029320         0.7978
  25   0.0000       0.031111         0.8466
  26   0.0000       0.044656         1.2152
  27   0.0000       0.054239         1.4759

MULLIKEN ATOMIC CHARGES
-----------------------
   0 C :    1.169253
   1 C :   -0.246637
   2 C :   -0.246637
   3 O :   -0.708014
   4 O :   -0.640903
   5 O :   -0.640903
   6 H :    0.344744
   7 H :    0.312177
   8 H :    0.344744
   9 H :    0.312177
Sum of atomic charges:   -0.0000000

LOEWDIN ATOMIC CHARGES
----------------------
   0 C :   -1.467931
   1 C :    0.195532
   2 C :    0.195532
   3 O :    0.604397
   4 O :    0.826823
   5 O :    0.826823
   6 H :   -0.296972
   7 H :   -0.293616
   8 H :   -0.296972
   9 H :   -0.293616

  Mayer bond orders larger than 0.100000
B(  0-C ,  3-O ) :   1.6718 B(  0-C ,  4-O ) :   1.0289 B(  0-C ,  5-O ) :   1.0289
B(  1-C ,  2-C ) :   1.1554 B(  1-C ,  4-O ) :   0.6705 B(  1-C ,  6-H ) :   0.8522
B(  1-C ,  7-H ) :   0.8692 B(  2-C ,  5-O ) :   0.6705 B(  2-C ,  8-H ) :   0.8522
B(  2-C ,  9-H ) :   0.8692

MP2 TOTAL ENERGY:     -341.955651819 Eh
FINAL SINGLE POINT ENERGY      -341.955651819019

DIPOLE MOMENT
-------------
                                X             Y             Z
Electronic contribution:     -0.00000      -0.00000       4.49239
Nuclear contribution   :      0.00000       0.00000      -6.83464
                        -----------------------------------------
Total Dipole Moment    :     -0.00000      -0.00000      -2.34225
                        -----------------------------------------
Magnitude (a.u.)       :      2.34225
Magnitude (Debye)      :      5.95353

Rotational constants in cm-1:     0.269013     0.127803     0.090185
Rotational constants in MHz :  8064.819763  3831.447458  2703.668220

                             ****ORCA TERMINATED NORMALLY****
TOTAL RUN TIME: 0 days 0 hours 12 minutes 34 seconds 20 msec
