                         Program Version 5.0.4 -  RELEASE  -
|  1> !ri-mp2 aug-cc-pvqz aug-cc-pvqz/c tightscf
|  2> %pal nprocs 16 end
|  3>
|  4> * xyz 0 1
|  5> C     -2.772926   -0.745430    0.127040
|  6> C     -2.835748    0.657366   -0.109605
|  7> C      2.860308    0.583052    0.103711
|  8> C      1.551119    1.154181    0.212862
|  9> C     -1.451987   -1.096859    0.185131
| 10> C     -1.550872    1.119466   -0.190721
| 11> C      2.691852   -0.736863   -0.133470
| 12> C      0.685887    0.123810    0.019734
| 13> N     -0.697666    0.046430   -0.010764
| 14> O      1.353226   -1.035205   -0.194701
| 15> H     -3.604798   -1.419043    0.239788
| 16> H     -3.724063    1.255180   -0.219283
| 17> H      3.800352    1.097381    0.201917
| 18> H      1.298133    2.176815    0.425961
| 19> H     -0.974196   -2.044614    0.349051
| 20> H     -1.163532    2.103939   -0.379320
| 21> H      3.360167   -1.565371   -0.273248
| 22> *
| 23>
| 24>                          ****END OF INPUT****

CARTESIAN COORDINATES (ANGSTROEM)
---------------------------------
  C     -2.772926   -0.745430    0.127040
  C     -2.835748    0.657366   -0.109605
  C      2.860308    0.583052    0.103711
  C      1.551119    1.154181    0.212862
  C     -1.451987   -1.096859    0.185131
  C     -1.550872    1.119466   -0.190721
  C      2.691852   -0.736863   -0.133470
  C      0.685887    0.123810    0.019734
  N     -0.697666    0.046430   -0.010764
  O      1.353226   -1.035205   -0.194701
  H     -3.604798   -1.419043    0.239788
  H     -3.724063    1.255180   -0.219283
  H      3.800352    1.097381    0.201917
  H      1.298133    2.176815    0.425961
  H     -0.974196   -2.044614    0.349051
  H     -1.163532    2.103939   -0.379320
  H      3.360167   -1.565371   -0.273248

 Total Charge           Charge          ....    0
 Multiplicity           Mult            ....    1
 Number of Electrons    NEL             ....   70
 Basis Dimension        Dim             .... 1122

ORBITAL ENERGIES
----------------

  NO   OCC          E(Eh)            E(eV)
   0   2.0000     -20.631152      -561.4022
   1   2.0000     -15.626643      -425.2226
   2   2.0000     -11.343619      -308.6756
   3   2.0000     -11.288553      -307.1771
   4   2.0000     -11.261124      -306.4308
   5   2.0000     -11.260339      -306.4094
   6   2.0000     -11.238206      -305.8071
   7   2.0000     -11.230315      -305.5924
   8   2.0000     -11.220287      -305.3195
   9   2.0000     -11.218139      -305.2611
  10   2.0000      -1.476071       -40.1659
  11   2.0000      -1.317870       -35.8611
  12   2.0000      -1.102796       -30.0086
  13   2.0000      -1.086446       -29.5637
  14   2.0000      -0.990578       -26.9550
  15   2.0000      -0.984172       -26.7807
  16   2.0000      -0.839231       -22.8366
  17   2.0000      -0.825955       -22.4754
  18   2.0000      -0.771786       -21.0014
  19   2.0000      -0.763353       -20.7719
  20   2.0000      -0.750983       -20.4353
  21   2.0000      -0.676628       -18.4120
  22   2.0000      -0.663638       -18.0585
  23   2.0000      -0.617479       -16.8025
  24   2.0000      -0.597231       -16.2515
  25   2.0000      -0.585259       -15.9257
  26   2.0000      -0.579417       -15.7668
  27   2.0000      -0.572931       -15.5902
  28   2.0000      -0.562506       -15.3066
  29   2.0000      -0.547942       -14.9103
  30   2.0000      -0.538028       -14.6405
  31   2.0000      -0.414281       -11.2732
  32   2.0000      -0.388881       -10.5820
  33   2.0000      -0.310682        -8.4541
  34   2.0000      -0.293735        -7.9929
  35   0.0000       0.023945         0.6516
  36   0.0000       0.027914         0.7596
  37   0.0000       0.029167         0.7937
  38   0.0000       0.037672         1.0251
  39   0.0000       0.039560         1.0765

MULLIKEN ATOMIC CHARGES
-----------------------
   0 C :   -0.353026
   1 C :   -0.397865
   2 C :   -0.326757
   3 C :   -0.873181
   4 C :   -0.491144
   5 C :   -0.406017
   6 C :   -0.495614
   7 C :    1.591838
   8 N :   -0.394495
   9 O :   -0.727647
  10 H :    0.381706
  11 H :    0.381751
  12 H :    0.437655
  13 H :    0.316207
  14 H :    0.431324
  15 H :    0.409414
  16 H :    0.515852
Sum of atomic charges:   -0.0000000

LOEWDIN ATOMIC CHARGES
----------------------
   0 C :    0.320934
   1 C :    0.321371
   2 C :    0.299175
   3 C :    0.314488
   4 C :    0.199017
   5 C :    0.192704
   6 C :    0.019147
   7 C :   -0.611649
   8 N :    0.346433
   9 O :    0.862820
  10 H :   -0.328317
  11 H :   -0.326996
  12 H :   -0.327466
  13 H :   -0.324720
  14 H :   -0.310708
  15 H :   -0.308616
  16 H :   -0.337615

  Mayer bond orders larger than 0.100000
B(  0-C ,  1-C ) :   1.2004 B(  0-C ,  4-C ) :   1.4653 B(  0-C ,  8-N ) :  -0.1668
B(  0-C , 10-H ) :   0.9164 B(  1-C ,  5-C ) :   1.4607 B(  1-C ,  8-N ) :  -0.1881
B(  1-C , 11-H ) :   0.9237 B(  2-C ,  3-C ) :   1.1249 B(  2-C ,  6-C ) :   1.7414
B(  2-C ,  7-C ) :  -0.4891 B(  2-C , 12-H ) :   0.8792 B(  3-C ,  6-C ) :   0.1228
B(  3-C ,  7-C ) :   1.0877 B(  3-C ,  9-O ) :   0.1103 B(  3-C , 13-H ) :   0.9716
B(  4-C ,  5-C ) :   0.1781 B(  4-C ,  8-N ) :   1.0508 B(  4-C , 14-H ) :   0.8462
B(  5-C ,  7-C ) :  -0.1027 B(  5-C ,  8-N ) :   1.0130 B(  5-C , 15-H ) :   0.8605
B(  6-C ,  7-C ) :  -0.2318 B(  6-C ,  9-O ) :   1.0112 B(  6-C , 16-H ) :   0.8031
B(  7-C ,  8-N ) :   0.8658 B(  7-C ,  9-O ) :   0.4294

MP2 TOTAL ENERGY:     -438.277501408 Eh
FINAL SINGLE POINT ENERGY      -438.277501407747

DIPOLE MOMENT
-------------
                                X             Y             Z
Electronic contribution:      1.41939      -1.32755      -0.27589
Nuclear contribution   :     -0.97816       1.56814       0.33741
                        -----------------------------------------
Total Dipole Moment    :      0.44123       0.24059       0.06152
                        -----------------------------------------
Magnitude (a.u.)       :      0.50631
Magnitude (Debye)      :      1.28694

Rotational constants in cm-1:     0.154064     0.030129     0.025456
Rotational constants in MHz :  4618.715325   903.258249   763.165918

                             ****ORCA TERMINATED NORMALLY****
TOTAL RUN TIME: 0 days 0 hours 55 minutes 18 seconds 150 msec
