                         Program Version 5.0.4 -  RELEASE  -
|  1> !ri-mp2 aug-cc-pvqz aug-cc-pvqz/c tightscf
|  2> %pal nprocs 16 end
|  3>
|  4> * xyz 0 1
|  5> S     2.173408   -0.484649    -0.218616
|  6> O     1.706873    1.062931     0.309144
|  7> O    -2.406268    1.061439    -0.306376
|  8> O    -2.347569   -1.153252     0.077835
|  9> N     0.354539    1.209545    -0.199575
| 10> C    -0.337365    0.073070     0.423591
| 11> C    -1.793433    0.075562     0.003121
| 12> C     0.479207   -1.171035     0.031849
| 13> H    -3.285795   -1.061746    -0.148192
| 14> H     0.051131    2.086883     0.215271
| 15> H    -0.334047    0.154184     1.518761
| 16> H     0.458740   -1.921418     0.816656
| 17> H     0.138929   -1.604861    -0.903801
| 18> *
| 19>
| 20>                          ****END OF INPUT****

CARTESIAN COORDINATES (ANGSTROEM)
---------------------------------
  S      2.173408   -0.484649   -0.218616
  O      1.706873    1.062931    0.309144
  O     -2.406268    1.061439   -0.306376
  O     -2.347569   -1.153252    0.077835
  N      0.354539    1.209545   -0.199575
  C     -0.337365    0.073070    0.423591
  C     -1.793433    0.075562    0.003121
  C      0.479207   -1.171035    0.031849
  H     -3.285795   -1.061746   -0.148192
  H      0.051131    2.086883    0.215271
  H     -0.334047    0.154184    1.518761
  H      0.458740   -1.921418    0.816656
  H      0.138929   -1.604861   -0.903801

 Total Charge           Charge          ....    0
 Multiplicity           Mult            ....    1
 Number of Electrons    NEL             ....   70
 Basis Dimension        Dim             ....  874

ORBITAL ENERGIES
----------------

  NO   OCC          E(Eh)            E(eV)
   0   2.0000     -92.005276     -2503.5908
   1   2.0000     -20.634222      -561.4857
   2   2.0000     -20.618817      -561.0665
   3   2.0000     -20.570622      -559.7551
   4   2.0000     -15.633786      -425.4170
   5   2.0000     -11.410244      -310.4885
   6   2.0000     -11.310602      -307.7771
   7   2.0000     -11.284320      -307.0620
   8   2.0000      -9.001441      -244.9417
   9   2.0000      -6.682748      -181.8468
  10   2.0000      -6.681481      -181.8123
  11   2.0000      -6.680126      -181.7755
  12   2.0000      -1.489599       -40.5340
  13   2.0000      -1.426637       -38.8208
  14   2.0000      -1.387141       -37.7460
  15   2.0000      -1.163086       -31.6492
  16   2.0000      -1.074844       -29.2480
  17   2.0000      -0.945145       -25.7187
  18   2.0000      -0.853743       -23.2315
  19   2.0000      -0.826642       -22.4941
  20   2.0000      -0.738960       -20.1081
  21   2.0000      -0.724595       -19.7172
  22   2.0000      -0.723239       -19.6803
  23   2.0000      -0.654462       -17.8088
  24   2.0000      -0.638504       -17.3746
  25   2.0000      -0.622104       -16.9283
  26   2.0000      -0.603537       -16.4231
  27   2.0000      -0.577674       -15.7193
  28   2.0000      -0.559351       -15.2207
  29   2.0000      -0.534786       -14.5523
  30   2.0000      -0.505083       -13.7440
  31   2.0000      -0.488254       -13.2861
  32   2.0000      -0.462264       -12.5788
  33   2.0000      -0.425038       -11.5659
  34   2.0000      -0.352700        -9.5974
  35   0.0000       0.020160         0.5486
  36   0.0000       0.031021         0.8441
  37   0.0000       0.034378         0.9355
  38   0.0000       0.039770         1.0822
  39   0.0000       0.052854         1.4382

MULLIKEN ATOMIC CHARGES
-----------------------
   0 S :    0.284072
   1 O :   -0.779937
   2 O :   -0.806742
   3 O :   -0.695090
   4 N :   -0.229439
   5 C :    0.165120
   6 C :    1.116808
   7 C :   -0.567754
   8 H :    0.325257
   9 H :    0.272652
  10 H :    0.397556
  11 H :    0.274222
  12 H :    0.243276
Sum of atomic charges:    0.0000000

LOEWDIN ATOMIC CHARGES
----------------------
   0 S :    0.955524
   1 O :    0.183531
   2 O :    0.722562
   3 O :    1.261793
   4 N :    0.461617
   5 C :   -0.282870
   6 C :   -1.030589
   7 C :    0.141286
   8 H :   -0.798624
   9 H :   -0.586345
  10 H :   -0.302623
  11 H :   -0.352877
  12 H :   -0.372385

  Mayer bond orders larger than 0.100000
B(  0-S ,  1-O ) :   0.8213 B(  0-S ,  7-C ) :   0.9524 B(  1-O ,  4-N ) :   0.7596
B(  1-O ,  5-C ) :  -0.1146 B(  2-O ,  5-C ) :   0.1833 B(  2-O ,  6-C ) :   1.2766
B(  3-O ,  6-C ) :   0.8363 B(  3-O ,  8-H ) :   0.9309 B(  4-N ,  5-C ) :   0.7475
B(  4-N ,  9-H ) :   0.8477 B(  5-C ,  6-C ) :   1.0891 B(  5-C ,  7-C ) :   0.9739
B(  5-C , 10-H ) :   0.7237 B(  7-C , 11-H ) :   0.9442 B(  7-C , 12-H ) :   0.9223

MP2 TOTAL ENERGY:     -794.894378671 Eh
FINAL SINGLE POINT ENERGY      -794.894378670517

DIPOLE MOMENT
-------------
                                X             Y             Z
Electronic contribution:      2.21273       1.24595      -0.90671
Nuclear contribution   :     -3.00026      -2.24684       1.46463
                        -----------------------------------------
Total Dipole Moment    :     -0.78752      -1.00089       0.55792
                        -----------------------------------------
Magnitude (a.u.)       :      1.39041
Magnitude (Debye)      :      3.53415

Rotational constants in cm-1:     0.134782     0.037813     0.030741
Rotational constants in MHz :  4040.676795  1133.611746   921.587296

                             ****ORCA TERMINATED NORMALLY****
TOTAL RUN TIME: 0 days 0 hours 27 minutes 33 seconds 135 msec
