                         Program Version 5.0.4 -  RELEASE  -
|  1> !ri-mp2 aug-cc-pvqz aug-cc-pvqz/c tightscf
|  2> %pal nprocs 16 end
|  3>
|  4> * xyz 0 1
|  5> C     -0.621011   -0.043215   -0.003296
|  6> H      0.001740    2.009175   -0.056030
|  7> N      0.197961    1.024633   -0.005588
|  8> N      1.486430    0.574685    0.004451
|  9> N      1.411372   -0.699900    0.008559
| 10> N      0.119936   -1.131006    0.009304
| 11> H     -2.446118    0.747717    0.423321
| 12> H     -2.419586   -0.896323    0.073092
| 13> N     -1.988552    0.002833   -0.076813
| 14> *
| 15>
| 16>                          ****END OF INPUT****

CARTESIAN COORDINATES (ANGSTROEM)
---------------------------------
  C     -0.621011   -0.043215   -0.003296
  H      0.001740    2.009175   -0.056030
  N      0.197961    1.024633   -0.005588
  N      1.486430    0.574685    0.004451
  N      1.411372   -0.699900    0.008559
  N      0.119936   -1.131006    0.009304
  H     -2.446118    0.747717    0.423321
  H     -2.419586   -0.896323    0.073092
  N     -1.988552    0.002833   -0.076813

 Total Charge           Charge          ....    0
 Multiplicity           Mult            ....    1
 Number of Electrons    NEL             ....   44
 Basis Dimension        Dim             ....  618

ORBITAL ENERGIES
----------------

  NO   OCC          E(Eh)            E(eV)
   0   2.0000     -15.661576      -426.1731
   1   2.0000     -15.648334      -425.8128
   2   2.0000     -15.641278      -425.6208
   3   2.0000     -15.611455      -424.8093
   4   2.0000     -15.580085      -423.9557
   5   2.0000     -11.369918      -309.3912
   6   2.0000      -1.483252       -40.3613
   7   2.0000      -1.280969       -34.8569
   8   2.0000      -1.240685       -33.7607
   9   2.0000      -1.150961       -31.3192
  10   2.0000      -0.898364       -24.4457
  11   2.0000      -0.875806       -23.8319
  12   2.0000      -0.792200       -21.5569
  13   2.0000      -0.711998       -19.3744
  14   2.0000      -0.693591       -18.8736
  15   2.0000      -0.673512       -18.3272
  16   2.0000      -0.569980       -15.5099
  17   2.0000      -0.529132       -14.3984
  18   2.0000      -0.465012       -12.6536
  19   2.0000      -0.462118       -12.5749
  20   2.0000      -0.451363       -12.2822
  21   2.0000      -0.374252       -10.1839
  22   0.0000       0.010055         0.2736
  23   0.0000       0.027199         0.7401
  24   0.0000       0.041856         1.1390
  25   0.0000       0.059480         1.6185
  26   0.0000       0.080172         2.1816

MULLIKEN ATOMIC CHARGES
-----------------------
   0 C :    0.710153
   1 H :    0.304059
   2 N :   -0.353194
   3 N :   -0.115791
   4 N :   -0.136896
   5 N :   -0.406254
   6 H :    0.305178
   7 H :    0.335415
   8 N :   -0.642671
Sum of atomic charges:    0.0000000

LOEWDIN ATOMIC CHARGES
----------------------
   0 C :   -0.774890
   1 H :   -0.480719
   2 N :    0.531876
   3 N :    0.166239
   4 N :    0.009155
   5 N :    0.290892
   6 H :   -0.496023
   7 H :   -0.514163
   8 N :    1.267631

  Mayer bond orders larger than 0.100000
B(  0-C ,  2-N ) :   1.2311 B(  0-C ,  5-N ) :   1.5065 B(  0-C ,  8-N ) :   1.1086
B(  1-H ,  2-N ) :   0.9193 B(  2-N ,  3-N ) :   0.8713 B(  3-N ,  4-N ) :   1.5097
B(  4-N ,  5-N ) :   0.9756 B(  6-H ,  8-N ) :   0.8793 B(  7-H ,  8-N ) :   0.8541

MP2 TOTAL ENERGY:     -313.184865956 Eh
FINAL SINGLE POINT ENERGY      -313.184865955903

DIPOLE MOMENT
-------------
                                X             Y             Z
Electronic contribution:      2.73997      -0.35074      -0.07997
Nuclear contribution   :     -4.71776       1.80601       0.42744
                        -----------------------------------------
Total Dipole Moment    :     -1.97779       1.45527       0.34747
                        -----------------------------------------
Magnitude (a.u.)       :      2.47996
Magnitude (Debye)      :      6.30356

Rotational constants in cm-1:     0.338536     0.128144     0.093226
Rotational constants in MHz : 10149.050223  3841.664399  2794.830351

                             ****ORCA TERMINATED NORMALLY****
TOTAL RUN TIME: 0 days 0 hours 8 minutes 5 seconds 690 msec
