                         Program Version 5.0.4 -  RELEASE  -
|  1> !ri-mp2 aug-cc-pvqz aug-cc-pvqz/c tightscf
|  2> %pal nprocs 16 end
|  3>
|  4> * xyz 0 1
|  5> S     -0.195948    2.519947    0.000000
|  6> C     -0.116097    0.874513    0.000000
|  7> S     -0.033616    0.069956    1.548701
|  8> C     -0.033616   -1.749646    1.260469
|  9> C      0.684442   -2.198644    0.000000
| 10> C     -0.033616   -1.749646   -1.260469
| 11> S     -0.033616    0.069956   -1.548701
| 12> H      0.452909   -2.143490    2.151791
| 13> H     -1.066908   -2.096687    1.261615
| 14> H      1.716281   -1.844930    0.000000
| 15> H      0.715928   -3.291933    0.000000
| 16> H      0.452909   -2.143490   -2.151791
| 17> H     -1.066908   -2.096687   -1.261615
| 18> *
| 19>
| 20>                          ****END OF INPUT****

CARTESIAN COORDINATES (ANGSTROEM)
---------------------------------
  S     -0.195948    2.519947    0.000000
  C     -0.116097    0.874513    0.000000
  S     -0.033616    0.069956    1.548701
  C     -0.033616   -1.749646    1.260469
  C      0.684442   -2.198644    0.000000
  C     -0.033616   -1.749646   -1.260469
  S     -0.033616    0.069956   -1.548701
  H      0.452909   -2.143490    2.151791
  H     -1.066908   -2.096687    1.261615
  H      1.716281   -1.844930    0.000000
  H      0.715928   -3.291933    0.000000
  H      0.452909   -2.143490   -2.151791
  H     -1.066908   -2.096687   -1.261615

 Total Charge           Charge          ....    0
 Multiplicity           Mult            ....    1
 Number of Electrons    NEL             ....   78
 Basis Dimension        Dim             ....  848

ORBITAL ENERGIES
----------------

  NO   OCC          E(Eh)            E(eV)
   0   2.0000     -91.990299     -2503.1833
   1   2.0000     -91.990298     -2503.1833
   2   2.0000     -91.919259     -2501.2502
   3   2.0000     -11.371691      -309.4394
   4   2.0000     -11.288109      -307.1651
   5   2.0000     -11.288107      -307.1650
   6   2.0000     -11.266432      -306.5752
   7   2.0000      -8.991655      -244.6754
   8   2.0000      -8.991646      -244.6751
   9   2.0000      -8.922847      -242.8030
  10   2.0000      -6.672923      -181.5795
  11   2.0000      -6.672919      -181.5794
  12   2.0000      -6.671738      -181.5472
  13   2.0000      -6.671736      -181.5472
  14   2.0000      -6.671115      -181.5303
  15   2.0000      -6.671114      -181.5302
  16   2.0000      -6.604138      -179.7077
  17   2.0000      -6.602934      -179.6750
  18   2.0000      -6.601974      -179.6488
  19   2.0000      -1.160639       -31.5826
  20   2.0000      -1.088861       -29.6294
  21   2.0000      -1.049795       -28.5664
  22   2.0000      -0.943816       -25.6825
  23   2.0000      -0.897010       -24.4089
  24   2.0000      -0.836296       -22.7568
  25   2.0000      -0.710085       -19.3224
  26   2.0000      -0.657927       -17.9031
  27   2.0000      -0.627746       -17.0818
  28   2.0000      -0.618734       -16.8366
  29   2.0000      -0.607932       -16.5427
  30   2.0000      -0.543732       -14.7957
  31   2.0000      -0.542969       -14.7749
  32   2.0000      -0.524630       -14.2759
  33   2.0000      -0.493087       -13.4176
  34   2.0000      -0.457534       -12.4501
  35   2.0000      -0.442295       -12.0354
  36   2.0000      -0.375762       -10.2250
  37   2.0000      -0.332511        -9.0481
  38   2.0000      -0.327322        -8.9069
  39   0.0000       0.015726         0.4279
  40   0.0000       0.026594         0.7237
  41   0.0000       0.028582         0.7778
  42   0.0000       0.038015         1.0344
  43   0.0000       0.045008         1.2247

MULLIKEN ATOMIC CHARGES
-----------------------
   0 S :   -0.077124
   1 C :   -0.649780
   2 S :    0.204737
   3 C :   -0.446310
   4 C :   -0.443813
   5 C :   -0.446311
   6 S :    0.204737
   7 H :    0.329722
   8 H :    0.210131
   9 H :    0.270286
  10 H :    0.303871
  11 H :    0.329722
  12 H :    0.210131
Sum of atomic charges:   -0.0000000

LOEWDIN ATOMIC CHARGES
----------------------
   0 S :    0.795523
   1 C :   -1.812689
   2 S :    1.160783
   3 C :    0.175963
   4 C :    0.371819
   5 C :    0.175963
   6 S :    1.160783
   7 H :   -0.371679
   8 H :   -0.356782
   9 H :   -0.296044
  10 H :   -0.275180
  11 H :   -0.371679
  12 H :   -0.356782

  Mayer bond orders larger than 0.100000
B(  0-S ,  1-C ) :   1.4094 B(  1-C ,  2-S ) :   1.0550 B(  1-C ,  6-S ) :   1.0550
B(  2-S ,  3-C ) :   0.8593 B(  3-C ,  4-C ) :   0.9881 B(  3-C ,  7-H ) :   0.8709
B(  3-C ,  8-H ) :   0.9561 B(  4-C ,  5-C ) :   0.9881 B(  4-C ,  9-H ) :   0.8818
B(  4-C , 10-H ) :   0.8257 B(  5-C ,  6-S ) :   0.8593 B(  5-C , 11-H ) :   0.8709
B(  5-C , 12-H ) :   0.9561

MP2 TOTAL ENERGY:    -1348.948506760 Eh
FINAL SINGLE POINT ENERGY     -1348.948506760042

DIPOLE MOMENT
-------------
                                X             Y             Z
Electronic contribution:     -1.04539      10.77908      -0.00000
Nuclear contribution   :      1.18182     -13.35448       0.00000
                        -----------------------------------------
Total Dipole Moment    :      0.13642      -2.57541      -0.00000
                        -----------------------------------------
Magnitude (a.u.)       :      2.57902
Magnitude (Debye)      :      6.55534

Rotational constants in cm-1:     0.078733     0.043310     0.028860
Rotational constants in MHz :  2360.347101  1298.395830   865.198253

                             ****ORCA TERMINATED NORMALLY****
TOTAL RUN TIME: 0 days 0 hours 36 minutes 31 seconds 293 msec
