                         Program Version 5.0.4 -  RELEASE  -
|  1> !ri-mp2 aug-cc-pvqz aug-cc-pvqz/c tightscf
|  2> %pal nprocs 16 end
|  3>
|  4> * xyz 0 1
|  5> C      0.000000    1.060596        0.000000
|  6> N      1.107973    0.392861        0.000000
|  7> N      0.687701   -0.924391        0.000000
|  8> N     -0.543555   -1.038784        0.000000
|  9> O     -1.082437    0.312079        0.000000
| 10> H     -0.105336    2.131991        0.000000
| 11> *
| 12>
| 13>                          ****END OF INPUT****

CARTESIAN COORDINATES (ANGSTROEM)
---------------------------------
  C      0.000000    1.060596    0.000000
  N      1.107973    0.392861    0.000000
  N      0.687701   -0.924391    0.000000
  N     -0.543555   -1.038784    0.000000
  O     -1.082437    0.312079    0.000000
  H     -0.105336    2.131991    0.000000

 Total Charge           Charge          ....    0
 Multiplicity           Mult            ....    1
 Number of Electrons    NEL             ....   36
 Basis Dimension        Dim             ....  446

ORBITAL ENERGIES
----------------

  NO   OCC          E(Eh)            E(eV)
   0   2.0000     -20.692594      -563.0741
   1   2.0000     -15.720663      -427.7810
   2   2.0000     -15.692632      -427.0182
   3   2.0000     -15.629528      -425.3011
   4   2.0000     -11.386710      -309.8481
   5   2.0000      -1.579780       -42.9880
   6   2.0000      -1.375410       -37.4268
   7   2.0000      -1.244442       -33.8630
   8   2.0000      -0.923368       -25.1261
   9   2.0000      -0.915053       -24.8999
  10   2.0000      -0.777085       -21.1455
  11   2.0000      -0.723716       -19.6933
  12   2.0000      -0.661344       -17.9961
  13   2.0000      -0.606222       -16.4961
  14   2.0000      -0.539432       -14.6787
  15   2.0000      -0.518453       -14.1078
  16   2.0000      -0.507385       -13.8067
  17   2.0000      -0.460192       -12.5225
  18   0.0000       0.020936         0.5697
  19   0.0000       0.054221         1.4754
  20   0.0000       0.056187         1.5289
  21   0.0000       0.063086         1.7167
  22   0.0000       0.088537         2.4092

MULLIKEN ATOMIC CHARGES
-----------------------
   0 C :    0.162014
   1 N :   -0.387156
   2 N :   -0.071077
   3 N :    0.117949
   4 O :   -0.507092
   5 H :    0.685362
Sum of atomic charges:   -0.0000000

LOEWDIN ATOMIC CHARGES
----------------------
   0 C :   -0.462250
   1 N :    0.274977
   2 N :   -0.044750
   3 N :    0.012316
   4 O :    0.575320
   5 H :   -0.355612

  Mayer bond orders larger than 0.100000
B(  0-C ,  1-N ) :   1.6369 B(  0-C ,  4-O ) :   1.1716 B(  0-C ,  5-H ) :   0.5384
B(  1-N ,  2-N ) :   0.9776 B(  2-N ,  3-N ) :   1.7477 B(  3-N ,  4-O ) :   0.8184

MP2 TOTAL ENERGY:     -277.731266351 Eh
FINAL SINGLE POINT ENERGY      -277.731266350937

DIPOLE MOMENT
-------------
                                X             Y             Z
Electronic contribution:     -0.29878      -0.92713       0.00000
Nuclear contribution   :     -0.10950       2.02501       0.00000
                        -----------------------------------------
Total Dipole Moment    :     -0.40827       1.09788       0.00000
                        -----------------------------------------
Magnitude (a.u.)       :      1.17134
Magnitude (Debye)      :      2.97731

Rotational constants in cm-1:     0.361822     0.344339     0.176432
Rotational constants in MHz : 10847.158575 10323.028420  5289.302653

                             ****ORCA TERMINATED NORMALLY****
TOTAL RUN TIME: 0 days 0 hours 2 minutes 58 seconds 263 msec
