                         Program Version 5.0.4 -  RELEASE  -
|  1> !ri-mp2 aug-cc-pvqz aug-cc-pvqz/c tightscf
|  2> %pal nprocs 16 end
|  3>
|  4> * xyz 0 1
|  5> S     3.207011    0.103485   -0.057042
|  6> F    -1.915460    1.328253   -0.160483
|  7> F    -3.079188   -0.540242   -0.097326
|  8> N     0.482209   -0.239691    0.285694
|  9> C    -1.923576    0.054593    0.324835
| 10> C    -0.750694   -0.732182   -0.236127
| 11> C     1.650101   -0.112516    0.094338
| 12> H    -1.934452    0.106448    1.414038
| 13> H    -0.774486   -0.657000   -1.325535
| 14> H    -0.881854   -1.778836    0.046326
| 15> *
| 16>
| 17>                          ****END OF INPUT****

CARTESIAN COORDINATES (ANGSTROEM)
---------------------------------
  S      3.207011    0.103485   -0.057042
  F     -1.915460    1.328253   -0.160483
  F     -3.079188   -0.540242   -0.097326
  N      0.482209   -0.239691    0.285694
  C     -1.923576    0.054593    0.324835
  C     -0.750694   -0.732182   -0.236127
  C      1.650101   -0.112516    0.094338
  H     -1.934452    0.106448    1.414038
  H     -0.774486   -0.657000   -1.325535
  H     -0.881854   -1.778836    0.046326

 Total Charge           Charge          ....    0
 Multiplicity           Mult            ....    1
 Number of Electrons    NEL             ....   62
 Basis Dimension        Dim             ....  702

ORBITAL ENERGIES
----------------

  NO   OCC          E(Eh)            E(eV)
   0   2.0000     -91.958599     -2502.3207
   1   2.0000     -26.325824      -716.3621
   2   2.0000     -26.322090      -716.2605
   3   2.0000     -15.620194      -425.0471
   4   2.0000     -11.429460      -311.0114
   5   2.0000     -11.388423      -309.8948
   6   2.0000     -11.329769      -308.2987
   7   2.0000      -8.962699      -243.8874
   8   2.0000      -6.644511      -180.8063
   9   2.0000      -6.642199      -180.7434
  10   2.0000      -6.641963      -180.7370
  11   2.0000      -1.674286       -45.5596
  12   2.0000      -1.613599       -43.9083
  13   2.0000      -1.312429       -35.7130
  14   2.0000      -1.102848       -30.0100
  15   2.0000      -1.031256       -28.0619
  16   2.0000      -0.931973       -25.3603
  17   2.0000      -0.810413       -22.0525
  18   2.0000      -0.785425       -21.3725
  19   2.0000      -0.769085       -20.9279
  20   2.0000      -0.723788       -19.6953
  21   2.0000      -0.686421       -18.6785
  22   2.0000      -0.665500       -18.1092
  23   2.0000      -0.647475       -17.6187
  24   2.0000      -0.635136       -17.2829
  25   2.0000      -0.607094       -16.5199
  26   2.0000      -0.585819       -15.9410
  27   2.0000      -0.542562       -14.7639
  28   2.0000      -0.527118       -14.3436
  29   2.0000      -0.379481       -10.3262
  30   2.0000      -0.369180       -10.0459
  31   0.0000       0.022095         0.6012
  32   0.0000       0.031643         0.8611
  33   0.0000       0.039144         1.0652
  34   0.0000       0.046885         1.2758
  35   0.0000       0.060972         1.6591

MULLIKEN ATOMIC CHARGES
-----------------------
   0 S :    0.033238
   1 F :   -0.653792
   2 F :   -0.692627
   3 N :   -0.513376
   4 C :    0.953301
   5 C :   -0.346516
   6 C :    0.150940
   7 H :    0.398911
   8 H :    0.306254
   9 H :    0.363666
Sum of atomic charges:   -0.0000000

LOEWDIN ATOMIC CHARGES
----------------------
   0 S :    0.954147
   1 F :    0.779736
   2 F :    0.776630
   3 N :    0.384252
   4 C :   -1.059056
   5 C :    0.193587
   6 C :   -1.008972
   7 H :   -0.387626
   8 H :   -0.315995
   9 H :   -0.316704

  Mayer bond orders larger than 0.100000
B(  0-S ,  6-C ) :   1.5408 B(  1-F ,  4-C ) :   0.4277 B(  2-F ,  4-C ) :   0.4645
B(  3-N ,  5-C ) :   0.7348 B(  3-N ,  6-C ) :   2.1857 B(  4-C ,  5-C ) :   1.0847
B(  4-C ,  7-H ) :   0.7677 B(  5-C ,  8-H ) :   0.8462 B(  5-C ,  9-H ) :   0.8240

MP2 TOTAL ENERGY:     -767.841821145 Eh
FINAL SINGLE POINT ENERGY      -767.841821145066

DIPOLE MOMENT
-------------
                                X             Y             Z
Electronic contribution:     -1.57732       2.21974      -0.19115
Nuclear contribution   :      1.17816      -2.94338       0.37156
                        -----------------------------------------
Total Dipole Moment    :     -0.39916      -0.72363       0.18041
                        -----------------------------------------
Magnitude (a.u.)       :      0.84589
Magnitude (Debye)      :      2.15007

Rotational constants in cm-1:     0.290029     0.024805     0.023338
Rotational constants in MHz :  8694.854752   743.622048   699.665186

                             ****ORCA TERMINATED NORMALLY****
TOTAL RUN TIME: 0 days 0 hours 12 minutes 13 seconds 836 msec
