                         Program Version 5.0.4 -  RELEASE  -
|  1> !ri-mp2 aug-cc-pvqz aug-cc-pvqz/c tightscf
|  2> %pal nprocs 16 end
|  3>
|  4> * xyz 0 1
|  5> H      0.819970    0.970836    1.504408
|  6> H     -1.166548   -1.746969   -0.177938
|  7> H     -0.984908   -0.880520    1.362012
|  8> C     -1.009069   -0.777888    0.281092
|  9> H      0.177283    0.021144   -1.322049
| 10> Cl     1.582703   -1.367580   -0.036028
| 11> C      0.252711   -0.117091   -0.245865
| 12> C      0.632489    1.180766    0.448756
| 13> H      2.728827    1.294378   -0.120432
| 14> H      2.019134    2.837293    0.352290
| 15> H      1.638622    2.140940   -1.219876
| 16> C      1.825906    1.901249   -0.171533
| 17> H     -0.246766    1.827735    0.407093
| 18> Cl    -2.476694    0.215400   -0.120455
| 19> *
| 20>
| 21>                          ****END OF INPUT****

CARTESIAN COORDINATES (ANGSTROEM)
---------------------------------
  H      0.819970    0.970836    1.504408
  H     -1.166548   -1.746969   -0.177938
  H     -0.984908   -0.880520    1.362012
  C     -1.009069   -0.777888    0.281092
  H      0.177283    0.021144   -1.322049
  Cl     1.582703   -1.367580   -0.036028
  C      0.252711   -0.117091   -0.245865
  C      0.632489    1.180766    0.448756
  H      2.728827    1.294378   -0.120432
  H      2.019134    2.837293    0.352290
  H      1.638622    2.140940   -1.219876
  C      1.825906    1.901249   -0.171533
  H     -0.246766    1.827735    0.407093
  Cl    -2.476694    0.215400   -0.120455

 Total Charge           Charge          ....    0
 Multiplicity           Mult            ....    1
 Number of Electrons    NEL             ....   66
 Basis Dimension        Dim             ....  856

ORBITAL ENERGIES
----------------

  NO   OCC          E(Eh)            E(eV)
   0   2.0000    -104.833191     -2852.6562
   1   2.0000    -104.828337     -2852.5241
   2   2.0000     -11.316436      -307.9359
   3   2.0000     -11.309914      -307.7584
   4   2.0000     -11.242477      -305.9233
   5   2.0000     -11.223418      -305.4047
   6   2.0000     -10.558575      -287.3134
   7   2.0000     -10.553944      -287.1874
   8   2.0000      -8.025594      -218.3875
   9   2.0000      -8.023996      -218.3440
  10   2.0000      -8.023948      -218.3427
  11   2.0000      -8.020887      -218.2594
  12   2.0000      -8.019360      -218.2179
  13   2.0000      -8.019323      -218.2169
  14   2.0000      -1.176408       -32.0117
  15   2.0000      -1.114588       -30.3295
  16   2.0000      -1.046088       -28.4655
  17   2.0000      -0.969556       -26.3829
  18   2.0000      -0.881945       -23.9989
  19   2.0000      -0.805254       -21.9121
  20   2.0000      -0.666604       -18.1392
  21   2.0000      -0.639144       -17.3920
  22   2.0000      -0.630358       -17.1529
  23   2.0000      -0.585044       -15.9199
  24   2.0000      -0.573168       -15.5967
  25   2.0000      -0.528181       -14.3725
  26   2.0000      -0.517496       -14.0818
  27   2.0000      -0.508287       -13.8312
  28   2.0000      -0.489087       -13.3087
  29   2.0000      -0.457339       -12.4448
  30   2.0000      -0.444671       -12.1001
  31   2.0000      -0.442023       -12.0281
  32   2.0000      -0.436327       -11.8731
  33   0.0000       0.027482         0.7478
  34   0.0000       0.031842         0.8665
  35   0.0000       0.033141         0.9018
  36   0.0000       0.040180         1.0934
  37   0.0000       0.048503         1.3198

MULLIKEN ATOMIC CHARGES
-----------------------
   0 H :    0.264496
   1 H :    0.350938
   2 H :    0.265800
   3 C :   -0.435479
   4 H :    0.336166
   5 Cl:   -0.493090
   6 C :    0.311207
   7 C :   -0.425947
   8 H :    0.255178
   9 H :    0.254211
  10 H :    0.234146
  11 C :   -0.835735
  12 H :    0.305954
  13 Cl:   -0.387846
Sum of atomic charges:    0.0000000

LOEWDIN ATOMIC CHARGES
----------------------
   0 H :   -0.299417
   1 H :   -0.433023
   2 H :   -0.407414
   3 C :   -0.229654
   4 H :   -0.409158
   5 Cl:    1.183696
   6 C :   -0.603065
   7 C :    0.362632
   8 H :   -0.316439
   9 H :   -0.281562
  10 H :   -0.283037
  11 C :    0.900860
  12 H :   -0.329499
  13 Cl:    1.145081

  Mayer bond orders larger than 0.100000
B(  0-H ,  7-C ) :   0.8892 B(  1-H ,  3-C ) :   0.8932 B(  2-H ,  3-C ) :   0.9164
B(  3-C ,  6-C ) :   0.8057 B(  3-C , 13-Cl) :   0.8146 B(  4-H ,  6-C ) :   0.8259
B(  5-Cl,  6-C ) :   0.4730 B(  6-C ,  7-C ) :   0.8672 B(  6-C , 13-Cl) :  -0.1441
B(  7-C , 11-C ) :   0.9431 B(  7-C , 12-H ) :   0.8389 B(  8-H , 11-C ) :   0.9459
B(  9-H , 11-C ) :   1.0103 B( 10-H , 11-C ) :   0.9445

MP2 TOTAL ENERGY:    -1076.420183685 Eh
FINAL SINGLE POINT ENERGY     -1076.420183685106

DIPOLE MOMENT
-------------
                                X             Y             Z
Electronic contribution:     -5.99360      -7.62983      -0.87096
Nuclear contribution   :      6.11362       7.91767       0.98505
                        -----------------------------------------
Total Dipole Moment    :      0.12003       0.28784       0.11410
                        -----------------------------------------
Magnitude (a.u.)       :      0.33208
Magnitude (Debye)      :      0.84408

Rotational constants in cm-1:     0.100003     0.042590     0.031281
Rotational constants in MHz :  2997.999773  1276.820460   937.782265

                             ****ORCA TERMINATED NORMALLY****
TOTAL RUN TIME: 0 days 0 hours 25 minutes 18 seconds 538 msec
