                         Program Version 5.0.4 -  RELEASE  -
|  1> !ri-mp2 aug-cc-pvqz aug-cc-pvqz/c tightscf
|  2> %pal nprocs 16 end
|  3>
|  4> * xyz 0 1
|  5> C     0.225402     0.725379    1.173820
|  6> C    -0.225402    -0.725379    1.173820
|  7> C     0.225402     0.725379   -1.173820
|  8> C    -0.225402    -0.725379   -1.173820
|  9> O    -0.225402     1.393629    0.000000
| 10> O     0.225402    -1.393629    0.000000
| 11> H    -0.194991     1.264433    2.022632
| 12> H     1.320586     0.773781    1.230887
| 13> H     0.194991    -1.264433    2.022632
| 14> H    -1.320586    -0.773781    1.230887
| 15> H     1.320586     0.773781   -1.230887
| 16> H    -0.194991     1.264433   -2.022632
| 17> H    -1.320586    -0.773781   -1.230887
| 18> H     0.194991    -1.264433   -2.022632
| 19> *
| 20>
| 21>                          ****END OF INPUT****

CARTESIAN COORDINATES (ANGSTROEM)
---------------------------------
  C      0.225402    0.725379    1.173820
  C     -0.225402   -0.725379    1.173820
  C      0.225402    0.725379   -1.173820
  C     -0.225402   -0.725379   -1.173820
  O     -0.225402    1.393629    0.000000
  O      0.225402   -1.393629    0.000000
  H     -0.194991    1.264433    2.022632
  H      1.320586    0.773781    1.230887
  H      0.194991   -1.264433    2.022632
  H     -1.320586   -0.773781    1.230887
  H      1.320586    0.773781   -1.230887
  H     -0.194991    1.264433   -2.022632
  H     -1.320586   -0.773781   -1.230887
  H      0.194991   -1.264433   -2.022632

 Total Charge           Charge          ....    0
 Multiplicity           Mult            ....    1
 Number of Electrons    NEL             ....   48
 Basis Dimension        Dim             ....  848

ORBITAL ENERGIES
----------------

  NO   OCC          E(Eh)            E(eV)
   0   2.0000     -20.557595      -559.4006
   1   2.0000     -20.557593      -559.4005
   2   2.0000     -11.276554      -306.8506
   3   2.0000     -11.276533      -306.8501
   4   2.0000     -11.275899      -306.8328
   5   2.0000     -11.275887      -306.8325
   6   2.0000      -1.396464       -37.9997
   7   2.0000      -1.354953       -36.8701
   8   2.0000      -1.047451       -28.5026
   9   2.0000      -0.951366       -25.8880
  10   2.0000      -0.892101       -24.2753
  11   2.0000      -0.795580       -21.6488
  12   2.0000      -0.697143       -18.9702
  13   2.0000      -0.654410       -17.8074
  14   2.0000      -0.649152       -17.6643
  15   2.0000      -0.641205       -17.4481
  16   2.0000      -0.633819       -17.2471
  17   2.0000      -0.554021       -15.0757
  18   2.0000      -0.553755       -15.0684
  19   2.0000      -0.517297       -14.0764
  20   2.0000      -0.513444       -13.9715
  21   2.0000      -0.459499       -12.5036
  22   2.0000      -0.455328       -12.3901
  23   2.0000      -0.397951       -10.8288
  24   0.0000       0.027789         0.7562
  25   0.0000       0.030384         0.8268
  26   0.0000       0.034609         0.9417
  27   0.0000       0.040045         1.0897
  28   0.0000       0.048106         1.3090

MULLIKEN ATOMIC CHARGES
-----------------------
   0 C :   -0.229315
   1 C :   -0.229322
   2 C :   -0.229315
   3 C :   -0.229322
   4 O :   -0.855514
   5 O :   -0.855513
   6 H :    0.440274
   7 H :    0.216800
   8 H :    0.440275
   9 H :    0.216802
  10 H :    0.216800
  11 H :    0.440274
  12 H :    0.216802
  13 H :    0.440275
Sum of atomic charges:    0.0000000

LOEWDIN ATOMIC CHARGES
----------------------
   0 C :    0.162045
   1 C :    0.162045
   2 C :    0.162045
   3 C :    0.162045
   4 O :    0.887743
   5 O :    0.887743
   6 H :   -0.308362
   7 H :   -0.297554
   8 H :   -0.308362
   9 H :   -0.297554
  10 H :   -0.297554
  11 H :   -0.308362
  12 H :   -0.297554
  13 H :   -0.308362

  Mayer bond orders larger than 0.100000
B(  0-C ,  1-C ) :   1.1279 B(  0-C ,  4-O ) :   0.7702 B(  0-C ,  6-H ) :   0.7663
B(  0-C ,  7-H ) :   0.9338 B(  1-C ,  5-O ) :   0.7702 B(  1-C ,  8-H ) :   0.7663
B(  1-C ,  9-H ) :   0.9338 B(  2-C ,  3-C ) :   1.1279 B(  2-C ,  4-O ) :   0.7702
B(  2-C , 10-H ) :   0.9338 B(  2-C , 11-H ) :   0.7663 B(  3-C ,  5-O ) :   0.7702
B(  3-C , 12-H ) :   0.9338 B(  3-C , 13-H ) :   0.7663

MP2 TOTAL ENERGY:     -307.199679433 Eh
FINAL SINGLE POINT ENERGY      -307.199679432653

DIPOLE MOMENT
-------------
                                X             Y             Z
Electronic contribution:      0.00000       0.00000       0.00000
Nuclear contribution   :      0.00000       0.00000      -0.00000
                        -----------------------------------------
Total Dipole Moment    :      0.00000       0.00000       0.00000
                        -----------------------------------------
Magnitude (a.u.)       :      0.00000
Magnitude (Debye)      :      0.00000

Rotational constants in cm-1:     0.168504     0.156760     0.091074
Rotational constants in MHz :  5051.631311  4699.540632  2730.331908

                             ****ORCA TERMINATED NORMALLY****
TOTAL RUN TIME: 0 days 0 hours 26 minutes 34 seconds 608 msec
