                         Program Version 5.0.4 -  RELEASE  -
|  1> !ri-mp2 aug-cc-pvqz aug-cc-pvqz/c tightscf
|  2> %pal nprocs 16 end
|  3>
|  4> * xyz 0 1
|  5> C      0.000000    0.000000    0.000000
|  6> C      0.000000    0.000000    1.271509
|  7> C      0.000000    0.000000   -1.271509
|  8> O      0.000000    0.000000    2.431267
|  9> O      0.000000    0.000000   -2.431267
| 10> *
| 11>
| 12>                          ****END OF INPUT****

CARTESIAN COORDINATES (ANGSTROEM)
---------------------------------
  C      0.000000    0.000000    0.000000
  C      0.000000    0.000000    1.271509
  C      0.000000    0.000000   -1.271509
  O      0.000000    0.000000    2.431267
  O      0.000000    0.000000   -2.431267

 Total Charge           Charge          ....    0
 Multiplicity           Mult            ....    1
 Number of Electrons    NEL             ....   34
 Basis Dimension        Dim             ....  400

ORBITAL ENERGIES
----------------

  NO   OCC          E(Eh)            E(eV)
   0   2.0000     -20.651098      -561.9449
   1   2.0000     -20.651097      -561.9449
   2   2.0000     -11.430413      -311.0374
   3   2.0000     -11.430393      -311.0368
   4   2.0000     -11.255742      -306.2843
   5   2.0000      -1.500482       -40.8302
   6   2.0000      -1.499345       -40.7993
   7   2.0000      -1.116901       -30.3924
   8   2.0000      -0.945917       -25.7397
   9   2.0000      -0.763609       -20.7788
  10   2.0000      -0.752369       -20.4730
  11   2.0000      -0.674234       -18.3468
  12   2.0000      -0.674234       -18.3468
  13   2.0000      -0.642053       -17.4711
  14   2.0000      -0.642053       -17.4711
  15   2.0000      -0.410584       -11.1726
  16   2.0000      -0.410584       -11.1726
  17   0.0000       0.037435         1.0187
  18   0.0000       0.046770         1.2727
  19   0.0000       0.054922         1.4945
  20   0.0000       0.054922         1.4945
  21   0.0000       0.068468         1.8631

MULLIKEN ATOMIC CHARGES
-----------------------
   0 C :   -0.766977
   1 C :    1.074176
   2 C :    1.074176
   3 O :   -0.690687
   4 O :   -0.690687
Sum of atomic charges:    0.0000000

LOEWDIN ATOMIC CHARGES
----------------------
   0 C :   -0.035524
   1 C :   -0.598108
   2 C :   -0.598108
   3 O :    0.615869
   4 O :    0.615869

  Mayer bond orders larger than 0.100000
B(  0-C ,  1-C ) :   1.9810 B(  0-C ,  2-C ) :   1.9810 B(  0-C ,  3-O ) :   0.4241
B(  0-C ,  4-O ) :   0.4241 B(  1-C ,  3-O ) :   1.3902 B(  2-C ,  4-O ) :   1.3902

MP2 TOTAL ENERGY:     -264.365043205 Eh
FINAL SINGLE POINT ENERGY      -264.365043204787

DIPOLE MOMENT
-------------
                                X             Y             Z
Electronic contribution:     -0.00000       0.00000      -0.00000
Nuclear contribution   :      0.00000       0.00000       0.00000
                        -----------------------------------------
Total Dipole Moment    :     -0.00000       0.00000      -0.00000
                        -----------------------------------------
Magnitude (a.u.)       :      0.00000
Magnitude (Debye)      :      0.00000

Rotational constants in cm-1:     0.000000     0.073944     0.073944
Rotational constants in MHz :     0.000000  2216.778076  2216.778076

                             ****ORCA TERMINATED NORMALLY****
TOTAL RUN TIME: 0 days 0 hours 1 minutes 56 seconds 846 msec
