                         Program Version 5.0.4 -  RELEASE  -
|  1> !ri-mp2 aug-cc-pvqz aug-cc-pvqz/c tightscf
|  2> %pal nprocs 16 end
|  3>
|  4> * xyz 0 1
|  5> O      0.000000    3.490824    0.071542
|  6> N      0.000000    2.463811   -0.588557
|  7> O      0.000000    2.410623   -1.806860
|  8> C      0.000000    1.181426    0.151124
|  9> C      0.000000    0.000000   -0.570360
| 10> C      0.000000   -1.181426    0.151124
| 11> N      0.000000   -2.463811   -0.588557
| 12> O      0.000000   -3.490824    0.071542
| 13> O      0.000000   -2.410623   -1.806860
| 14> C      0.000000   -1.204752    1.538926
| 15> C      0.000000    0.000000    2.229613
| 16> C      0.000000    1.204752    1.538926
| 17> H      0.000000    0.000000   -1.647700
| 18> H      0.000000   -2.152894    2.053303
| 19> H      0.000000    0.000000    3.309868
| 20> H      0.000000    2.152894    2.053303
| 21> *
| 22>
| 23>                          ****END OF INPUT****

CARTESIAN COORDINATES (ANGSTROEM)
---------------------------------
  O      0.000000    3.490824    0.071542
  N      0.000000    2.463811   -0.588557
  O      0.000000    2.410623   -1.806860
  C      0.000000    1.181426    0.151124
  C      0.000000    0.000000   -0.570360
  C      0.000000   -1.181426    0.151124
  N      0.000000   -2.463811   -0.588557
  O      0.000000   -3.490824    0.071542
  O      0.000000   -2.410623   -1.806860
  C      0.000000   -1.204752    1.538926
  C      0.000000    0.000000    2.229613
  C      0.000000    1.204752    1.538926
  H      0.000000    0.000000   -1.647700
  H      0.000000   -2.152894    2.053303
  H      0.000000    0.000000    3.309868
  H      0.000000    2.152894    2.053303

 Total Charge           Charge          ....    0
 Multiplicity           Mult            ....    1
 Number of Electrons    NEL             ....   86
 Basis Dimension        Dim             .... 1144

ORBITAL ENERGIES
----------------

  NO   OCC          E(Eh)            E(eV)
   0   2.0000     -20.620830      -561.1213
   1   2.0000     -20.620830      -561.1213
   2   2.0000     -20.620119      -561.1020
   3   2.0000     -20.620119      -561.1020
   4   2.0000     -15.874231      -431.9598
   5   2.0000     -15.874231      -431.9598
   6   2.0000     -11.339917      -308.5748
   7   2.0000     -11.339893      -308.5742
   8   2.0000     -11.312616      -307.8319
   9   2.0000     -11.308858      -307.7297
  10   2.0000     -11.308815      -307.7285
  11   2.0000     -11.293039      -307.2992
  12   2.0000      -1.628682       -44.3187
  13   2.0000      -1.628448       -44.3123
  14   2.0000      -1.422378       -38.7049
  15   2.0000      -1.422199       -38.7000
  16   2.0000      -1.243126       -33.8272
  17   2.0000      -1.142383       -31.0858
  18   2.0000      -1.106614       -30.1125
  19   2.0000      -0.999424       -27.1957
  20   2.0000      -0.986811       -26.8525
  21   2.0000      -0.882616       -24.0172
  22   2.0000      -0.847280       -23.0557
  23   2.0000      -0.818817       -22.2812
  24   2.0000      -0.765378       -20.8270
  25   2.0000      -0.753289       -20.4980
  26   2.0000      -0.744354       -20.2549
  27   2.0000      -0.743815       -20.2402
  28   2.0000      -0.739978       -20.1358
  29   2.0000      -0.736611       -20.0442
  30   2.0000      -0.691104       -18.8059
  31   2.0000      -0.668856       -18.2005
  32   2.0000      -0.599720       -16.3192
  33   2.0000      -0.584557       -15.9066
  34   2.0000      -0.572117       -15.5681
  35   2.0000      -0.522509       -14.2182
  36   2.0000      -0.517352       -14.0779
  37   2.0000      -0.515288       -14.0217
  38   2.0000      -0.511055       -13.9065
  39   2.0000      -0.475075       -12.9274
  40   2.0000      -0.474469       -12.9110
  41   2.0000      -0.414275       -11.2730
  42   2.0000      -0.405221       -11.0266
  43   0.0000       0.007860         0.2139
  44   0.0000       0.014340         0.3902
  45   0.0000       0.025397         0.6911
  46   0.0000       0.028702         0.7810
  47   0.0000       0.032404         0.8817

MULLIKEN ATOMIC CHARGES
-----------------------
   0 O :   -0.589461
   1 N :    0.736344
   2 O :   -0.586357
   3 C :    0.001636
   4 C :   -0.181040
   5 C :    0.001740
   6 N :    0.736351
   7 O :   -0.589457
   8 O :   -0.586371
   9 C :   -0.057840
  10 C :   -0.291579
  11 C :   -0.057876
  12 H :    0.497731
  13 H :    0.387349
  14 H :    0.191480
  15 H :    0.387351
Sum of atomic charges:    0.0000000

LOEWDIN ATOMIC CHARGES
----------------------
   0 O :    0.549686
   1 N :   -0.829422
   2 O :    0.554613
   3 C :   -0.276138
   4 C :    0.296882
   5 C :   -0.276138
   6 N :   -0.829422
   7 O :    0.549686
   8 O :    0.554613
   9 C :    0.341191
  10 C :    0.390196
  11 C :    0.341191
  12 H :   -0.371269
  13 H :   -0.341900
  14 H :   -0.311868
  15 H :   -0.341900

  Mayer bond orders larger than 0.100000
B(  0-O ,  1-N ) :   1.1635 B(  0-O ,  3-C ) :   0.3008 B(  1-N ,  2-O ) :   1.1879
B(  1-N ,  3-C ) :   0.8277 B(  1-N , 11-C ) :  -0.1148 B(  2-O ,  3-C ) :   0.2169
B(  3-C ,  4-C ) :   1.3817 B(  3-C ,  5-C ) :  -0.4546 B(  3-C , 10-C ) :  -0.3044
B(  3-C , 11-C ) :   1.1910 B(  3-C , 15-H ) :  -0.1128 B(  4-C ,  5-C ) :   1.3815
B(  4-C , 10-C ) :   0.1138 B(  4-C , 12-H ) :   0.6947 B(  5-C ,  6-N ) :   0.8277
B(  5-C ,  7-O ) :   0.3009 B(  5-C ,  8-O ) :   0.2169 B(  5-C ,  9-C ) :   1.1910
B(  5-C , 10-C ) :  -0.3044 B(  5-C , 13-H ) :  -0.1128 B(  6-N ,  7-O ) :   1.1635
B(  6-N ,  8-O ) :   1.1879 B(  6-N ,  9-C ) :  -0.1147 B(  9-C , 10-C ) :   1.2503
B(  9-C , 13-H ) :   0.8458 B(  9-C , 14-H ) :  -0.1067 B( 10-C , 11-C ) :   1.2504
B( 10-C , 14-H ) :   1.2054 B( 11-C , 14-H ) :  -0.1067 B( 11-C , 15-H ) :   0.8458

MP2 TOTAL ENERGY:     -640.389017251 Eh
FINAL SINGLE POINT ENERGY      -640.389017251299

DIPOLE MOMENT
-------------
                                X             Y             Z
Electronic contribution:     -0.00000      -0.00000      -3.58837
Nuclear contribution   :      0.00000      -0.00000       5.48330
                        -----------------------------------------
Total Dipole Moment    :     -0.00000      -0.00000       1.89493
                        -----------------------------------------
Magnitude (a.u.)       :      1.89493
Magnitude (Debye)      :      4.81654

Rotational constants in cm-1:     0.065473     0.020467     0.015593
Rotational constants in MHz :  1962.817191   613.576928   467.451518

                             ****ORCA TERMINATED NORMALLY****
TOTAL RUN TIME: 0 days 1 hours 7 minutes 34 seconds 940 msec
