                         Program Version 5.0.4 -  RELEASE  -
|  1> !ri-mp2 aug-cc-pvqz aug-cc-pvqz/c tightscf
|  2> %pal nprocs 16 end
|  3>
|  4> * xyz 0 1
|  5> O     -0.557524   -1.069370    0.000000
|  6> O      0.138457   -0.482273    1.115905
|  7> O      0.138457   -0.482273   -1.115905
|  8> C      0.138457    0.901420    0.775632
|  9> C      0.138457    0.901420   -0.775632
| 10> H      1.040255    1.327083    1.210950
| 11> H      1.040255    1.327083   -1.210950
| 12> H     -0.748557    1.400059    1.169152
| 13> H     -0.748557    1.400059   -1.169152
| 14> *
| 15>
| 16>                          ****END OF INPUT****

CARTESIAN COORDINATES (ANGSTROEM)
---------------------------------
  O     -0.557524   -1.069370    0.000000
  O      0.138457   -0.482273    1.115905
  O      0.138457   -0.482273   -1.115905
  C      0.138457    0.901420    0.775632
  C      0.138457    0.901420   -0.775632
  H      1.040255    1.327083    1.210950
  H      1.040255    1.327083   -1.210950
  H     -0.748557    1.400059    1.169152
  H     -0.748557    1.400059   -1.169152

 Total Charge           Charge          ....    0
 Multiplicity           Mult            ....    1
 Number of Electrons    NEL             ....   40
 Basis Dimension        Dim             ....  584

ORBITAL ENERGIES
----------------

  NO   OCC          E(Eh)            E(eV)
   0   2.0000     -20.690882      -563.0275
   1   2.0000     -20.642088      -561.6998
   2   2.0000     -20.642060      -561.6990
   3   2.0000     -11.307682      -307.6977
   4   2.0000     -11.307112      -307.6821
   5   2.0000      -1.556004       -42.3410
   6   2.0000      -1.363409       -37.1003
   7   2.0000      -1.192102       -32.4387
   8   2.0000      -0.979525       -26.6542
   9   2.0000      -0.876134       -23.8408
  10   2.0000      -0.735892       -20.0246
  11   2.0000      -0.725797       -19.7499
  12   2.0000      -0.674274       -18.3479
  13   2.0000      -0.653968       -17.7954
  14   2.0000      -0.609031       -16.5726
  15   2.0000      -0.550318       -14.9749
  16   2.0000      -0.547500       -14.8982
  17   2.0000      -0.528348       -14.3771
  18   2.0000      -0.480883       -13.0855
  19   2.0000      -0.455233       -12.3875
  20   0.0000       0.022432         0.6104
  21   0.0000       0.033907         0.9227
  22   0.0000       0.034682         0.9437
  23   0.0000       0.052182         1.4200
  24   0.0000       0.062208         1.6928

MULLIKEN ATOMIC CHARGES
-----------------------
   0 O :   -0.133987
   1 O :   -0.424511
   2 O :   -0.424511
   3 C :   -0.158737
   4 C :   -0.158737
   5 H :    0.357884
   6 H :    0.357884
   7 H :    0.292358
   8 H :    0.292358
Sum of atomic charges:   -0.0000000

LOEWDIN ATOMIC CHARGES
----------------------
   0 O :    0.171355
   1 O :    0.472543
   2 O :    0.472543
   3 C :    0.085621
   4 C :    0.085621
   5 H :   -0.326629
   6 H :   -0.326629
   7 H :   -0.317212
   8 H :   -0.317212

  Mayer bond orders larger than 0.100000
B(  0-O ,  1-O ) :   0.8649 B(  0-O ,  2-O ) :   0.8649 B(  1-O ,  3-C ) :   0.6703
B(  2-O ,  4-C ) :   0.6703 B(  3-C ,  4-C ) :   1.1731 B(  3-C ,  5-H ) :   0.8170
B(  3-C ,  7-H ) :   0.8809 B(  4-C ,  6-H ) :   0.8170 B(  4-C ,  8-H ) :   0.8809

MP2 TOTAL ENERGY:     -303.705844405 Eh
FINAL SINGLE POINT ENERGY      -303.705844404558

DIPOLE MOMENT
-------------
                                X             Y             Z
Electronic contribution:     -0.45548      -3.88112       0.00000
Nuclear contribution   :      0.57191       5.35605       0.00000
                        -----------------------------------------
Total Dipole Moment    :      0.11643       1.47494       0.00000
                        -----------------------------------------
Magnitude (a.u.)       :      1.47952
Magnitude (Debye)      :      3.76065

Rotational constants in cm-1:     0.273080     0.252738     0.146525
Rotational constants in MHz :  8186.746133  7576.894148  4392.716739

                             ****ORCA TERMINATED NORMALLY****
TOTAL RUN TIME: 0 days 0 hours 8 minutes 28 seconds 812 msec
