                         Program Version 5.0.4 -  RELEASE  -
|  1> !ri-mp2 aug-cc-pvqz aug-cc-pvqz/c tightscf
|  2> %pal nprocs 16 end
|  3>
|  4> * xyz 0 1
|  5> S     -0.919300   -0.968615    0.000000
|  6> N     -2.596878    1.348222    0.000000
|  7> C      3.166496    0.507266    0.000001
|  8> C      1.788843    0.050261    0.000001
|  9> C      0.640017   -0.308782    0.000000
| 10> C     -1.880155    0.442903    0.000000
| 11> H      3.698733    0.156257    0.885244
| 12> H      3.198185    1.598130   -0.000150
| 13> H      3.698808    0.156014   -0.885101
| 14> *
| 15>
| 16>                          ****END OF INPUT****

CARTESIAN COORDINATES (ANGSTROEM)
---------------------------------
  S     -0.919300   -0.968615    0.000000
  N     -2.596878    1.348222    0.000000
  C      3.166496    0.507266    0.000001
  C      1.788843    0.050261    0.000001
  C      0.640017   -0.308782    0.000000
  C     -1.880155    0.442903    0.000000
  H      3.698733    0.156257    0.885244
  H      3.198185    1.598130   -0.000150
  H      3.698808    0.156014   -0.885101

 Total Charge           Charge          ....    0
 Multiplicity           Mult            ....    1
 Number of Electrons    NEL             ....   50
 Basis Dimension        Dim             ....  622

ORBITAL ENERGIES
----------------

  NO   OCC          E(Eh)            E(eV)
   0   2.0000     -92.049880     -2504.8046
   1   2.0000     -15.589346      -424.2077
   2   2.0000     -11.303027      -307.5710
   3   2.0000     -11.272930      -306.7520
   4   2.0000     -11.269708      -306.6643
   5   2.0000     -11.268547      -306.6328
   6   2.0000      -9.048526      -246.2229
   7   2.0000      -6.730345      -183.1420
   8   2.0000      -6.729106      -183.1083
   9   2.0000      -6.728094      -183.0807
  10   2.0000      -1.237878       -33.6844
  11   2.0000      -1.124338       -30.5948
  12   2.0000      -1.064434       -28.9647
  13   2.0000      -0.971447       -26.4344
  14   2.0000      -0.759428       -20.6651
  15   2.0000      -0.661273       -17.9942
  16   2.0000      -0.616300       -16.7704
  17   2.0000      -0.615994       -16.7620
  18   2.0000      -0.603143       -16.4124
  19   2.0000      -0.567325       -15.4377
  20   2.0000      -0.548827       -14.9343
  21   2.0000      -0.480661       -13.0794
  22   2.0000      -0.464936       -12.6515
  23   2.0000      -0.416710       -11.3392
  24   2.0000      -0.362632        -9.8677
  25   0.0000       0.019238         0.5235
  26   0.0000       0.036961         1.0058
  27   0.0000       0.037682         1.0254
  28   0.0000       0.042051         1.1443
  29   0.0000       0.058658         1.5962

MULLIKEN ATOMIC CHARGES
-----------------------
   0 S :    0.653514
   1 N :   -0.513697
   2 C :   -0.602330
   3 C :    0.250040
   4 C :   -0.471643
   5 C :   -0.072709
   6 H :    0.254014
   7 H :    0.248802
   8 H :    0.254009
Sum of atomic charges:    0.0000000

LOEWDIN ATOMIC CHARGES
----------------------
   0 S :    1.100640
   1 N :    0.268287
   2 C :    0.838565
   3 C :    0.032925
   4 C :   -0.437070
   5 C :   -0.858129
   6 H :   -0.315167
   7 H :   -0.314883
   8 H :   -0.315167

  Mayer bond orders larger than 0.100000
B(  0-S ,  4-C ) :   0.6116 B(  0-S ,  5-C ) :   0.9994 B(  1-N ,  5-C ) :   2.6328
B(  2-C ,  3-C ) :   0.7398 B(  2-C ,  6-H ) :   0.9757 B(  2-C ,  7-H ) :   0.9876
B(  2-C ,  8-H ) :   0.9757 B(  3-C ,  4-C ) :   2.6700 B(  4-C ,  5-C ) :  -0.1054

MP2 TOTAL ENERGY:     -606.265181158 Eh
FINAL SINGLE POINT ENERGY      -606.265181157669

DIPOLE MOMENT
-------------
                                X             Y             Z
Electronic contribution:     -8.56759      -2.56034       0.00000
Nuclear contribution   :     10.25593       1.88339      -0.00001
                        -----------------------------------------
Total Dipole Moment    :      1.68834      -0.67695      -0.00000
                        -----------------------------------------
Magnitude (a.u.)       :      1.81900
Magnitude (Debye)      :      4.62354

Rotational constants in cm-1:     0.254684     0.046026     0.039268
Rotational constants in MHz :  7635.224686  1379.835798  1177.239678

                             ****ORCA TERMINATED NORMALLY****
TOTAL RUN TIME: 0 days 0 hours 7 minutes 48 seconds 554 msec
