                         Program Version 5.0.4 -  RELEASE  -
|  1> !ri-mp2 aug-cc-pvqz aug-cc-pvqz/c tightscf
|  2> %pal nprocs 16 end
|  3> %maxcore 3800
|  4>
|  5> * xyz 0 1
|  6> C     0.258550    2.382485    0.824917
|  7> C     2.419735   -0.329563   -1.144869
|  8> C     0.651202   -1.608396    1.651249
|  9> C     0.344674    0.105814   -0.045876
| 10> C    -1.170238   -0.211734   -0.324776
| 11> O     0.585595    1.459026   -0.221890
| 12> O     1.018793   -0.603637   -1.020083
| 13> O     0.713817   -0.233280    1.257402
| 14> F    -1.581732    0.353567   -1.464232
| 15> F    -1.943092    0.265655    0.672940
| 16> F    -1.406607   -1.532928   -0.413131
| 17> H    -0.817668    2.438539    0.985805
| 18> H     0.620817    3.344736    0.473213
| 19> H     0.757167    2.116247    1.753875
| 20> H     2.924788   -0.411858   -0.181994
| 21> H     2.583857    0.662861   -1.559989
| 22> H     2.802661   -1.084794   -1.825432
| 23> H     1.042909   -2.260936    0.872164
| 24> H    -0.370179   -1.902674    1.893061
| 25> H     1.269351   -1.687276    2.541803
| 26> *
| 27>
| 28>                          ****END OF INPUT****

CARTESIAN COORDINATES (ANGSTROEM)
---------------------------------
  C      0.258550    2.382485    0.824917
  C      2.419735   -0.329563   -1.144869
  C      0.651202   -1.608396    1.651249
  C      0.344674    0.105814   -0.045876
  C     -1.170238   -0.211734   -0.324776
  O      0.585595    1.459026   -0.221890
  O      1.018793   -0.603637   -1.020083
  O      0.713817   -0.233280    1.257402
  F     -1.581732    0.353567   -1.464232
  F     -1.943092    0.265655    0.672940
  F     -1.406607   -1.532928   -0.413131
  H     -0.817668    2.438539    0.985805
  H      0.620817    3.344736    0.473213
  H      0.757167    2.116247    1.753875
  H      2.924788   -0.411858   -0.181994
  H      2.583857    0.662861   -1.559989
  H      2.802661   -1.084794   -1.825432
  H      1.042909   -2.260936    0.872164
  H     -0.370179   -1.902674    1.893061
  H      1.269351   -1.687276    2.541803

 Total Charge           Charge          ....    0
 Multiplicity           Mult            ....    1
 Number of Electrons    NEL             ....   90
 Basis Dimension        Dim             .... 1294

ORBITAL ENERGIES
----------------

  NO   OCC          E(Eh)            E(eV)
   0   2.0000     -26.333321      -716.5661
   1   2.0000     -26.332454      -716.5425
   2   2.0000     -26.330108      -716.4787
   3   2.0000     -20.585782      -560.1676
   4   2.0000     -20.582341      -560.0740
   5   2.0000     -20.580866      -560.0338
   6   2.0000     -11.502259      -312.9924
   7   2.0000     -11.428060      -310.9733
   8   2.0000     -11.286014      -307.1081
   9   2.0000     -11.281474      -306.9845
  10   2.0000     -11.279777      -306.9383
  11   2.0000      -1.723520       -46.8994
  12   2.0000      -1.629278       -44.3349
  13   2.0000      -1.628566       -44.3155
  14   2.0000      -1.480893       -40.2971
  15   2.0000      -1.374335       -37.3976
  16   2.0000      -1.369604       -37.2688
  17   2.0000      -1.043090       -28.3839
  18   2.0000      -0.965222       -26.2650
  19   2.0000      -0.951908       -25.9027
  20   2.0000      -0.944346       -25.6970
  21   2.0000      -0.861054       -23.4305
  22   2.0000      -0.818687       -22.2776
  23   2.0000      -0.816847       -22.2275
  24   2.0000      -0.781620       -21.2690
  25   2.0000      -0.730966       -19.8906
  26   2.0000      -0.726470       -19.7683
  27   2.0000      -0.701661       -19.0932
  28   2.0000      -0.698750       -19.0139
  29   2.0000      -0.676753       -18.4154
  30   2.0000      -0.665447       -18.1077
  31   2.0000      -0.661974       -18.0132
  32   2.0000      -0.646274       -17.5860
  33   2.0000      -0.643125       -17.5003
  34   2.0000      -0.632804       -17.2195
  35   2.0000      -0.615291       -16.7429
  36   2.0000      -0.604086       -16.4380
  37   2.0000      -0.594436       -16.1754
  38   2.0000      -0.572086       -15.5672
  39   2.0000      -0.542187       -14.7537
  40   2.0000      -0.512768       -13.9531
  41   2.0000      -0.502072       -13.6621
  42   2.0000      -0.473527       -12.8853
  43   2.0000      -0.467948       -12.7335
  44   2.0000      -0.454708       -12.3732
  45   0.0000       0.023410         0.6370
  46   0.0000       0.031246         0.8503
  47   0.0000       0.032967         0.8971
  48   0.0000       0.038464         1.0467
  49   0.0000       0.047928         1.3042

MULLIKEN ATOMIC CHARGES
-----------------------
   0 C :   -0.785436
   1 C :   -0.805812
   2 C :   -0.808709
   3 C :    2.320541
   4 C :    1.873156
   5 O :   -0.957800
   6 O :   -0.895132
   7 O :   -0.931326
   8 F :   -0.686758
   9 F :   -0.697311
  10 F :   -0.712867
  11 H :    0.303606
  12 H :    0.388233
  13 H :    0.320214
  14 H :    0.290128
  15 H :    0.339532
  16 H :    0.419171
  17 H :    0.329042
  18 H :    0.303969
  19 H :    0.393558
Sum of atomic charges:   -0.0000000

LOEWDIN ATOMIC CHARGES
----------------------
   0 C :    0.601727
   1 C :    0.605318
   2 C :    0.593133
   3 C :   -1.557468
   4 C :   -2.183866
   5 O :    0.839102
   6 O :    0.833162
   7 O :    0.847825
   8 F :    0.775710
   9 F :    0.770856
  10 F :    0.773256
  11 H :   -0.332068
  12 H :   -0.322991
  13 H :   -0.332375
  14 H :   -0.311718
  15 H :   -0.315141
  16 H :   -0.319244
  17 H :   -0.325852
  18 H :   -0.323070
  19 H :   -0.316295

  Mayer bond orders larger than 0.100000
B(  0-C ,  3-C ) :  -0.1707 B(  0-C ,  5-O ) :   0.9660 B(  0-C , 11-H ) :   0.8975
B(  0-C , 12-H ) :   0.8985 B(  0-C , 13-H ) :   0.8857 B(  1-C ,  3-C ) :  -0.1592
B(  1-C ,  6-O ) :   0.9364 B(  1-C , 14-H ) :   0.9247 B(  1-C , 15-H ) :   0.8819
B(  1-C , 16-H ) :   0.8509 B(  2-C ,  3-C ) :  -0.1374 B(  2-C ,  7-O ) :   0.9327
B(  2-C , 17-H ) :   0.8847 B(  2-C , 18-H ) :   0.9065 B(  2-C , 19-H ) :   0.8787
B(  3-C ,  4-C ) :   0.9137 B(  3-C ,  5-O ) :   0.1768 B(  3-C ,  6-O ) :   0.3696
B(  3-C ,  7-O ) :   0.1633 B(  3-C ,  9-F ) :  -0.1103 B(  4-C ,  6-O ) :   0.1354
B(  4-C ,  8-F ) :   0.3294 B(  4-C ,  9-F ) :   0.4592 B(  4-C , 10-F ) :   0.3676
B(  5-O ,  6-O ) :   0.1227 B(  5-O ,  7-O ) :   0.1268

MP2 TOTAL ENERGY:     -720.293025723 Eh
FINAL SINGLE POINT ENERGY      -720.293025723279

DIPOLE MOMENT
-------------
                                X             Y             Z
Electronic contribution:    -14.28529      -2.06376      -5.25468
Nuclear contribution   :     15.26079       2.06482       5.96262
                        -----------------------------------------
Total Dipole Moment    :      0.97550       0.00106       0.70793
                        -----------------------------------------
Magnitude (a.u.)       :      1.20531
Magnitude (Debye)      :      3.06366

Rotational constants in cm-1:     0.042251     0.034974     0.031600
Rotational constants in MHz :  1266.645534  1048.502502   947.358194

                             ****ORCA TERMINATED NORMALLY****
TOTAL RUN TIME: 0 days 1 hours 29 minutes 56 seconds 921 msec
