                         Program Version 5.0.4 -  RELEASE  -
|  1> !ri-mp2 aug-cc-pvqz aug-cc-pvqz/c tightscf
|  2> %pal nprocs 16 end
|  3>
|  4> * xyz 0 1
|  5> C     -0.721870    0.249030    0.685981
|  6> C      0.721870   -0.249030    0.685981
|  7> C     -1.761587   -0.853628    0.754122
|  8> C      1.761587    0.853628    0.754122
|  9> Cl    -1.761587   -1.906934   -0.730679
| 10> Cl     1.761587    1.906934   -0.730679
| 11> H     -0.904673    0.868385   -0.192246
| 12> H     -0.885885    0.888194    1.561267
| 13> H      0.904673   -0.868385   -0.192246
| 14> H      0.885885   -0.888194    1.561267
| 15> H     -1.591489   -1.527110    1.590678
| 16> H     -2.766336   -0.447769    0.821230
| 17> H      1.591489    1.527110    1.590678
| 18> H      2.766336    0.447769    0.821230
| 19> *
| 20>
| 21>                          ****END OF INPUT****

CARTESIAN COORDINATES (ANGSTROEM)
---------------------------------
  C     -0.721870    0.249030    0.685981
  C      0.721870   -0.249030    0.685981
  C     -1.761587   -0.853628    0.754122
  C      1.761587    0.853628    0.754122
  Cl    -1.761587   -1.906934   -0.730679
  Cl     1.761587    1.906934   -0.730679
  H     -0.904673    0.868385   -0.192246
  H     -0.885885    0.888194    1.561267
  H      0.904673   -0.868385   -0.192246
  H      0.885885   -0.888194    1.561267
  H     -1.591489   -1.527110    1.590678
  H     -2.766336   -0.447769    0.821230
  H      1.591489    1.527110    1.590678
  H      2.766336    0.447769    0.821230

 Total Charge           Charge          ....    0
 Multiplicity           Mult            ....    1
 Number of Electrons    NEL             ....   66
 Basis Dimension        Dim             ....  856

ORBITAL ENERGIES
----------------

  NO   OCC          E(Eh)            E(eV)
   0   2.0000    -104.820748     -2852.3176
   1   2.0000    -104.820748     -2852.3176
   2   2.0000     -11.299217      -307.4673
   3   2.0000     -11.299215      -307.4673
   4   2.0000     -11.245011      -305.9923
   5   2.0000     -11.244391      -305.9754
   6   2.0000     -10.546193      -286.9765
   7   2.0000     -10.546193      -286.9765
   8   2.0000      -8.013208      -218.0505
   9   2.0000      -8.013208      -218.0505
  10   2.0000      -8.011641      -218.0078
  11   2.0000      -8.011641      -218.0078
  12   2.0000      -8.011613      -218.0071
  13   2.0000      -8.011613      -218.0071
  14   2.0000      -1.149466       -31.2786
  15   2.0000      -1.126597       -30.6563
  16   2.0000      -1.050005       -28.5721
  17   2.0000      -0.967516       -26.3274
  18   2.0000      -0.865888       -23.5620
  19   2.0000      -0.806042       -21.9335
  20   2.0000      -0.670141       -18.2355
  21   2.0000      -0.643901       -17.5214
  22   2.0000      -0.629223       -17.1220
  23   2.0000      -0.605947       -16.4887
  24   2.0000      -0.551706       -15.0127
  25   2.0000      -0.538812       -14.6618
  26   2.0000      -0.525370       -14.2961
  27   2.0000      -0.498224       -13.5574
  28   2.0000      -0.488905       -13.3038
  29   2.0000      -0.437420       -11.9028
  30   2.0000      -0.435295       -11.8450
  31   2.0000      -0.434264       -11.8169
  32   2.0000      -0.430041       -11.7020
  33   0.0000       0.021495         0.5849
  34   0.0000       0.028049         0.7633
  35   0.0000       0.034179         0.9301
  36   0.0000       0.039423         1.0727
  37   0.0000       0.052213         1.4208

MULLIKEN ATOMIC CHARGES
-----------------------
   0 C :   -0.315763
   1 C :   -0.315763
   2 C :   -0.408655
   3 C :   -0.408655
   4 Cl:   -0.390634
   5 Cl:   -0.390634
   6 H :    0.312636
   7 H :    0.251852
   8 H :    0.312636
   9 H :    0.251852
  10 H :    0.250230
  11 H :    0.300334
  12 H :    0.250230
  13 H :    0.300334
Sum of atomic charges:   -0.0000000

LOEWDIN ATOMIC CHARGES
----------------------
   0 C :    0.367215
   1 C :    0.367215
   2 C :   -0.093788
   3 C :   -0.093788
   4 Cl:    1.120397
   5 Cl:    1.120397
   6 H :   -0.327475
   7 H :   -0.281988
   8 H :   -0.327475
   9 H :   -0.281988
  10 H :   -0.391858
  11 H :   -0.392502
  12 H :   -0.391858
  13 H :   -0.392502

  Mayer bond orders larger than 0.100000
B(  0-C ,  1-C ) :   0.9010 B(  0-C ,  2-C ) :   1.0117 B(  0-C ,  4-Cl) :  -0.1418
B(  0-C ,  6-H ) :   0.8386 B(  0-C ,  7-H ) :   0.8622 B(  1-C ,  3-C ) :   1.0117
B(  1-C ,  5-Cl) :  -0.1418 B(  1-C ,  8-H ) :   0.8386 B(  1-C ,  9-H ) :   0.8622
B(  2-C ,  4-Cl) :   0.8116 B(  2-C , 10-H ) :   0.9107 B(  2-C , 11-H ) :   0.9260
B(  3-C ,  5-Cl) :   0.8116 B(  3-C , 12-H ) :   0.9107 B(  3-C , 13-H ) :   0.9260

MP2 TOTAL ENERGY:    -1076.415708511 Eh
FINAL SINGLE POINT ENERGY     -1076.415708511046

DIPOLE MOMENT
-------------
                                X             Y             Z
Electronic contribution:     -0.00000      -0.00000      -8.03304
Nuclear contribution   :      0.00000       0.00000       9.41992
                        -----------------------------------------
Total Dipole Moment    :     -0.00000      -0.00000       1.38688
                        -----------------------------------------
Magnitude (a.u.)       :      1.38688
Magnitude (Debye)      :      3.52517

Rotational constants in cm-1:     0.158543     0.027370     0.025671
Rotational constants in MHz :  4753.004283   820.533060   769.597810

                             ****ORCA TERMINATED NORMALLY****
TOTAL RUN TIME: 0 days 0 hours 23 minutes 52 seconds 464 msec
