                         Program Version 5.0.4 -  RELEASE  -
|  1> !ri-mp2 aug-cc-pvqz aug-cc-pvqz/c tightscf
|  2> %pal nprocs 16 end
|  3>
|  4> * xyz 0 1
|  5> C     -0.695065   -2.506553    0.000000
|  6> C      0.640810   -2.129667    0.000000
|  7> C     -1.686417   -1.527721    0.000000
|  8> C      0.985096   -0.782121    0.000000
|  9> C     -1.343694   -0.185795    0.000000
| 10> C      0.000000    0.209408    0.000000
| 11> C      0.343826    1.660851    0.000000
| 12> C      1.805185    2.046442    0.000000
| 13> N     -0.606615    2.511330    0.000000
| 14> H     -0.964675   -3.554227    0.000000
| 15> H      1.418044   -2.881961    0.000000
| 16> H     -2.729354   -1.815347    0.000000
| 17> H      2.031257   -0.512617    0.000000
| 18> H     -2.104187    0.580888    0.000000
| 19> H      2.317686    1.650451    0.878477
| 20> H      1.909909    3.129766    0.000000
| 21> H      2.317686    1.650451   -0.878477
| 22> H     -0.248508    3.464218    0.000000
| 23> *
| 24>
| 25>                          ****END OF INPUT****

CARTESIAN COORDINATES (ANGSTROEM)
---------------------------------
  C     -0.695065   -2.506553    0.000000
  C      0.640810   -2.129667    0.000000
  C     -1.686417   -1.527721    0.000000
  C      0.985096   -0.782121    0.000000
  C     -1.343694   -0.185795    0.000000
  C      0.000000    0.209408    0.000000
  C      0.343826    1.660851    0.000000
  C      1.805185    2.046442    0.000000
  N     -0.606615    2.511330    0.000000
  H     -0.964675   -3.554227    0.000000
  H      1.418044   -2.881961    0.000000
  H     -2.729354   -1.815347    0.000000
  H      2.031257   -0.512617    0.000000
  H     -2.104187    0.580888    0.000000
  H      2.317686    1.650451    0.878477
  H      1.909909    3.129766    0.000000
  H      2.317686    1.650451   -0.878477
  H     -0.248508    3.464218    0.000000

 Total Charge           Charge          ....    0
 Multiplicity           Mult            ....    1
 Number of Electrons    NEL             ....   64
 Basis Dimension        Dim             .... 1134

ORBITAL ENERGIES
----------------

  NO   OCC          E(Eh)            E(eV)
   0   2.0000     -15.540457      -422.8773
   1   2.0000     -11.291204      -307.2493
   2   2.0000     -11.241913      -305.9080
   3   2.0000     -11.240422      -305.8674
   4   2.0000     -11.238717      -305.8210
   5   2.0000     -11.235851      -305.7431
   6   2.0000     -11.235058      -305.7215
   7   2.0000     -11.232987      -305.6651
   8   2.0000     -11.231395      -305.6218
   9   2.0000      -1.219368       -33.1807
  10   2.0000      -1.152009       -31.3478
  11   2.0000      -1.033876       -28.1332
  12   2.0000      -1.018511       -27.7151
  13   2.0000      -0.985341       -26.8125
  14   2.0000      -0.858420       -23.3588
  15   2.0000      -0.827830       -22.5264
  16   2.0000      -0.762810       -20.7571
  17   2.0000      -0.697301       -18.9745
  18   2.0000      -0.658039       -17.9062
  19   2.0000      -0.630622       -17.1601
  20   2.0000      -0.614714       -16.7272
  21   2.0000      -0.600272       -16.3342
  22   2.0000      -0.595194       -16.1961
  23   2.0000      -0.589321       -16.0362
  24   2.0000      -0.548466       -14.9245
  25   2.0000      -0.512394       -13.9430
  26   2.0000      -0.502805       -13.6820
  27   2.0000      -0.494517       -13.4565
  28   2.0000      -0.438295       -11.9266
  29   2.0000      -0.417538       -11.3618
  30   2.0000      -0.340511        -9.2658
  31   2.0000      -0.328195        -8.9306
  32   0.0000       0.022771         0.6196
  33   0.0000       0.025905         0.7049
  34   0.0000       0.030881         0.8403
  35   0.0000       0.039865         1.0848
  36   0.0000       0.040339         1.0977

MULLIKEN ATOMIC CHARGES
-----------------------
   0 C :   -0.309838
   1 C :   -0.398416
   2 C :   -0.324744
   3 C :   -0.195643
   4 C :   -0.252019
   5 C :   -0.054072
   6 C :    0.707396
   7 C :   -0.748113
   8 N :   -0.897651
   9 H :    0.312265
  10 H :    0.239510
  11 H :    0.259759
  12 H :    0.334660
  13 H :    0.306211
  14 H :    0.209073
  15 H :    0.296557
  16 H :    0.209073
  17 H :    0.305990
Sum of atomic charges:    0.0000000

LOEWDIN ATOMIC CHARGES
----------------------
   0 C :    0.341980
   1 C :    0.352734
   2 C :    0.354941
   3 C :    0.328636
   4 C :    0.323208
   5 C :   -0.107499
   6 C :   -0.290621
   7 C :    0.899263
   8 N :    1.009750
   9 H :   -0.321675
  10 H :   -0.323192
  11 H :   -0.322798
  12 H :   -0.352307
  13 H :   -0.352679
  14 H :   -0.282954
  15 H :   -0.309895
  16 H :   -0.282954
  17 H :   -0.663939

  Mayer bond orders larger than 0.100000
B(  0-C ,  1-C ) :   1.2297 B(  0-C ,  2-C ) :   1.1852 B(  0-C ,  3-C ) :  -0.1040
B(  0-C ,  9-H ) :   1.0263 B(  1-C ,  3-C ) :   1.0854 B(  1-C ,  4-C ) :   0.1489
B(  1-C ,  5-C ) :  -0.2370 B(  1-C , 10-H ) :   1.1313 B(  1-C , 12-H ) :  -0.1325
B(  2-C ,  4-C ) :   1.2920 B(  2-C ,  5-C ) :  -0.3501 B(  2-C , 11-H ) :   1.1099
B(  3-C ,  5-C ) :   1.0981 B(  3-C ,  6-C ) :  -0.3695 B(  3-C , 10-H ) :  -0.1308
B(  3-C , 12-H ) :   0.9359 B(  4-C ,  5-C ) :   1.0370 B(  4-C ,  6-C ) :  -0.3410
B(  4-C , 11-H ) :  -0.1391 B(  4-C , 13-H ) :   0.9628 B(  5-C ,  6-C ) :   0.8072
B(  5-C ,  8-N ) :   0.2801 B(  5-C , 12-H ) :  -0.2041 B(  6-C ,  7-C ) :   0.7957
B(  6-C ,  8-N ) :   1.2427 B(  6-C , 12-H ) :   0.1567 B(  7-C , 14-H ) :   0.9959
B(  7-C , 15-H ) :   0.9689 B(  7-C , 16-H ) :   0.9959 B(  8-N , 17-H ) :   0.8507

MP2 TOTAL ENERGY:     -364.357583754 Eh
FINAL SINGLE POINT ENERGY      -364.357583753767

DIPOLE MOMENT
-------------
                                X             Y             Z
Electronic contribution:     -3.10781      -1.93859       0.00000
Nuclear contribution   :      3.97838       1.74128       0.00000
                        -----------------------------------------
Total Dipole Moment    :      0.87056      -0.19731       0.00000
                        -----------------------------------------
Magnitude (a.u.)       :      0.89264
Magnitude (Debye)      :      2.26892

Rotational constants in cm-1:     0.122566     0.040762     0.030763
Rotational constants in MHz :  3674.430451  1222.023841   922.246556

                             ****ORCA TERMINATED NORMALLY****
TOTAL RUN TIME: 0 days 0 hours 57 minutes 29 seconds 47 msec
