                         Program Version 5.0.4 -  RELEASE  -
|  1> !ri-mp2 aug-cc-pvqz aug-cc-pvqz/c tightscf
|  2> %pal nprocs 16 end
|  3>
|  4> * xyz 0 1
|  5> S     3.158398    0.012249   -0.430328
|  6> S    -3.209591   -0.375034   -0.249597
|  7> N     0.242548    1.157410    0.432157
|  8> N    -1.076255    1.253277   -0.028584
|  9> N    -0.552113   -0.911454    0.160999
| 10> C     0.499106   -0.189314    0.400050
| 11> C     1.863333   -0.733224    0.644600
| 12> C    -1.610629   -0.027657   -0.042353
| 13> H     0.910796    1.791602    0.010985
| 14> H     2.185538   -0.503864    1.660042
| 15> H     1.837961   -1.811016    0.524244
| 16> H    -1.629039    2.025841    0.310848
| 17> H     2.703714   -0.491460   -1.593112
| 18> *
| 19>
| 20>                          ****END OF INPUT****

CARTESIAN COORDINATES (ANGSTROEM)
---------------------------------
  S      3.158398    0.012249   -0.430328
  S     -3.209591   -0.375034   -0.249597
  N      0.242548    1.157410    0.432157
  N     -1.076255    1.253277   -0.028584
  N     -0.552113   -0.911454    0.160999
  C      0.499106   -0.189314    0.400050
  C      1.863333   -0.733224    0.644600
  C     -1.610629   -0.027657   -0.042353
  H      0.910796    1.791602    0.010985
  H      2.185538   -0.503864    1.660042
  H      1.837961   -1.811016    0.524244
  H     -1.629039    2.025841    0.310848
  H      2.703714   -0.491460   -1.593112

 Total Charge           Charge          ....    0
 Multiplicity           Mult            ....    1
 Number of Electrons    NEL             ....   76
 Basis Dimension        Dim             ....  878

ORBITAL ENERGIES
----------------

  NO   OCC          E(Eh)            E(eV)
   0   2.0000     -91.997522     -2503.3798
   1   2.0000     -91.893787     -2500.5571
   2   2.0000     -15.663634      -426.2292
   3   2.0000     -15.651086      -425.8877
   4   2.0000     -15.582728      -424.0276
   5   2.0000     -11.372189      -309.4530
   6   2.0000     -11.371539      -309.4353
   7   2.0000     -11.314810      -307.8916
   8   2.0000      -8.999368      -244.8853
   9   2.0000      -8.897821      -242.1220
  10   2.0000      -6.680835      -181.7948
  11   2.0000      -6.679946      -181.7706
  12   2.0000      -6.678979      -181.7443
  13   2.0000      -6.579540      -179.0384
  14   2.0000      -6.577905      -178.9939
  15   2.0000      -6.577183      -178.9742
  16   2.0000      -1.435872       -39.0721
  17   2.0000      -1.238370       -33.6978
  18   2.0000      -1.185278       -32.2531
  19   2.0000      -1.085308       -29.5327
  20   2.0000      -0.979034       -26.6409
  21   2.0000      -0.944810       -25.7096
  22   2.0000      -0.850196       -23.1350
  23   2.0000      -0.822134       -22.3714
  24   2.0000      -0.756487       -20.5851
  25   2.0000      -0.724850       -19.7242
  26   2.0000      -0.654748       -17.8166
  27   2.0000      -0.650181       -17.6923
  28   2.0000      -0.626409       -17.0454
  29   2.0000      -0.578015       -15.7286
  30   2.0000      -0.528181       -14.3725
  31   2.0000      -0.506323       -13.7778
  32   2.0000      -0.491348       -13.3703
  33   2.0000      -0.472396       -12.8545
  34   2.0000      -0.458187       -12.4679
  35   2.0000      -0.405539       -11.0353
  36   2.0000      -0.324374        -8.8267
  37   2.0000      -0.318748        -8.6736
  38   0.0000       0.014982         0.4077
  39   0.0000       0.025983         0.7070
  40   0.0000       0.027665         0.7528
  41   0.0000       0.038076         1.0361
  42   0.0000       0.049201         1.3388

MULLIKEN ATOMIC CHARGES
-----------------------
   0 S :   -0.180176
   1 S :   -0.156742
   2 N :   -0.402133
   3 N :   -0.365871
   4 N :   -0.436606
   5 C :    0.566592
   6 C :   -0.377534
   7 C :   -0.051979
   8 H :    0.355473
   9 H :    0.307494
  10 H :    0.330135
  11 H :    0.331853
  12 H :    0.079496
Sum of atomic charges:    0.0000000

LOEWDIN ATOMIC CHARGES
----------------------
   0 S :    1.607555
   1 S :    0.959114
   2 N :    0.719797
   3 N :    0.600303
   4 N :    0.495252
   5 C :   -0.627489
   6 C :    0.125684
   7 C :   -1.348503
   8 H :   -0.510442
   9 H :   -0.376226
  10 H :   -0.378891
  11 H :   -0.510906
  12 H :   -0.755248

  Mayer bond orders larger than 0.100000
B(  0-S ,  5-C ) :  -0.1097 B(  0-S ,  6-C ) :   0.9610 B(  0-S , 12-H ) :   1.0313
B(  1-S ,  7-C ) :   1.4114 B(  2-N ,  3-N ) :   0.7110 B(  2-N ,  5-C ) :   1.0690
B(  2-N ,  8-H ) :   0.8623 B(  3-N ,  5-C ) :  -0.1033 B(  3-N ,  7-C ) :   1.1704
B(  3-N , 11-H ) :   0.8791 B(  4-N ,  5-C ) :   1.4216 B(  4-N ,  7-C ) :   1.1234
B(  5-C ,  6-C ) :   0.7271 B(  6-C ,  9-H ) :   0.8760 B(  6-C , 10-H ) :   0.9013

MP2 TOTAL ENERGY:    -1076.585101493 Eh
FINAL SINGLE POINT ENERGY     -1076.585101493176

DIPOLE MOMENT
-------------
                                X             Y             Z
Electronic contribution:     -3.40637       0.21566      -0.52314
Nuclear contribution   :      5.81973       0.99972       0.90877
                        -----------------------------------------
Total Dipole Moment    :      2.41336       1.21538       0.38564
                        -----------------------------------------
Magnitude (a.u.)       :      2.72950
Magnitude (Debye)      :      6.93783

Rotational constants in cm-1:     0.171200     0.021346     0.020043
Rotational constants in MHz :  5132.442896   639.924802   600.860610

                             ****ORCA TERMINATED NORMALLY****
TOTAL RUN TIME: 0 days 0 hours 29 minutes 13 seconds 991 msec
