                         Program Version 5.0.4 -  RELEASE  -
|  1> !ri-mp2 aug-cc-pvqz aug-cc-pvqz/c tightscf
|  2> %pal nprocs 16 end
|  3>
|  4> * xyz 0 1
|  5> C      0.000000    0.000000    1.770041
|  6> C      0.000000    0.000000    0.257391
|  7> Cl     0.000000    1.689350   -0.363984
|  8> Cl     1.463020   -0.844675   -0.363984
|  9> Cl    -1.463020   -0.844675   -0.363984
| 10> H      0.000000   -1.025689    2.132856
| 11> H      0.888273    0.512844    2.132856
| 12> H     -0.888273    0.512844    2.132856
| 13> *
| 14>
| 15>                          ****END OF INPUT****

CARTESIAN COORDINATES (ANGSTROEM)
---------------------------------
  C      0.000000    0.000000    1.770041
  C      0.000000    0.000000    0.257391
  Cl     0.000000    1.689350   -0.363984
  Cl     1.463020   -0.844675   -0.363984
  Cl    -1.463020   -0.844675   -0.363984
  H      0.000000   -1.025689    2.132856
  H      0.888273    0.512844    2.132856
  H     -0.888273    0.512844    2.132856

 Total Charge           Charge          ....    0
 Multiplicity           Mult            ....    1
 Number of Electrons    NEL             ....   66
 Basis Dimension        Dim             ....  550

ORBITAL ENERGIES
----------------

  NO   OCC          E(Eh)            E(eV)
   0   2.0000    -104.857541     -2853.3188
   1   2.0000    -104.857541     -2853.3188
   2   2.0000    -104.857541     -2853.3187
   3   2.0000     -11.441019      -311.3260
   4   2.0000     -11.261436      -306.4393
   5   2.0000     -10.582975      -287.9774
   6   2.0000     -10.582975      -287.9774
   7   2.0000     -10.582962      -287.9770
   8   2.0000      -8.049914      -219.0493
   9   2.0000      -8.049914      -219.0493
  10   2.0000      -8.049911      -219.0492
  11   2.0000      -8.048052      -218.9986
  12   2.0000      -8.048050      -218.9986
  13   2.0000      -8.048050      -218.9986
  14   2.0000      -8.048017      -218.9977
  15   2.0000      -8.048017      -218.9977
  16   2.0000      -8.048015      -218.9976
  17   2.0000      -1.236360       -33.6431
  18   2.0000      -1.104540       -30.0561
  19   2.0000      -1.104540       -30.0561
  20   2.0000      -1.018382       -27.7116
  21   2.0000      -0.803406       -21.8618
  22   2.0000      -0.653114       -17.7721
  23   2.0000      -0.653114       -17.7721
  24   2.0000      -0.628679       -17.1072
  25   2.0000      -0.561134       -15.2692
  26   2.0000      -0.561134       -15.2692
  27   2.0000      -0.494592       -13.4585
  28   2.0000      -0.494592       -13.4585
  29   2.0000      -0.466964       -12.7067
  30   2.0000      -0.457196       -12.4409
  31   2.0000      -0.457196       -12.4409
  32   2.0000      -0.445789       -12.1305
  33   0.0000       0.026935         0.7329
  34   0.0000       0.042316         1.1515
  35   0.0000       0.042316         1.1515
  36   0.0000       0.053175         1.4470
  37   0.0000       0.068133         1.8540

MULLIKEN ATOMIC CHARGES
-----------------------
   0 C :   -0.764583
   1 C :    0.481816
   2 Cl:   -0.224021
   3 Cl:   -0.224020
   4 Cl:   -0.224020
   5 H :    0.318276
   6 H :    0.318277
   7 H :    0.318277
Sum of atomic charges:    0.0000000

LOEWDIN ATOMIC CHARGES
----------------------
   0 C :    0.515354
   1 C :   -2.428756
   2 Cl:    0.990049
   3 Cl:    0.990049
   4 Cl:    0.990049
   5 H :   -0.352248
   6 H :   -0.352248
   7 H :   -0.352248

  Mayer bond orders larger than 0.100000
B(  0-C ,  1-C ) :   0.9910 B(  0-C ,  5-H ) :   0.8865 B(  0-C ,  6-H ) :   0.8865
B(  0-C ,  7-H ) :   0.8865 B(  1-C ,  2-Cl) :   0.7730 B(  1-C ,  3-Cl) :   0.7730
B(  1-C ,  4-Cl) :   0.7730

MP2 TOTAL ENERGY:    -1457.076294035 Eh
FINAL SINGLE POINT ENERGY     -1457.076294034522

DIPOLE MOMENT
-------------
                                X             Y             Z
Electronic contribution:      0.00000       0.00000      -6.61424
Nuclear contribution   :      0.00000      -0.00000       7.39673
                        -----------------------------------------
Total Dipole Moment    :      0.00000      -0.00000       0.78249
                        -----------------------------------------
Magnitude (a.u.)       :      0.78249
Magnitude (Debye)      :      1.98892

Rotational constants in cm-1:     0.076918     0.076918     0.054961
Rotational constants in MHz :  2305.935061  2305.935047  1647.691764

                             ****ORCA TERMINATED NORMALLY****
TOTAL RUN TIME: 0 days 0 hours 7 minutes 5 seconds 615 msec
