                         Program Version 5.0.4 -  RELEASE  -
|  1> !ri-mp2 aug-cc-pvqz aug-cc-pvqz/c tightscf
|  2> %pal nprocs 16 end
|  3>
|  4> * xyz 0 1
|  5> O      0.667290    1.027732   -0.440985
|  6> O      1.225661    0.020424    0.440386
|  7> O     -1.225661   -0.020424    0.440386
|  8> O     -0.667290   -1.027732   -0.440985
|  9> C     -0.667290    1.205624    0.000454
| 10> C      0.667290   -1.205624    0.000454
| 11> H     -0.743907    1.858599    0.874591
| 12> H     -1.180482    1.619002   -0.872517
| 13> H      1.180482   -1.619002   -0.872517
| 14> H      0.743907   -1.858599    0.874591
| 15> *
| 16>
| 17>                          ****END OF INPUT****

CARTESIAN COORDINATES (ANGSTROEM)
---------------------------------
  O      0.667290    1.027732   -0.440985
  O      1.225661    0.020424    0.440386
  O     -1.225661   -0.020424    0.440386
  O     -0.667290   -1.027732   -0.440985
  C     -0.667290    1.205624    0.000454
  C      0.667290   -1.205624    0.000454
  H     -0.743907    1.858599    0.874591
  H     -1.180482    1.619002   -0.872517
  H      1.180482   -1.619002   -0.872517
  H      0.743907   -1.858599    0.874591

 Total Charge           Charge          ....    0
 Multiplicity           Mult            ....    1
 Number of Electrons    NEL             ....   48
 Basis Dimension        Dim             ....  664

ORBITAL ENERGIES
----------------

  NO   OCC          E(Eh)            E(eV)
   0   2.0000     -20.647288      -561.8413
   1   2.0000     -20.647261      -561.8405
   2   2.0000     -20.646977      -561.8328
   3   2.0000     -20.646970      -561.8326
   4   2.0000     -11.359199      -309.0995
   5   2.0000     -11.359197      -309.0995
   6   2.0000      -1.548731       -42.1431
   7   2.0000      -1.464650       -39.8551
   8   2.0000      -1.308634       -35.6098
   9   2.0000      -1.221246       -33.2318
  10   2.0000      -0.957539       -26.0560
  11   2.0000      -0.859944       -23.4003
  12   2.0000      -0.756395       -20.5825
  13   2.0000      -0.755216       -20.5505
  14   2.0000      -0.751913       -20.4606
  15   2.0000      -0.648129       -17.6365
  16   2.0000      -0.637205       -17.3392
  17   2.0000      -0.596342       -16.2273
  18   2.0000      -0.588559       -16.0155
  19   2.0000      -0.587848       -15.9962
  20   2.0000      -0.556651       -15.1472
  21   2.0000      -0.499767       -13.5994
  22   2.0000      -0.473415       -12.8823
  23   2.0000      -0.452857       -12.3229
  24   0.0000       0.027837         0.7575
  25   0.0000       0.033855         0.9212
  26   0.0000       0.036672         0.9979
  27   0.0000       0.046948         1.2775
  28   0.0000       0.063990         1.7413

MULLIKEN ATOMIC CHARGES
-----------------------
   0 O :   -0.459464
   1 O :   -0.459570
   2 O :   -0.459570
   3 O :   -0.459464
   4 C :    0.180375
   5 C :    0.180375
   6 H :    0.369201
   7 H :    0.369458
   8 H :    0.369458
   9 H :    0.369201
Sum of atomic charges:   -0.0000000

LOEWDIN ATOMIC CHARGES
----------------------
   0 O :    0.516043
   1 O :    0.516100
   2 O :    0.516100
   3 O :    0.516043
   4 C :   -0.314976
   5 C :   -0.314976
   6 H :   -0.358558
   7 H :   -0.358610
   8 H :   -0.358610
   9 H :   -0.358558

  Mayer bond orders larger than 0.100000
B(  0-O ,  1-O ) :   0.8361 B(  0-O ,  4-C ) :   0.7948 B(  1-O ,  5-C ) :   0.7943
B(  2-O ,  3-O ) :   0.8361 B(  2-O ,  4-C ) :   0.7943 B(  3-O ,  5-C ) :   0.7948
B(  4-C ,  6-H ) :   0.8252 B(  4-C ,  7-H ) :   0.8249 B(  5-C ,  8-H ) :   0.8249
B(  5-C ,  9-H ) :   0.8252

MP2 TOTAL ENERGY:     -378.834180182 Eh
FINAL SINGLE POINT ENERGY      -378.834180181699

DIPOLE MOMENT
-------------
                                X             Y             Z
Electronic contribution:     -0.00000       0.00000      -0.00300
Nuclear contribution   :      0.00000      -0.00000       0.00404
                        -----------------------------------------
Total Dipole Moment    :     -0.00000       0.00000       0.00105
                        -----------------------------------------
Magnitude (a.u.)       :      0.00105
Magnitude (Debye)      :      0.00266

Rotational constants in cm-1:     0.185942     0.171556     0.106752
Rotational constants in MHz :  5574.405066  5143.111721  3200.348112

                             ****ORCA TERMINATED NORMALLY****
TOTAL RUN TIME: 0 days 0 hours 10 minutes 35 seconds 735 msec
