                         Program Version 5.0.4 -  RELEASE  -
|  1> !ri-mp2 aug-cc-pvqz aug-cc-pvqz/c tightscf
|  2> %pal nprocs 16 end
|  3>
|  4> * xyz 0 1
|  5> C      1.683448   -1.663575    0.000000
|  6> C      2.220125   -0.382943    0.000000
|  7> C      0.305726   -1.835687    0.000000
|  8> C      1.373807    0.717619    0.000000
|  9> C     -0.573870   -0.751190    0.000000
| 10> C      0.000000    0.522425    0.000000
| 11> C     -2.061411   -0.960930    0.000000
| 12> Cl    -1.036566    1.943162    0.000000
| 13> H      2.334268   -2.527315    0.000000
| 14> H      3.291363   -0.235053    0.000000
| 15> H     -0.108141   -2.835976    0.000000
| 16> H      1.769429    1.722783    0.000000
| 17> H     -2.526446   -0.504646    0.875379
| 18> H     -2.526446   -0.504646   -0.875379
| 19> H     -2.299351   -2.023197    0.000000
| 20> *
| 21>
| 22>                          ****END OF INPUT****

CARTESIAN COORDINATES (ANGSTROEM)
---------------------------------
  C      1.683448   -1.663575    0.000000
  C      2.220125   -0.382943    0.000000
  C      0.305726   -1.835687    0.000000
  C      1.373807    0.717619    0.000000
  C     -0.573870   -0.751190    0.000000
  C      0.000000    0.522425    0.000000
  C     -2.061411   -0.960930    0.000000
  Cl    -1.036566    1.943162    0.000000
  H      2.334268   -2.527315    0.000000
  H      3.291363   -0.235053    0.000000
  H     -0.108141   -2.835976    0.000000
  H      1.769429    1.722783    0.000000
  H     -2.526446   -0.504646    0.875379
  H     -2.526446   -0.504646   -0.875379
  H     -2.299351   -2.023197    0.000000

 Total Charge           Charge          ....    0
 Multiplicity           Mult            ....    1
 Number of Electrons    NEL             ....   66
 Basis Dimension        Dim             ....  966

ORBITAL ENERGIES
----------------

  NO   OCC          E(Eh)            E(eV)
   0   2.0000    -104.835403     -2852.7163
   1   2.0000     -11.298278      -307.4418
   2   2.0000     -11.256740      -306.3115
   3   2.0000     -11.246476      -306.0322
   4   2.0000     -11.242396      -305.9212
   5   2.0000     -11.241443      -305.8952
   6   2.0000     -11.240538      -305.8706
   7   2.0000     -11.228089      -305.5318
   8   2.0000     -10.560763      -287.3730
   9   2.0000      -8.027859      -218.4491
  10   2.0000      -8.026211      -218.4043
  11   2.0000      -8.026158      -218.4029
  12   2.0000      -1.190581       -32.3973
  13   2.0000      -1.115184       -30.3457
  14   2.0000      -1.057817       -28.7847
  15   2.0000      -1.000294       -27.2194
  16   2.0000      -0.941108       -25.6089
  17   2.0000      -0.834360       -22.7041
  18   2.0000      -0.805874       -21.9289
  19   2.0000      -0.695539       -18.9266
  20   2.0000      -0.659581       -17.9481
  21   2.0000      -0.635391       -17.2899
  22   2.0000      -0.589751       -16.0479
  23   2.0000      -0.588880       -16.0242
  24   2.0000      -0.577224       -15.7071
  25   2.0000      -0.550763       -14.9870
  26   2.0000      -0.522734       -14.2243
  27   2.0000      -0.511068       -13.9069
  28   2.0000      -0.499584       -13.5944
  29   2.0000      -0.467598       -12.7240
  30   2.0000      -0.451299       -12.2805
  31   2.0000      -0.343832        -9.3562
  32   2.0000      -0.332512        -9.0481
  33   0.0000       0.024527         0.6674
  34   0.0000       0.027612         0.7514
  35   0.0000       0.031758         0.8642
  36   0.0000       0.042068         1.1447
  37   0.0000       0.044995         1.2244

MULLIKEN ATOMIC CHARGES
-----------------------
   0 C :   -0.247475
   1 C :   -0.326665
   2 C :   -0.493562
   3 C :   -0.195986
   4 C :    0.671269
   5 C :   -0.239824
   6 C :   -0.704044
   7 Cl:   -0.428528
   8 H :    0.259884
   9 H :    0.279992
  10 H :    0.225737
  11 H :    0.435633
  12 H :    0.248210
  13 H :    0.248210
  14 H :    0.267150
Sum of atomic charges:    0.0000000

LOEWDIN ATOMIC CHARGES
----------------------
   0 C :    0.344037
   1 C :    0.328490
   2 C :    0.331734
   3 C :    0.199300
   4 C :   -0.203604
   5 C :   -0.809345
   6 C :    0.848764
   7 Cl:    1.206736
   8 H :   -0.321660
   9 H :   -0.323322
  10 H :   -0.324144
  11 H :   -0.361599
  12 H :   -0.302264
  13 H :   -0.302264
  14 H :   -0.310859

  Mayer bond orders larger than 0.100000
B(  0-C ,  1-C ) :   1.1945 B(  0-C ,  2-C ) :   1.2303 B(  0-C ,  4-C ) :  -0.3242
B(  0-C ,  5-C ) :   0.1441 B(  0-C ,  8-H ) :   1.1058 B(  1-C ,  3-C ) :   1.1924
B(  1-C ,  9-H ) :   1.0651 B(  2-C ,  3-C ) :   0.1305 B(  2-C ,  4-C ) :   0.9209
B(  2-C ,  8-H ) :  -0.1382 B(  2-C , 10-H ) :   1.0675 B(  3-C ,  5-C ) :   1.3266
B(  3-C ,  7-Cl) :  -0.1165 B(  3-C ,  9-H ) :  -0.1220 B(  3-C , 11-H ) :   0.8509
B(  4-C ,  5-C ) :   1.0867 B(  4-C ,  6-C ) :   0.5537 B(  4-C ,  7-Cl) :  -0.1579
B(  4-C , 14-H ) :  -0.1149 B(  5-C ,  7-Cl) :   0.9243 B(  6-C , 12-H ) :   1.0046
B(  6-C , 13-H ) :   1.0046 B(  6-C , 14-H ) :   1.0111

MP2 TOTAL ENERGY:     -730.196528671 Eh
FINAL SINGLE POINT ENERGY      -730.196528670924

DIPOLE MOMENT
-------------
                                X             Y             Z
Electronic contribution:     -1.11983       8.84750      -0.00000
Nuclear contribution   :      1.38816      -9.48652       0.00000
                        -----------------------------------------
Total Dipole Moment    :      0.26833      -0.63902      -0.00000
                        -----------------------------------------
Magnitude (a.u.)       :      0.69307
Magnitude (Debye)      :      1.76166

Rotational constants in cm-1:     0.095114     0.050790     0.033312
Rotational constants in MHz :  2851.459600  1522.638078   998.662890

                             ****ORCA TERMINATED NORMALLY****
TOTAL RUN TIME: 0 days 0 hours 47 minutes 17 seconds 227 msec
