                         Program Version 5.0.4 -  RELEASE  -
|  1> !ri-mp2 aug-cc-pvqz aug-cc-pvqz/c tightscf
|  2> %pal nprocs 16 end
|  3> %maxcore 3800
|  4>
|  5> * xyz 0 1
|  6> C     2.000783   -2.375333    0.000000
|  7> C     1.952841   -0.953690    0.000000
|  8> C     0.709392   -2.839143    0.000000
|  9> C     0.619213   -0.612080    0.000000
| 10> C    -0.282242    2.841230    0.000000
| 11> C     0.654875    1.876810    0.000000
| 12> C    -1.378739    0.841614    0.000000
| 13> N    -0.129515   -1.752458    0.000000
| 14> N    -1.520850    2.212219    0.000000
| 15> N     0.000000    0.643566    0.000000
| 16> O    -2.261036   -0.010039    0.000000
| 17> H     2.889351   -2.982383    0.000000
| 18> H     2.791003   -0.279563    0.000000
| 19> H     0.317417   -3.839971    0.000000
| 20> H    -0.176176    3.909258    0.000000
| 21> H     1.724825    1.950503    0.000000
| 22> H    -1.139214   -1.728251    0.000000
| 23> H    -2.423096    2.650993    0.000000
| 24> *
| 25>
| 26>                          ****END OF INPUT****

CARTESIAN COORDINATES (ANGSTROEM)
---------------------------------
  C      2.000783   -2.375333    0.000000
  C      1.952841   -0.953690    0.000000
  C      0.709392   -2.839143    0.000000
  C      0.619213   -0.612080    0.000000
  C     -0.282242    2.841230    0.000000
  C      0.654875    1.876810    0.000000
  C     -1.378739    0.841614    0.000000
  N     -0.129515   -1.752458    0.000000
  N     -1.520850    2.212219    0.000000
  N      0.000000    0.643566    0.000000
  O     -2.261036   -0.010039    0.000000
  H      2.889351   -2.982383    0.000000
  H      2.791003   -0.279563    0.000000
  H      0.317417   -3.839971    0.000000
  H     -0.176176    3.909258    0.000000
  H      1.724825    1.950503    0.000000
  H     -1.139214   -1.728251    0.000000
  H     -2.423096    2.650993    0.000000

 Total Charge           Charge          ....    0
 Multiplicity           Mult            ....    1
 Number of Electrons    NEL             ....   78
 Basis Dimension        Dim             .... 1202

ORBITAL ENERGIES
----------------

  NO   OCC          E(Eh)            E(eV)
   0   2.0000     -20.525389      -558.5242
   1   2.0000     -15.631582      -425.3570
   2   2.0000     -15.620000      -425.0418
   3   2.0000     -15.596160      -424.3931
   4   2.0000     -11.393118      -310.0225
   5   2.0000     -11.305024      -307.6253
   6   2.0000     -11.288945      -307.1878
   7   2.0000     -11.284812      -307.0753
   8   2.0000     -11.245977      -306.0186
   9   2.0000     -11.210012      -305.0399
  10   2.0000     -11.208970      -305.0116
  11   2.0000      -1.419761       -38.6337
  12   2.0000      -1.330159       -36.1955
  13   2.0000      -1.300550       -35.3898
  14   2.0000      -1.224890       -33.3309
  15   2.0000      -1.047269       -28.4976
  16   2.0000      -1.038267       -28.2527
  17   2.0000      -0.981883       -26.7184
  18   2.0000      -0.873332       -23.7646
  19   2.0000      -0.858051       -23.3488
  20   2.0000      -0.790746       -21.5173
  21   2.0000      -0.771308       -20.9884
  22   2.0000      -0.741563       -20.1789
  23   2.0000      -0.719456       -19.5774
  24   2.0000      -0.669070       -18.2063
  25   2.0000      -0.653232       -17.7753
  26   2.0000      -0.634457       -17.2644
  27   2.0000      -0.626025       -17.0350
  28   2.0000      -0.608136       -16.5482
  29   2.0000      -0.595443       -16.2028
  30   2.0000      -0.579080       -15.7576
  31   2.0000      -0.553069       -15.0498
  32   2.0000      -0.536290       -14.5932
  33   2.0000      -0.503981       -13.7140
  34   2.0000      -0.482362       -13.1257
  35   2.0000      -0.455391       -12.3918
  36   2.0000      -0.350960        -9.5501
  37   2.0000      -0.336285        -9.1508
  38   2.0000      -0.274287        -7.4637
  39   0.0000       0.016986         0.4622
  40   0.0000       0.027621         0.7516
  41   0.0000       0.030616         0.8331
  42   0.0000       0.038441         1.0460
  43   0.0000       0.040995         1.1155

MULLIKEN ATOMIC CHARGES
-----------------------
   0 C :   -0.154241
   1 C :   -0.749959
   2 C :   -0.647814
   3 C :    1.313363
   4 C :   -0.138348
   5 C :   -0.417872
   6 C :    1.377235
   7 N :   -0.647462
   8 N :   -0.753960
   9 N :   -0.544035
  10 O :   -0.868768
  11 H :    0.337051
  12 H :    0.196176
  13 H :    0.400311
  14 H :    0.455880
  15 H :    0.383222
  16 H :    0.333335
  17 H :    0.125884
Sum of atomic charges:   -0.0000000

LOEWDIN ATOMIC CHARGES
----------------------
   0 C :    0.308256
   1 C :    0.320468
   2 C :    0.222622
   3 C :   -0.392479
   4 C :    0.240142
   5 C :    0.210886
   6 C :   -0.985612
   7 N :    0.809307
   8 N :    0.806811
   9 N :    0.387759
  10 O :    0.724291
  11 H :   -0.331887
  12 H :   -0.332260
  13 H :   -0.310610
  14 H :   -0.307510
  15 H :   -0.313686
  16 H :   -0.595204
  17 H :   -0.461294

  Mayer bond orders larger than 0.100000
B(  0-C ,  1-C ) :   1.1050 B(  0-C ,  2-C ) :   1.5665 B(  0-C ,  3-C ) :  -0.3496
B(  0-C , 11-H ) :   1.0103 B(  1-C ,  2-C ) :   0.2201 B(  1-C ,  3-C ) :   0.6735
B(  1-C ,  7-N ) :   0.1142 B(  1-C , 12-H ) :   1.1497 B(  2-C ,  3-C ) :  -0.3726
B(  2-C ,  7-N ) :   1.1735 B(  2-C , 13-H ) :   0.9162 B(  3-C ,  7-N ) :   0.5876
B(  3-C ,  9-N ) :   0.9938 B(  3-C , 10-O ) :   0.1258 B(  4-C ,  5-C ) :   1.6306
B(  4-C ,  8-N ) :   0.8335 B(  4-C ,  9-N ) :  -0.1583 B(  4-C , 14-H ) :   0.8691
B(  5-C ,  9-N ) :   0.9661 B(  5-C , 15-H ) :   0.8859 B(  6-C ,  8-N ) :   1.2679
B(  6-C ,  9-N ) :   1.1527 B(  6-C , 10-O ) :   0.9232 B(  7-N ,  9-N ) :   0.1133
B(  7-N , 16-H ) :   0.9658 B(  8-N ,  9-N ) :  -0.2042 B(  8-N , 10-O ) :   0.1692
B(  8-N , 17-H ) :   1.1669 B(  9-N , 10-O ) :   0.2797

MP2 TOTAL ENERGY:     -509.653732515 Eh
FINAL SINGLE POINT ENERGY      -509.653732514587

DIPOLE MOMENT
-------------
                                X             Y             Z
Electronic contribution:     -3.62819       1.74308      -0.00000
Nuclear contribution   :      3.86845      -0.30751       0.00000
                        -----------------------------------------
Total Dipole Moment    :      0.24026       1.43557      -0.00000
                        -----------------------------------------
Magnitude (a.u.)       :      1.45554
Magnitude (Debye)      :      3.69969

Rotational constants in cm-1:     0.093515     0.028449     0.021813
Rotational constants in MHz :  2803.506835   852.886277   653.942952

                             ****ORCA TERMINATED NORMALLY****
TOTAL RUN TIME: 0 days 1 hours 11 minutes 29 seconds 618 msec
