                         Program Version 5.0.4 -  RELEASE  -
|  1> !ri-mp2 aug-cc-pvqz aug-cc-pvqz/c tightscf
|  2> %pal nprocs 16 end
|  3>
|  4> * xyz 0 1
|  5> C      0.000000    0.513378    0.000000
|  6> C      1.126362    1.500699    0.000000
|  7> C     -0.434875   -1.838472    0.000000
|  8> N     -1.214300    0.871560    0.000000
|  9> O      0.493529   -0.759900    0.000000
| 10> H      1.755164    1.352520    0.878602
| 11> H      1.755164    1.352520   -0.878602
| 12> H      0.727889    2.509956    0.000000
| 13> H      0.161301   -2.746313    0.000000
| 14> H     -1.064794   -1.818499   -0.892116
| 15> H     -1.064794   -1.818499    0.892116
| 16> H     -1.866987    0.092961    0.000000
| 17> *
| 18>
| 19>                          ****END OF INPUT****

CARTESIAN COORDINATES (ANGSTROEM)
---------------------------------
  C      0.000000    0.513378    0.000000
  C      1.126362    1.500699    0.000000
  C     -0.434875   -1.838472    0.000000
  N     -1.214300    0.871560    0.000000
  O      0.493529   -0.759900    0.000000
  H      1.755164    1.352520    0.878602
  H      1.755164    1.352520   -0.878602
  H      0.727889    2.509956    0.000000
  H      0.161301   -2.746313    0.000000
  H     -1.064794   -1.818499   -0.892116
  H     -1.064794   -1.818499    0.892116
  H     -1.866987    0.092961    0.000000

 Total Charge           Charge          ....    0
 Multiplicity           Mult            ....    1
 Number of Electrons    NEL             ....   40
 Basis Dimension        Dim             ....  722

ORBITAL ENERGIES
----------------

  NO   OCC          E(Eh)            E(eV)
   0   2.0000     -20.594825      -560.4137
   1   2.0000     -15.531758      -422.6406
   2   2.0000     -11.338285      -308.5304
   3   2.0000     -11.291847      -307.2668
   4   2.0000     -11.225365      -305.4577
   5   2.0000      -1.425086       -38.7786
   6   2.0000      -1.193111       -32.4662
   7   2.0000      -1.017569       -27.6895
   8   2.0000      -0.945416       -25.7261
   9   2.0000      -0.767390       -20.8817
  10   2.0000      -0.720375       -19.6024
  11   2.0000      -0.669199       -18.2098
  12   2.0000      -0.660640       -17.9769
  13   2.0000      -0.582862       -15.8605
  14   2.0000      -0.566707       -15.4209
  15   2.0000      -0.547748       -14.9050
  16   2.0000      -0.522807       -14.2263
  17   2.0000      -0.503267       -13.6946
  18   2.0000      -0.433624       -11.7995
  19   2.0000      -0.405232       -11.0269
  20   0.0000       0.024085         0.6554
  21   0.0000       0.032618         0.8876
  22   0.0000       0.037059         1.0084
  23   0.0000       0.038545         1.0489
  24   0.0000       0.053120         1.4455

MULLIKEN ATOMIC CHARGES
-----------------------
   0 C :    0.644215
   1 C :   -0.688490
   2 C :   -0.554906
   3 N :   -0.765932
   4 O :   -0.722541
   5 H :    0.273423
   6 H :    0.273423
   7 H :    0.301808
   8 H :    0.457165
   9 H :    0.240767
  10 H :    0.240767
  11 H :    0.300302
Sum of atomic charges:    0.0000000

LOEWDIN ATOMIC CHARGES
----------------------
   0 C :   -0.698334
   1 C :    0.855128
   2 C :    0.575742
   3 N :    0.985690
   4 O :    0.873371
   5 H :   -0.298972
   6 H :   -0.298972
   7 H :   -0.325599
   8 H :   -0.320364
   9 H :   -0.306677
  10 H :   -0.306677
  11 H :   -0.734336

  Mayer bond orders larger than 0.100000
B(  0-C ,  1-C ) :   0.7663 B(  0-C ,  3-N ) :   1.7367 B(  0-C ,  4-O ) :   0.8445
B(  0-C ,  7-H ) :  -0.1035 B(  1-C ,  5-H ) :   0.9357 B(  1-C ,  6-H ) :   0.9357
B(  1-C ,  7-H ) :   0.9785 B(  2-C ,  4-O ) :   0.8747 B(  2-C ,  8-H ) :   0.7845
B(  2-C ,  9-H ) :   0.9348 B(  2-C , 10-H ) :   0.9348 B(  3-N , 11-H ) :   0.8193

MP2 TOTAL ENERGY:     -248.110871727 Eh
FINAL SINGLE POINT ENERGY      -248.110871727056

DIPOLE MOMENT
-------------
                                X             Y             Z
Electronic contribution:     -0.19979       0.25412      -0.00000
Nuclear contribution   :      0.41479      -1.11224       0.00000
                        -----------------------------------------
Total Dipole Moment    :      0.21500      -0.85812      -0.00000
                        -----------------------------------------
Magnitude (a.u.)       :      0.88464
Magnitude (Debye)      :      2.24858

Rotational constants in cm-1:     0.322276     0.136353     0.099385
Rotational constants in MHz :  9661.587376  4087.745578  2979.489040

                             ****ORCA TERMINATED NORMALLY****
TOTAL RUN TIME: 0 days 0 hours 10 minutes 43 seconds 442 msec
