                         Program Version 5.0.4 -  RELEASE  -
|  1> !ri-mp2 aug-cc-pvqz aug-cc-pvqz/c tightscf
|  2> %pal nprocs 16 end
|  3>
|  4> * xyz 0 1
|  5> C     -2.422945    0.072738    0.011279
|  6> C     -1.009653   -0.506476   -0.070522
|  7> C      0.062858    0.567077    0.075523
|  8> S      1.788351   -0.046408   -0.074553
|  9> H     -2.599612    0.799976   -0.783540
| 10> H     -3.173192   -0.712674   -0.085709
| 11> H     -2.591811    0.576633    0.964916
| 12> H     -0.869677   -1.024388   -1.021039
| 13> H     -0.874102   -1.257605    0.711730
| 14> H     -0.023659    1.307679   -0.720627
| 15> H     -0.038300    1.098518    1.021239
| 16> H      1.775172   -0.845654    1.008202
| 17> *
| 18>
| 19>                          ****END OF INPUT****

CARTESIAN COORDINATES (ANGSTROEM)
---------------------------------
  C     -2.422945    0.072738    0.011279
  C     -1.009653   -0.506476   -0.070522
  C      0.062858    0.567077    0.075523
  S      1.788351   -0.046408   -0.074553
  H     -2.599612    0.799976   -0.783540
  H     -3.173192   -0.712674   -0.085709
  H     -2.591811    0.576633    0.964916
  H     -0.869677   -1.024388   -1.021039
  H     -0.874102   -1.257605    0.711730
  H     -0.023659    1.307679   -0.720627
  H     -0.038300    1.098518    1.021239
  H      1.775172   -0.845654    1.008202

 Total Charge           Charge          ....    0
 Multiplicity           Mult            ....    1
 Number of Electrons    NEL             ....   42
 Basis Dimension        Dim             ....  692

ORBITAL ENERGIES
----------------

  NO   OCC          E(Eh)            E(eV)
   0   2.0000     -91.947193     -2502.0103
   1   2.0000     -11.259679      -306.3914
   2   2.0000     -11.229648      -305.5742
   3   2.0000     -11.219853      -305.3077
   4   2.0000      -8.949289      -243.5225
   5   2.0000      -6.630892      -180.4357
   6   2.0000      -6.629936      -180.4097
   7   2.0000      -6.629062      -180.3859
   8   2.0000      -1.084215       -29.5030
   9   2.0000      -0.991425       -26.9780
  10   2.0000      -0.879019       -23.9193
  11   2.0000      -0.807100       -21.9623
  12   2.0000      -0.651055       -17.7161
  13   2.0000      -0.596260       -16.2250
  14   2.0000      -0.568545       -15.4709
  15   2.0000      -0.554326       -15.0840
  16   2.0000      -0.515170       -14.0185
  17   2.0000      -0.494403       -13.4534
  18   2.0000      -0.483582       -13.1589
  19   2.0000      -0.441127       -12.0037
  20   2.0000      -0.354565        -9.6482
  21   0.0000       0.026070         0.7094
  22   0.0000       0.033735         0.9180
  23   0.0000       0.034795         0.9468
  24   0.0000       0.037982         1.0335
  25   0.0000       0.052471         1.4278

MULLIKEN ATOMIC CHARGES
-----------------------
   0 C :   -0.853444
   1 C :   -0.343610
   2 C :   -0.446326
   3 S :   -0.206039
   4 H :    0.229593
   5 H :    0.277336
   6 H :    0.233482
   7 H :    0.273498
   8 H :    0.253521
   9 H :    0.293283
  10 H :    0.258850
  11 H :    0.029858
Sum of atomic charges:   -0.0000000

LOEWDIN ATOMIC CHARGES
----------------------
   0 C :    0.916770
   1 C :    0.409371
   2 C :    0.093733
   3 S :    1.570792
   4 H :   -0.286587
   5 H :   -0.284887
   6 H :   -0.287074
   7 H :   -0.301536
   8 H :   -0.300803
   9 H :   -0.384099
  10 H :   -0.362360
  11 H :   -0.783319

  Mayer bond orders larger than 0.100000
B(  0-C ,  1-C ) :   0.9557 B(  0-C ,  4-H ) :   0.9530 B(  0-C ,  5-H ) :   0.9601
B(  0-C ,  6-H ) :   0.9483 B(  1-C ,  2-C ) :   0.9099 B(  1-C ,  7-H ) :   0.8647
B(  1-C ,  8-H ) :   0.8800 B(  2-C ,  3-S ) :   0.8476 B(  2-C ,  9-H ) :   0.8843
B(  2-C , 10-H ) :   0.9066 B(  3-S , 11-H ) :   1.0574

MP2 TOTAL ENERGY:     -516.632087088 Eh
FINAL SINGLE POINT ENERGY      -516.632087088477

DIPOLE MOMENT
-------------
                                X             Y             Z
Electronic contribution:      8.06517       0.05230      -0.86545
Nuclear contribution   :     -8.75240      -0.05809       1.13670
                        -----------------------------------------
Total Dipole Moment    :     -0.68723      -0.00579       0.27125
                        -----------------------------------------
Magnitude (a.u.)       :      0.73885
Magnitude (Debye)      :      1.87801

Rotational constants in cm-1:     0.807319     0.077030     0.074007
Rotational constants in MHz : 24202.818958  2309.296493  2218.679847

                             ****ORCA TERMINATED NORMALLY****
TOTAL RUN TIME: 0 days 0 hours 12 minutes 24 seconds 532 msec
