                         Program Version 5.0.4 -  RELEASE  -
|  1> !ri-mp2 aug-cc-pvqz aug-cc-pvqz/c tightscf
|  2> %pal nprocs 16 end
|  3>
|  4> * xyz 0 1
|  5> Cl    -2.331716    0.385323   -0.842661
|  6> O      0.800067    1.956894    0.684740
|  7> O      1.924475   -1.710939   -0.590900
|  8> N      0.559473   -0.319605    0.435360
|  9> N      0.933917   -1.565968    0.100956
| 10> N      2.266673    0.888042   -0.680548
| 11> C      1.219264    0.950722    0.158620
| 12> C     -0.659018   -0.298092    1.257074
| 13> C     -1.897922   -0.742235    0.503473
| 14> H      2.749788    1.749947   -0.864293
| 15> H      2.588978   -0.000540   -1.031486
| 16> H     -0.513599   -0.974263    2.100509
| 17> H     -0.765445    0.714099    1.630691
| 18> H     -2.748841   -0.765557    1.178688
| 19> H     -1.762439   -1.721470    0.055027
| 20> *
| 21>
| 22>                          ****END OF INPUT****

CARTESIAN COORDINATES (ANGSTROEM)
---------------------------------
  Cl    -2.331716    0.385323   -0.842661
  O      0.800067    1.956894    0.684740
  O      1.924475   -1.710939   -0.590900
  N      0.559473   -0.319605    0.435360
  N      0.933917   -1.565968    0.100956
  N      2.266673    0.888042   -0.680548
  C      1.219264    0.950722    0.158620
  C     -0.659018   -0.298092    1.257074
  C     -1.897922   -0.742235    0.503473
  H      2.749788    1.749947   -0.864293
  H      2.588978   -0.000540   -1.031486
  H     -0.513599   -0.974263    2.100509
  H     -0.765445    0.714099    1.630691
  H     -2.748841   -0.765557    1.178688
  H     -1.762439   -1.721470    0.055027

 Total Charge           Charge          ....    0
 Multiplicity           Mult            ....    1
 Number of Electrons    NEL             ....   78
 Basis Dimension        Dim             .... 1000

ORBITAL ENERGIES
----------------

  NO   OCC          E(Eh)            E(eV)
   0   2.0000    -104.829969     -2852.5685
   1   2.0000     -20.623857      -561.2037
   2   2.0000     -20.541559      -558.9642
   3   2.0000     -15.765311      -428.9959
   4   2.0000     -15.663835      -426.2346
   5   2.0000     -15.597937      -424.4414
   6   2.0000     -11.414302      -310.5990
   7   2.0000     -11.309567      -307.7490
   8   2.0000     -11.297802      -307.4288
   9   2.0000     -10.555325      -287.2250
  10   2.0000      -8.022370      -218.2998
  11   2.0000      -8.020719      -218.2549
  12   2.0000      -8.020687      -218.2540
  13   2.0000      -1.550254       -42.1846
  14   2.0000      -1.424937       -38.7745
  15   2.0000      -1.305142       -35.5147
  16   2.0000      -1.237655       -33.6783
  17   2.0000      -1.142680       -31.0939
  18   2.0000      -1.031442       -28.0670
  19   2.0000      -0.979978       -26.6665
  20   2.0000      -0.881758       -23.9939
  21   2.0000      -0.816592       -22.2206
  22   2.0000      -0.762108       -20.7380
  23   2.0000      -0.754311       -20.5258
  24   2.0000      -0.705958       -19.2101
  25   2.0000      -0.696855       -18.9624
  26   2.0000      -0.653853       -17.7923
  27   2.0000      -0.645922       -17.5764
  28   2.0000      -0.627082       -17.0638
  29   2.0000      -0.600695       -16.3458
  30   2.0000      -0.598399       -16.2833
  31   2.0000      -0.579619       -15.7722
  32   2.0000      -0.528429       -14.3793
  33   2.0000      -0.483711       -13.1625
  34   2.0000      -0.453107       -12.3297
  35   2.0000      -0.443976       -12.0812
  36   2.0000      -0.442895       -12.0518
  37   2.0000      -0.437785       -11.9127
  38   2.0000      -0.428086       -11.6488
  39   0.0000       0.023186         0.6309
  40   0.0000       0.026154         0.7117
  41   0.0000       0.037374         1.0170
  42   0.0000       0.039096         1.0639
  43   0.0000       0.051101         1.3905

MULLIKEN ATOMIC CHARGES
-----------------------
   0 Cl:   -0.361171
   1 O :   -0.785661
   2 O :   -0.576531
   3 N :    0.008089
   4 N :    0.115757
   5 N :   -0.719817
   6 C :    1.096531
   7 C :   -0.337612
   8 C :   -0.429122
   9 H :    0.198214
  10 H :    0.362726
  11 H :    0.384802
  12 H :    0.411167
  13 H :    0.359046
  14 H :    0.273582
Sum of atomic charges:   -0.0000000

LOEWDIN ATOMIC CHARGES
----------------------
   0 Cl:    1.140173
   1 O :    0.719943
   2 O :    0.494669
   3 N :    0.129217
   4 N :   -0.081347
   5 N :    1.224595
   6 C :   -0.987523
   7 C :    0.188638
   8 C :   -0.118811
   9 H :   -0.487425
  10 H :   -0.723631
  11 H :   -0.292756
  12 H :   -0.406246
  13 H :   -0.389566
  14 H :   -0.409930

  Mayer bond orders larger than 0.100000
B(  0-Cl,  8-C ) :   0.7993 B(  1-O ,  3-N ) :   0.1579 B(  1-O ,  5-N ) :   0.1026
B(  1-O ,  6-C ) :   1.3815 B(  2-O ,  3-N ) :   0.1150 B(  2-O ,  4-N ) :   1.4119
B(  3-N ,  4-N ) :   0.7162 B(  3-N ,  6-C ) :   1.1490 B(  3-N ,  7-C ) :   0.7707
B(  5-N ,  6-C ) :   1.2166 B(  5-N ,  9-H ) :   1.0457 B(  5-N , 10-H ) :   0.8116
B(  7-C ,  8-C ) :   1.0587 B(  7-C , 11-H ) :   0.7817 B(  7-C , 12-H ) :   0.7835
B(  8-C , 13-H ) :   0.8456 B(  8-C , 14-H ) :   0.8768

MP2 TOTAL ENERGY:     -891.723539906 Eh
FINAL SINGLE POINT ENERGY      -891.723539906161

DIPOLE MOMENT
-------------
                                X             Y             Z
Electronic contribution:     -2.61713       0.92681      -3.68882
Nuclear contribution   :      2.85081      -1.49921       4.13249
                        -----------------------------------------
Total Dipole Moment    :      0.23368      -0.57240       0.44367
                        -----------------------------------------
Magnitude (a.u.)       :      0.76098
Magnitude (Debye)      :      1.93426

Rotational constants in cm-1:     0.063373     0.032199     0.026736
Rotational constants in MHz :  1899.889318   965.287850   801.521441

                             ****ORCA TERMINATED NORMALLY****
TOTAL RUN TIME: 0 days 0 hours 44 minutes 2 seconds 464 msec
