                         Program Version 5.0.4 -  RELEASE  -
|  1> !ri-mp2 aug-cc-pvqz aug-cc-pvqz/c tightscf
|  2> %pal nprocs 16 end
|  3>
|  4> * xyz 0 1
|  5> O     -2.416628   -0.098841   -0.000028
|  6> C      0.087033   -0.011100    0.000005
|  7> C     -1.117057   -0.002424   -0.000010
|  8> C      1.449836    0.001422    0.000013
|  9> C      2.655112    0.011669    0.000023
| 10> H     -2.832487    0.773856    0.000005
| 11> H      3.715965    0.019465    0.000027
| 12> *
| 13>
| 14>                          ****END OF INPUT****

CARTESIAN COORDINATES (ANGSTROEM)
---------------------------------
  O     -2.416628   -0.098841   -0.000028
  C      0.087033   -0.011100    0.000005
  C     -1.117057   -0.002424   -0.000010
  C      1.449836    0.001422    0.000013
  C      2.655112    0.011669    0.000023
  H     -2.832487    0.773856    0.000005
  H      3.715965    0.019465    0.000027

 Total Charge           Charge          ....    0
 Multiplicity           Mult            ....    1
 Number of Electrons    NEL             ....   34
 Basis Dimension        Dim             ....  492

ORBITAL ENERGIES
----------------

  NO   OCC          E(Eh)            E(eV)
   0   2.0000     -20.651674      -561.9606
   1   2.0000     -11.319486      -308.0189
   2   2.0000     -11.255997      -306.2913
   3   2.0000     -11.248777      -306.0948
   4   2.0000     -11.241074      -305.8852
   5   2.0000      -1.467522       -39.9333
   6   2.0000      -1.084317       -29.5058
   7   2.0000      -1.013765       -27.5859
   8   2.0000      -0.859749       -23.3949
   9   2.0000      -0.803032       -21.8516
  10   2.0000      -0.706056       -19.2128
  11   2.0000      -0.683399       -18.5962
  12   2.0000      -0.640206       -17.4209
  13   2.0000      -0.481496       -13.1022
  14   2.0000      -0.475460       -12.9379
  15   2.0000      -0.358469        -9.7544
  16   2.0000      -0.346627        -9.4322
  17   0.0000       0.017838         0.4854
  18   0.0000       0.028192         0.7671
  19   0.0000       0.059772         1.6265
  20   0.0000       0.064870         1.7652
  21   0.0000       0.066370         1.8060

MULLIKEN ATOMIC CHARGES
-----------------------
   0 O :   -0.835759
   1 C :   -0.735692
   2 C :    1.136985
   3 C :    0.129567
   4 C :   -0.418781
   5 H :    0.369316
   6 H :    0.354364
Sum of atomic charges:    0.0000000

LOEWDIN ATOMIC CHARGES
----------------------
   0 O :    1.179013
   1 C :   -0.076684
   2 C :   -0.273466
   3 C :   -0.105511
   4 C :    0.524466
   5 H :   -0.784786
   6 H :   -0.463032

  Mayer bond orders larger than 0.100000
B(  0-O ,  1-C ) :   0.7386 B(  0-O ,  2-C ) :   0.1003 B(  0-O ,  5-H ) :   0.8853
B(  1-C ,  2-C ) :   2.9981 B(  1-C ,  3-C ) :   0.6719 B(  1-C ,  4-C ) :  -0.1894
B(  2-C ,  3-C ) :  -0.1185 B(  3-C ,  4-C ) :   2.4402 B(  3-C ,  6-H ) :  -0.1182
B(  4-C ,  6-H ) :   1.1729

MP2 TOTAL ENERGY:     -228.341034663 Eh
FINAL SINGLE POINT ENERGY      -228.341034663496

DIPOLE MOMENT
-------------
                                X             Y             Z
Electronic contribution:     -1.26540      -0.15113      -0.00001
Nuclear contribution   :      0.81717       0.76534       0.00003
                        -----------------------------------------
Total Dipole Moment    :     -0.44823       0.61421       0.00002
                        -----------------------------------------
Magnitude (a.u.)       :      0.76037
Magnitude (Debye)      :      1.93270

Rotational constants in cm-1:    22.907733     0.070109     0.069895
Rotational constants in MHz : 686756.556928  2101.823284  2095.410267

                             ****ORCA TERMINATED NORMALLY****
TOTAL RUN TIME: 0 days 0 hours 4 minutes 14 seconds 878 msec
