                         Program Version 5.0.4 -  RELEASE  -
|  1> !ri-mp2 aug-cc-pvqz aug-cc-pvqz/c tightscf
|  2> %pal nprocs 16 end
|  3>
|  4> * xyz 0 1
|  5> N      1.990811   -0.622856   -0.629420
|  6> H      1.931431    0.145537   -1.286847
|  7> H      2.964238   -0.880555   -0.536839
|  8> C     -2.421072   -0.350244   -0.096681
|  9> H     -3.045807   -1.165912   -0.462671
| 10> H     -2.766459   -0.095407    0.908123
| 11> H     -2.614499    0.507889   -0.743569
| 12> N      0.014105    1.506798   -0.328520
| 13> H      0.497986    2.259825    0.146270
| 14> H     -0.921393    1.837328   -0.524861
| 15> C     -0.946476   -0.754688   -0.096316
| 16> H     -0.829081   -1.675676    0.479986
| 17> H     -0.616481   -0.980777   -1.110214
| 18> C      1.427116   -0.214502    0.656216
| 19> H      2.012213    0.572109    1.158562
| 20> H      1.424096   -1.077830    1.325625
| 21> C     -0.009887    0.295010    0.507813
| 22> H     -0.368749    0.512414    1.525817
| 23> *
| 24>
| 25>                          ****END OF INPUT****

CARTESIAN COORDINATES (ANGSTROEM)
---------------------------------
  N      1.990811   -0.622856   -0.629420
  H      1.931431    0.145537   -1.286847
  H      2.964238   -0.880555   -0.536839
  C     -2.421072   -0.350244   -0.096681
  H     -3.045807   -1.165912   -0.462671
  H     -2.766459   -0.095407    0.908123
  H     -2.614499    0.507889   -0.743569
  N      0.014105    1.506798   -0.328520
  H      0.497986    2.259825    0.146270
  H     -0.921393    1.837328   -0.524861
  C     -0.946476   -0.754688   -0.096316
  H     -0.829081   -1.675676    0.479986
  H     -0.616481   -0.980777   -1.110214
  C      1.427116   -0.214502    0.656216
  H      2.012213    0.572109    1.158562
  H      1.424096   -1.077830    1.325625
  C     -0.009887    0.295010    0.507813
  H     -0.368749    0.512414    1.525817

 Total Charge           Charge          ....    0
 Multiplicity           Mult            ....    1
 Number of Electrons    NEL             ....   50
 Basis Dimension        Dim             .... 1032

ORBITAL ENERGIES
----------------

  NO   OCC          E(Eh)            E(eV)
   0   2.0000     -15.536046      -422.7573
   1   2.0000     -15.525117      -422.4599
   2   2.0000     -11.248434      -306.0854
   3   2.0000     -11.240635      -305.8732
   4   2.0000     -11.210059      -305.0412
   5   2.0000     -11.208159      -304.9895
   6   2.0000      -1.196885       -32.5689
   7   2.0000      -1.148189       -31.2438
   8   2.0000      -1.030907       -28.0524
   9   2.0000      -0.947776       -25.7903
  10   2.0000      -0.849311       -23.1109
  11   2.0000      -0.762870       -20.7587
  12   2.0000      -0.677518       -18.4362
  13   2.0000      -0.662770       -18.0349
  14   2.0000      -0.616867       -16.7858
  15   2.0000      -0.603596       -16.4247
  16   2.0000      -0.575658       -15.6644
  17   2.0000      -0.562401       -15.3037
  18   2.0000      -0.539478       -14.6800
  19   2.0000      -0.511541       -13.9197
  20   2.0000      -0.479693       -13.0531
  21   2.0000      -0.473849       -12.8941
  22   2.0000      -0.461487       -12.5577
  23   2.0000      -0.391461       -10.6522
  24   2.0000      -0.376817       -10.2537
  25   0.0000       0.024675         0.6714
  26   0.0000       0.030537         0.8310
  27   0.0000       0.033568         0.9134
  28   0.0000       0.034157         0.9295
  29   0.0000       0.048020         1.3067

MULLIKEN ATOMIC CHARGES
-----------------------
   0 N :   -0.706250
   1 H :    0.281583
   2 H :    0.130840
   3 C :   -0.828380
   4 H :    0.264776
   5 H :    0.207405
   6 H :    0.209684
   7 N :   -0.800755
   8 H :    0.179755
   9 H :    0.198583
  10 C :   -0.472116
  11 H :    0.255742
  12 H :    0.280582
  13 C :   -0.395925
  14 H :    0.218326
  15 H :    0.247098
  16 C :    0.356715
  17 H :    0.372337
Sum of atomic charges:    0.0000000

LOEWDIN ATOMIC CHARGES
----------------------
   0 N :    1.285591
   1 H :   -0.531862
   2 H :   -0.501442
   3 C :    0.936037
   4 H :   -0.280069
   5 H :   -0.278311
   6 H :   -0.294375
   7 N :    1.300955
   8 H :   -0.493091
   9 H :   -0.532410
  10 C :    0.500746
  11 H :   -0.274797
  12 H :   -0.283644
  13 C :    0.340995
  14 H :   -0.271197
  15 H :   -0.290004
  16 C :   -0.056832
  17 H :   -0.276290

  Mayer bond orders larger than 0.100000
B(  0-N ,  1-H ) :   0.8715 B(  0-N ,  2-H ) :   1.0443 B(  0-N , 13-C ) :   0.8810
B(  3-C ,  4-H ) :   1.0188 B(  3-C ,  5-H ) :   0.9699 B(  3-C ,  6-H ) :   0.9687
B(  3-C , 10-C ) :   0.9097 B(  7-N ,  8-H ) :   1.0085 B(  7-N ,  9-H ) :   0.9944
B(  7-N , 16-C ) :   0.4861 B( 10-C , 11-H ) :   0.9183 B( 10-C , 12-H ) :   0.8779
B( 10-C , 16-C ) :   0.7558 B( 13-C , 14-H ) :   1.0032 B( 13-C , 15-H ) :   0.9734
B( 13-C , 16-C ) :   0.7691 B( 16-C , 17-H ) :   0.7994

MP2 TOTAL ENERGY:     -268.687496558 Eh
FINAL SINGLE POINT ENERGY      -268.687496557530

DIPOLE MOMENT
-------------
                                X             Y             Z
Electronic contribution:      2.49354       0.50459      -0.39381
Nuclear contribution   :     -2.47210      -0.03820       0.93075
                        -----------------------------------------
Total Dipole Moment    :      0.02144       0.46638       0.53694
                        -----------------------------------------
Magnitude (a.u.)       :      0.71154
Magnitude (Debye)      :      1.80858

Rotational constants in cm-1:     0.187212     0.072518     0.062478
Rotational constants in MHz :  5612.463384  2174.023664  1873.050621

                             ****ORCA TERMINATED NORMALLY****
TOTAL RUN TIME: 0 days 0 hours 37 minutes 8 seconds 597 msec
