                         Program Version 5.0.4 -  RELEASE  -
|  1> !ri-mp2 aug-cc-pvqz aug-cc-pvqz/c tightscf
|  2> %pal nprocs 16 end
|  3>
|  4> * xyz 0 1
|  5> C      0.965240    1.519566    0.000000
|  6> C      0.317239    0.938668    1.261849
|  7> C      0.317239    0.938668   -1.261849
|  8> C      0.317239   -0.596952    1.207472
|  9> C      0.317239   -0.596952   -1.207472
| 10> C     -1.745453   -1.132476    0.000000
| 11> N     -0.291486   -1.154914    0.000000
| 12> H      0.900662    2.609587    0.000000
| 13> H      2.032300    1.270920    0.000000
| 14> H      0.848574    1.272756    2.156437
| 15> H     -0.708429    1.307685    1.352481
| 16> H     -0.708429    1.307685   -1.352481
| 17> H      0.848574    1.272756   -2.156437
| 18> H      1.353737   -0.949519    1.247433
| 19> H     -0.193487   -1.015270    2.076593
| 20> H     -0.193487   -1.015270   -2.076593
| 21> H      1.353737   -0.949519   -1.247433
| 22> H     -2.112988   -1.660457   -0.881168
| 23> H     -2.199834   -0.129627    0.000000
| 24> H     -2.112988   -1.660457    0.881168
| 25> *
| 26>
| 27>                          ****END OF INPUT****

CARTESIAN COORDINATES (ANGSTROEM)
---------------------------------
  C      0.965240    1.519566    0.000000
  C      0.317239    0.938668    1.261849
  C      0.317239    0.938668   -1.261849
  C      0.317239   -0.596952    1.207472
  C      0.317239   -0.596952   -1.207472
  C     -1.745453   -1.132476    0.000000
  N     -0.291486   -1.154914    0.000000
  H      0.900662    2.609587    0.000000
  H      2.032300    1.270920    0.000000
  H      0.848574    1.272756    2.156437
  H     -0.708429    1.307685    1.352481
  H     -0.708429    1.307685   -1.352481
  H      0.848574    1.272756   -2.156437
  H      1.353737   -0.949519    1.247433
  H     -0.193487   -1.015270    2.076593
  H     -0.193487   -1.015270   -2.076593
  H      1.353737   -0.949519   -1.247433
  H     -2.112988   -1.660457   -0.881168
  H     -2.199834   -0.129627    0.000000
  H     -2.112988   -1.660457    0.881168

 Total Charge           Charge          ....    0
 Multiplicity           Mult            ....    1
 Number of Electrons    NEL             ....   56
 Basis Dimension        Dim             .... 1158

ORBITAL ENERGIES
----------------

  NO   OCC          E(Eh)            E(eV)
   0   2.0000     -15.533433      -422.6862
   1   2.0000     -11.238734      -305.8215
   2   2.0000     -11.238720      -305.8211
   3   2.0000     -11.235553      -305.7349
   4   2.0000     -11.214729      -305.1683
   5   2.0000     -11.212015      -305.0944
   6   2.0000     -11.211939      -305.0924
   7   2.0000      -1.222017       -33.2528
   8   2.0000      -1.062039       -28.8995
   9   2.0000      -1.008744       -27.4493
  10   2.0000      -0.937675       -25.5154
  11   2.0000      -0.844646       -22.9840
  12   2.0000      -0.833133       -22.6707
  13   2.0000      -0.746669       -20.3179
  14   2.0000      -0.657191       -17.8831
  15   2.0000      -0.630544       -17.1580
  16   2.0000      -0.613319       -16.6893
  17   2.0000      -0.602163       -16.3857
  18   2.0000      -0.568991       -15.4830
  19   2.0000      -0.562846       -15.3158
  20   2.0000      -0.528587       -14.3836
  21   2.0000      -0.510909       -13.9025
  22   2.0000      -0.502793       -13.6817
  23   2.0000      -0.483330       -13.1521
  24   2.0000      -0.481367       -13.0987
  25   2.0000      -0.453136       -12.3305
  26   2.0000      -0.443793       -12.0762
  27   2.0000      -0.334236        -9.0950
  28   0.0000       0.026030         0.7083
  29   0.0000       0.030693         0.8352
  30   0.0000       0.032570         0.8863
  31   0.0000       0.034333         0.9342
  32   0.0000       0.046439         1.2637

MULLIKEN ATOMIC CHARGES
-----------------------
   0 C :   -0.453801
   1 C :   -0.414172
   2 C :   -0.414172
   3 C :   -0.365994
   4 C :   -0.365994
   5 C :   -0.860068
   6 N :   -0.428762
   7 H :    0.253586
   8 H :    0.167285
   9 H :    0.294189
  10 H :    0.203401
  11 H :    0.203402
  12 H :    0.294188
  13 H :    0.225373
  14 H :    0.298015
  15 H :    0.298015
  16 H :    0.225373
  17 H :    0.291103
  18 H :    0.257931
  19 H :    0.291103
Sum of atomic charges:    0.0000000

LOEWDIN ATOMIC CHARGES
----------------------
   0 C :    0.530799
   1 C :    0.538812
   2 C :    0.538812
   3 C :    0.360388
   4 C :    0.360388
   5 C :    0.749119
   6 N :    0.514737
   7 H :   -0.261319
   8 H :   -0.268386
   9 H :   -0.261608
  10 H :   -0.274145
  11 H :   -0.274145
  12 H :   -0.261608
  13 H :   -0.279171
  14 H :   -0.285052
  15 H :   -0.285052
  16 H :   -0.279171
  17 H :   -0.293349
  18 H :   -0.276701
  19 H :   -0.293349

  Mayer bond orders larger than 0.100000
B(  0-C ,  1-C ) :   0.8783 B(  0-C ,  2-C ) :   0.8783 B(  0-C ,  7-H ) :   0.9219
B(  0-C ,  8-H ) :   0.9859 B(  1-C ,  3-C ) :   0.9341 B(  1-C ,  9-H ) :   0.8987
B(  1-C , 10-H ) :   0.9468 B(  2-C ,  4-C ) :   0.9341 B(  2-C , 11-H ) :   0.9468
B(  2-C , 12-H ) :   0.8987 B(  3-C ,  6-N ) :   0.8642 B(  3-C , 13-H ) :   0.9609
B(  3-C , 14-H ) :   0.9165 B(  4-C ,  6-N ) :   0.8642 B(  4-C , 15-H ) :   0.9165
B(  4-C , 16-H ) :   0.9609 B(  5-C ,  6-N ) :   0.8258 B(  5-C , 17-H ) :   0.9633
B(  5-C , 18-H ) :   0.9662 B(  5-C , 19-H ) :   0.9633

MP2 TOTAL ENERGY:     -290.670236844 Eh
FINAL SINGLE POINT ENERGY      -290.670236843690

DIPOLE MOMENT
-------------
                                X             Y             Z
Electronic contribution:      0.88637      -1.40499       0.00000
Nuclear contribution   :     -0.94780       1.75450       0.00000
                        -----------------------------------------
Total Dipole Moment    :     -0.06143       0.34951       0.00000
                        -----------------------------------------
Magnitude (a.u.)       :      0.35487
Magnitude (Debye)      :      0.90200

Rotational constants in cm-1:     0.124627     0.086409     0.065015
Rotational constants in MHz :  3736.228708  2590.484516  1949.095637

                             ****ORCA TERMINATED NORMALLY****
TOTAL RUN TIME: 0 days 1 hours 5 minutes 35 seconds 672 msec
