                         Program Version 5.0.4 -  RELEASE  -
|  1> !ri-mp2 aug-cc-pvqz aug-cc-pvqz/c tightscf
|  2> %pal nprocs 16 end
|  3>
|  4> * xyz 0 1
|  5> C      0.536731    3.223064    0.000000
|  6> C     -0.454928    2.061221    0.000000
|  7> C      0.239825    0.697977    0.000000
|  8> C     -0.768764   -0.447146    0.000000
|  9> N     -0.044489   -1.768093    0.000000
| 10> O      0.239825   -2.250342    1.084249
| 11> O      0.239825   -2.250342   -1.084249
| 12> H      0.018030    4.181913    0.000000
| 13> H      1.179997    3.192827    0.881142
| 14> H      1.179997    3.192827   -0.881142
| 15> H     -1.106167    2.136482    0.875255
| 16> H     -1.106167    2.136482   -0.875255
| 17> H      0.880107    0.607526   -0.879899
| 18> H      0.880107    0.607526    0.879899
| 19> H     -1.384437   -0.442080    0.895216
| 20> H     -1.384437   -0.442080   -0.895216
| 21> *
| 22>
| 23>                          ****END OF INPUT****

CARTESIAN COORDINATES (ANGSTROEM)
---------------------------------
  C      0.536731    3.223064    0.000000
  C     -0.454928    2.061221    0.000000
  C      0.239825    0.697977    0.000000
  C     -0.768764   -0.447146    0.000000
  N     -0.044489   -1.768093    0.000000
  O      0.239825   -2.250342    1.084249
  O      0.239825   -2.250342   -1.084249
  H      0.018030    4.181913    0.000000
  H      1.179997    3.192827    0.881142
  H      1.179997    3.192827   -0.881142
  H     -1.106167    2.136482    0.875255
  H     -1.106167    2.136482   -0.875255
  H      0.880107    0.607526   -0.879899
  H      0.880107    0.607526    0.879899
  H     -1.384437   -0.442080    0.895216
  H     -1.384437   -0.442080   -0.895216

 Total Charge           Charge          ....    0
 Multiplicity           Mult            ....    1
 Number of Electrons    NEL             ....   56
 Basis Dimension        Dim             ....  974

ORBITAL ENERGIES
----------------

  NO   OCC          E(Eh)            E(eV)
   0   2.0000     -20.599223      -560.5334
   1   2.0000     -20.599171      -560.5319
   2   2.0000     -15.841847      -431.0786
   3   2.0000     -11.305288      -307.6325
   4   2.0000     -11.254474      -306.2498
   5   2.0000     -11.245365      -306.0019
   6   2.0000     -11.229356      -305.5663
   7   2.0000      -1.602772       -43.6136
   8   2.0000      -1.397932       -38.0397
   9   2.0000      -1.133507       -30.8443
  10   2.0000      -1.057840       -28.7853
  11   2.0000      -0.948566       -25.8118
  12   2.0000      -0.847716       -23.0675
  13   2.0000      -0.827434       -22.5156
  14   2.0000      -0.748229       -20.3604
  15   2.0000      -0.733557       -19.9611
  16   2.0000      -0.711999       -19.3745
  17   2.0000      -0.677249       -18.4289
  18   2.0000      -0.614142       -16.7117
  19   2.0000      -0.607008       -16.5175
  20   2.0000      -0.567966       -15.4552
  21   2.0000      -0.541197       -14.7267
  22   2.0000      -0.518750       -14.1159
  23   2.0000      -0.504903       -13.7391
  24   2.0000      -0.496430       -13.5086
  25   2.0000      -0.490622       -13.3505
  26   2.0000      -0.474396       -12.9090
  27   2.0000      -0.451437       -12.2842
  28   0.0000       0.020604         0.5607
  29   0.0000       0.028481         0.7750
  30   0.0000       0.031338         0.8528
  31   0.0000       0.035729         0.9722
  32   0.0000       0.047161         1.2833

MULLIKEN ATOMIC CHARGES
-----------------------
   0 C :   -0.881956
   1 C :   -0.410576
   2 C :   -0.386199
   3 C :   -0.400920
   4 N :    0.808484
   5 O :   -0.618860
   6 O :   -0.618860
   7 H :    0.265673
   8 H :    0.227646
   9 H :    0.227649
  10 H :    0.241204
  11 H :    0.241216
  12 H :    0.294167
  13 H :    0.294142
  14 H :    0.358624
  15 H :    0.358566
Sum of atomic charges:   -0.0000000

LOEWDIN ATOMIC CHARGES
----------------------
   0 C :    0.935211
   1 C :    0.511584
   2 C :    0.503419
   3 C :    0.335096
   4 N :   -0.836261
   5 O :    0.541392
   6 O :    0.541392
   7 H :   -0.280980
   8 H :   -0.281453
   9 H :   -0.281453
  10 H :   -0.270541
  11 H :   -0.270541
  12 H :   -0.271630
  13 H :   -0.271630
  14 H :   -0.301804
  15 H :   -0.301804

  Mayer bond orders larger than 0.100000
B(  0-C ,  1-C ) :   0.9667 B(  0-C ,  7-H ) :   1.0119 B(  0-C ,  8-H ) :   0.9540
B(  0-C ,  9-H ) :   0.9540 B(  1-C ,  2-C ) :   0.8733 B(  1-C , 10-H ) :   0.8817
B(  1-C , 11-H ) :   0.8816 B(  2-C ,  3-C ) :   1.0388 B(  2-C , 12-H ) :   0.8511
B(  2-C , 13-H ) :   0.8511 B(  3-C ,  4-N ) :   1.0262 B(  3-C , 14-H ) :   0.8153
B(  3-C , 15-H ) :   0.8153 B(  4-N ,  5-O ) :   1.2116 B(  4-N ,  6-O ) :   1.2116
B(  5-O ,  6-O ) :   0.1350

MP2 TOTAL ENERGY:     -362.424218892 Eh
FINAL SINGLE POINT ENERGY      -362.424218891844

DIPOLE MOMENT
-------------
                                X             Y             Z
Electronic contribution:      0.16451     -13.69275      -0.00000
Nuclear contribution   :     -0.85229      15.39024       0.00000
                        -----------------------------------------
Total Dipole Moment    :     -0.68778       1.69749      -0.00000
                        -----------------------------------------
Magnitude (a.u.)       :      1.83154
Magnitude (Debye)      :      4.65540

Rotational constants in cm-1:     0.240335     0.036448     0.035107
Rotational constants in MHz :  7205.047998  1092.670783  1052.477320

                             ****ORCA TERMINATED NORMALLY****
TOTAL RUN TIME: 0 days 0 hours 27 minutes 54 seconds 549 msec
