                         Program Version 5.0.4 -  RELEASE  -
|  1> !ri-mp2 aug-cc-pvqz aug-cc-pvqz/c tightscf
|  2> %pal nprocs 16 end
|  3>
|  4> * xyz 0 1
|  5> C     0.000000    1.600757     0.401027
|  6> C     1.386296   -0.800378     0.401027
|  7> C    -1.386296   -0.800378     0.401027
|  8> S     1.549588    0.894655    -0.250561
|  9> S    -1.549588    0.894655    -0.250561
| 10> S     0.000000   -1.789310    -0.250561
| 11> H     0.000000    1.541440     1.489315
| 12> H     0.000000    2.649012     0.113501
| 13> H     2.294111   -1.324506     0.113501
| 14> H     1.334926   -0.770720     1.489315
| 15> H    -1.334926   -0.770720     1.489315
| 16> H    -2.294111   -1.324506     0.113501
| 17> *
| 18>
| 19>                          ****END OF INPUT****

CARTESIAN COORDINATES (ANGSTROEM)
---------------------------------
  C      0.000000    1.600757    0.401027
  C      1.386296   -0.800378    0.401027
  C     -1.386296   -0.800378    0.401027
  S      1.549588    0.894655   -0.250561
  S     -1.549588    0.894655   -0.250561
  S      0.000000   -1.789310   -0.250561
  H      0.000000    1.541440    1.489315
  H      0.000000    2.649012    0.113501
  H      2.294111   -1.324506    0.113501
  H      1.334926   -0.770720    1.489315
  H     -1.334926   -0.770720    1.489315
  H     -2.294111   -1.324506    0.113501

 Total Charge           Charge          ....    0
 Multiplicity           Mult            ....    1
 Number of Electrons    NEL             ....   72
 Basis Dimension        Dim             ....  768

ORBITAL ENERGIES
----------------

  NO   OCC          E(Eh)            E(eV)
   0   2.0000     -91.962891     -2502.4375
   1   2.0000     -91.962891     -2502.4375
   2   2.0000     -91.962891     -2502.4375
   3   2.0000     -11.297879      -307.4309
   4   2.0000     -11.297879      -307.4309
   5   2.0000     -11.297865      -307.4305
   6   2.0000      -8.964294      -243.9308
   7   2.0000      -8.964294      -243.9308
   8   2.0000      -8.964285      -243.9306
   9   2.0000      -6.645656      -180.8375
  10   2.0000      -6.645654      -180.8374
  11   2.0000      -6.645654      -180.8374
  12   2.0000      -6.644795      -180.8141
  13   2.0000      -6.644793      -180.8140
  14   2.0000      -6.644793      -180.8140
  15   2.0000      -6.643873      -180.7890
  16   2.0000      -6.643872      -180.7889
  17   2.0000      -6.643872      -180.7889
  18   2.0000      -1.126224       -30.6461
  19   2.0000      -1.035663       -28.1818
  20   2.0000      -1.035663       -28.1818
  21   2.0000      -0.864982       -23.5374
  22   2.0000      -0.864982       -23.5374
  23   2.0000      -0.769810       -20.9476
  24   2.0000      -0.657239       -17.8844
  25   2.0000      -0.617661       -16.8074
  26   2.0000      -0.617661       -16.8074
  27   2.0000      -0.551567       -15.0089
  28   2.0000      -0.543116       -14.7789
  29   2.0000      -0.528379       -14.3779
  30   2.0000      -0.528379       -14.3779
  31   2.0000      -0.444808       -12.1038
  32   2.0000      -0.444808       -12.1038
  33   2.0000      -0.364951        -9.9308
  34   2.0000      -0.343434        -9.3453
  35   2.0000      -0.343434        -9.3453
  36   0.0000       0.025288         0.6881
  37   0.0000       0.031921         0.8686
  38   0.0000       0.031921         0.8686
  39   0.0000       0.036398         0.9905
  40   0.0000       0.052411         1.4262

MULLIKEN ATOMIC CHARGES
-----------------------
   0 C :   -0.698428
   1 C :   -0.698427
   2 C :   -0.698427
   3 S :   -0.038076
   4 S :   -0.038076
   5 S :   -0.038076
   6 H :    0.317405
   7 H :    0.419098
   8 H :    0.419096
   9 H :    0.317407
  10 H :    0.317407
  11 H :    0.419096
Sum of atomic charges:    0.0000000

LOEWDIN ATOMIC CHARGES
----------------------
   0 C :   -0.257969
   1 C :   -0.257970
   2 C :   -0.257970
   3 S :    1.200287
   4 S :    1.200287
   5 S :    1.200287
   6 H :   -0.450587
   7 H :   -0.491730
   8 H :   -0.491731
   9 H :   -0.450587
  10 H :   -0.450587
  11 H :   -0.491731

  Mayer bond orders larger than 0.100000
B(  0-C ,  3-S ) :   0.9963 B(  0-C ,  4-S ) :   0.9963 B(  0-C ,  6-H ) :   0.8555
B(  0-C ,  7-H ) :   0.8185 B(  1-C ,  3-S ) :   0.9963 B(  1-C ,  5-S ) :   0.9963
B(  1-C ,  8-H ) :   0.8185 B(  1-C ,  9-H ) :   0.8555 B(  2-C ,  4-S ) :   0.9963
B(  2-C ,  5-S ) :   0.9963 B(  2-C , 10-H ) :   0.8555 B(  2-C , 11-H ) :   0.8185

MP2 TOTAL ENERGY:    -1310.908940980 Eh
FINAL SINGLE POINT ENERGY     -1310.908940980297

DIPOLE MOMENT
-------------
                                X             Y             Z
Electronic contribution:     -0.00000       0.00000      -3.81656
Nuclear contribution   :     -0.00000      -0.00000       4.72542
                        -----------------------------------------
Total Dipole Moment    :     -0.00000       0.00000       0.90886
                        -----------------------------------------
Magnitude (a.u.)       :      0.90886
Magnitude (Debye)      :      2.31013

Rotational constants in cm-1:     0.072429     0.072429     0.039325
Rotational constants in MHz :  2171.361614  2171.361488  1178.947884

                             ****ORCA TERMINATED NORMALLY****
TOTAL RUN TIME: 0 days 0 hours 20 minutes 24 seconds 796 msec
