                         Program Version 5.0.4 -  RELEASE  -
|  1> !ri-mp2 aug-cc-pvqz aug-cc-pvqz/c tightscf
|  2> %pal nprocs 16 end
|  3>
|  4> * xyz 0 1
|  5> C      0.000000    0.430631        0.000000
|  6> C     -0.704353   -0.686847        0.000000
|  7> F      1.314791    0.500587        0.000000
|  8> F     -0.554822    1.630861        0.000000
|  9> F     -0.092517   -1.882156        0.000000
| 10> H     -1.780948   -0.706341        0.000000
| 11> *
| 12>
| 13>                          ****END OF INPUT****

CARTESIAN COORDINATES (ANGSTROEM)
---------------------------------
  C      0.000000    0.430631    0.000000
  C     -0.704353   -0.686847    0.000000
  F      1.314791    0.500587    0.000000
  F     -0.554822    1.630861    0.000000
  F     -0.092517   -1.882156    0.000000
  H     -1.780948   -0.706341    0.000000

 Total Charge           Charge          ....    0
 Multiplicity           Mult            ....    1
 Number of Electrons    NEL             ....   40
 Basis Dimension        Dim             ....  446

ORBITAL ENERGIES
----------------

  NO   OCC          E(Eh)            E(eV)
   0   2.0000     -26.359449      -717.2771
   1   2.0000     -26.358799      -717.2594
   2   2.0000     -26.329281      -716.4562
   3   2.0000     -11.437669      -311.2348
   4   2.0000     -11.344022      -308.6865
   5   2.0000      -1.715500       -46.6811
   6   2.0000      -1.654576       -45.0233
   7   2.0000      -1.644022       -44.7361
   8   2.0000      -1.086031       -29.5524
   9   2.0000      -0.900493       -24.5037
  10   2.0000      -0.822742       -22.3879
  11   2.0000      -0.810413       -22.0525
  12   2.0000      -0.780360       -21.2347
  13   2.0000      -0.733252       -19.9528
  14   2.0000      -0.710474       -19.3330
  15   2.0000      -0.704192       -19.1621
  16   2.0000      -0.698409       -19.0047
  17   2.0000      -0.679224       -18.4826
  18   2.0000      -0.610644       -16.6165
  19   2.0000      -0.400021       -10.8851
  20   0.0000       0.025549         0.6952
  21   0.0000       0.049742         1.3535
  22   0.0000       0.068030         1.8512
  23   0.0000       0.069498         1.8911
  24   0.0000       0.082851         2.2545

MULLIKEN ATOMIC CHARGES
-----------------------
   0 C :    1.110848
   1 C :    0.038244
   2 F :   -0.522974
   3 F :   -0.550737
   4 F :   -0.594855
   5 H :    0.519474
Sum of atomic charges:   -0.0000000

LOEWDIN ATOMIC CHARGES
----------------------
   0 C :   -1.375186
   1 C :   -0.360535
   2 F :    0.730940
   3 F :    0.724260
   4 F :    0.714496
   5 H :   -0.433975

  Mayer bond orders larger than 0.100000
B(  0-C ,  1-C ) :   1.8819 B(  0-C ,  2-F ) :   0.5797 B(  0-C ,  3-F ) :   0.6785
B(  1-C ,  4-F ) :   0.6581 B(  1-C ,  5-H ) :   0.7199

MP2 TOTAL ENERGY:     -375.910258825 Eh
FINAL SINGLE POINT ENERGY      -375.910258825092

DIPOLE MOMENT
-------------
                                X             Y             Z
Electronic contribution:      1.64842       0.92539      -0.00000
Nuclear contribution   :     -2.23482      -0.87240       0.00000
                        -----------------------------------------
Total Dipole Moment    :     -0.58640       0.05299      -0.00000
                        -----------------------------------------
Magnitude (a.u.)       :      0.58879
Magnitude (Debye)      :      1.49658

Rotational constants in cm-1:     0.354520     0.128330     0.094223
Rotational constants in MHz : 10628.237852  3847.234141  2824.731349

                             ****ORCA TERMINATED NORMALLY****
TOTAL RUN TIME: 0 days 0 hours 2 minutes 34 seconds 163 msec
