                         Program Version 5.0.4 -  RELEASE  -
|  1> !ri-mp2 aug-cc-pvqz aug-cc-pvqz/c tightscf
|  2> %pal nprocs 16 end
|  3>
|  4> * xyz 0 1
|  5> C     -1.818641   -0.717279    0.144096
|  6> C     -1.150092    0.559242   -0.358350
|  7> C      0.172758    0.883165    0.310034
|  8> Cl     1.464599   -0.345613   -0.067396
|  9> H     -2.003786   -0.667711    1.219027
| 10> H     -2.776988   -0.872261   -0.351812
| 11> H     -1.195361   -1.589705   -0.048379
| 12> H     -1.001591    0.509688   -1.438752
| 13> H     -1.806916    1.416179   -0.174399
| 14> H      0.089223    0.894421    1.394122
| 15> H      0.573090    1.834040   -0.028754
| 16> *
| 17>
| 18>                          ****END OF INPUT****

CARTESIAN COORDINATES (ANGSTROEM)
---------------------------------
  C     -1.818641   -0.717279    0.144096
  C     -1.150092    0.559242   -0.358350
  C      0.172758    0.883165    0.310034
  Cl     1.464599   -0.345613   -0.067396
  H     -2.003786   -0.667711    1.219027
  H     -2.776988   -0.872261   -0.351812
  H     -1.195361   -1.589705   -0.048379
  H     -1.001591    0.509688   -1.438752
  H     -1.806916    1.416179   -0.174399
  H      0.089223    0.894421    1.394122
  H      0.573090    1.834040   -0.028754

 Total Charge           Charge          ....    0
 Multiplicity           Mult            ....    1
 Number of Electrons    NEL             ....   42
 Basis Dimension        Dim             ....  646

ORBITAL ENERGIES
----------------

  NO   OCC          E(Eh)            E(eV)
   0   2.0000    -104.815426     -2852.1728
   1   2.0000     -11.292421      -307.2824
   2   2.0000     -11.238104      -305.8044
   3   2.0000     -11.218571      -305.2728
   4   2.0000     -10.540882      -286.8320
   5   2.0000      -8.007893      -217.9059
   6   2.0000      -8.006351      -217.8639
   7   2.0000      -8.006322      -217.8631
   8   2.0000      -1.131817       -30.7983
   9   2.0000      -1.038285       -28.2532
  10   2.0000      -0.922010       -25.0892
  11   2.0000      -0.808737       -22.0069
  12   2.0000      -0.647017       -17.6062
  13   2.0000      -0.633076       -17.2269
  14   2.0000      -0.586465       -15.9585
  15   2.0000      -0.540292       -14.7021
  16   2.0000      -0.515984       -14.0407
  17   2.0000      -0.502991       -13.6871
  18   2.0000      -0.483478       -13.1561
  19   2.0000      -0.429504       -11.6874
  20   2.0000      -0.428499       -11.6600
  21   0.0000       0.025147         0.6843
  22   0.0000       0.032792         0.8923
  23   0.0000       0.035048         0.9537
  24   0.0000       0.041257         1.1227
  25   0.0000       0.053871         1.4659

MULLIKEN ATOMIC CHARGES
-----------------------
   0 C :   -0.809640
   1 C :   -0.349580
   2 C :   -0.366041
   3 Cl:   -0.369582
   4 H :    0.231160
   5 H :    0.276249
   6 H :    0.265315
   7 H :    0.268626
   8 H :    0.263561
   9 H :    0.267696
  10 H :    0.322236
Sum of atomic charges:    0.0000000

LOEWDIN ATOMIC CHARGES
----------------------
   0 C :    0.886966
   1 C :    0.389677
   2 C :   -0.107677
   3 Cl:    1.104154
   4 H :   -0.288231
   5 H :   -0.285567
   6 H :   -0.317182
   7 H :   -0.302766
   8 H :   -0.287166
   9 H :   -0.395382
  10 H :   -0.396826

  Mayer bond orders larger than 0.100000
B(  0-C ,  1-C ) :   0.9456 B(  0-C ,  4-H ) :   0.9471 B(  0-C ,  5-H ) :   0.9546
B(  0-C ,  6-H ) :   0.9291 B(  1-C ,  2-C ) :   0.9766 B(  1-C ,  7-H ) :   0.8705
B(  1-C ,  8-H ) :   0.8478 B(  2-C ,  3-Cl) :   0.8252 B(  2-C ,  9-H ) :   0.8911
B(  2-C , 10-H ) :   0.8789

MP2 TOTAL ENERGY:     -578.038054560 Eh
FINAL SINGLE POINT ENERGY      -578.038054559829

DIPOLE MOMENT
-------------
                                X             Y             Z
Electronic contribution:      9.51255      -1.46418      -0.53594
Nuclear contribution   :    -10.26151       2.02777       0.67034
                        -----------------------------------------
Total Dipole Moment    :     -0.74897       0.56359       0.13440
                        -----------------------------------------
Magnitude (a.u.)       :      0.94692
Magnitude (Debye)      :      2.40687

Rotational constants in cm-1:     0.397739     0.106991     0.092449
Rotational constants in MHz : 11923.912383  3207.499953  2771.555578

                             ****ORCA TERMINATED NORMALLY****
TOTAL RUN TIME: 0 days 0 hours 10 minutes 19 seconds 628 msec
