                         Program Version 5.0.4 -  RELEASE  -
|  1> !ri-mp2 aug-cc-pvqz aug-cc-pvqz/c tightscf
|  2> %pal nprocs 16 end
|  3> %maxcore 3800
|  4>
|  5> * xyz 0 1
|  6> C     -3.194575   -0.313665    0.532954
|  7> C     -1.888732   -0.508814    1.083438
|  8> C     -3.009799    0.096865   -0.744869
|  9> C     -1.019311   -0.203012    0.091580
| 10> C      3.135362   -0.257975   -0.067413
| 11> C      2.506179    0.937102    0.061393
| 12> C      2.396422   -1.469775   -0.153237
| 13> C      1.044926   -1.406409   -0.107584
| 14> C      1.064931    1.048883    0.123453
| 15> N      0.385002   -0.209485    0.027326
| 16> O      0.429863    2.079331    0.252424
| 17> O     -1.682395    0.164204   -1.036752
| 18> H     -4.138874   -0.452415    1.029472
| 19> H     -1.631730   -0.812260    2.082940
| 20> H     -3.678984    0.370087   -1.539794
| 21> H      4.216627   -0.293566   -0.105985
| 22> H      3.049817    1.867462    0.131301
| 23> H      2.886862   -2.424324   -0.258784
| 24> H      0.409095   -2.276074   -0.174091
| 25> *
| 26>
| 27>                          ****END OF INPUT****

CARTESIAN COORDINATES (ANGSTROEM)
---------------------------------
  C     -3.194575   -0.313665    0.532954
  C     -1.888732   -0.508814    1.083438
  C     -3.009799    0.096865   -0.744869
  C     -1.019311   -0.203012    0.091580
  C      3.135362   -0.257975   -0.067413
  C      2.506179    0.937102    0.061393
  C      2.396422   -1.469775   -0.153237
  C      1.044926   -1.406409   -0.107584
  C      1.064931    1.048883    0.123453
  N      0.385002   -0.209485    0.027326
  O      0.429863    2.079331    0.252424
  O     -1.682395    0.164204   -1.036752
  H     -4.138874   -0.452415    1.029472
  H     -1.631730   -0.812260    2.082940
  H     -3.678984    0.370087   -1.539794
  H      4.216627   -0.293566   -0.105985
  H      3.049817    1.867462    0.131301
  H      2.886862   -2.424324   -0.258784
  H      0.409095   -2.276074   -0.174091

 Total Charge           Charge          ....    0
 Multiplicity           Mult            ....    1
 Number of Electrons    NEL             ....   84
 Basis Dimension        Dim             .... 1282

ORBITAL ENERGIES
----------------

  NO   OCC          E(Eh)            E(eV)
   0   2.0000     -20.629033      -561.3445
   1   2.0000     -20.515986      -558.2684
   2   2.0000     -15.635077      -425.4521
   3   2.0000     -11.358566      -309.0823
   4   2.0000     -11.333180      -308.3915
   5   2.0000     -11.310620      -307.7776
   6   2.0000     -11.294310      -307.3338
   7   2.0000     -11.273453      -306.7663
   8   2.0000     -11.241270      -305.8905
   9   2.0000     -11.240578      -305.8717
  10   2.0000     -11.240504      -305.8697
  11   2.0000     -11.235890      -305.7441
  12   2.0000      -1.474347       -40.1190
  13   2.0000      -1.386249       -37.7218
  14   2.0000      -1.291767       -35.1508
  15   2.0000      -1.126798       -30.6617
  16   2.0000      -1.095618       -29.8133
  17   2.0000      -1.035357       -28.1735
  18   2.0000      -1.004817       -27.3425
  19   2.0000      -0.893214       -24.3056
  20   2.0000      -0.868649       -23.6371
  21   2.0000      -0.824272       -22.4296
  22   2.0000      -0.793387       -21.5891
  23   2.0000      -0.759381       -20.6638
  24   2.0000      -0.708574       -19.2813
  25   2.0000      -0.698687       -19.0122
  26   2.0000      -0.666027       -18.1235
  27   2.0000      -0.641587       -17.4585
  28   2.0000      -0.638883       -17.3849
  29   2.0000      -0.620297       -16.8791
  30   2.0000      -0.616762       -16.7829
  31   2.0000      -0.585625       -15.9357
  32   2.0000      -0.573753       -15.6126
  33   2.0000      -0.566719       -15.4212
  34   2.0000      -0.555644       -15.1199
  35   2.0000      -0.542369       -14.7586
  36   2.0000      -0.491972       -13.3872
  37   2.0000      -0.432518       -11.7694
  38   2.0000      -0.429911       -11.6985
  39   2.0000      -0.408202       -11.1077
  40   2.0000      -0.331282        -9.0146
  41   2.0000      -0.316615        -8.6155
  42   0.0000       0.019914         0.5419
  43   0.0000       0.024682         0.6716
  44   0.0000       0.030277         0.8239
  45   0.0000       0.031951         0.8694
  46   0.0000       0.038645         1.0516

MULLIKEN ATOMIC CHARGES
-----------------------
   0 C :   -0.249210
   1 C :   -0.999481
   2 C :   -0.633002
   3 C :    1.721698
   4 C :   -0.275596
   5 C :   -0.492038
   6 C :   -0.315440
   7 C :   -0.175491
   8 C :    1.063851
   9 N :   -0.577932
  10 O :   -0.851651
  11 O :   -0.716398
  12 H :    0.450697
  13 H :    0.325997
  14 H :    0.516428
  15 H :    0.304993
  16 H :    0.261009
  17 H :    0.281041
  18 H :    0.360525
Sum of atomic charges:   -0.0000000

LOEWDIN ATOMIC CHARGES
----------------------
   0 C :    0.312311
   1 C :    0.322289
   2 C :    0.011289
   3 C :   -0.680956
   4 C :    0.334863
   5 C :    0.330642
   6 C :    0.357025
   7 C :    0.204956
   8 C :   -0.861626
   9 N :    0.367234
  10 O :    0.696037
  11 O :    0.876635
  12 H :   -0.328606
  13 H :   -0.307489
  14 H :   -0.330193
  15 H :   -0.312625
  16 H :   -0.346920
  17 H :   -0.339216
  18 H :   -0.305648

  Mayer bond orders larger than 0.100000
B(  0-C ,  1-C ) :   1.1408 B(  0-C ,  2-C ) :   1.7275 B(  0-C ,  3-C ) :  -0.3998
B(  0-C , 12-H ) :   0.8456 B(  1-C ,  2-C ) :   0.2996 B(  1-C ,  3-C ) :   1.0383
B(  1-C ,  8-C ) :  -0.1002 B(  1-C , 11-O ) :   0.1801 B(  1-C , 13-H ) :   0.9698
B(  2-C ,  3-C ) :  -0.4444 B(  2-C , 11-O ) :   1.0991 B(  2-C , 14-H ) :   0.8359
B(  3-C ,  8-C ) :  -0.1339 B(  3-C ,  9-N ) :   0.8415 B(  3-C , 11-O ) :   0.1869
B(  4-C ,  5-C ) :   1.5273 B(  4-C ,  6-C ) :   0.9471 B(  4-C ,  8-C ) :  -0.1362
B(  4-C , 15-H ) :   1.0224 B(  5-C ,  8-C ) :   1.1942 B(  5-C ,  9-N ) :  -0.1388
B(  5-C , 10-O ) :   0.2040 B(  5-C , 15-H ) :  -0.1038 B(  5-C , 16-H ) :   1.0085
B(  6-C ,  7-C ) :   1.4489 B(  6-C , 15-H ) :  -0.1199 B(  6-C , 17-H ) :   1.0626
B(  7-C ,  8-C ) :   0.1817 B(  7-C ,  9-N ) :   1.0877 B(  7-C , 17-H ) :  -0.1500
B(  7-C , 18-H ) :   0.8979 B(  8-C ,  9-N ) :   1.1377 B(  8-C , 10-O ) :   1.0034
B(  9-N , 10-O ) :   0.1552

MP2 TOTAL ENERGY:     -551.474702162 Eh
FINAL SINGLE POINT ENERGY      -551.474702162427

DIPOLE MOMENT
-------------
                                X             Y             Z
Electronic contribution:     -0.79988       2.22171      -1.03016
Nuclear contribution   :      1.07221      -3.90279       1.12852
                        -----------------------------------------
Total Dipole Moment    :      0.27232      -1.68109       0.09836
                        -----------------------------------------
Magnitude (a.u.)       :      1.70584
Magnitude (Debye)      :      4.33590

Rotational constants in cm-1:     0.077979     0.022572     0.019584
Rotational constants in MHz :  2337.740547   676.680980   587.116801

                             ****ORCA TERMINATED NORMALLY****
TOTAL RUN TIME: 0 days 1 hours 16 minutes 54 seconds 186 msec
