                         Program Version 5.0.4 -  RELEASE  -
|  1> !ri-mp2 aug-cc-pvqz aug-cc-pvqz/c tightscf
|  2> %pal nprocs 16 end
|  3>
|  4> * xyz 0 1
|  5> C     -0.299342    0.692073    0.892875
|  6> C      0.299342   -0.692073    0.892875
|  7> Cl     0.299342    1.715125   -0.469310
|  8> Cl    -0.299342   -1.715125   -0.469310
|  9> H     -1.381552    0.661641    0.812196
| 10> H     -0.016551    1.207148    1.808816
| 11> H      0.016551   -1.207148    1.808816
| 12> H      1.381552   -0.661641    0.812196
| 13> *
| 14>
| 15>                          ****END OF INPUT****

CARTESIAN COORDINATES (ANGSTROEM)
---------------------------------
  C     -0.299342    0.692073    0.892875
  C      0.299342   -0.692073    0.892875
  Cl     0.299342    1.715125   -0.469310
  Cl    -0.299342   -1.715125   -0.469310
  H     -1.381552    0.661641    0.812196
  H     -0.016551    1.207148    1.808816
  H      0.016551   -1.207148    1.808816
  H      1.381552   -0.661641    0.812196

 Total Charge           Charge          ....    0
 Multiplicity           Mult            ....    1
 Number of Electrons    NEL             ....   50
 Basis Dimension        Dim             ....  512

ORBITAL ENERGIES
----------------

  NO   OCC          E(Eh)            E(eV)
   0   2.0000    -104.830987     -2852.5962
   1   2.0000    -104.830987     -2852.5962
   2   2.0000     -11.314100      -307.8723
   3   2.0000     -11.313428      -307.8540
   4   2.0000     -10.556327      -287.2523
   5   2.0000     -10.556325      -287.2522
   6   2.0000      -8.023374      -218.3271
   7   2.0000      -8.023373      -218.3271
   8   2.0000      -8.021707      -218.2818
   9   2.0000      -8.021707      -218.2817
  10   2.0000      -8.021666      -218.2806
  11   2.0000      -8.021666      -218.2806
  12   2.0000      -1.169581       -31.8259
  13   2.0000      -1.109384       -30.1879
  14   2.0000      -0.986434       -26.8422
  15   2.0000      -0.846729       -23.0407
  16   2.0000      -0.668388       -18.1878
  17   2.0000      -0.654172       -17.8009
  18   2.0000      -0.602389       -16.3918
  19   2.0000      -0.542468       -14.7613
  20   2.0000      -0.529054       -14.3963
  21   2.0000      -0.455072       -12.3831
  22   2.0000      -0.448741       -12.2109
  23   2.0000      -0.439569       -11.9613
  24   2.0000      -0.437473       -11.9042
  25   0.0000       0.022270         0.6060
  26   0.0000       0.035099         0.9551
  27   0.0000       0.039220         1.0672
  28   0.0000       0.044091         1.1998
  29   0.0000       0.064333         1.7506

MULLIKEN ATOMIC CHARGES
-----------------------
   0 C :   -0.352761
   1 C :   -0.352761
   2 Cl:   -0.278204
   3 Cl:   -0.278204
   4 H :    0.327711
   5 H :    0.303254
   6 H :    0.303254
   7 H :    0.327711
Sum of atomic charges:   -0.0000000

LOEWDIN ATOMIC CHARGES
----------------------
   0 C :   -0.259528
   1 C :   -0.259528
   2 Cl:    1.097541
   3 Cl:    1.097541
   4 H :   -0.428671
   5 H :   -0.409341
   6 H :   -0.409341
   7 H :   -0.428671

  Mayer bond orders larger than 0.100000
B(  0-C ,  1-C ) :   1.0061 B(  0-C ,  2-Cl) :   0.8783 B(  0-C ,  4-H ) :   0.8481
B(  0-C ,  5-H ) :   0.8538 B(  1-C ,  3-Cl) :   0.8783 B(  1-C ,  6-H ) :   0.8538
B(  1-C ,  7-H ) :   0.8481

MP2 TOTAL ENERGY:     -997.939108736 Eh
FINAL SINGLE POINT ENERGY      -997.939108735561

DIPOLE MOMENT
-------------
                                X             Y             Z
Electronic contribution:     -0.00000      -0.00000      -5.05160
Nuclear contribution   :      0.00000       0.00000       6.24841
                        -----------------------------------------
Total Dipole Moment    :     -0.00000      -0.00000       1.19681
                        -----------------------------------------
Magnitude (a.u.)       :      1.19681
Magnitude (Debye)      :      3.04205

Rotational constants in cm-1:     0.333371     0.071352     0.062386
Rotational constants in MHz :  9994.198873  2139.069033  1870.275691

                             ****ORCA TERMINATED NORMALLY****
TOTAL RUN TIME: 0 days 0 hours 4 minutes 28 seconds 651 msec
