                         Program Version 5.0.4 -  RELEASE  -
|  1> !ri-mp2 aug-cc-pvqz aug-cc-pvqz/c tightscf
|  2> %pal nprocs 16 end
|  3>
|  4> * xyz 0 1
|  5> S     -1.852923   -0.547135    0.000003
|  6> S      2.341496   -0.118506    0.000003
|  7> N     -0.197443   -0.956196   -0.000012
|  8> C      0.689320    0.084870   -0.000004
|  9> C     -0.074363    1.311044   -0.000004
| 10> C     -1.409363    1.123574    0.000003
| 11> H      0.409589    2.273247   -0.000007
| 12> H      0.109128   -1.916200    0.000016
| 13> H     -2.187332    1.869648    0.000005
| 14> *
| 15>
| 16>                          ****END OF INPUT****

CARTESIAN COORDINATES (ANGSTROEM)
---------------------------------
  S     -1.852923   -0.547135    0.000003
  S      2.341496   -0.118506    0.000003
  N     -0.197443   -0.956196   -0.000012
  C      0.689320    0.084870   -0.000004
  C     -0.074363    1.311044   -0.000004
  C     -1.409363    1.123574    0.000003
  H      0.409589    2.273247   -0.000007
  H      0.109128   -1.916200    0.000016
  H     -2.187332    1.869648    0.000005

 Total Charge           Charge          ....    0
 Multiplicity           Mult            ....    1
 Number of Electrons    NEL             ....   60
 Basis Dimension        Dim             ....  626

ORBITAL ENERGIES
----------------

  NO   OCC          E(Eh)            E(eV)
   0   2.0000     -92.043760     -2504.6381
   1   2.0000     -91.896392     -2500.6280
   2   2.0000     -15.643553      -425.6827
   3   2.0000     -11.354437      -308.9700
   4   2.0000     -11.318513      -307.9924
   5   2.0000     -11.269567      -306.6605
   6   2.0000      -9.041935      -246.0436
   7   2.0000      -8.900086      -242.1837
   8   2.0000      -6.723338      -182.9513
   9   2.0000      -6.722390      -182.9255
  10   2.0000      -6.721215      -182.8936
  11   2.0000      -6.581782      -179.0994
  12   2.0000      -6.580151      -179.0550
  13   2.0000      -6.579472      -179.0365
  14   2.0000      -1.318376       -35.8748
  15   2.0000      -1.112121       -30.2624
  16   2.0000      -1.063408       -28.9368
  17   2.0000      -0.927685       -25.2436
  18   2.0000      -0.852865       -23.2076
  19   2.0000      -0.805751       -21.9256
  20   2.0000      -0.690508       -18.7897
  21   2.0000      -0.641510       -17.4564
  22   2.0000      -0.613634       -16.6978
  23   2.0000      -0.612622       -16.6703
  24   2.0000      -0.545596       -14.8464
  25   2.0000      -0.503717       -13.7068
  26   2.0000      -0.443215       -12.0605
  27   2.0000      -0.415337       -11.3019
  28   2.0000      -0.325092        -8.8462
  29   2.0000      -0.305478        -8.3125
  30   0.0000       0.017919         0.4876
  31   0.0000       0.028225         0.7681
  32   0.0000       0.035423         0.9639
  33   0.0000       0.052064         1.4167
  34   0.0000       0.054409         1.4806

MULLIKEN ATOMIC CHARGES
-----------------------
   0 S :    0.416798
   1 S :   -0.187741
   2 N :   -0.417189
   3 C :   -0.178719
   4 C :   -0.249183
   5 C :   -0.542012
   6 H :    0.489836
   7 H :    0.248379
   8 H :    0.419832
Sum of atomic charges:    0.0000000

LOEWDIN ATOMIC CHARGES
----------------------
   0 S :    1.247240
   1 S :    0.975496
   2 N :    0.307621
   3 C :   -1.192030
   4 C :    0.083970
   5 C :   -0.070665
   6 H :   -0.356625
   7 H :   -0.602229
   8 H :   -0.392778

  Mayer bond orders larger than 0.100000
B(  0-S ,  2-N ) :   0.8528 B(  0-S ,  5-C ) :   1.1126 B(  1-S ,  3-C ) :   1.4539
B(  1-S ,  4-C ) :  -0.1519 B(  2-N ,  3-C ) :   1.0751 B(  2-N ,  7-H ) :   1.0050
B(  3-C ,  4-C ) :   0.9413 B(  3-C ,  5-C ) :  -0.1492 B(  4-C ,  5-C ) :   1.5314
B(  4-C ,  6-H ) :   0.7558 B(  5-C ,  8-H ) :   0.8451

MP2 TOTAL ENERGY:     -966.039161366 Eh
FINAL SINGLE POINT ENERGY      -966.039161365681

DIPOLE MOMENT
-------------
                                X             Y             Z
Electronic contribution:     -0.50776      -1.97851      -0.00000
Nuclear contribution   :     -1.62016       2.15555       0.00001
                        -----------------------------------------
Total Dipole Moment    :     -2.12792       0.17704       0.00001
                        -----------------------------------------
Magnitude (a.u.)       :      2.13527
Magnitude (Debye)      :      5.42742

Rotational constants in cm-1:     0.237118     0.052508     0.042989
Rotational constants in MHz :  7108.623491  1574.156018  1288.767317

                             ****ORCA TERMINATED NORMALLY****
TOTAL RUN TIME: 0 days 0 hours 10 minutes 23 seconds 575 msec
