                         Program Version 5.0.4 -  RELEASE  -
|  1> !ri-mp2 aug-cc-pvqz aug-cc-pvqz/c tightscf
|  2> %pal nprocs 16 end
|  3> %maxcore 3800
|  4>
|  5> * xyz 0 1
|  6> C     -0.013713   -2.140034    0.000000
|  7> C     -1.206232   -1.434267    0.000000
|  8> C      1.188364   -1.448980    0.000000
|  9> C     -1.219337   -0.039134    0.000000
| 10> C      1.211026   -0.056326    0.000000
| 11> C      0.000000    0.658904    0.000000
| 12> C     -2.548821    0.677092    0.000000
| 13> C      2.533357    0.666411    0.000000
| 14> C      0.040515    2.167409    0.000000
| 15> H     -0.020953   -3.222033    0.000000
| 16> H     -2.147129   -1.970109    0.000000
| 17> H      2.124223   -1.993715    0.000000
| 18> H     -2.669919    1.314846    0.878141
| 19> H     -2.669919    1.314846   -0.878141
| 20> H     -3.368212   -0.040077    0.000000
| 21> H      2.643869    1.309810   -0.876251
| 22> H      2.643869    1.309810    0.876251
| 23> H      3.361993   -0.039937    0.000000
| 24> H      0.571159    2.550206   -0.875359
| 25> H     -0.951091    2.609692    0.000000
| 26> H      0.571159    2.550206    0.875359
| 27> *
| 28>
| 29>                          ****END OF INPUT****

CARTESIAN COORDINATES (ANGSTROEM)
---------------------------------
  C     -0.013713   -2.140034    0.000000
  C     -1.206232   -1.434267    0.000000
  C      1.188364   -1.448980    0.000000
  C     -1.219337   -0.039134    0.000000
  C      1.211026   -0.056326    0.000000
  C      0.000000    0.658904    0.000000
  C     -2.548821    0.677092    0.000000
  C      2.533357    0.666411    0.000000
  C      0.040515    2.167409    0.000000
  H     -0.020953   -3.222033    0.000000
  H     -2.147129   -1.970109    0.000000
  H      2.124223   -1.993715    0.000000
  H     -2.669919    1.314846    0.878141
  H     -2.669919    1.314846   -0.878141
  H     -3.368212   -0.040077    0.000000
  H      2.643869    1.309810   -0.876251
  H      2.643869    1.309810    0.876251
  H      3.361993   -0.039937    0.000000
  H      0.571159    2.550206   -0.875359
  H     -0.951091    2.609692    0.000000
  H      0.571159    2.550206    0.875359

 Total Charge           Charge          ....    0
 Multiplicity           Mult            ....    1
 Number of Electrons    NEL             ....   66
 Basis Dimension        Dim             .... 1272

ORBITAL ENERGIES
----------------

  NO   OCC          E(Eh)            E(eV)
   0   2.0000     -11.232873      -305.6620
   1   2.0000     -11.231869      -305.6347
   2   2.0000     -11.229633      -305.5738
   3   2.0000     -11.221790      -305.3604
   4   2.0000     -11.218798      -305.2790
   5   2.0000     -11.218571      -305.2728
   6   2.0000     -11.218076      -305.2594
   7   2.0000     -11.217777      -305.2512
   8   2.0000     -11.217648      -305.2477
   9   2.0000      -1.155589       -31.4452
  10   2.0000      -1.053275       -28.6611
  11   2.0000      -1.045237       -28.4423
  12   2.0000      -0.966686       -26.3049
  13   2.0000      -0.921368       -25.0717
  14   2.0000      -0.908381       -24.7183
  15   2.0000      -0.785394       -21.3716
  16   2.0000      -0.779847       -21.2207
  17   2.0000      -0.667391       -18.1606
  18   2.0000      -0.655456       -17.8359
  19   2.0000      -0.603087       -16.4108
  20   2.0000      -0.596103       -16.2208
  21   2.0000      -0.566397       -15.4124
  22   2.0000      -0.558493       -15.1974
  23   2.0000      -0.556991       -15.1565
  24   2.0000      -0.550698       -14.9852
  25   2.0000      -0.544514       -14.8170
  26   2.0000      -0.539922       -14.6920
  27   2.0000      -0.519405       -14.1337
  28   2.0000      -0.471908       -12.8413
  29   2.0000      -0.470696       -12.8083
  30   2.0000      -0.468860       -12.7583
  31   2.0000      -0.316666        -8.6169
  32   2.0000      -0.314296        -8.5524
  33   0.0000       0.026137         0.7112
  34   0.0000       0.027897         0.7591
  35   0.0000       0.028590         0.7780
  36   0.0000       0.038373         1.0442
  37   0.0000       0.039071         1.0632

MULLIKEN ATOMIC CHARGES
-----------------------
   0 C :   -0.146635
   1 C :   -0.827939
   2 C :   -0.689825
   3 C :    0.616865
   4 C :    0.584601
   5 C :    0.328978
   6 C :   -0.761818
   7 C :   -0.843782
   8 C :   -0.914160
   9 H :    0.232032
  10 H :    0.249182
  11 H :    0.243619
  12 H :    0.178236
  13 H :    0.178236
  14 H :    0.210032
  15 H :    0.183852
  16 H :    0.183852
  17 H :    0.274515
  18 H :    0.196032
  19 H :    0.328096
  20 H :    0.196032
Sum of atomic charges:    0.0000000

LOEWDIN ATOMIC CHARGES
----------------------
   0 C :    0.354145
   1 C :    0.343024
   2 C :    0.346220
   3 C :   -0.048786
   4 C :   -0.061198
   5 C :   -0.040541
   6 C :    0.904370
   7 C :    0.902229
   8 C :    0.905491
   9 H :   -0.321635
  10 H :   -0.328192
  11 H :   -0.326509
  12 H :   -0.278724
  13 H :   -0.278724
  14 H :   -0.309749
  15 H :   -0.283307
  16 H :   -0.283307
  17 H :   -0.306096
  18 H :   -0.277782
  19 H :   -0.333147
  20 H :   -0.277782

  Mayer bond orders larger than 0.100000
B(  0-C ,  1-C ) :   1.2385 B(  0-C ,  2-C ) :   1.2541 B(  0-C ,  3-C ) :  -0.4510
B(  0-C ,  4-C ) :  -0.4757 B(  0-C ,  5-C ) :   0.3444 B(  0-C ,  9-H ) :   1.2093
B(  1-C ,  2-C ) :   0.3894 B(  1-C ,  3-C ) :   0.7206 B(  1-C ,  4-C ) :  -0.1545
B(  1-C ,  5-C ) :   0.2684 B(  1-C ,  6-C ) :  -0.1619 B(  1-C ,  9-H ) :  -0.2314
B(  1-C , 10-H ) :   1.0097 B(  2-C ,  3-C ) :  -0.1478 B(  2-C ,  4-C ) :   0.8466
B(  2-C ,  5-C ) :   0.1976 B(  2-C ,  7-C ) :  -0.1111 B(  2-C ,  9-H ) :  -0.2258
B(  2-C , 11-H ) :   1.0202 B(  3-C ,  4-C ) :  -0.1563 B(  3-C ,  5-C ) :   0.8051
B(  3-C ,  6-C ) :   0.6830 B(  3-C , 12-H ) :  -0.1163 B(  3-C , 13-H ) :  -0.1163
B(  4-C ,  5-C ) :   0.7335 B(  4-C ,  7-C ) :   0.6842 B(  4-C , 15-H ) :  -0.1155
B(  4-C , 16-H ) :  -0.1155 B(  5-C ,  6-C ) :  -0.1562 B(  5-C ,  7-C ) :  -0.1342
B(  5-C ,  8-C ) :   0.4320 B(  5-C , 18-H ) :  -0.1593 B(  5-C , 19-H ) :  -0.1516
B(  5-C , 20-H ) :  -0.1593 B(  6-C , 12-H ) :   1.0617 B(  6-C , 13-H ) :   1.0617
B(  6-C , 14-H ) :   1.0657 B(  7-C , 15-H ) :   1.0648 B(  7-C , 16-H ) :   1.0648
B(  7-C , 17-H ) :   1.0081 B(  8-C , 18-H ) :   1.0663 B(  8-C , 19-H ) :   0.9695
B(  8-C , 20-H ) :   1.0663

MP2 TOTAL ENERGY:     -349.531434039 Eh
FINAL SINGLE POINT ENERGY      -349.531434038834

DIPOLE MOMENT
-------------
                                X             Y             Z
Electronic contribution:     -0.08728      -5.58519       0.00000
Nuclear contribution   :      0.09183       5.87155       0.00000
                        -----------------------------------------
Total Dipole Moment    :      0.00455       0.28636       0.00000
                        -----------------------------------------
Magnitude (a.u.)       :      0.28640
Magnitude (Debye)      :      0.72797

Rotational constants in cm-1:     0.074219     0.057776     0.033079
Rotational constants in MHz :  2225.030689  1732.088551   991.691191

                             ****ORCA TERMINATED NORMALLY****
TOTAL RUN TIME: 0 days 1 hours 45 minutes 34 seconds 340 msec
