                         Program Version 5.0.4 -  RELEASE  -
|  1> !ri-mp2 aug-cc-pvqz aug-cc-pvqz/c tightscf
|  2> %pal nprocs 16 end
|  3>
|  4> * xyz 0 1
|  5> C      2.201897   -1.170837    0.000000
|  6> C      1.510358    0.188385    0.000000
|  7> C     -0.014350    0.152620    0.000000
|  8> Cl    -0.646271    1.840726    0.000000
|  9> Cl    -0.646271   -0.685884    1.463336
| 10> Cl    -0.646271   -0.685884   -1.463336
| 11> H      1.942156   -1.751560   -0.883333
| 12> H      3.281345   -1.020850    0.000000
| 13> H      1.942156   -1.751560    0.883333
| 14> H      1.803357    0.765336   -0.877934
| 15> H      1.803357    0.765336    0.877934
| 16> *
| 17>
| 18>                          ****END OF INPUT****

CARTESIAN COORDINATES (ANGSTROEM)
---------------------------------
  C      2.201897   -1.170837    0.000000
  C      1.510358    0.188385    0.000000
  C     -0.014350    0.152620    0.000000
  Cl    -0.646271    1.840726    0.000000
  Cl    -0.646271   -0.685884    1.463336
  Cl    -0.646271   -0.685884   -1.463336
  H      1.942156   -1.751560   -0.883333
  H      3.281345   -1.020850    0.000000
  H      1.942156   -1.751560    0.883333
  H      1.803357    0.765336   -0.877934
  H      1.803357    0.765336    0.877934

 Total Charge           Charge          ....    0
 Multiplicity           Mult            ....    1
 Number of Electrons    NEL             ....   74
 Basis Dimension        Dim             ....  722

ORBITAL ENERGIES
----------------

  NO   OCC          E(Eh)            E(eV)
   0   2.0000    -104.855359     -2853.2594
   1   2.0000    -104.855359     -2853.2594
   2   2.0000    -104.854851     -2853.2455
   3   2.0000     -11.437543      -311.2314
   4   2.0000     -11.264821      -306.5314
   5   2.0000     -11.233022      -305.6661
   6   2.0000     -10.580863      -287.9199
   7   2.0000     -10.580854      -287.9197
   8   2.0000     -10.580299      -287.9046
   9   2.0000      -8.047799      -218.9917
  10   2.0000      -8.047797      -218.9917
  11   2.0000      -8.047231      -218.9763
  12   2.0000      -8.045956      -218.9416
  13   2.0000      -8.045955      -218.9416
  14   2.0000      -8.045926      -218.9408
  15   2.0000      -8.045925      -218.9407
  16   2.0000      -8.045381      -218.9259
  17   2.0000      -8.045351      -218.9251
  18   2.0000      -1.234685       -33.5975
  19   2.0000      -1.102732       -30.0069
  20   2.0000      -1.102076       -29.9890
  21   2.0000      -1.060741       -28.8642
  22   2.0000      -0.913182       -24.8490
  23   2.0000      -0.786282       -21.3958
  24   2.0000      -0.665725       -18.1153
  25   2.0000      -0.651869       -17.7383
  26   2.0000      -0.621195       -16.9036
  27   2.0000      -0.593329       -16.1453
  28   2.0000      -0.550949       -14.9921
  29   2.0000      -0.534393       -14.5416
  30   2.0000      -0.512835       -13.9550
  31   2.0000      -0.493648       -13.4329
  32   2.0000      -0.488653       -13.2969
  33   2.0000      -0.461905       -12.5691
  34   2.0000      -0.455420       -12.3926
  35   2.0000      -0.454619       -12.3708
  36   2.0000      -0.443415       -12.0659
  37   0.0000       0.025733         0.7002
  38   0.0000       0.036499         0.9932
  39   0.0000       0.038258         1.0410
  40   0.0000       0.043667         1.1883
  41   0.0000       0.054260         1.4765

MULLIKEN ATOMIC CHARGES
-----------------------
   0 C :   -0.813737
   1 C :   -0.283333
   2 C :    0.534710
   3 Cl:   -0.293561
   4 Cl:   -0.294958
   5 Cl:   -0.294958
   6 H :    0.261834
   7 H :    0.257929
   8 H :    0.261834
   9 H :    0.332120
  10 H :    0.332120
Sum of atomic charges:    0.0000000

LOEWDIN ATOMIC CHARGES
----------------------
   0 C :    0.845471
   1 C :    0.115518
   2 C :   -2.375468
   3 Cl:    1.009259
   4 Cl:    1.023498
   5 Cl:    1.023498
   6 H :   -0.325647
   7 H :   -0.282812
   8 H :   -0.325647
   9 H :   -0.353835
  10 H :   -0.353835

  Mayer bond orders larger than 0.100000
B(  0-C ,  1-C ) :   0.9284 B(  0-C ,  6-H ) :   0.9274 B(  0-C ,  7-H ) :   0.9800
B(  0-C ,  8-H ) :   0.9274 B(  1-C ,  2-C ) :   0.9279 B(  1-C ,  9-H ) :   0.8311
B(  1-C , 10-H ) :   0.8311 B(  2-C ,  3-Cl) :   0.7321 B(  2-C ,  4-Cl) :   0.7119
B(  2-C ,  5-Cl) :   0.7119

MP2 TOTAL ENERGY:    -1496.314311308 Eh
FINAL SINGLE POINT ENERGY     -1496.314311307597

DIPOLE MOMENT
-------------
                                X             Y             Z
Electronic contribution:    -11.90447       3.37974       0.00000
Nuclear contribution   :     12.76933      -3.45409       0.00000
                        -----------------------------------------
Total Dipole Moment    :      0.86486      -0.07435       0.00000
                        -----------------------------------------
Magnitude (a.u.)       :      0.86805
Magnitude (Debye)      :      2.20642

Rotational constants in cm-1:     0.061473     0.050651     0.045745
Rotational constants in MHz :  1842.919088  1518.470500  1371.387332

                             ****ORCA TERMINATED NORMALLY****
TOTAL RUN TIME: 0 days 0 hours 15 minutes 55 seconds 513 msec
