                         Program Version 5.0.4 -  RELEASE  -
|  1> !ri-mp2 aug-cc-pvqz aug-cc-pvqz/c tightscf
|  2> %pal nprocs 16 end
|  3>
|  4> * xyz 0 1
|  5> C      0.000000    0.000000   -1.307744
|  6> N      0.000000    1.191556   -0.712170
|  7> N      0.000000   -1.191556   -0.712170
|  8> C      0.000000   -1.180628    0.620975
|  9> C      0.000000    1.180628    0.620975
| 10> C      0.000000    0.000000    1.349488
| 11> H      0.000000    0.000000    2.429940
| 12> H      0.000000    0.000000   -2.391534
| 13> H      0.000000   -2.145739    1.114908
| 14> H      0.000000    2.145739    1.114908
| 15> *
| 16>
| 17>                          ****END OF INPUT****

CARTESIAN COORDINATES (ANGSTROEM)
---------------------------------
  C      0.000000    0.000000   -1.307744
  N      0.000000    1.191556   -0.712170
  N      0.000000   -1.191556   -0.712170
  C      0.000000   -1.180628    0.620975
  C      0.000000    1.180628    0.620975
  C      0.000000    0.000000    1.349488
  H      0.000000    0.000000    2.429940
  H      0.000000    0.000000   -2.391534
  H      0.000000   -2.145739    1.114908
  H      0.000000    2.145739    1.114908

 Total Charge           Charge          ....    0
 Multiplicity           Mult            ....    1
 Number of Electrons    NEL             ....   42
 Basis Dimension        Dim             ....  664

ORBITAL ENERGIES
----------------

  NO   OCC          E(Eh)            E(eV)
   0   2.0000     -15.573246      -423.7696
   1   2.0000     -15.573220      -423.7689
   2   2.0000     -11.314036      -307.8706
   3   2.0000     -11.299563      -307.4767
   4   2.0000     -11.299551      -307.4764
   5   2.0000     -11.249340      -306.1101
   6   2.0000      -1.316005       -35.8103
   7   2.0000      -1.198036       -32.6002
   8   2.0000      -1.077278       -29.3142
   9   2.0000      -0.897316       -24.4172
  10   2.0000      -0.893305       -24.3081
  11   2.0000      -0.741518       -20.1777
  12   2.0000      -0.704812       -19.1789
  13   2.0000      -0.652668       -17.7600
  14   2.0000      -0.597794       -16.2668
  15   2.0000      -0.589093       -16.0300
  16   2.0000      -0.579801       -15.7772
  17   2.0000      -0.474829       -12.9208
  18   2.0000      -0.424691       -11.5564
  19   2.0000      -0.416641       -11.3374
  20   2.0000      -0.379602       -10.3295
  21   0.0000       0.022196         0.6040
  22   0.0000       0.030405         0.8274
  23   0.0000       0.035374         0.9626
  24   0.0000       0.043387         1.1806
  25   0.0000       0.058802         1.6001

MULLIKEN ATOMIC CHARGES
-----------------------
   0 C :   -0.278704
   1 N :   -0.435507
   2 N :   -0.435507
   3 C :   -0.220902
   4 C :   -0.220902
   5 C :   -0.285782
   6 H :    0.404181
   7 H :    0.567969
   8 H :    0.452577
   9 H :    0.452577
Sum of atomic charges:    0.0000000

LOEWDIN ATOMIC CHARGES
----------------------
   0 C :   -0.195510
   1 N :    0.581703
   2 N :    0.581703
   3 C :    0.056477
   4 C :    0.056477
   5 C :    0.321872
   6 H :   -0.333466
   7 H :   -0.384357
   8 H :   -0.342450
   9 H :   -0.342450

  Mayer bond orders larger than 0.100000
B(  0-C ,  1-N ) :   1.4217 B(  0-C ,  2-N ) :   1.4217 B(  0-C ,  7-H ) :   0.7233
B(  1-N ,  4-C ) :   1.2215 B(  2-N ,  3-C ) :   1.2215 B(  3-C ,  5-C ) :   1.2041
B(  3-C ,  8-H ) :   0.8891 B(  4-C ,  5-C ) :   1.2041 B(  4-C ,  9-H ) :   0.8891
B(  5-C ,  6-H ) :   0.8926

MP2 TOTAL ENERGY:     -263.885005191 Eh
FINAL SINGLE POINT ENERGY      -263.885005191363

DIPOLE MOMENT
-------------
                                X             Y             Z
Electronic contribution:     -0.00000       0.00000      -1.28699
Nuclear contribution   :      0.00000       0.00000       2.22569
                        -----------------------------------------
Total Dipole Moment    :     -0.00000       0.00000       0.93870
                        -----------------------------------------
Magnitude (a.u.)       :      0.93870
Magnitude (Debye)      :      2.38599

Rotational constants in cm-1:     0.210599     0.204235     0.103684
Rotational constants in MHz :  6313.612540  6122.817961  3108.375852

                             ****ORCA TERMINATED NORMALLY****
TOTAL RUN TIME: 0 days 0 hours 10 minutes 44 seconds 78 msec
