                         Program Version 5.0.4 -  RELEASE  -
|  1> !ri-mp2 aug-cc-pvqz aug-cc-pvqz/c tightscf
|  2> %pal nprocs 16 end
|  3>
|  4> * xyz 0 1
|  5> S      2.234917   -0.046861   -0.380987
|  6> O      1.029141    0.354103    0.770290
|  7> N     -0.255522    0.153491    0.329665
|  8> N     -0.759156   -1.072879    0.283649
|  9> C     -1.110151    1.132332   -0.046094
| 10> C     -2.009920   -0.883942   -0.135575
| 11> C     -2.285470    0.479908   -0.353541
| 12> H      2.229010   -1.378082   -0.153039
| 13> H     -0.817337    2.166144   -0.049950
| 14> H     -2.661697   -1.731812   -0.260982
| 15> H     -3.205769    0.926620   -0.684484
| 16> *
| 17>
| 18>                          ****END OF INPUT****

CARTESIAN COORDINATES (ANGSTROEM)
---------------------------------
  S      2.234917   -0.046861   -0.380987
  O      1.029141    0.354103    0.770290
  N     -0.255522    0.153491    0.329665
  N     -0.759156   -1.072879    0.283649
  C     -1.110151    1.132332   -0.046094
  C     -2.009920   -0.883942   -0.135575
  C     -2.285470    0.479908   -0.353541
  H      2.229010   -1.378082   -0.153039
  H     -0.817337    2.166144   -0.049950
  H     -2.661697   -1.731812   -0.260982
  H     -3.205769    0.926620   -0.684484

 Total Charge           Charge          ....    0
 Multiplicity           Mult            ....    1
 Number of Electrons    NEL             ....   60
 Basis Dimension        Dim             ....  748

ORBITAL ENERGIES
----------------

  NO   OCC          E(Eh)            E(eV)
   0   2.0000     -92.025378     -2504.1378
   1   2.0000     -20.660071      -562.1891
   2   2.0000     -15.704031      -427.3284
   3   2.0000     -15.597581      -424.4318
   4   2.0000     -11.287594      -307.1511
   5   2.0000     -11.262425      -306.4662
   6   2.0000     -11.230947      -305.6096
   7   2.0000      -9.022013      -245.5015
   8   2.0000      -6.703353      -182.4075
   9   2.0000      -6.701835      -182.3662
  10   2.0000      -6.700778      -182.3375
  11   2.0000      -1.497456       -40.7479
  12   2.0000      -1.337959       -36.4077
  13   2.0000      -1.099066       -29.9071
  14   2.0000      -1.055690       -28.7268
  15   2.0000      -0.959189       -26.1008
  16   2.0000      -0.834095       -22.6969
  17   2.0000      -0.796792       -21.6818
  18   2.0000      -0.750108       -20.4115
  19   2.0000      -0.696142       -18.9430
  20   2.0000      -0.643183       -17.5019
  21   2.0000      -0.634133       -17.2556
  22   2.0000      -0.590433       -16.0665
  23   2.0000      -0.577502       -15.7146
  24   2.0000      -0.557881       -15.1807
  25   2.0000      -0.497182       -13.5290
  26   2.0000      -0.475407       -12.9365
  27   2.0000      -0.399637       -10.8747
  28   2.0000      -0.363773        -9.8988
  29   2.0000      -0.357419        -9.7259
  30   0.0000       0.025367         0.6903
  31   0.0000       0.031195         0.8489
  32   0.0000       0.032437         0.8826
  33   0.0000       0.042543         1.1576
  34   0.0000       0.057324         1.5599

MULLIKEN ATOMIC CHARGES
-----------------------
   0 S :    0.160548
   1 O :   -0.753951
   2 N :    0.595986
   3 N :   -0.652249
   4 C :   -0.166374
   5 C :   -0.171467
   6 C :   -0.579847
   7 H :    0.159279
   8 H :    0.425458
   9 H :    0.516935
  10 H :    0.465682
Sum of atomic charges:   -0.0000000

LOEWDIN ATOMIC CHARGES
----------------------
   0 S :    1.219141
   1 O :    0.171098
   2 N :   -0.424943
   3 N :    0.403327
   4 C :    0.127071
   5 C :    0.018944
   6 C :    0.289997
   7 H :   -0.807681
   8 H :   -0.307484
   9 H :   -0.351887
  10 H :   -0.337582

  Mayer bond orders larger than 0.100000
B(  0-S ,  1-O ) :   0.8640 B(  0-S ,  7-H ) :   0.9541 B(  1-O ,  2-N ) :   0.4817
B(  2-N ,  3-N ) :   0.4711 B(  2-N ,  4-C ) :   1.1833 B(  3-N ,  5-C ) :   1.4476
B(  3-N ,  6-C ) :   0.1072 B(  4-C ,  5-C ) :  -0.1490 B(  4-C ,  6-C ) :   1.5139
B(  4-C ,  8-H ) :   0.8545 B(  5-C ,  6-C ) :   1.3563 B(  5-C ,  9-H ) :   0.7762
B(  6-C , 10-H ) :   0.7727

MP2 TOTAL ENERGY:     -698.633105156 Eh
FINAL SINGLE POINT ENERGY      -698.633105156305

DIPOLE MOMENT
-------------
                                X             Y             Z
Electronic contribution:      4.24508       0.36591       0.60398
Nuclear contribution   :     -4.38024      -0.01504      -1.08762
                        -----------------------------------------
Total Dipole Moment    :     -0.13516       0.35088      -0.48364
                        -----------------------------------------
Magnitude (a.u.)       :      0.61261
Magnitude (Debye)      :      1.55713

Rotational constants in cm-1:     0.222823     0.047584     0.043029
Rotational constants in MHz :  6680.065771  1426.522572  1289.975724

                             ****ORCA TERMINATED NORMALLY****
TOTAL RUN TIME: 0 days 0 hours 16 minutes 8 seconds 258 msec
