                         Program Version 5.0.4 -  RELEASE  -
|  1> !ri-mp2 aug-cc-pvqz aug-cc-pvqz/c tightscf
|  2> %pal nprocs 16 end
|  3>
|  4> * xyz 0 1
|  5> C     -0.513595   -1.847902        0.000000
|  6> N      0.778933   -1.359597        0.000000
|  7> C      1.042726   -0.011300        0.000000
|  8> C      0.000000    0.939529        0.000000
|  9> C      0.650742    2.159172        0.000000
| 10> N      1.962308    1.874826        0.000000
| 11> N      2.241607    0.540130        0.000000
| 12> N     -1.509334   -0.870626        0.000000
| 13> C     -1.390022    0.528250        0.000000
| 14> O     -0.770109   -3.032395        0.000000
| 15> H      2.729469    2.523638        0.000000
| 16> O     -2.370508    1.243288        0.000000
| 17> H      0.271382    3.165642        0.000000
| 18> H     -2.450739   -1.235751        0.000000
| 19> H      1.521119   -2.040297        0.000000
| 20> *
| 21>
| 22>                          ****END OF INPUT****

CARTESIAN COORDINATES (ANGSTROEM)
---------------------------------
  C     -0.513595   -1.847902    0.000000
  N      0.778933   -1.359597    0.000000
  C      1.042726   -0.011300    0.000000
  C      0.000000    0.939529    0.000000
  C      0.650742    2.159172    0.000000
  N      1.962308    1.874826    0.000000
  N      2.241607    0.540130    0.000000
  N     -1.509334   -0.870626    0.000000
  C     -1.390022    0.528250    0.000000
  O     -0.770109   -3.032395    0.000000
  H      2.729469    2.523638    0.000000
  O     -2.370508    1.243288    0.000000
  H      0.271382    3.165642    0.000000
  H     -2.450739   -1.235751    0.000000
  H      1.521119   -2.040297    0.000000

 Total Charge           Charge          ....    0
 Multiplicity           Mult            ....    1
 Number of Electrons    NEL             ....   78
 Basis Dimension        Dim             .... 1064

ORBITAL ENERGIES
----------------

  NO   OCC          E(Eh)            E(eV)
   0   2.0000     -20.545513      -559.0718
   1   2.0000     -20.540924      -558.9470
   2   2.0000     -15.676920      -426.5907
   3   2.0000     -15.629767      -425.3076
   4   2.0000     -15.623028      -425.1242
   5   2.0000     -15.610241      -424.7763
   6   2.0000     -11.416105      -310.6480
   7   2.0000     -11.388375      -309.8934
   8   2.0000     -11.340497      -308.5906
   9   2.0000     -11.330509      -308.3188
  10   2.0000     -11.256584      -306.3072
  11   2.0000      -1.436135       -39.0792
  12   2.0000      -1.412761       -38.4432
  13   2.0000      -1.404636       -38.2221
  14   2.0000      -1.300187       -35.3799
  15   2.0000      -1.242761       -33.8172
  16   2.0000      -1.131716       -30.7955
  17   2.0000      -1.104803       -30.0632
  18   2.0000      -0.937698       -25.5160
  19   2.0000      -0.901972       -24.5439
  20   2.0000      -0.869242       -23.6533
  21   2.0000      -0.801452       -21.8086
  22   2.0000      -0.785510       -21.3748
  23   2.0000      -0.724442       -19.7131
  24   2.0000      -0.707245       -19.2451
  25   2.0000      -0.681663       -18.5490
  26   2.0000      -0.679415       -18.4878
  27   2.0000      -0.642538       -17.4843
  28   2.0000      -0.638206       -17.3665
  29   2.0000      -0.631667       -17.1885
  30   2.0000      -0.605519       -16.4770
  31   2.0000      -0.579683       -15.7740
  32   2.0000      -0.507617       -13.8130
  33   2.0000      -0.506121       -13.7723
  34   2.0000      -0.484370       -13.1804
  35   2.0000      -0.450011       -12.2454
  36   2.0000      -0.438222       -11.9246
  37   2.0000      -0.389363       -10.5951
  38   2.0000      -0.365196        -9.9375
  39   0.0000       0.013212         0.3595
  40   0.0000       0.031061         0.8452
  41   0.0000       0.033314         0.9065
  42   0.0000       0.043518         1.1842
  43   0.0000       0.046250         1.2585

MULLIKEN ATOMIC CHARGES
-----------------------
   0 C :    1.333845
   1 N :   -0.712390
   2 C :    1.040586
   3 C :   -0.514317
   4 C :   -0.240978
   5 N :   -0.362362
   6 N :   -0.502831
   7 N :   -0.772055
   8 C :    1.445588
   9 O :   -0.789183
  10 H :    0.263542
  11 O :   -0.809515
  12 H :    0.428767
  13 H :    0.058851
  14 H :    0.132452
Sum of atomic charges:   -0.0000000

LOEWDIN ATOMIC CHARGES
----------------------
   0 C :   -0.977304
   1 N :    0.819625
   2 C :   -0.587730
   3 C :   -0.180581
   4 C :    0.243666
   5 N :    0.584161
   6 N :    0.526067
   7 N :    0.788499
   8 C :   -0.840738
   9 O :    0.692262
  10 H :   -0.470072
  11 O :    0.690476
  12 H :   -0.267742
  13 H :   -0.529873
  14 H :   -0.490717

  Mayer bond orders larger than 0.100000
B(  0-C ,  1-N ) :   1.2265 B(  0-C ,  7-N ) :   1.0741 B(  0-C ,  9-O ) :   1.1325
B(  1-N ,  2-C ) :   0.9070 B(  1-N ,  9-O ) :   0.1802 B(  1-N , 14-H ) :   1.1169
B(  2-C ,  3-C ) :   1.0493 B(  2-C ,  4-C ) :  -0.1724 B(  2-C ,  6-N ) :   1.2947
B(  2-C ,  7-N ) :  -0.1043 B(  2-C ,  8-C ) :  -0.1363 B(  3-C ,  4-C ) :   1.3875
B(  3-C ,  5-N ) :  -0.1426 B(  3-C ,  8-C ) :   1.1854 B(  3-C , 11-O ) :   0.5061
B(  4-C ,  5-N ) :   1.4006 B(  4-C ,  8-C ) :  -0.1021 B(  4-C , 12-H ) :   0.8840
B(  5-N ,  6-N ) :   0.6723 B(  5-N , 10-H ) :   1.0311 B(  7-N ,  8-C ) :   0.9268
B(  7-N ,  9-O ) :   0.2127 B(  7-N , 11-O ) :   0.2695 B(  7-N , 13-H ) :   1.2312
B(  8-C , 11-O ) :   0.7924 B(  8-C , 13-H ) :  -0.1064

MP2 TOTAL ENERGY:     -561.643151104 Eh
FINAL SINGLE POINT ENERGY      -561.643151103672

DIPOLE MOMENT
-------------
                                X             Y             Z
Electronic contribution:     -0.55358      -0.83629      -0.00000
Nuclear contribution   :      1.96662       2.29790       0.00000
                        -----------------------------------------
Total Dipole Moment    :      1.41303       1.46162      -0.00000
                        -----------------------------------------
Magnitude (a.u.)       :      2.03297
Magnitude (Debye)      :      5.16741

Rotational constants in cm-1:     0.063911     0.036995     0.023431
Rotational constants in MHz :  1916.001924  1109.072380   702.457064

                             ****ORCA TERMINATED NORMALLY****
TOTAL RUN TIME: 0 days 0 hours 48 minutes 37 seconds 401 msec
