                         Program Version 5.0.4 -  RELEASE  -
|  1> !ri-mp2 aug-cc-pvqz aug-cc-pvqz/c tightscf
|  2> %pal nprocs 16 end
|  3>
|  4> * xyz 0 1
|  5> C      0.898943    1.042679    0.000000
|  6> C     -0.321603    0.166943    0.000000
|  7> F     -0.321603   -0.652153    1.102135
|  8> F     -0.321603   -0.652153   -1.102135
|  9> H      1.793325    0.421274    0.000000
| 10> H      0.899762    1.674835   -0.886681
| 11> H      0.899762    1.674835    0.886681
| 12> H     -1.268028    0.710080    0.000000
| 13> *
| 14>
| 15>                          ****END OF INPUT****

CARTESIAN COORDINATES (ANGSTROEM)
---------------------------------
  C      0.898943    1.042679    0.000000
  C     -0.321603    0.166943    0.000000
  F     -0.321603   -0.652153    1.102135
  F     -0.321603   -0.652153   -1.102135
  H      1.793325    0.421274    0.000000
  H      0.899762    1.674835   -0.886681
  H      0.899762    1.674835    0.886681
  H     -1.268028    0.710080    0.000000

 Total Charge           Charge          ....    0
 Multiplicity           Mult            ....    1
 Number of Electrons    NEL             ....   34
 Basis Dimension        Dim             ....  504

ORBITAL ENERGIES
----------------

  NO   OCC          E(Eh)            E(eV)
   0   2.0000     -26.299692      -715.6510
   1   2.0000     -26.299675      -715.6505
   2   2.0000     -11.405447      -310.3580
   3   2.0000     -11.241630      -305.9003
   4   2.0000      -1.647379       -44.8275
   5   2.0000      -1.587722       -43.2041
   6   2.0000      -1.052212       -28.6321
   7   2.0000      -0.891438       -24.2573
   8   2.0000      -0.770573       -20.9684
   9   2.0000      -0.749340       -20.3906
  10   2.0000      -0.722718       -19.6662
  11   2.0000      -0.660632       -17.9767
  12   2.0000      -0.624240       -16.9864
  13   2.0000      -0.616857       -16.7855
  14   2.0000      -0.572158       -15.5692
  15   2.0000      -0.564870       -15.3709
  16   2.0000      -0.518947       -14.1213
  17   0.0000       0.024866         0.6766
  18   0.0000       0.034624         0.9422
  19   0.0000       0.040267         1.0957
  20   0.0000       0.047219         1.2849
  21   0.0000       0.076694         2.0870

MULLIKEN ATOMIC CHARGES
-----------------------
   0 C :   -0.916745
   1 C :    0.993465
   2 F :   -0.654156
   3 F :   -0.654156
   4 H :    0.266148
   5 H :    0.299331
   6 H :    0.299331
   7 H :    0.366783
Sum of atomic charges:    0.0000000

LOEWDIN ATOMIC CHARGES
----------------------
   0 C :    0.853370
   1 C :   -1.042685
   2 F :    0.752195
   3 F :    0.752195
   4 H :   -0.309852
   5 H :   -0.304402
   6 H :   -0.304402
   7 H :   -0.396419

  Mayer bond orders larger than 0.100000
B(  0-C ,  1-C ) :   1.0066 B(  0-C ,  4-H ) :   0.9010 B(  0-C ,  5-H ) :   0.9052
B(  0-C ,  6-H ) :   0.9052 B(  1-C ,  2-F ) :   0.4453 B(  1-C ,  3-F ) :   0.4453
B(  1-C ,  7-H ) :   0.8021

MP2 TOTAL ENERGY:     -278.001940159 Eh
FINAL SINGLE POINT ENERGY      -278.001940158852

DIPOLE MOMENT
-------------
                                X             Y             Z
Electronic contribution:     -2.72046      -4.58040      -0.00000
Nuclear contribution   :      2.86165       5.57738       0.00000
                        -----------------------------------------
Total Dipole Moment    :      0.14120       0.99697      -0.00000
                        -----------------------------------------
Magnitude (a.u.)       :      1.00692
Magnitude (Debye)      :      2.55939

Rotational constants in cm-1:     0.313980     0.297633     0.171272
Rotational constants in MHz :  9412.884371  8922.827125  5134.596365

                             ****ORCA TERMINATED NORMALLY****
TOTAL RUN TIME: 0 days 0 hours 3 minutes 44 seconds 229 msec
