                         Program Version 5.0.4 -  RELEASE  -
|  1> !ri-mp2 aug-cc-pvqz aug-cc-pvqz/c tightscf
|  2> %pal nprocs 16 end
|  3> %maxcore 3800
|  4>
|  5> * xyz 0 1
|  6> C     -6.348463   -0.676838    0.000000
|  7> C     -5.115500    0.225307    0.000000
|  8> C     -3.797980   -0.550892    0.000000
|  9> C     -2.557416    0.342637    0.000000
| 10> C     -1.240689   -0.434878    0.000000
| 11> C      0.000000    0.458845    0.000000
| 12> C      1.316086   -0.319402    0.000000
| 13> C      2.556349    0.575341    0.000000
| 14> C      3.868290   -0.209696    0.000000
| 15> C      5.092393    0.687237    0.000000
| 16> O      6.258306   -0.139839    0.000000
| 17> H     -6.364365   -1.322364    0.880634
| 18> H     -6.364365   -1.322364   -0.880634
| 19> H     -7.270587   -0.093915    0.000000
| 20> H     -5.145071    0.883042   -0.873992
| 21> H     -5.145071    0.883042    0.873992
| 22> H     -3.769111   -1.209699    0.874515
| 23> H     -3.769111   -1.209699   -0.874515
| 24> H     -2.587308    1.001155    0.874567
| 25> H     -2.587308    1.001155   -0.874567
| 26> H     -1.210788   -1.093366    0.874472
| 27> H     -1.210788   -1.093366   -0.874472
| 28> H     -0.029832    1.117282    0.874617
| 29> H     -0.029832    1.117282   -0.874617
| 30> H      1.346921   -0.977463   -0.874449
| 31> H      1.346921   -0.977463    0.874449
| 32> H      2.524211    1.232959    0.875019
| 33> H      2.524211    1.232959   -0.875019
| 34> H      3.914692   -0.861511    0.876340
| 35> H      3.914692   -0.861511   -0.876340
| 36> H      5.083448    1.333838    0.885549
| 37> H      5.083448    1.333838   -0.885549
| 38> H      7.040122    0.418909    0.000000
| 39> *
| 40>
| 41>                          ****END OF INPUT****

CARTESIAN COORDINATES (ANGSTROEM)
---------------------------------
  C     -6.348463   -0.676838    0.000000
  C     -5.115500    0.225307    0.000000
  C     -3.797980   -0.550892    0.000000
  C     -2.557416    0.342637    0.000000
  C     -1.240689   -0.434878    0.000000
  C      0.000000    0.458845    0.000000
  C      1.316086   -0.319402    0.000000
  C      2.556349    0.575341    0.000000
  C      3.868290   -0.209696    0.000000
  C      5.092393    0.687237    0.000000
  O      6.258306   -0.139839    0.000000
  H     -6.364365   -1.322364    0.880634
  H     -6.364365   -1.322364   -0.880634
  H     -7.270587   -0.093915    0.000000
  H     -5.145071    0.883042   -0.873992
  H     -5.145071    0.883042    0.873992
  H     -3.769111   -1.209699    0.874515
  H     -3.769111   -1.209699   -0.874515
  H     -2.587308    1.001155    0.874567
  H     -2.587308    1.001155   -0.874567
  H     -1.210788   -1.093366    0.874472
  H     -1.210788   -1.093366   -0.874472
  H     -0.029832    1.117282    0.874617
  H     -0.029832    1.117282   -0.874617
  H      1.346921   -0.977463   -0.874449
  H      1.346921   -0.977463    0.874449
  H      2.524211    1.232959    0.875019
  H      2.524211    1.232959   -0.875019
  H      3.914692   -0.861511    0.876340
  H      3.914692   -0.861511   -0.876340
  H      5.083448    1.333838    0.885549
  H      5.083448    1.333838   -0.885549
  H      7.040122    0.418909    0.000000

 Total Charge           Charge          ....    0
 Multiplicity           Mult            ....    1
 Number of Electrons    NEL             ....   90
 Basis Dimension        Dim             .... 1892

ORBITAL ENERGIES
----------------

  NO   OCC          E(Eh)            E(eV)
   0   2.0000     -20.551070      -559.2230
   1   2.0000     -11.270691      -306.6911
   2   2.0000     -11.216397      -305.2137
   3   2.0000     -11.213502      -305.1349
   4   2.0000     -11.213444      -305.1333
   5   2.0000     -11.212547      -305.1089
   6   2.0000     -11.212468      -305.1068
   7   2.0000     -11.211888      -305.0910
   8   2.0000     -11.211424      -305.0784
   9   2.0000     -11.210955      -305.0656
  10   2.0000     -11.207629      -304.9751
  11   2.0000      -1.351943       -36.7883
  12   2.0000      -1.094466       -29.7819
  13   2.0000      -1.074043       -29.2262
  14   2.0000      -1.039717       -28.2921
  15   2.0000      -0.993589       -27.0369
  16   2.0000      -0.938304       -25.5326
  17   2.0000      -0.878383       -23.9020
  18   2.0000      -0.823810       -22.4170
  19   2.0000      -0.793955       -21.6046
  20   2.0000      -0.785937       -21.3864
  21   2.0000      -0.783149       -21.3106
  22   2.0000      -0.686724       -18.6867
  23   2.0000      -0.664906       -18.0930
  24   2.0000      -0.650866       -17.7110
  25   2.0000      -0.626721       -17.0539
  26   2.0000      -0.593900       -16.1608
  27   2.0000      -0.591017       -16.0824
  28   2.0000      -0.588037       -16.0013
  29   2.0000      -0.560759       -15.2590
  30   2.0000      -0.555949       -15.1281
  31   2.0000      -0.549287       -14.9469
  32   2.0000      -0.526087       -14.3156
  33   2.0000      -0.518266       -14.1027
  34   2.0000      -0.499956       -13.6045
  35   2.0000      -0.487408       -13.2630
  36   2.0000      -0.486448       -13.2369
  37   2.0000      -0.472430       -12.8555
  38   2.0000      -0.467677       -12.7261
  39   2.0000      -0.464484       -12.6393
  40   2.0000      -0.459593       -12.5062
  41   2.0000      -0.457702       -12.4547
  42   2.0000      -0.455684       -12.3998
  43   2.0000      -0.440961       -11.9992
  44   2.0000      -0.426359       -11.6018
  45   0.0000       0.024497         0.6666
  46   0.0000       0.026083         0.7098
  47   0.0000       0.031677         0.8620
  48   0.0000       0.031996         0.8707
  49   0.0000       0.033844         0.9209

MULLIKEN ATOMIC CHARGES
-----------------------
   0 C :   -0.921871
   1 C :   -0.549010
   2 C :   -0.308070
   3 C :   -0.370782
   4 C :   -0.473710
   5 C :   -0.474298
   6 C :   -0.465065
   7 C :   -0.329325
   8 C :   -0.658986
   9 C :    0.085534
  10 O :   -0.874697
  11 H :    0.225992
  12 H :    0.226059
  13 H :    0.268168
  14 H :    0.224346
  15 H :    0.224670
  16 H :    0.232643
  17 H :    0.232293
  18 H :    0.250930
  19 H :    0.250975
  20 H :    0.244509
  21 H :    0.243938
  22 H :    0.241046
  23 H :    0.240206
  24 H :    0.248865
  25 H :    0.249248
  26 H :    0.240619
  27 H :    0.240892
  28 H :    0.247910
  29 H :    0.247755
  30 H :    0.228201
  31 H :    0.228215
  32 H :    0.302800
Sum of atomic charges:   -0.0000000

LOEWDIN ATOMIC CHARGES
----------------------
   0 C :    0.925822
   1 C :    0.508431
   2 C :    0.512911
   3 C :    0.525711
   4 C :    0.529146
   5 C :    0.529246
   6 C :    0.528155
   7 C :    0.516106
   8 C :    0.493390
   9 C :    0.182149
  10 O :    1.264705
  11 H :   -0.285775
  12 H :   -0.285775
  13 H :   -0.285063
  14 H :   -0.273567
  15 H :   -0.273567
  16 H :   -0.268093
  17 H :   -0.268093
  18 H :   -0.265414
  19 H :   -0.265414
  20 H :   -0.264484
  21 H :   -0.264484
  22 H :   -0.264615
  23 H :   -0.264616
  24 H :   -0.264353
  25 H :   -0.264353
  26 H :   -0.266592
  27 H :   -0.266592
  28 H :   -0.274019
  29 H :   -0.274019
  30 H :   -0.291705
  31 H :   -0.291705
  32 H :   -0.793475

  Mayer bond orders larger than 0.100000
B(  0-C ,  1-C ) :   1.0662 B(  0-C ,  2-C ) :  -0.1528 B(  0-C , 11-H ) :   0.9567
B(  0-C , 12-H ) :   0.9567 B(  0-C , 13-H ) :   1.0282 B(  1-C ,  2-C ) :   1.0276
B(  1-C ,  3-C ) :  -0.1395 B(  1-C , 14-H ) :   0.8807 B(  1-C , 15-H ) :   0.8805
B(  2-C ,  3-C ) :   1.1175 B(  2-C ,  4-C ) :  -0.1721 B(  2-C , 16-H ) :   0.8550
B(  2-C , 17-H ) :   0.8551 B(  3-C ,  4-C ) :   1.2201 B(  3-C ,  5-C ) :  -0.1868
B(  3-C , 18-H ) :   0.8338 B(  3-C , 19-H ) :   0.8334 B(  4-C ,  5-C ) :   1.2977
B(  4-C ,  6-C ) :  -0.1813 B(  4-C , 20-H ) :   0.8299 B(  4-C , 21-H ) :   0.8299
B(  5-C ,  6-C ) :   1.2514 B(  5-C ,  7-C ) :  -0.1748 B(  5-C , 22-H ) :   0.8305
B(  5-C , 23-H ) :   0.8308 B(  6-C ,  7-C ) :   1.1967 B(  6-C ,  8-C ) :  -0.1005
B(  6-C , 24-H ) :   0.8278 B(  6-C , 25-H ) :   0.8273 B(  7-C ,  8-C ) :   1.0467
B(  7-C ,  9-C ) :  -0.1604 B(  7-C , 26-H ) :   0.8443 B(  7-C , 27-H ) :   0.8440
B(  8-C ,  9-C ) :   1.3628 B(  8-C , 28-H ) :   0.8357 B(  8-C , 29-H ) :   0.8356
B(  9-C , 10-O ) :   0.6057 B(  9-C , 30-H ) :   0.8949 B(  9-C , 31-H ) :   0.8949
B( 10-O , 32-H ) :   0.9544

MP2 TOTAL ENERGY:     -468.693163958 Eh
FINAL SINGLE POINT ENERGY      -468.693163958141

DIPOLE MOMENT
-------------
                                X             Y             Z
Electronic contribution:     13.38228       0.08680      -0.00000
Nuclear contribution   :    -13.46170       0.56654       0.00000
                        -----------------------------------------
Total Dipole Moment    :     -0.07942       0.65334      -0.00000
                        -----------------------------------------
Magnitude (a.u.)       :      0.65815
Magnitude (Debye)      :      1.67288

Rotational constants in cm-1:     0.267259     0.006270     0.006196
Rotational constants in MHz :  8012.217886   187.978105   185.759793

                             ****ORCA TERMINATED NORMALLY****
TOTAL RUN TIME: 0 days 4 hours 23 minutes 51 seconds 307 msec
