                         Program Version 5.0.4 -  RELEASE  -
|  1> !ri-mp2 aug-cc-pvqz aug-cc-pvqz/c tightscf
|  2> %pal nprocs 16 end
|  3>
|  4> * xyz 0 1
|  5> C      0.143509    2.259213   -0.972760
|  6> C     -0.143509   -2.259213   -0.972760
|  7> C     -0.493542    1.494787   -0.095250
|  8> C      0.493542   -1.494787   -0.095250
|  9> C      0.143509    0.758656    1.044302
| 10> C     -0.143509   -0.758656    1.044302
| 11> H     -0.382876    2.769274   -1.768280
| 12> H      1.216623    2.403065   -0.926974
| 13> H      0.382876   -2.769274   -1.768280
| 14> H     -1.216623   -2.403065   -0.926974
| 15> H     -1.570475    1.377799   -0.187498
| 16> H      1.570475   -1.377799   -0.187498
| 17> H     -0.232692    1.168727    1.987200
| 18> H      1.222919    0.929600    1.037802
| 19> H     -1.222919   -0.929600    1.037802
| 20> H      0.232692   -1.168727    1.987200
| 21> *
| 22>
| 23>                          ****END OF INPUT****

CARTESIAN COORDINATES (ANGSTROEM)
---------------------------------
  C      0.143509    2.259213   -0.972760
  C     -0.143509   -2.259213   -0.972760
  C     -0.493542    1.494787   -0.095250
  C      0.493542   -1.494787   -0.095250
  C      0.143509    0.758656    1.044302
  C     -0.143509   -0.758656    1.044302
  H     -0.382876    2.769274   -1.768280
  H      1.216623    2.403065   -0.926974
  H      0.382876   -2.769274   -1.768280
  H     -1.216623   -2.403065   -0.926974
  H     -1.570475    1.377799   -0.187498
  H      1.570475   -1.377799   -0.187498
  H     -0.232692    1.168727    1.987200
  H      1.222919    0.929600    1.037802
  H     -1.222919   -0.929600    1.037802
  H      0.232692   -1.168727    1.987200

 Total Charge           Charge          ....    0
 Multiplicity           Mult            ....    1
 Number of Electrons    NEL             ....   46
 Basis Dimension        Dim             ....  940

ORBITAL ENERGIES
----------------

  NO   OCC          E(Eh)            E(eV)
   0   2.0000     -11.229351      -305.5662
   1   2.0000     -11.229266      -305.5639
   2   2.0000     -11.228576      -305.5451
   3   2.0000     -11.228090      -305.5319
   4   2.0000     -11.215571      -305.1912
   5   2.0000     -11.215571      -305.1912
   6   2.0000      -1.098531       -29.8926
   7   2.0000      -1.047037       -28.4913
   8   2.0000      -0.974633       -26.5211
   9   2.0000      -0.866408       -23.5761
  10   2.0000      -0.761170       -20.7125
  11   2.0000      -0.754375       -20.5276
  12   2.0000      -0.644405       -17.5352
  13   2.0000      -0.632719       -17.2172
  14   2.0000      -0.598752       -16.2929
  15   2.0000      -0.597564       -16.2605
  16   2.0000      -0.555425       -15.1139
  17   2.0000      -0.522802       -14.2262
  18   2.0000      -0.506506       -13.7827
  19   2.0000      -0.479483       -13.0474
  20   2.0000      -0.475764       -12.9462
  21   2.0000      -0.360685        -9.8147
  22   2.0000      -0.358849        -9.7648
  23   0.0000       0.027201         0.7402
  24   0.0000       0.030940         0.8419
  25   0.0000       0.032172         0.8754
  26   0.0000       0.034006         0.9253
  27   0.0000       0.047393         1.2896

MULLIKEN ATOMIC CHARGES
-----------------------
   0 C :   -0.866537
   1 C :   -0.866541
   2 C :   -0.426189
   3 C :   -0.426186
   4 C :   -0.316661
   5 C :   -0.316662
   6 H :    0.347837
   7 H :    0.319625
   8 H :    0.347832
   9 H :    0.319630
  10 H :    0.392242
  11 H :    0.392245
  12 H :    0.294559
  13 H :    0.255122
  14 H :    0.255123
  15 H :    0.294560
Sum of atomic charges:   -0.0000000

LOEWDIN ATOMIC CHARGES
----------------------
   0 C :    0.798659
   1 C :    0.798659
   2 C :    0.349215
   3 C :    0.349215
   4 C :    0.469629
   5 C :    0.469629
   6 H :   -0.357000
   7 H :   -0.353040
   8 H :   -0.357000
   9 H :   -0.353040
  10 H :   -0.321837
  11 H :   -0.321837
  12 H :   -0.279819
  13 H :   -0.305806
  14 H :   -0.305806
  15 H :   -0.279819

  Mayer bond orders larger than 0.100000
B(  0-C ,  2-C ) :   1.8038 B(  0-C ,  4-C ) :  -0.1234 B(  0-C ,  6-H ) :   0.9741
B(  0-C ,  7-H ) :   0.9145 B(  1-C ,  3-C ) :   1.8038 B(  1-C ,  5-C ) :  -0.1234
B(  1-C ,  8-H ) :   0.9741 B(  1-C ,  9-H ) :   0.9145 B(  2-C ,  4-C ) :   0.7791
B(  2-C , 10-H ) :   0.8404 B(  3-C ,  5-C ) :   0.7791 B(  3-C , 11-H ) :   0.8404
B(  4-C ,  5-C ) :   1.0527 B(  4-C , 12-H ) :   0.8755 B(  4-C , 13-H ) :   0.8988
B(  5-C , 14-H ) :   0.8988 B(  5-C , 15-H ) :   0.8755

MP2 TOTAL ENERGY:     -234.149051144 Eh
FINAL SINGLE POINT ENERGY      -234.149051143973

DIPOLE MOMENT
-------------
                                X             Y             Z
Electronic contribution:     -0.00000       0.00000      -0.09584
Nuclear contribution   :      0.00000      -0.00000       0.29920
                        -----------------------------------------
Total Dipole Moment    :     -0.00000       0.00000       0.20337
                        -----------------------------------------
Magnitude (a.u.)       :      0.20337
Magnitude (Debye)      :      0.51692

Rotational constants in cm-1:     0.197356     0.069159     0.057514
Rotational constants in MHz :  5916.572271  2073.336162  1724.232335

                             ****ORCA TERMINATED NORMALLY****
TOTAL RUN TIME: 0 days 0 hours 32 minutes 41 seconds 730 msec
