                         Program Version 5.0.4 -  RELEASE  -
|  1> !ri-mp2 aug-cc-pvqz aug-cc-pvqz/c tightscf
|  2> %pal nprocs 16 end
|  3>
|  4> * xyz 0 1
|  5> C      0.000000    0.672790   -1.380599
|  6> C      0.000000   -0.672790   -1.380599
|  7> C      0.000000    0.000000    0.812326
|  8> N      0.000000    1.085426   -0.051191
|  9> N      0.000000   -1.085426   -0.051191
| 10> O      0.000000    0.000000    2.030042
| 11> H      0.000000    1.365081   -2.201042
| 12> H      0.000000   -1.365081   -2.201042
| 13> H      0.000000    2.030184    0.285825
| 14> H      0.000000   -2.030184    0.285825
| 15> *
| 16>
| 17>                          ****END OF INPUT****

CARTESIAN COORDINATES (ANGSTROEM)
---------------------------------
  C      0.000000    0.672790   -1.380599
  C      0.000000   -0.672790   -1.380599
  C      0.000000    0.000000    0.812326
  N      0.000000    1.085426   -0.051191
  N      0.000000   -1.085426   -0.051191
  O      0.000000    0.000000    2.030042
  H      0.000000    1.365081   -2.201042
  H      0.000000   -1.365081   -2.201042
  H      0.000000    2.030184    0.285825
  H      0.000000   -2.030184    0.285825

 Total Charge           Charge          ....    0
 Multiplicity           Mult            ....    1
 Number of Electrons    NEL             ....   44
 Basis Dimension        Dim             ....  664

ORBITAL ENERGIES
----------------

  NO   OCC          E(Eh)            E(eV)
   0   2.0000     -20.506150      -558.0007
   1   2.0000     -15.605791      -424.6552
   2   2.0000     -15.605764      -424.6544
   3   2.0000     -11.376174      -309.5614
   4   2.0000     -11.278892      -306.9143
   5   2.0000     -11.277278      -306.8703
   6   2.0000      -1.398180       -38.0464
   7   2.0000      -1.308328       -35.6014
   8   2.0000      -1.202146       -32.7120
   9   2.0000      -1.018432       -27.7129
  10   2.0000      -0.865154       -23.5420
  11   2.0000      -0.838673       -22.8215
  12   2.0000      -0.730593       -19.8804
  13   2.0000      -0.674209       -18.3462
  14   2.0000      -0.640869       -17.4389
  15   2.0000      -0.631089       -17.1728
  16   2.0000      -0.615908       -16.7597
  17   2.0000      -0.608707       -16.5638
  18   2.0000      -0.486403       -13.2357
  19   2.0000      -0.461345       -12.5538
  20   2.0000      -0.436777       -11.8853
  21   2.0000      -0.309995        -8.4354
  22   0.0000       0.019655         0.5348
  23   0.0000       0.025134         0.6839
  24   0.0000       0.037554         1.0219
  25   0.0000       0.046719         1.2713
  26   0.0000       0.058344         1.5876

MULLIKEN ATOMIC CHARGES
-----------------------
   0 C :   -0.250879
   1 C :   -0.250879
   2 C :    1.174296
   3 N :   -0.553656
   4 N :   -0.553656
   5 O :   -0.750416
   6 H :    0.454552
   7 H :    0.454552
   8 H :    0.138043
   9 H :    0.138043
Sum of atomic charges:    0.0000000

LOEWDIN ATOMIC CHARGES
----------------------
   0 C :    0.207060
   1 C :    0.207060
   2 C :   -1.036559
   3 N :    0.785204
   4 N :    0.785204
   5 O :    0.626919
   6 H :   -0.316494
   7 H :   -0.316494
   8 H :   -0.470951
   9 H :   -0.470951

  Mayer bond orders larger than 0.100000
B(  0-C ,  1-C ) :   1.7689 B(  0-C ,  3-N ) :   0.8585 B(  0-C ,  6-H ) :   0.8510
B(  1-C ,  4-N ) :   0.8585 B(  1-C ,  7-H ) :   0.8510 B(  2-C ,  3-N ) :   1.2154
B(  2-C ,  4-N ) :   1.2154 B(  2-C ,  5-O ) :   1.2613 B(  3-N ,  5-O ) :   0.2024
B(  3-N ,  8-H ) :   1.0999 B(  4-N ,  5-O ) :   0.2024 B(  4-N ,  9-H ) :   1.0999

MP2 TOTAL ENERGY:     -301.026191778 Eh
FINAL SINGLE POINT ENERGY      -301.026191777627

DIPOLE MOMENT
-------------
                                X             Y             Z
Electronic contribution:     -0.00000       0.00000       2.01446
Nuclear contribution   :      0.00000       0.00000      -3.73384
                        -----------------------------------------
Total Dipole Moment    :     -0.00000       0.00000      -1.71938
                        -----------------------------------------
Magnitude (a.u.)       :      1.71938
Magnitude (Debye)      :      4.37032

Rotational constants in cm-1:     0.301330     0.130194     0.090913
Rotational constants in MHz :  9033.650716  3903.110376  2725.514956

                             ****ORCA TERMINATED NORMALLY****
TOTAL RUN TIME: 0 days 0 hours 10 minutes 31 seconds 53 msec
