                         Program Version 5.0.4 -  RELEASE  -
|  1> !ri-mp2 aug-cc-pvqz aug-cc-pvqz/c tightscf
|  2> %pal nprocs 16 end
|  3>
|  4> * xyz 0 1
|  5> O     -1.090936    0.355540        0.000000
|  6> N     -0.611357   -1.025671        0.000000
|  7> N      0.631549   -0.984727        0.000000
|  8> C      1.095265    0.310964        0.000000
|  9> C      0.000000    1.106756        0.000000
| 10> H      2.142317    0.547367        0.000000
| 11> H     -0.127759    2.174789        0.000000
| 12> *
| 13>
| 14>                          ****END OF INPUT****

CARTESIAN COORDINATES (ANGSTROEM)
---------------------------------
  O     -1.090936    0.355540    0.000000
  N     -0.611357   -1.025671    0.000000
  N      0.631549   -0.984727    0.000000
  C      1.095265    0.310964    0.000000
  C      0.000000    1.106756    0.000000
  H      2.142317    0.547367    0.000000
  H     -0.127759    2.174789    0.000000

 Total Charge           Charge          ....    0
 Multiplicity           Mult            ....    1
 Number of Electrons    NEL             ....   36
 Basis Dimension        Dim             ....  492

ORBITAL ENERGIES
----------------

  NO   OCC          E(Eh)            E(eV)
   0   2.0000     -20.662537      -562.2562
   1   2.0000     -15.698644      -427.1818
   2   2.0000     -15.646966      -425.7756
   3   2.0000     -11.336122      -308.4716
   4   2.0000     -11.279470      -306.9300
   5   2.0000      -1.529091       -41.6087
   6   2.0000      -1.330676       -36.2095
   7   2.0000      -1.104426       -30.0529
   8   2.0000      -0.882676       -24.0188
   9   2.0000      -0.862522       -23.4704
  10   2.0000      -0.760449       -20.6929
  11   2.0000      -0.684844       -18.6356
  12   2.0000      -0.656615       -17.8674
  13   2.0000      -0.600686       -16.3455
  14   2.0000      -0.560834       -15.2611
  15   2.0000      -0.508262       -13.8305
  16   2.0000      -0.477207       -12.9855
  17   2.0000      -0.389054       -10.5867
  18   0.0000       0.020748         0.5646
  19   0.0000       0.031276         0.8511
  20   0.0000       0.061548         1.6748
  21   0.0000       0.061807         1.6819
  22   0.0000       0.077457         2.1077

MULLIKEN ATOMIC CHARGES
-----------------------
   0 O :   -0.525183
   1 N :    0.084116
   2 N :   -0.354482
   3 C :   -0.295617
   4 C :   -0.069899
   5 H :    0.536166
   6 H :    0.624899
Sum of atomic charges:    0.0000000

LOEWDIN ATOMIC CHARGES
----------------------
   0 O :    0.585382
   1 N :    0.057831
   2 N :    0.199149
   3 C :    0.014793
   4 C :   -0.150800
   5 H :   -0.367697
   6 H :   -0.338658

  Mayer bond orders larger than 0.100000
B(  0-O ,  1-N ) :   0.7975 B(  0-O ,  4-C ) :   1.0059 B(  1-N ,  2-N ) :   1.7094
B(  2-N ,  3-C ) :   1.0391 B(  3-C ,  4-C ) :   1.6469 B(  3-C ,  5-H ) :   0.7206
B(  4-C ,  6-H ) :   0.6150

MP2 TOTAL ENERGY:     -261.701031472 Eh
FINAL SINGLE POINT ENERGY      -261.701031471538

DIPOLE MOMENT
-------------
                                X             Y             Z
Electronic contribution:     -1.29113      -1.37254       0.00000
Nuclear contribution   :      1.92789       2.62134       0.00000
                        -----------------------------------------
Total Dipole Moment    :      0.63677       1.24880       0.00000
                        -----------------------------------------
Magnitude (a.u.)       :      1.40178
Magnitude (Debye)      :      3.56304

Rotational constants in cm-1:     0.348754     0.326062     0.168513
Rotational constants in MHz : 10455.383115  9775.092106  5051.899762

                             ****ORCA TERMINATED NORMALLY****
TOTAL RUN TIME: 0 days 0 hours 4 minutes 38 seconds 550 msec
