                         Program Version 5.0.4 -  RELEASE  -
|  1> !ri-mp2 aug-cc-pvqz aug-cc-pvqz/c tightscf
|  2> %pal nprocs 16 end
|  3>
|  4> * xyz 0 1
|  5> C     -0.310382    1.216690   -0.089709
|  6> C     -1.007899    0.083990    0.004985
|  7> C      1.192425    1.294994   -0.102231
|  8> C     -0.326807   -1.262539    0.080273
|  9> C      1.847130   -0.015210    0.343539
| 10> C      1.153813   -1.212625   -0.305738
| 11> C     -2.509324    0.066544    0.050173
| 12> H     -0.847383    2.157642   -0.160153
| 13> H      1.536186    1.559736   -1.109789
| 14> H      1.519991    2.116878    0.540709
| 15> H     -0.437051   -1.659080    1.097370
| 16> H     -0.858397   -1.969943   -0.563834
| 17> H      2.911702   -0.007513    0.101968
| 18> H      1.771087   -0.104427    1.431482
| 19> H      1.646877   -2.144880   -0.023372
| 20> H      1.239620   -1.129025   -1.393390
| 21> H     -2.926173    1.072864    0.023793
| 22> H     -2.868014   -0.426133    0.959054
| 23> H     -2.922178   -0.497189   -0.791594
| 24> *
| 25>
| 26>                          ****END OF INPUT****

CARTESIAN COORDINATES (ANGSTROEM)
---------------------------------
  C     -0.310382    1.216690   -0.089709
  C     -1.007899    0.083990    0.004985
  C      1.192425    1.294994   -0.102231
  C     -0.326807   -1.262539    0.080273
  C      1.847130   -0.015210    0.343539
  C      1.153813   -1.212625   -0.305738
  C     -2.509324    0.066544    0.050173
  H     -0.847383    2.157642   -0.160153
  H      1.536186    1.559736   -1.109789
  H      1.519991    2.116878    0.540709
  H     -0.437051   -1.659080    1.097370
  H     -0.858397   -1.969943   -0.563834
  H      2.911702   -0.007513    0.101968
  H      1.771087   -0.104427    1.431482
  H      1.646877   -2.144880   -0.023372
  H      1.239620   -1.129025   -1.393390
  H     -2.926173    1.072864    0.023793
  H     -2.868014   -0.426133    0.959054
  H     -2.922178   -0.497189   -0.791594

 Total Charge           Charge          ....    0
 Multiplicity           Mult            ....    1
 Number of Electrons    NEL             ....   54
 Basis Dimension        Dim             .... 1112

ORBITAL ENERGIES
----------------

  NO   OCC          E(Eh)            E(eV)
   0   2.0000     -11.222819      -305.3884
   1   2.0000     -11.217255      -305.2370
   2   2.0000     -11.215735      -305.1957
   3   2.0000     -11.213515      -305.1353
   4   2.0000     -11.212965      -305.1203
   5   2.0000     -11.212487      -305.1073
   6   2.0000     -11.208616      -305.0019
   7   2.0000      -1.122022       -30.5318
   8   2.0000      -1.032096       -28.0848
   9   2.0000      -0.999026       -27.1849
  10   2.0000      -0.921422       -25.0732
  11   2.0000      -0.842823       -22.9344
  12   2.0000      -0.800463       -21.7817
  13   2.0000      -0.687477       -18.7072
  14   2.0000      -0.643270       -17.5043
  15   2.0000      -0.610205       -16.6045
  16   2.0000      -0.586929       -15.9711
  17   2.0000      -0.584714       -15.9109
  18   2.0000      -0.559760       -15.2318
  19   2.0000      -0.543819       -14.7981
  20   2.0000      -0.517586       -14.0842
  21   2.0000      -0.513219       -13.9654
  22   2.0000      -0.504788       -13.7360
  23   2.0000      -0.461513       -12.5584
  24   2.0000      -0.447659       -12.1814
  25   2.0000      -0.432043       -11.7565
  26   2.0000      -0.329657        -8.9704
  27   0.0000       0.027088         0.7371
  28   0.0000       0.029719         0.8087
  29   0.0000       0.031068         0.8454
  30   0.0000       0.034498         0.9387
  31   0.0000       0.043431         1.1818

MULLIKEN ATOMIC CHARGES
-----------------------
   0 C :   -0.426744
   1 C :    0.243427
   2 C :   -0.420918
   3 C :   -0.251378
   4 C :   -0.502998
   5 C :   -0.505747
   6 C :   -0.823927
   7 H :    0.235439
   8 H :    0.174195
   9 H :    0.244397
  10 H :    0.193199
  11 H :    0.269720
  12 H :    0.282917
  13 H :    0.162911
  14 H :    0.263514
  15 H :    0.189401
  16 H :    0.209667
  17 H :    0.225501
  18 H :    0.237424
Sum of atomic charges:   -0.0000000

LOEWDIN ATOMIC CHARGES
----------------------
   0 C :    0.410739
   1 C :   -0.014084
   2 C :    0.504591
   3 C :    0.500460
   4 C :    0.515830
   5 C :    0.523661
   6 C :    0.900344
   7 H :   -0.319558
   8 H :   -0.273086
   9 H :   -0.279916
  10 H :   -0.264323
  11 H :   -0.277228
  12 H :   -0.262124
  13 H :   -0.265456
  14 H :   -0.261009
  15 H :   -0.263877
  16 H :   -0.309801
  17 H :   -0.281499
  18 H :   -0.283664

  Mayer bond orders larger than 0.100000
B(  0-C ,  1-C ) :   1.5347 B(  0-C ,  2-C ) :   0.7332 B(  0-C ,  7-H ) :   1.0418
B(  0-C ,  9-H ) :  -0.1170 B(  1-C ,  2-C ) :  -0.1504 B(  1-C ,  3-C ) :   0.4994
B(  1-C ,  6-C ) :   0.5820 B(  1-C , 16-H ) :  -0.1381 B(  1-C , 18-H ) :  -0.1167
B(  2-C ,  4-C ) :   0.9305 B(  2-C ,  8-H ) :   1.0022 B(  2-C ,  9-H ) :   1.0230
B(  3-C ,  5-C ) :   0.9748 B(  3-C , 10-H ) :   0.9462 B(  3-C , 11-H ) :   0.9362
B(  4-C ,  5-C ) :   0.9500 B(  4-C , 12-H ) :   0.9096 B(  4-C , 13-H ) :   0.9793
B(  5-C , 14-H ) :   0.9480 B(  5-C , 15-H ) :   0.9518 B(  6-C , 16-H ) :   1.0868
B(  6-C , 17-H ) :   1.0213 B(  6-C , 18-H ) :   1.0118

MP2 TOTAL ENERGY:     -273.432269674 Eh
FINAL SINGLE POINT ENERGY      -273.432269673837

DIPOLE MOMENT
-------------
                                X             Y             Z
Electronic contribution:      0.27883       0.98337      -0.10884
Nuclear contribution   :     -0.24648      -1.08728       0.11836
                        -----------------------------------------
Total Dipole Moment    :      0.03235      -0.10391       0.00953
                        -----------------------------------------
Magnitude (a.u.)       :      0.10924
Magnitude (Debye)      :      0.27767

Rotational constants in cm-1:     0.150126     0.075335     0.053869
Rotational constants in MHz :  4500.660578  2258.492781  1614.939113

                             ****ORCA TERMINATED NORMALLY****
TOTAL RUN TIME: 0 days 1 hours 9 minutes 50 seconds 396 msec
