                         Program Version 5.0.4 -  RELEASE  -
|  1> !ri-mp2 aug-cc-pvqz aug-cc-pvqz/c tightscf
|  2> %pal nprocs 16 end
|  3>
|  4> * xyz 0 1
|  5> S      1.614785   -1.191862    0.001186
|  6> S     -3.692874   -0.024363   -0.096618
|  7> N      2.742645    1.118425   -0.006729
|  8> C      0.591906    0.228939    0.007977
|  9> C      1.399557    1.341512    0.002099
| 10> C      3.000380   -0.156035   -0.008147
| 11> C     -0.807791    0.156773    0.016980
| 12> C     -2.014959    0.076694    0.041513
| 13> H      1.022687    2.352845    0.003954
| 14> H      3.998149   -0.568105   -0.014777
| 15> H     -3.984497   -0.041414    1.222310
| 16> *
| 17>
| 18>                          ****END OF INPUT****

CARTESIAN COORDINATES (ANGSTROEM)
---------------------------------
  S      1.614785   -1.191862    0.001186
  S     -3.692874   -0.024363   -0.096618
  N      2.742645    1.118425   -0.006729
  C      0.591906    0.228939    0.007977
  C      1.399557    1.341512    0.002099
  C      3.000380   -0.156035   -0.008147
  C     -0.807791    0.156773    0.016980
  C     -2.014959    0.076694    0.041513
  H      1.022687    2.352845    0.003954
  H      3.998149   -0.568105   -0.014777
  H     -3.984497   -0.041414    1.222310

 Total Charge           Charge          ....    0
 Multiplicity           Mult            ....    1
 Number of Electrons    NEL             ....   72
 Basis Dimension        Dim             ....  786

ORBITAL ENERGIES
----------------

  NO   OCC          E(Eh)            E(eV)
   0   2.0000     -92.008240     -2503.6715
   1   2.0000     -91.999561     -2503.4353
   2   2.0000     -15.583237      -424.0414
   3   2.0000     -11.325186      -308.1740
   4   2.0000     -11.295665      -307.3707
   5   2.0000     -11.289385      -307.1998
   6   2.0000     -11.266853      -306.5867
   7   2.0000     -11.254216      -306.2428
   8   2.0000      -9.009811      -245.1694
   9   2.0000      -9.000385      -244.9129
  10   2.0000      -6.690864      -182.0677
  11   2.0000      -6.690363      -182.0540
  12   2.0000      -6.689722      -182.0366
  13   2.0000      -6.682149      -181.8305
  14   2.0000      -6.681072      -181.8012
  15   2.0000      -6.680168      -181.7766
  16   2.0000      -1.298633       -35.3376
  17   2.0000      -1.114764       -30.3343
  18   2.0000      -1.070836       -29.1389
  19   2.0000      -1.027965       -27.9723
  20   2.0000      -0.975530       -26.5455
  21   2.0000      -0.845446       -23.0057
  22   2.0000      -0.796020       -21.6608
  23   2.0000      -0.732623       -19.9357
  24   2.0000      -0.658354       -17.9147
  25   2.0000      -0.618533       -16.8311
  26   2.0000      -0.604543       -16.4505
  27   2.0000      -0.582212       -15.8428
  28   2.0000      -0.543798       -14.7975
  29   2.0000      -0.531504       -14.4630
  30   2.0000      -0.476912       -12.9774
  31   2.0000      -0.451767       -12.2932
  32   2.0000      -0.444898       -12.1063
  33   2.0000      -0.394079       -10.7234
  34   2.0000      -0.350033        -9.5249
  35   2.0000      -0.330557        -8.9949
  36   0.0000       0.024170         0.6577
  37   0.0000       0.027190         0.7399
  38   0.0000       0.036632         0.9968
  39   0.0000       0.051817         1.4100
  40   0.0000       0.052188         1.4201

MULLIKEN ATOMIC CHARGES
-----------------------
   0 S :    0.327139
   1 S :   -0.040247
   2 N :   -0.609176
   3 C :    0.103784
   4 C :   -0.117514
   5 C :   -0.589476
   6 C :   -0.109600
   7 C :   -0.148617
   8 H :    0.532972
   9 H :    0.587423
  10 H :    0.063313
Sum of atomic charges:    0.0000000

LOEWDIN ATOMIC CHARGES
----------------------
   0 S :    1.345522
   1 S :    1.462600
   2 N :    0.471261
   3 C :   -0.652930
   4 C :   -0.082045
   5 C :   -0.337634
   6 C :   -0.151689
   7 C :   -0.501242
   8 H :   -0.342155
   9 H :   -0.421435
  10 H :   -0.790253

  Mayer bond orders larger than 0.100000
B(  0-S ,  3-C ) :   0.9708 B(  0-S ,  5-C ) :   1.3156 B(  1-S ,  7-C ) :   0.5411
B(  1-S , 10-H ) :   1.0684 B(  2-N ,  3-C ) :  -0.1275 B(  2-N ,  4-C ) :   1.1060
B(  2-N ,  5-C ) :   1.6599 B(  3-C ,  4-C ) :   1.4209 B(  3-C ,  5-C ) :  -0.2179
B(  3-C ,  6-C ) :   0.9141 B(  3-C ,  7-C ) :  -0.2755 B(  4-C ,  8-H ) :   0.7224
B(  5-C ,  9-H ) :   0.6326 B(  6-C ,  7-C ) :   2.9767

MP2 TOTAL ENERGY:    -1042.066123894 Eh
FINAL SINGLE POINT ENERGY     -1042.066123893661

DIPOLE MOMENT
-------------
                                X             Y             Z
Electronic contribution:     -1.15520      -2.08583      -0.84187
Nuclear contribution   :      1.06924       1.71166       1.16292
                        -----------------------------------------
Total Dipole Moment    :     -0.08597      -0.37416       0.32105
                        -----------------------------------------
Magnitude (a.u.)       :      0.50046
Magnitude (Debye)      :      1.27208

Rotational constants in cm-1:     0.179980     0.019748     0.017863
Rotational constants in MHz :  5395.665916   592.042949   535.531673

                             ****ORCA TERMINATED NORMALLY****
TOTAL RUN TIME: 0 days 0 hours 24 minutes 22 seconds 964 msec
