                         Program Version 5.0.4 -  RELEASE  -
|  1> !ri-mp2 aug-cc-pvqz aug-cc-pvqz/c tightscf
|  2> %pal nprocs 16 end
|  3>
|  4> * xyz 0 1
|  5> C     0.000000     1.361787       0.000000
|  6> C    -1.217446     0.702893       0.000000
|  7> C     1.217446     0.702893       0.000000
|  8> C    -1.179342    -0.680894       0.000000
|  9> C     1.179342    -0.680894       0.000000
| 10> C     0.000000    -1.405786       0.000000
| 11> F    -2.344663    -1.353692       0.000000
| 12> F     2.344663    -1.353692       0.000000
| 13> H    -2.151626     1.242242       0.000000
| 14> H     2.151626     1.242242       0.000000
| 15> F     0.000000     2.707384       0.000000
| 16> H     0.000000    -2.484484       0.000000
| 17> *
| 18>
| 19>                          ****END OF INPUT****

CARTESIAN COORDINATES (ANGSTROEM)
---------------------------------
  C      0.000000    1.361787    0.000000
  C     -1.217446    0.702893    0.000000
  C      1.217446    0.702893    0.000000
  C     -1.179342   -0.680894    0.000000
  C      1.179342   -0.680894    0.000000
  C      0.000000   -1.405786    0.000000
  F     -2.344663   -1.353692    0.000000
  F      2.344663   -1.353692    0.000000
  H     -2.151626    1.242242    0.000000
  H      2.151626    1.242242    0.000000
  F      0.000000    2.707384    0.000000
  H      0.000000   -2.484484    0.000000

 Total Charge           Charge          ....    0
 Multiplicity           Mult            ....    1
 Number of Electrons    NEL             ....   66
 Basis Dimension        Dim             ....  858

ORBITAL ENERGIES
----------------

  NO   OCC          E(Eh)            E(eV)
   0   2.0000     -26.328936      -716.4468
   1   2.0000     -26.328936      -716.4468
   2   2.0000     -26.328936      -716.4468
   3   2.0000     -11.362284      -309.1835
   4   2.0000     -11.362277      -309.1833
   5   2.0000     -11.362277      -309.1833
   6   2.0000     -11.260165      -306.4047
   7   2.0000     -11.260165      -306.4047
   8   2.0000     -11.260127      -306.4036
   9   2.0000      -1.648880       -44.8683
  10   2.0000      -1.648016       -44.8448
  11   2.0000      -1.648016       -44.8448
  12   2.0000      -1.197101       -32.5748
  13   2.0000      -1.057678       -28.7809
  14   2.0000      -1.057678       -28.7809
  15   2.0000      -0.891107       -24.2483
  16   2.0000      -0.891107       -24.2483
  17   2.0000      -0.802292       -21.8315
  18   2.0000      -0.777995       -21.1703
  19   2.0000      -0.723337       -19.6830
  20   2.0000      -0.721882       -19.6434
  21   2.0000      -0.721882       -19.6434
  22   2.0000      -0.717762       -19.5313
  23   2.0000      -0.711225       -19.3534
  24   2.0000      -0.711225       -19.3534
  25   2.0000      -0.667381       -18.1604
  26   2.0000      -0.667381       -18.1604
  27   2.0000      -0.589897       -16.0519
  28   2.0000      -0.575835       -15.6693
  29   2.0000      -0.575834       -15.6693
  30   2.0000      -0.526900       -14.3377
  31   2.0000      -0.368640       -10.0312
  32   2.0000      -0.368639       -10.0312
  33   0.0000       0.026509         0.7214
  34   0.0000       0.031743         0.8638
  35   0.0000       0.031743         0.8638
  36   0.0000       0.061808         1.6819
  37   0.0000       0.061808         1.6819

MULLIKEN ATOMIC CHARGES
-----------------------
   0 C :    0.790213
   1 C :   -0.569918
   2 C :   -0.569923
   3 C :    0.790287
   4 C :    0.790263
   5 C :   -0.569905
   6 F :   -0.753999
   7 F :   -0.753998
   8 H :    0.533654
   9 H :    0.533653
  10 F :   -0.753988
  11 H :    0.533660
Sum of atomic charges:    0.0000000

LOEWDIN ATOMIC CHARGES
----------------------
   0 C :   -0.709133
   1 C :    0.262869
   2 C :    0.262869
   3 C :   -0.709132
   4 C :   -0.709132
   5 C :    0.262869
   6 F :    0.786693
   7 F :    0.786693
   8 H :   -0.340429
   9 H :   -0.340429
  10 F :    0.786692
  11 H :   -0.340429

  Mayer bond orders larger than 0.100000
B(  0-C ,  1-C ) :   1.4635 B(  0-C ,  2-C ) :   1.4635 B(  0-C ,  3-C ) :  -0.2042
B(  0-C ,  4-C ) :  -0.2042 B(  1-C ,  3-C ) :   1.4635 B(  1-C ,  6-F ) :   0.1511
B(  1-C ,  8-H ) :   0.6364 B(  1-C , 10-F ) :   0.1511 B(  2-C ,  4-C ) :   1.4635
B(  2-C ,  7-F ) :   0.1511 B(  2-C ,  9-H ) :   0.6364 B(  2-C , 10-F ) :   0.1512
B(  3-C ,  4-C ) :  -0.2042 B(  3-C ,  5-C ) :   1.4635 B(  4-C ,  5-C ) :   1.4635
B(  5-C ,  6-F ) :   0.1512 B(  5-C ,  7-F ) :   0.1511 B(  5-C , 11-H ) :   0.6364

MP2 TOTAL ENERGY:     -529.300528594 Eh
FINAL SINGLE POINT ENERGY      -529.300528593664

DIPOLE MOMENT
-------------
                                X             Y             Z
Electronic contribution:      0.00000      -0.00000      -0.00000
Nuclear contribution   :      0.00000       0.00000       0.00000
                        -----------------------------------------
Total Dipole Moment    :      0.00000      -0.00000      -0.00000
                        -----------------------------------------
Magnitude (a.u.)       :      0.00000
Magnitude (Debye)      :      0.00001

Rotational constants in cm-1:     0.058690     0.058690     0.029345
Rotational constants in MHz :  1759.495856  1759.495204   879.747765

                             ****ORCA TERMINATED NORMALLY****
TOTAL RUN TIME: 0 days 0 hours 29 minutes 0 seconds 865 msec
