                         Program Version 5.0.4 -  RELEASE  -
|  1> !ri-mp2 aug-cc-pvqz aug-cc-pvqz/c tightscf
|  2> %pal nprocs 16 end
|  3>
|  4> * xyz 0 1
|  5> N      1.116569    0.323298        0.000000
|  6> N      0.000000    1.033096        0.000000
|  7> N     -1.109966    0.315745        0.000000
|  8> N     -0.722852   -0.930666        0.000000
|  9> C      0.629718   -0.907123        0.000000
| 10> H     -0.009536    2.040913        0.000000
| 11> H      1.244977   -1.788487        0.000000
| 12> *
| 13>
| 14>                          ****END OF INPUT****

CARTESIAN COORDINATES (ANGSTROEM)
---------------------------------
  N      1.116569    0.323298    0.000000
  N      0.000000    1.033096    0.000000
  N     -1.109966    0.315745    0.000000
  N     -0.722852   -0.930666    0.000000
  C      0.629718   -0.907123    0.000000
  H     -0.009536    2.040913    0.000000
  H      1.244977   -1.788487    0.000000

 Total Charge           Charge          ....    0
 Multiplicity           Mult            ....    1
 Number of Electrons    NEL             ....   36
 Basis Dimension        Dim             ....  492

ORBITAL ENERGIES
----------------

  NO   OCC          E(Eh)            E(eV)
   0   2.0000     -15.709513      -427.4776
   1   2.0000     -15.677482      -426.6060
   2   2.0000     -15.634990      -425.4497
   3   2.0000     -15.615823      -424.9281
   4   2.0000     -11.307588      -307.6951
   5   2.0000      -1.511950       -41.1422
   6   2.0000      -1.271557       -34.6008
   7   2.0000      -1.188735       -32.3471
   8   2.0000      -0.926882       -25.2217
   9   2.0000      -0.884092       -24.0574
  10   2.0000      -0.787784       -21.4367
  11   2.0000      -0.690280       -18.7835
  12   2.0000      -0.655653       -17.8412
  13   2.0000      -0.578740       -15.7483
  14   2.0000      -0.509323       -13.8594
  15   2.0000      -0.479505       -13.0480
  16   2.0000      -0.453304       -12.3350
  17   2.0000      -0.418538       -11.3890
  18   0.0000       0.022178         0.6035
  19   0.0000       0.032830         0.8934
  20   0.0000       0.061737         1.6799
  21   0.0000       0.066862         1.8194
  22   0.0000       0.081178         2.2090

MULLIKEN ATOMIC CHARGES
-----------------------
   0 N :   -0.366965
   1 N :   -0.031514
   2 N :   -0.028402
   3 N :   -0.420740
   4 C :   -0.108491
   5 H :    0.366391
   6 H :    0.589721
Sum of atomic charges:   -0.0000000

LOEWDIN ATOMIC CHARGES
----------------------
   0 N :    0.426498
   1 N :    0.264536
   2 N :    0.190068
   3 N :    0.264384
   4 C :   -0.269612
   5 H :   -0.501105
   6 H :   -0.374769

  Mayer bond orders larger than 0.100000
B(  0-N ,  1-N ) :   0.9934 B(  0-N ,  2-N ) :   0.1303 B(  0-N ,  3-N ) :   0.1116
B(  0-N ,  4-C ) :   1.5545 B(  1-N ,  2-N ) :   1.2128 B(  1-N ,  5-H ) :   0.8898
B(  2-N ,  3-N ) :   1.2951 B(  3-N ,  4-C ) :   1.3852 B(  4-C ,  6-H ) :   0.6600

MP2 TOTAL ENERGY:     -257.902472771 Eh
FINAL SINGLE POINT ENERGY      -257.902472770965

DIPOLE MOMENT
-------------
                                X             Y             Z
Electronic contribution:     -0.63811       0.42016      -0.00000
Nuclear contribution   :      1.18828       0.24782       0.00000
                        -----------------------------------------
Total Dipole Moment    :      0.55017       0.66797      -0.00000
                        -----------------------------------------
Magnitude (a.u.)       :      0.86537
Magnitude (Debye)      :      2.19960

Rotational constants in cm-1:     0.357971     0.347594     0.176353
Rotational constants in MHz : 10731.713843 10420.615773  5286.938535

                             ****ORCA TERMINATED NORMALLY****
TOTAL RUN TIME: 0 days 0 hours 3 minutes 42 seconds 408 msec
