                         Program Version 5.0.4 -  RELEASE  -
|  1> !ri-mp2 aug-cc-pvqz aug-cc-pvqz/c tightscf
|  2> %pal nprocs 16 end
|  3> %maxcore 3800
|  4>
|  5> * xyz 0 1
|  6> C     -2.758791   -0.172612    0.000000
|  7> C     -2.313124    1.163832    0.000000
|  8> C      1.829384   -1.714992    0.000000
|  9> C     -1.848501   -1.196478    0.000000
| 10> C     -0.971197    1.448460    0.000000
| 11> C      0.490238   -1.990790    0.000000
| 12> C      2.279504   -0.378590    0.000000
| 13> C     -0.456728   -0.938145    0.000000
| 14> C      0.000000    0.416294    0.000000
| 15> C      1.404403    0.681449    0.000000
| 16> C      1.923415    2.094613    0.000000
| 17> H     -3.819371   -0.385993    0.000000
| 18> H     -3.035349    1.969463    0.000000
| 19> H      2.552742   -2.519609    0.000000
| 20> H     -2.183645   -2.226203    0.000000
| 21> H     -0.648971    2.479854    0.000000
| 22> H      0.135898   -3.013788    0.000000
| 23> H      3.344718   -0.184205    0.000000
| 24> H      1.585124    2.649218    0.878154
| 25> H      3.012098    2.103795    0.000000
| 26> H      1.585124    2.649218   -0.878154
| 27> *
| 28>
| 29>                          ****END OF INPUT****

CARTESIAN COORDINATES (ANGSTROEM)
---------------------------------
  C     -2.758791   -0.172612    0.000000
  C     -2.313124    1.163832    0.000000
  C      1.829384   -1.714992    0.000000
  C     -1.848501   -1.196478    0.000000
  C     -0.971197    1.448460    0.000000
  C      0.490238   -1.990790    0.000000
  C      2.279504   -0.378590    0.000000
  C     -0.456728   -0.938145    0.000000
  C      0.000000    0.416294    0.000000
  C      1.404403    0.681449    0.000000
  C      1.923415    2.094613    0.000000
  H     -3.819371   -0.385993    0.000000
  H     -3.035349    1.969463    0.000000
  H      2.552742   -2.519609    0.000000
  H     -2.183645   -2.226203    0.000000
  H     -0.648971    2.479854    0.000000
  H      0.135898   -3.013788    0.000000
  H      3.344718   -0.184205    0.000000
  H      1.585124    2.649218    0.878154
  H      3.012098    2.103795    0.000000
  H      1.585124    2.649218   -0.878154

 Total Charge           Charge          ....    0
 Multiplicity           Mult            ....    1
 Number of Electrons    NEL             ....   76
 Basis Dimension        Dim             .... 1340

ORBITAL ENERGIES
----------------

  NO   OCC          E(Eh)            E(eV)
   0   2.0000     -11.242584      -305.9263
   1   2.0000     -11.240971      -305.8824
   2   2.0000     -11.239425      -305.8403
   3   2.0000     -11.233935      -305.6909
   4   2.0000     -11.233424      -305.6770
   5   2.0000     -11.232396      -305.6490
   6   2.0000     -11.231785      -305.6324
   7   2.0000     -11.231714      -305.6305
   8   2.0000     -11.229353      -305.5662
   9   2.0000     -11.227362      -305.5121
  10   2.0000     -11.223669      -305.4116
  11   2.0000      -1.177619       -32.0446
  12   2.0000      -1.112383       -30.2695
  13   2.0000      -1.065140       -28.9839
  14   2.0000      -1.007196       -27.4072
  15   2.0000      -0.999238       -27.1906
  16   2.0000      -0.932514       -25.3750
  17   2.0000      -0.847891       -23.0723
  18   2.0000      -0.837655       -22.7938
  19   2.0000      -0.788071       -21.4445
  20   2.0000      -0.705950       -19.2099
  21   2.0000      -0.693541       -18.8722
  22   2.0000      -0.675850       -18.3908
  23   2.0000      -0.620942       -16.8967
  24   2.0000      -0.608022       -16.5451
  25   2.0000      -0.586402       -15.9568
  26   2.0000      -0.580702       -15.8017
  27   2.0000      -0.574643       -15.6368
  28   2.0000      -0.560573       -15.2540
  29   2.0000      -0.537265       -14.6197
  30   2.0000      -0.521882       -14.2011
  31   2.0000      -0.521475       -14.1900
  32   2.0000      -0.483166       -13.1476
  33   2.0000      -0.470460       -12.8019
  34   2.0000      -0.446102       -12.1390
  35   2.0000      -0.377035       -10.2597
  36   2.0000      -0.318865        -8.6768
  37   2.0000      -0.285402        -7.7662
  38   0.0000       0.025356         0.6900
  39   0.0000       0.026497         0.7210
  40   0.0000       0.026787         0.7289
  41   0.0000       0.036991         1.0066
  42   0.0000       0.038180         1.0389

MULLIKEN ATOMIC CHARGES
-----------------------
   0 C :   -0.445113
   1 C :   -0.435726
   2 C :   -0.299291
   3 C :   -0.414309
   4 C :   -0.616672
   5 C :   -0.698294
   6 C :   -0.788668
   7 C :    0.837807
   8 C :    0.962032
   9 C :    0.453072
  10 C :   -0.769178
  11 H :    0.259269
  12 H :    0.238632
  13 H :    0.239834
  14 H :    0.171295
  15 H :    0.302002
  16 H :    0.198699
  17 H :    0.217398
  18 H :    0.183580
  19 H :    0.220054
  20 H :    0.183580
Sum of atomic charges:   -0.0000000

LOEWDIN ATOMIC CHARGES
----------------------
   0 C :    0.353457
   1 C :    0.359306
   2 C :    0.362079
   3 C :    0.353517
   4 C :    0.355430
   5 C :    0.354662
   6 C :    0.353897
   7 C :   -0.109202
   8 C :   -0.086664
   9 C :   -0.045451
  10 C :    0.900769
  11 H :   -0.323874
  12 H :   -0.323070
  13 H :   -0.322091
  14 H :   -0.322217
  15 H :   -0.345502
  16 H :   -0.322818
  17 H :   -0.326723
  18 H :   -0.279260
  19 H :   -0.306986
  20 H :   -0.279260

  Mayer bond orders larger than 0.100000
B(  0-C ,  1-C ) :   1.1623 B(  0-C ,  3-C ) :   1.3028 B(  0-C ,  7-C ) :  -0.2127
B(  0-C , 11-H ) :   1.1456 B(  1-C ,  4-C ) :   1.2917 B(  1-C ,  8-C ) :  -0.3670
B(  1-C , 12-H ) :   1.1608 B(  1-C , 15-H ) :  -0.1032 B(  2-C ,  5-C ) :   1.3978
B(  2-C ,  6-C ) :   1.1927 B(  2-C ,  7-C ) :  -0.4344 B(  2-C ,  8-C ) :   0.2108
B(  2-C ,  9-C ) :  -0.3936 B(  2-C , 13-H ) :   1.2168 B(  3-C ,  4-C ) :   0.1354
B(  3-C ,  5-C ) :  -0.1763 B(  3-C ,  7-C ) :   0.6266 B(  3-C ,  8-C ) :  -0.3746
B(  3-C , 11-H ) :  -0.1852 B(  3-C , 14-H ) :   1.1482 B(  4-C ,  7-C ) :  -0.1096
B(  4-C ,  8-C ) :   0.6788 B(  4-C ,  9-C ) :  -0.1321 B(  4-C , 12-H ) :  -0.1814
B(  4-C , 15-H ) :   0.9606 B(  5-C ,  6-C ) :   0.3638 B(  5-C ,  7-C ) :   0.5035
B(  5-C , 13-H ) :  -0.2434 B(  5-C , 16-H ) :   1.1008 B(  6-C ,  9-C ) :   1.0617
B(  6-C , 10-C ) :  -0.1107 B(  6-C , 13-H ) :  -0.2121 B(  6-C , 17-H ) :   1.0642
B(  7-C ,  8-C ) :   0.7964 B(  7-C ,  9-C ) :  -0.3220 B(  7-C , 14-H ) :  -0.1728
B(  7-C , 16-H ) :  -0.1823 B(  8-C ,  9-C ) :   0.3144 B(  8-C , 10-C ) :  -0.1870
B(  8-C , 15-H ) :  -0.2153 B(  9-C , 10-C ) :   0.6845 B(  9-C , 15-H ) :   0.1764
B(  9-C , 18-H ) :  -0.1293 B(  9-C , 19-H ) :  -0.1060 B(  9-C , 20-H ) :  -0.1293
B( 10-C , 18-H ) :   1.0732 B( 10-C , 19-H ) :   1.0490 B( 10-C , 20-H ) :   1.0732

MP2 TOTAL ENERGY:     -424.418022017 Eh
FINAL SINGLE POINT ENERGY      -424.418022017096

DIPOLE MOMENT
-------------
                                X             Y             Z
Electronic contribution:     -2.47963      -3.40513      -0.00000
Nuclear contribution   :      2.53784       3.53494       0.00000
                        -----------------------------------------
Total Dipole Moment    :      0.05821       0.12981      -0.00000
                        -----------------------------------------
Magnitude (a.u.)       :      0.14226
Magnitude (Debye)      :      0.36160

Rotational constants in cm-1:     0.063531     0.037699     0.023763
Rotational constants in MHz :  1904.619887  1130.200426   712.410260

                             ****ORCA TERMINATED NORMALLY****
TOTAL RUN TIME: 0 days 2 hours 15 minutes 54 seconds 282 msec
