                         Program Version 5.0.4 -  RELEASE  -
|  1> !ri-mp2 aug-cc-pvqz aug-cc-pvqz/c tightscf
|  2> %pal nprocs 16 end
|  3>
|  4> * xyz 0 1
|  5> C     -0.035450   -0.681860    0.000000
|  6> F      1.048578   -1.447157    0.000000
|  7> F     -1.137562   -1.409159    0.000000
|  8> C      0.000000    0.641679    0.000000
|  9> F     -1.187405    1.293847    0.000000
| 10> C      1.198490    1.512864    0.000000
| 11> H      2.107235    0.915995    0.000000
| 12> H      1.201017    2.155061    0.882809
| 13> H      1.201017    2.155061   -0.882809
| 14> *
| 15>
| 16>                          ****END OF INPUT****

CARTESIAN COORDINATES (ANGSTROEM)
---------------------------------
  C     -0.035450   -0.681860    0.000000
  F      1.048578   -1.447157    0.000000
  F     -1.137562   -1.409159    0.000000
  C      0.000000    0.641679    0.000000
  F     -1.187405    1.293847    0.000000
  C      1.198490    1.512864    0.000000
  H      2.107235    0.915995    0.000000
  H      1.201017    2.155061    0.882809
  H      1.201017    2.155061   -0.882809

 Total Charge           Charge          ....    0
 Multiplicity           Mult            ....    1
 Number of Electrons    NEL             ....   48
 Basis Dimension        Dim             ....  618

ORBITAL ENERGIES
----------------

  NO   OCC          E(Eh)            E(eV)
   0   2.0000     -26.349638      -717.0101
   1   2.0000     -26.346861      -716.9345
   2   2.0000     -26.318723      -716.1689
   3   2.0000     -11.421918      -310.8062
   4   2.0000     -11.343241      -308.6653
   5   2.0000     -11.254390      -306.2475
   6   2.0000      -1.703220       -46.3470
   7   2.0000      -1.643286       -44.7161
   8   2.0000      -1.632705       -44.4282
   9   2.0000      -1.104613       -30.0581
  10   2.0000      -0.988319       -26.8935
  11   2.0000      -0.871756       -23.7217
  12   2.0000      -0.806887       -21.9565
  13   2.0000      -0.787281       -21.4230
  14   2.0000      -0.770953       -20.9787
  15   2.0000      -0.704485       -19.1700
  16   2.0000      -0.702637       -19.1197
  17   2.0000      -0.694757       -18.9053
  18   2.0000      -0.685333       -18.6488
  19   2.0000      -0.668627       -18.1943
  20   2.0000      -0.593773       -16.1574
  21   2.0000      -0.584084       -15.8937
  22   2.0000      -0.577667       -15.7191
  23   2.0000      -0.380523       -10.3545
  24   0.0000       0.024268         0.6604
  25   0.0000       0.039287         1.0690
  26   0.0000       0.041087         1.1180
  27   0.0000       0.049774         1.3544
  28   0.0000       0.068748         1.8707

MULLIKEN ATOMIC CHARGES
-----------------------
   0 C :    1.273853
   1 F :   -0.612900
   2 F :   -0.608155
   3 C :    0.459824
   4 F :   -0.663234
   5 C :   -0.637889
   6 H :    0.273710
   7 H :    0.257396
   8 H :    0.257396
Sum of atomic charges:    0.0000000

LOEWDIN ATOMIC CHARGES
----------------------
   0 C :   -1.356867
   1 F :    0.735967
   2 F :    0.729596
   3 C :   -0.771065
   4 F :    0.745618
   5 C :    0.841425
   6 H :   -0.324312
   7 H :   -0.300181
   8 H :   -0.300181

  Mayer bond orders larger than 0.100000
B(  0-C ,  1-F ) :   0.5610 B(  0-C ,  2-F ) :   0.5026 B(  0-C ,  3-C ) :   1.9490
B(  3-C ,  4-F ) :   0.4101 B(  3-C ,  5-C ) :   0.8209 B(  5-C ,  6-H ) :   0.9480
B(  5-C ,  7-H ) :   0.9433 B(  5-C ,  8-H ) :   0.9433

MP2 TOTAL ENERGY:     -415.156125156 Eh
FINAL SINGLE POINT ENERGY      -415.156125155812

DIPOLE MOMENT
-------------
                                X             Y             Z
Electronic contribution:     -4.67750      -5.86832      -0.00000
Nuclear contribution   :      5.41519       6.35315       0.00000
                        -----------------------------------------
Total Dipole Moment    :      0.73769       0.48483      -0.00000
                        -----------------------------------------
Magnitude (a.u.)       :      0.88275
Magnitude (Debye)      :      2.24377

Rotational constants in cm-1:     0.171820     0.106243     0.066463
Rotational constants in MHz :  5151.025541  3185.089121  1992.503166

                             ****ORCA TERMINATED NORMALLY****
TOTAL RUN TIME: 0 days 0 hours 7 minutes 41 seconds 183 msec
