                         Program Version 5.0.4 -  RELEASE  -
|  1> !ri-mp2 aug-cc-pvqz aug-cc-pvqz/c tightscf
|  2> %pal nprocs 16 end
|  3>
|  4> * xyz 0 1
|  5> C      2.257879    3.177876    0.000000
|  6> C      1.939719    2.020940    0.000000
|  7> C     -2.330524   -2.718125    0.000000
|  8> C      1.527217    0.622766    0.000000
|  9> C     -1.925506   -1.245234    0.000000
| 10> C      0.000000    0.434858    0.000000
| 11> C     -0.410473   -1.036234    0.000000
| 12> H      2.546918    4.198732    0.000000
| 13> H     -3.415229   -2.832921    0.000000
| 14> H     -1.942770   -3.234004    0.880832
| 15> H     -1.942770   -3.234004   -0.880832
| 16> H      1.956087    0.124043   -0.874253
| 17> H      1.956087    0.124043    0.874253
| 18> H     -2.356942   -0.748038   -0.873782
| 19> H     -2.356942   -0.748038    0.873782
| 20> H     -0.418718    0.938863    0.874266
| 21> H     -0.418718    0.938863   -0.874266
| 22> H      0.021563   -1.534311   -0.874638
| 23> H      0.021563   -1.534311    0.874638
| 24> *
| 25>
| 26>                          ****END OF INPUT****

CARTESIAN COORDINATES (ANGSTROEM)
---------------------------------
  C      2.257879    3.177876    0.000000
  C      1.939719    2.020940    0.000000
  C     -2.330524   -2.718125    0.000000
  C      1.527217    0.622766    0.000000
  C     -1.925506   -1.245234    0.000000
  C      0.000000    0.434858    0.000000
  C     -0.410473   -1.036234    0.000000
  H      2.546918    4.198732    0.000000
  H     -3.415229   -2.832921    0.000000
  H     -1.942770   -3.234004    0.880832
  H     -1.942770   -3.234004   -0.880832
  H      1.956087    0.124043   -0.874253
  H      1.956087    0.124043    0.874253
  H     -2.356942   -0.748038   -0.873782
  H     -2.356942   -0.748038    0.873782
  H     -0.418718    0.938863    0.874266
  H     -0.418718    0.938863   -0.874266
  H      0.021563   -1.534311   -0.874638
  H      0.021563   -1.534311    0.874638

 Total Charge           Charge          ....    0
 Multiplicity           Mult            ....    1
 Number of Electrons    NEL             ....   54
 Basis Dimension        Dim             .... 1112

ORBITAL ENERGIES
----------------

  NO   OCC          E(Eh)            E(eV)
   0   2.0000     -11.248053      -306.0751
   1   2.0000     -11.228607      -305.5459
   2   2.0000     -11.226273      -305.4824
   3   2.0000     -11.220713      -305.3311
   4   2.0000     -11.219600      -305.3008
   5   2.0000     -11.214353      -305.1581
   6   2.0000     -11.212268      -305.1013
   7   2.0000      -1.099665       -29.9234
   8   2.0000      -1.054778       -28.7020
   9   2.0000      -0.999112       -27.1872
  10   2.0000      -0.933008       -25.3885
  11   2.0000      -0.840953       -22.8835
  12   2.0000      -0.795173       -21.6378
  13   2.0000      -0.715231       -19.4624
  14   2.0000      -0.658674       -17.9234
  15   2.0000      -0.635004       -17.2793
  16   2.0000      -0.610917       -16.6239
  17   2.0000      -0.577019       -15.7015
  18   2.0000      -0.572496       -15.5784
  19   2.0000      -0.546399       -14.8683
  20   2.0000      -0.512693       -13.9511
  21   2.0000      -0.491179       -13.3657
  22   2.0000      -0.473852       -12.8942
  23   2.0000      -0.469805       -12.7841
  24   2.0000      -0.467725       -12.7274
  25   2.0000      -0.382053       -10.3962
  26   2.0000      -0.380790       -10.3618
  27   0.0000       0.025262         0.6874
  28   0.0000       0.027944         0.7604
  29   0.0000       0.032009         0.8710
  30   0.0000       0.034324         0.9340
  31   0.0000       0.039967         1.0876

MULLIKEN ATOMIC CHARGES
-----------------------
   0 C :   -1.116173
   1 C :    0.035597
   2 C :   -0.902767
   3 C :   -0.131592
   4 C :   -0.471701
   5 C :   -0.222964
   6 C :   -0.212101
   7 H :    0.343957
   8 H :    0.266106
   9 H :    0.226819
  10 H :    0.226825
  11 H :    0.268138
  12 H :    0.268099
  13 H :    0.224471
  14 H :    0.224371
  15 H :    0.231802
  16 H :    0.231744
  17 H :    0.254721
  18 H :    0.254649
Sum of atomic charges:    0.0000000

LOEWDIN ATOMIC CHARGES
----------------------
   0 C :    0.572379
   1 C :    0.100712
   2 C :    0.927612
   3 C :    0.423100
   4 C :    0.510495
   5 C :    0.501161
   6 C :    0.508797
   7 H :   -0.471473
   8 H :   -0.284212
   9 H :   -0.285014
  10 H :   -0.285014
  11 H :   -0.299703
  12 H :   -0.299703
  13 H :   -0.272418
  14 H :   -0.272418
  15 H :   -0.269007
  16 H :   -0.269007
  17 H :   -0.268144
  18 H :   -0.268144

  Mayer bond orders larger than 0.100000
B(  0-C ,  1-C ) :   2.5992 B(  0-C ,  3-C ) :  -0.3985 B(  0-C ,  7-H ) :   1.1650
B(  1-C ,  3-C ) :   0.7937 B(  1-C ,  5-C ) :  -0.3781 B(  1-C ,  7-H ) :  -0.1984
B(  2-C ,  4-C ) :   1.0321 B(  2-C ,  6-C ) :  -0.1123 B(  2-C ,  8-H ) :   1.0247
B(  2-C ,  9-H ) :   0.9539 B(  2-C , 10-H ) :   0.9539 B(  3-C ,  5-C ) :   1.0517
B(  3-C , 11-H ) :   0.8738 B(  3-C , 12-H ) :   0.8738 B(  4-C ,  6-C ) :   0.9361
B(  4-C ,  8-H ) :  -0.1011 B(  4-C , 13-H ) :   0.8832 B(  4-C , 14-H ) :   0.8832
B(  5-C ,  6-C ) :   0.9997 B(  5-C , 15-H ) :   0.8587 B(  5-C , 16-H ) :   0.8587
B(  6-C , 17-H ) :   0.8494 B(  6-C , 18-H ) :   0.8494

MP2 TOTAL ENERGY:     -273.375580696 Eh
FINAL SINGLE POINT ENERGY      -273.375580695991

DIPOLE MOMENT
-------------
                                X             Y             Z
Electronic contribution:      6.49537       7.63834       0.00000
Nuclear contribution   :     -6.69604      -7.95219       0.00000
                        -----------------------------------------
Total Dipole Moment    :     -0.20067      -0.31385       0.00000
                        -----------------------------------------
Magnitude (a.u.)       :      0.37252
Magnitude (Debye)      :      0.94686

Rotational constants in cm-1:     0.457272     0.027139     0.026235
Rotational constants in MHz : 13708.683543   813.601342   786.491684

                             ****ORCA TERMINATED NORMALLY****
TOTAL RUN TIME: 0 days 0 hours 57 minutes 42 seconds 520 msec
