                         Program Version 5.0.4 -  RELEASE  -
|  1> !ri-mp2 aug-cc-pvqz aug-cc-pvqz/c tightscf
|  2> %pal nprocs 16 end
|  3>
|  4> * xyz 0 1
|  5> C      2.533757   -0.306220   -0.014186
|  6> C      1.251222    0.522342    0.039823
|  7> C     -0.016716   -0.327791   -0.039403
|  8> C     -1.300133    0.493422    0.015850
|  9> N     -2.480785   -0.370083   -0.090337
| 10> H      3.420315    0.326593    0.045198
| 11> H      2.578190   -1.017755    0.812928
| 12> H      2.594900   -0.877280   -0.942685
| 13> H      1.237543    1.111057    0.961985
| 14> H      1.251521    1.245452   -0.781337
| 15> H     -0.017096   -0.915524   -0.961024
| 16> H     -0.018900   -1.049862    0.785140
| 17> H     -1.293033    1.109193    0.926922
| 18> H     -1.321845    1.185998   -0.829220
| 19> H     -3.332664    0.176428   -0.103509
| 20> H     -2.542214   -0.994236    0.705456
| 21> *
| 22>
| 23>                          ****END OF INPUT****

CARTESIAN COORDINATES (ANGSTROEM)
---------------------------------
  C      2.533757   -0.306220   -0.014186
  C      1.251222    0.522342    0.039823
  C     -0.016716   -0.327791   -0.039403
  C     -1.300133    0.493422    0.015850
  N     -2.480785   -0.370083   -0.090337
  H      3.420315    0.326593    0.045198
  H      2.578190   -1.017755    0.812928
  H      2.594900   -0.877280   -0.942685
  H      1.237543    1.111057    0.961985
  H      1.251521    1.245452   -0.781337
  H     -0.017096   -0.915524   -0.961024
  H     -0.018900   -1.049862    0.785140
  H     -1.293033    1.109193    0.926922
  H     -1.321845    1.185998   -0.829220
  H     -3.332664    0.176428   -0.103509
  H     -2.542214   -0.994236    0.705456

 Total Charge           Charge          ....    0
 Multiplicity           Mult            ....    1
 Number of Electrons    NEL             ....   42
 Basis Dimension        Dim             ....  906

ORBITAL ENERGIES
----------------

  NO   OCC          E(Eh)            E(eV)
   0   2.0000     -15.534459      -422.7141
   1   2.0000     -11.242716      -305.9299
   2   2.0000     -11.215698      -305.1947
   3   2.0000     -11.211103      -305.0696
   4   2.0000     -11.208766      -305.0060
   5   2.0000      -1.173484       -31.9321
   6   2.0000      -1.059033       -28.8178
   7   2.0000      -0.958243       -26.0751
   8   2.0000      -0.842626       -22.9290
   9   2.0000      -0.790369       -21.5070
  10   2.0000      -0.662190       -18.0191
  11   2.0000      -0.636393       -17.3171
  12   2.0000      -0.604847       -16.4587
  13   2.0000      -0.575589       -15.6626
  14   2.0000      -0.564085       -15.3495
  15   2.0000      -0.525087       -14.2883
  16   2.0000      -0.499843       -13.6014
  17   2.0000      -0.470366       -12.7993
  18   2.0000      -0.465521       -12.6675
  19   2.0000      -0.463082       -12.6011
  20   2.0000      -0.386674       -10.5219
  21   0.0000       0.025918         0.7053
  22   0.0000       0.030553         0.8314
  23   0.0000       0.034122         0.9285
  24   0.0000       0.037381         1.0172
  25   0.0000       0.048307         1.3145

MULLIKEN ATOMIC CHARGES
-----------------------
   0 C :   -0.886931
   1 C :   -0.400992
   2 C :   -0.370038
   3 C :   -0.162038
   4 N :   -0.791392
   5 H :    0.256213
   6 H :    0.228517
   7 H :    0.223040
   8 H :    0.230709
   9 H :    0.222178
  10 H :    0.255920
  11 H :    0.251662
  12 H :    0.218707
  13 H :    0.269027
  14 H :    0.186789
  15 H :    0.268628
Sum of atomic charges:    0.0000000

LOEWDIN ATOMIC CHARGES
----------------------
   0 C :    0.924881
   1 C :    0.500309
   2 C :    0.488583
   3 C :    0.348648
   4 N :    1.283006
   5 H :   -0.284980
   6 H :   -0.285951
   7 H :   -0.285378
   8 H :   -0.275556
   9 H :   -0.274265
  10 H :   -0.274013
  11 H :   -0.273915
  12 H :   -0.272354
  13 H :   -0.291421
  14 H :   -0.511677
  15 H :   -0.515918

  Mayer bond orders larger than 0.100000
B(  0-C ,  1-C ) :   0.9938 B(  0-C ,  5-H ) :   1.0138 B(  0-C ,  6-H ) :   0.9575
B(  0-C ,  7-H ) :   0.9600 B(  1-C ,  2-C ) :   0.8892 B(  1-C ,  8-H ) :   0.8846
B(  1-C ,  9-H ) :   0.8907 B(  2-C ,  3-C ) :   1.0660 B(  2-C , 10-H ) :   0.8605
B(  2-C , 11-H ) :   0.8601 B(  3-C ,  4-N ) :   0.9178 B(  3-C , 12-H ) :   0.9076
B(  3-C , 13-H ) :   0.8783 B(  4-N , 14-H ) :   1.0048 B(  4-N , 15-H ) :   0.8846

MP2 TOTAL ENERGY:     -213.406882047 Eh
FINAL SINGLE POINT ENERGY      -213.406882047330

DIPOLE MOMENT
-------------
                                X             Y             Z
Electronic contribution:     -2.77504      -0.03600      -0.24497
Nuclear contribution   :      2.74167       0.32127       0.66793
                        -----------------------------------------
Total Dipole Moment    :     -0.03337       0.28527       0.42296
                        -----------------------------------------
Magnitude (a.u.)       :      0.51127
Magnitude (Debye)      :      1.29953

Rotational constants in cm-1:     0.606899     0.065142     0.061787
Rotational constants in MHz : 18194.362300  1952.921737  1852.332494

                             ****ORCA TERMINATED NORMALLY****
TOTAL RUN TIME: 0 days 0 hours 20 minutes 50 seconds 281 msec
