                         Program Version 5.0.4 -  RELEASE  -
|  1> !ri-mp2 aug-cc-pvqz aug-cc-pvqz/c tightscf
|  2> %pal nprocs 16 end
|  3>
|  4> * xyz 0 1
|  5> C     0.000000     1.292045       0.000000
|  6> N     1.184015     0.683592       0.000000
|  7> N    -1.184015     0.683592       0.000000
|  8> C     1.118944    -0.646022       0.000000
|  9> C    -1.118944    -0.646022       0.000000
| 10> N     0.000000    -1.367183       0.000000
| 11> H     0.000000     2.376108       0.000000
| 12> H    -2.057770    -1.188054       0.000000
| 13> H     2.057770    -1.188054       0.000000
| 14> *
| 15>
| 16>                          ****END OF INPUT****

CARTESIAN COORDINATES (ANGSTROEM)
---------------------------------
  C      0.000000    1.292045    0.000000
  N      1.184015    0.683592    0.000000
  N     -1.184015    0.683592    0.000000
  C      1.118944   -0.646022    0.000000
  C     -1.118944   -0.646022    0.000000
  N      0.000000   -1.367183    0.000000
  H      0.000000    2.376108    0.000000
  H     -2.057770   -1.188054    0.000000
  H      2.057770   -1.188054    0.000000

 Total Charge           Charge          ....    0
 Multiplicity           Mult            ....    1
 Number of Electrons    NEL             ....   42
 Basis Dimension        Dim             ....  618

ORBITAL ENERGIES
----------------

  NO   OCC          E(Eh)            E(eV)
   0   2.0000     -15.585334      -424.0985
   1   2.0000     -15.585333      -424.0985
   2   2.0000     -15.585294      -424.0974
   3   2.0000     -11.341178      -308.6091
   4   2.0000     -11.341177      -308.6091
   5   2.0000     -11.341166      -308.6088
   6   2.0000      -1.367109       -37.2009
   7   2.0000      -1.218232       -33.1498
   8   2.0000      -1.218232       -33.1498
   9   2.0000      -0.934189       -25.4206
  10   2.0000      -0.934189       -25.4206
  11   2.0000      -0.764552       -20.8045
  12   2.0000      -0.749499       -20.3949
  13   2.0000      -0.617858       -16.8128
  14   2.0000      -0.617858       -16.8128
  15   2.0000      -0.614964       -16.7340
  16   2.0000      -0.577427       -15.7126
  17   2.0000      -0.441888       -12.0244
  18   2.0000      -0.441888       -12.0244
  19   2.0000      -0.441321       -12.0090
  20   2.0000      -0.441321       -12.0090
  21   0.0000       0.025859         0.7037
  22   0.0000       0.033878         0.9219
  23   0.0000       0.033878         0.9219
  24   0.0000       0.054305         1.4777
  25   0.0000       0.069585         1.8935

MULLIKEN ATOMIC CHARGES
-----------------------
   0 C :   -0.153121
   1 N :   -0.434128
   2 N :   -0.434129
   3 C :   -0.153125
   4 C :   -0.153131
   5 N :   -0.434123
   6 H :    0.587253
   7 H :    0.587254
   8 H :    0.587251
Sum of atomic charges:    0.0000000

LOEWDIN ATOMIC CHARGES
----------------------
   0 C :   -0.207097
   1 N :    0.578639
   2 N :    0.578639
   3 C :   -0.207096
   4 C :   -0.207096
   5 N :    0.578639
   6 H :   -0.371544
   7 H :   -0.371543
   8 H :   -0.371543

  Mayer bond orders larger than 0.100000
B(  0-C ,  1-N ) :   1.3163 B(  0-C ,  2-N ) :   1.3163 B(  0-C ,  6-H ) :   0.7139
B(  1-N ,  3-C ) :   1.3163 B(  2-N ,  4-C ) :   1.3163 B(  3-C ,  5-N ) :   1.3163
B(  3-C ,  8-H ) :   0.7139 B(  4-C ,  5-N ) :   1.3163 B(  4-C ,  7-H ) :   0.7139

MP2 TOTAL ENERGY:     -279.926942054 Eh
FINAL SINGLE POINT ENERGY      -279.926942054050

DIPOLE MOMENT
-------------
                                X             Y             Z
Electronic contribution:     -0.00000       0.00000      -0.00000
Nuclear contribution   :      0.00000      -0.00000       0.00000
                        -----------------------------------------
Total Dipole Moment    :     -0.00000       0.00000      -0.00000
                        -----------------------------------------
Magnitude (a.u.)       :      0.00000
Magnitude (Debye)      :      0.00000

Rotational constants in cm-1:     0.216441     0.216441     0.108221
Rotational constants in MHz :  6488.742963  6488.742506  3244.371367

                             ****ORCA TERMINATED NORMALLY****
TOTAL RUN TIME: 0 days 0 hours 7 minutes 28 seconds 487 msec
