                         Program Version 5.0.4 -  RELEASE  -
|  1> !ri-mp2 aug-cc-pvqz aug-cc-pvqz/c tightscf
|  2> %pal nprocs 16 end
|  3>
|  4> * xyz 0 1
|  5> C     0.000000     0.000000    0.149260
|  6> C     0.755342     0.000000   -1.153405
|  7> C    -0.755342     0.000000   -1.153405
|  8> C     0.000000     1.272527    0.969653
|  9> C     0.000000    -1.272527    0.969653
| 10> H     1.261720     0.908062   -1.451789
| 11> H     1.261720    -0.908062   -1.451789
| 12> H    -1.261720    -0.908062   -1.451789
| 13> H    -1.261720     0.908062   -1.451789
| 14> H    -0.882277     1.324395    1.612690
| 15> H    -0.882277    -1.324395    1.612690
| 16> H     0.882277    -1.324395    1.612690
| 17> H     0.882277     1.324395    1.612690
| 18> H     0.000000     2.158152    0.332929
| 19> H     0.000000    -2.158152    0.332929
| 20> *
| 21>
| 22>                          ****END OF INPUT****

CARTESIAN COORDINATES (ANGSTROEM)
---------------------------------
  C      0.000000    0.000000    0.149260
  C      0.755342    0.000000   -1.153405
  C     -0.755342    0.000000   -1.153405
  C      0.000000    1.272527    0.969653
  C      0.000000   -1.272527    0.969653
  H      1.261720    0.908062   -1.451789
  H      1.261720   -0.908062   -1.451789
  H     -1.261720   -0.908062   -1.451789
  H     -1.261720    0.908062   -1.451789
  H     -0.882277    1.324395    1.612690
  H     -0.882277   -1.324395    1.612690
  H      0.882277   -1.324395    1.612690
  H      0.882277    1.324395    1.612690
  H      0.000000    2.158152    0.332929
  H      0.000000   -2.158152    0.332929

 Total Charge           Charge          ....    0
 Multiplicity           Mult            ....    1
 Number of Electrons    NEL             ....   40
 Basis Dimension        Dim             ....  860

ORBITAL ENERGIES
----------------

  NO   OCC          E(Eh)            E(eV)
   0   2.0000     -11.231918      -305.6360
   1   2.0000     -11.215286      -305.1835
   2   2.0000     -11.214640      -305.1659
   3   2.0000     -11.211432      -305.0786
   4   2.0000     -11.211410      -305.0780
   5   2.0000      -1.149904       -31.2905
   6   2.0000      -0.975413       -26.5423
   7   2.0000      -0.934762       -25.4362
   8   2.0000      -0.819593       -22.3023
   9   2.0000      -0.736811       -20.0496
  10   2.0000      -0.649446       -17.6723
  11   2.0000      -0.617189       -16.7946
  12   2.0000      -0.585055       -15.9202
  13   2.0000      -0.550611       -14.9829
  14   2.0000      -0.539470       -14.6797
  15   2.0000      -0.525746       -14.3063
  16   2.0000      -0.503406       -13.6984
  17   2.0000      -0.476310       -12.9610
  18   2.0000      -0.405403       -11.0316
  19   2.0000      -0.389009       -10.5855
  20   0.0000       0.027746         0.7550
  21   0.0000       0.032704         0.8899
  22   0.0000       0.033161         0.9024
  23   0.0000       0.034061         0.9268
  24   0.0000       0.048927         1.3314

MULLIKEN ATOMIC CHARGES
-----------------------
   0 C :    0.581727
   1 C :   -0.796808
   2 C :   -0.796808
   3 C :   -0.776027
   4 C :   -0.776027
   5 H :    0.312427
   6 H :    0.312427
   7 H :    0.312427
   8 H :    0.312427
   9 H :    0.208345
  10 H :    0.208345
  11 H :    0.208345
  12 H :    0.208345
  13 H :    0.240427
  14 H :    0.240427
Sum of atomic charges:   -0.0000000

LOEWDIN ATOMIC CHARGES
----------------------
   0 C :   -0.277998
   1 C :    0.596422
   2 C :    0.596422
   3 C :    0.923738
   4 C :    0.923738
   5 H :   -0.272311
   6 H :   -0.272311
   7 H :   -0.272311
   8 H :   -0.272311
   9 H :   -0.273088
  10 H :   -0.273088
  11 H :   -0.273088
  12 H :   -0.273088
  13 H :   -0.290365
  14 H :   -0.290365

  Mayer bond orders larger than 0.100000
B(  0-C ,  1-C ) :   0.7038 B(  0-C ,  2-C ) :   0.7038 B(  0-C ,  3-C ) :   0.5568
B(  0-C ,  4-C ) :   0.5568 B(  1-C ,  2-C ) :   1.1059 B(  1-C ,  5-H ) :   0.9289
B(  1-C ,  6-H ) :   0.9289 B(  2-C ,  7-H ) :   0.9289 B(  2-C ,  8-H ) :   0.9289
B(  3-C ,  9-H ) :   1.0404 B(  3-C , 12-H ) :   1.0404 B(  3-C , 13-H ) :   1.0045
B(  4-C , 10-H ) :   1.0404 B(  4-C , 11-H ) :   1.0404 B(  4-C , 14-H ) :   1.0045

MP2 TOTAL ENERGY:     -196.140852428 Eh
FINAL SINGLE POINT ENERGY      -196.140852427831

DIPOLE MOMENT
-------------
                                X             Y             Z
Electronic contribution:     -0.00000      -0.00000      -1.34977
Nuclear contribution   :      0.00000       0.00000       1.40259
                        -----------------------------------------
Total Dipole Moment    :     -0.00000      -0.00000       0.05282
                        -----------------------------------------
Magnitude (a.u.)       :      0.05282
Magnitude (Debye)      :      0.13426

Rotational constants in cm-1:     0.205709     0.173329     0.127054
Rotational constants in MHz :  6167.007739  5196.285132  3808.977568

                             ****ORCA TERMINATED NORMALLY****
TOTAL RUN TIME: 0 days 0 hours 25 minutes 0 seconds 119 msec
