                         Program Version 5.0.4 -  RELEASE  -
|  1> !ri-mp2 aug-cc-pvqz aug-cc-pvqz/c tightscf
|  2> %pal nprocs 16 end
|  3>
|  4> * xyz 0 1
|  5> C     -1.396817    0.429335    0.000000
|  6> C     -1.472698   -1.093148    0.000000
|  7> C      0.000000    1.004651    0.000000
|  8> C      1.112304    0.327742    0.000000
|  9> C      2.229478   -0.340821    0.000000
| 10> H     -1.928062    0.827718    0.870383
| 11> H     -1.928062    0.827718   -0.870383
| 12> H     -0.983848   -1.513104   -0.879616
| 13> H     -2.511270   -1.424852    0.000000
| 14> H     -0.983848   -1.513104    0.879616
| 15> H      0.069668    2.089604    0.000000
| 16> H      2.715910   -0.630267   -0.924292
| 17> H      2.715910   -0.630267    0.924292
| 18> *
| 19>
| 20>                          ****END OF INPUT****

CARTESIAN COORDINATES (ANGSTROEM)
---------------------------------
  C     -1.396817    0.429335    0.000000
  C     -1.472698   -1.093148    0.000000
  C      0.000000    1.004651    0.000000
  C      1.112304    0.327742    0.000000
  C      2.229478   -0.340821    0.000000
  H     -1.928062    0.827718    0.870383
  H     -1.928062    0.827718   -0.870383
  H     -0.983848   -1.513104   -0.879616
  H     -2.511270   -1.424852    0.000000
  H     -0.983848   -1.513104    0.879616
  H      0.069668    2.089604    0.000000
  H      2.715910   -0.630267   -0.924292
  H      2.715910   -0.630267    0.924292

 Total Charge           Charge          ....    0
 Multiplicity           Mult            ....    1
 Number of Electrons    NEL             ....   38
 Basis Dimension        Dim             ....  768

ORBITAL ENERGIES
----------------

  NO   OCC          E(Eh)            E(eV)
   0   2.0000     -11.245920      -306.0170
   1   2.0000     -11.235525      -305.7342
   2   2.0000     -11.232316      -305.6469
   3   2.0000     -11.228227      -305.5356
   4   2.0000     -11.211578      -305.0825
   5   2.0000      -1.094854       -29.7925
   6   2.0000      -1.023923       -27.8624
   7   2.0000      -0.942271       -25.6405
   8   2.0000      -0.842433       -22.9238
   9   2.0000      -0.690089       -18.7783
  10   2.0000      -0.632693       -17.2165
  11   2.0000      -0.617629       -16.8065
  12   2.0000      -0.605100       -16.4656
  13   2.0000      -0.596291       -16.2259
  14   2.0000      -0.507443       -13.8082
  15   2.0000      -0.501582       -13.6487
  16   2.0000      -0.499219       -13.5845
  17   2.0000      -0.370775       -10.0893
  18   2.0000      -0.359303        -9.7771
  19   0.0000       0.026521         0.7217
  20   0.0000       0.031507         0.8574
  21   0.0000       0.034190         0.9304
  22   0.0000       0.036345         0.9890
  23   0.0000       0.049704         1.3525

MULLIKEN ATOMIC CHARGES
-----------------------
   0 C :   -0.324366
   1 C :   -0.816491
   2 C :   -0.389159
   3 C :   -0.153880
   4 C :   -0.626623
   5 H :    0.244878
   6 H :    0.244878
   7 H :    0.210411
   8 H :    0.304688
   9 H :    0.210411
  10 H :    0.437575
  11 H :    0.328838
  12 H :    0.328838
Sum of atomic charges:    0.0000000

LOEWDIN ATOMIC CHARGES
----------------------
   0 C :    0.450741
   1 C :    0.895416
   2 C :    0.317507
   3 C :    0.184513
   4 C :    0.726567
   5 H :   -0.291421
   6 H :   -0.291421
   7 H :   -0.288364
   8 H :   -0.283304
   9 H :   -0.288364
  10 H :   -0.354369
  11 H :   -0.388750
  12 H :   -0.388750

  Mayer bond orders larger than 0.100000
B(  0-C ,  1-C ) :   0.9820 B(  0-C ,  2-C ) :   0.8562 B(  0-C ,  5-H ) :   0.8991
B(  0-C ,  6-H ) :   0.8991 B(  1-C ,  7-H ) :   0.9605 B(  1-C ,  8-H ) :   0.9359
B(  1-C ,  9-H ) :   0.9605 B(  2-C ,  3-C ) :   1.9408 B(  2-C ,  4-C ) :  -0.1942
B(  2-C , 10-H ) :   0.7095 B(  3-C ,  4-C ) :   1.8675 B(  4-C , 11-H ) :   0.9229
B(  4-C , 12-H ) :   0.9229

MP2 TOTAL ENERGY:     -194.899482980 Eh
FINAL SINGLE POINT ENERGY      -194.899482979835

DIPOLE MOMENT
-------------
                                X             Y             Z
Electronic contribution:      2.76480       2.06993       0.00000
Nuclear contribution   :     -2.96870      -2.06032       0.00000
                        -----------------------------------------
Total Dipole Moment    :     -0.20391       0.00961       0.00000
                        -----------------------------------------
Magnitude (a.u.)       :      0.20413
Magnitude (Debye)      :      0.51887

Rotational constants in cm-1:     0.344880     0.105419     0.084638
Rotational constants in MHz : 10339.253368  3160.371797  2537.398132

                             ****ORCA TERMINATED NORMALLY****
TOTAL RUN TIME: 0 days 0 hours 15 minutes 59 seconds 987 msec
