                         Program Version 5.0.4 -  RELEASE  -
|  1> !ri-mp2 aug-cc-pvqz aug-cc-pvqz/c tightscf
|  2> %pal nprocs 16 end
|  3>
|  4> * xyz 0 1
|  5> C      0.396947   -0.334365    0.000000
|  6> C     -0.354044    1.033767    0.000000
|  7> F      1.717331   -0.069343    0.000000
|  8> Cl    -0.012320   -1.251697    1.466556
|  9> Cl    -0.012320   -1.251697   -1.466556
| 10> F     -1.674751    0.856796    0.000000
| 11> F     -0.012320    1.737455    1.082744
| 12> F     -0.012320    1.737455   -1.082744
| 13> *
| 14>
| 15>                          ****END OF INPUT****

CARTESIAN COORDINATES (ANGSTROEM)
---------------------------------
  C      0.396947   -0.334365    0.000000
  C     -0.354044    1.033767    0.000000
  F      1.717331   -0.069343    0.000000
  Cl    -0.012320   -1.251697    1.466556
  Cl    -0.012320   -1.251697   -1.466556
  F     -1.674751    0.856796    0.000000
  F     -0.012320    1.737455    1.082744
  F     -0.012320    1.737455   -1.082744

 Total Charge           Charge          ....    0
 Multiplicity           Mult            ....    1
 Number of Electrons    NEL             ....   82
 Basis Dimension        Dim             ....  648

ORBITAL ENERGIES
----------------

  NO   OCC          E(Eh)            E(eV)
   0   2.0000    -104.885447     -2854.0781
   1   2.0000    -104.885447     -2854.0781
   2   2.0000     -26.369364      -717.5469
   3   2.0000     -26.367059      -717.4842
   4   2.0000     -26.367038      -717.4836
   5   2.0000     -26.366478      -717.4683
   6   2.0000     -11.551911      -314.3435
   7   2.0000     -11.501111      -312.9611
   8   2.0000     -10.610913      -288.7376
   9   2.0000     -10.610903      -288.7374
  10   2.0000      -8.077917      -219.8113
  11   2.0000      -8.077915      -219.8112
  12   2.0000      -8.075897      -219.7563
  13   2.0000      -8.075896      -219.7563
  14   2.0000      -8.075872      -219.7556
  15   2.0000      -8.075871      -219.7556
  16   2.0000      -1.763665       -47.9918
  17   2.0000      -1.693654       -46.0867
  18   2.0000      -1.667674       -45.3797
  19   2.0000      -1.665777       -45.3281
  20   2.0000      -1.228749       -33.4360
  21   2.0000      -1.138597       -30.9828
  22   2.0000      -1.043764       -28.4023
  23   2.0000      -0.929773       -25.3004
  24   2.0000      -0.859560       -23.3898
  25   2.0000      -0.856038       -23.2940
  26   2.0000      -0.849618       -23.1193
  27   2.0000      -0.771441       -20.9920
  28   2.0000      -0.757282       -20.6067
  29   2.0000      -0.736855       -20.0508
  30   2.0000      -0.731965       -19.9178
  31   2.0000      -0.713631       -19.4189
  32   2.0000      -0.695050       -18.9133
  33   2.0000      -0.694373       -18.8949
  34   2.0000      -0.679947       -18.5023
  35   2.0000      -0.604808       -16.4577
  36   2.0000      -0.592686       -16.1278
  37   2.0000      -0.522824       -14.2268
  38   2.0000      -0.502571       -13.6756
  39   2.0000      -0.501308       -13.6413
  40   2.0000      -0.479685       -13.0529
  41   0.0000       0.043786         1.1915
  42   0.0000       0.053355         1.4519
  43   0.0000       0.055229         1.5029
  44   0.0000       0.063477         1.7273
  45   0.0000       0.080261         2.1840

MULLIKEN ATOMIC CHARGES
-----------------------
   0 C :    0.772520
   1 C :    1.817157
   2 F :   -0.565419
   3 Cl:   -0.143666
   4 Cl:   -0.143666
   5 F :   -0.578337
   6 F :   -0.579294
   7 F :   -0.579294
Sum of atomic charges:   -0.0000000

LOEWDIN ATOMIC CHARGES
----------------------
   0 C :   -2.505368
   1 C :   -2.487083
   2 F :    0.642081
   3 Cl:    1.063338
   4 Cl:    1.063338
   5 F :    0.738036
   6 F :    0.742829
   7 F :    0.742829

  Mayer bond orders larger than 0.100000
B(  0-C ,  1-C ) :   0.9435 B(  0-C ,  2-F ) :   0.5027 B(  0-C ,  3-Cl) :   0.8854
B(  0-C ,  4-Cl) :   0.8854 B(  1-C ,  5-F ) :   0.5324 B(  1-C ,  6-F ) :   0.5041
B(  1-C ,  7-F ) :   0.5041

MP2 TOTAL ENERGY:    -1394.607578109 Eh
FINAL SINGLE POINT ENERGY     -1394.607578108679

DIPOLE MOMENT
-------------
                                X             Y             Z
Electronic contribution:     -0.10532       0.26466      -0.00000
Nuclear contribution   :      0.01580      -0.56582       0.00000
                        -----------------------------------------
Total Dipole Moment    :     -0.08952      -0.30115      -0.00000
                        -----------------------------------------
Magnitude (a.u.)       :      0.31418
Magnitude (Debye)      :      0.79857

Rotational constants in cm-1:     0.055917     0.045967     0.036699
Rotational constants in MHz :  1676.340067  1378.048398  1100.198162

                             ****ORCA TERMINATED NORMALLY****
TOTAL RUN TIME: 0 days 0 hours 10 minutes 4 seconds 95 msec
