                         Program Version 5.0.4 -  RELEASE  -
|  1> !ri-mp2 aug-cc-pvqz aug-cc-pvqz/c tightscf
|  2> %pal nprocs 16 end
|  3>
|  4> * xyz 0 1
|  5> C     -2.173897    1.524699   -0.102751
|  6> H     -2.210085    1.552101   -1.191500
|  7> H     -3.180147    1.347902    0.271737
|  8> H     -1.838899    2.500384    0.255787
|  9> C     -1.216511    0.451803    0.380282
| 10> H     -1.222850    0.398251    1.467431
| 11> Cl    -1.855348   -1.193546   -0.136424
| 12> C      0.204566    0.645728   -0.135500
| 13> H      0.516270    1.656393    0.140769
| 14> H      0.207952    0.595476   -1.225135
| 15> C      1.199715   -0.350388    0.431283
| 16> H      1.239358   -0.310969    1.516948
| 17> H      0.984119   -1.365316    0.116205
| 18> Cl     2.880115    0.016766   -0.145466
| 19> *
| 20>
| 21>                          ****END OF INPUT****

CARTESIAN COORDINATES (ANGSTROEM)
---------------------------------
  C     -2.173897    1.524699   -0.102751
  H     -2.210085    1.552101   -1.191500
  H     -3.180147    1.347902    0.271737
  H     -1.838899    2.500384    0.255787
  C     -1.216511    0.451803    0.380282
  H     -1.222850    0.398251    1.467431
  Cl    -1.855348   -1.193546   -0.136424
  C      0.204566    0.645728   -0.135500
  H      0.516270    1.656393    0.140769
  H      0.207952    0.595476   -1.225135
  C      1.199715   -0.350388    0.431283
  H      1.239358   -0.310969    1.516948
  H      0.984119   -1.365316    0.116205
  Cl     2.880115    0.016766   -0.145466

 Total Charge           Charge          ....    0
 Multiplicity           Mult            ....    1
 Number of Electrons    NEL             ....   66
 Basis Dimension        Dim             ....  856

ORBITAL ENERGIES
----------------

  NO   OCC          E(Eh)            E(eV)
   0   2.0000    -104.823720     -2852.3984
   1   2.0000    -104.823324     -2852.3877
   2   2.0000     -11.314393      -307.8803
   3   2.0000     -11.298377      -307.4445
   4   2.0000     -11.254106      -306.2398
   5   2.0000     -11.240315      -305.8645
   6   2.0000     -10.549425      -287.0644
   7   2.0000     -10.548672      -287.0440
   8   2.0000      -8.016364      -218.1363
   9   2.0000      -8.015705      -218.1184
  10   2.0000      -8.014867      -218.0956
  11   2.0000      -8.014843      -218.0950
  12   2.0000      -8.014110      -218.0750
  13   2.0000      -8.014082      -218.0742
  14   2.0000      -1.164795       -31.6957
  15   2.0000      -1.124730       -30.6055
  16   2.0000      -1.033824       -28.1318
  17   2.0000      -0.989157       -26.9163
  18   2.0000      -0.870290       -23.6818
  19   2.0000      -0.809822       -22.0364
  20   2.0000      -0.678592       -18.4654
  21   2.0000      -0.639371       -17.3982
  22   2.0000      -0.617824       -16.8118
  23   2.0000      -0.602888       -16.4054
  24   2.0000      -0.555846       -15.1253
  25   2.0000      -0.544930       -14.8283
  26   2.0000      -0.532981       -14.5031
  27   2.0000      -0.509666       -13.8687
  28   2.0000      -0.493957       -13.4412
  29   2.0000      -0.449369       -12.2280
  30   2.0000      -0.440155       -11.9772
  31   2.0000      -0.435887       -11.8611
  32   2.0000      -0.428422       -11.6579
  33   0.0000       0.023064         0.6276
  34   0.0000       0.030690         0.8351
  35   0.0000       0.035748         0.9727
  36   0.0000       0.038681         1.0526
  37   0.0000       0.050041         1.3617

MULLIKEN ATOMIC CHARGES
-----------------------
   0 C :   -0.903532
   1 H :    0.237031
   2 H :    0.310322
   3 H :    0.245648
   4 C :    0.176119
   5 H :    0.320929
   6 Cl:   -0.488444
   7 C :   -0.378494
   8 H :    0.347035
   9 H :    0.293789
  10 C :   -0.358229
  11 H :    0.277670
  12 H :    0.324366
  13 Cl:   -0.404211
Sum of atomic charges:    0.0000000

LOEWDIN ATOMIC CHARGES
----------------------
   0 C :    0.817861
   1 H :   -0.300134
   2 H :   -0.305790
   3 H :   -0.283025
   4 C :   -0.495180
   5 H :   -0.386941
   6 Cl:    1.168075
   7 C :    0.276359
   8 H :   -0.311546
   9 H :   -0.318636
  10 C :   -0.156471
  11 H :   -0.391513
  12 H :   -0.429659
  13 Cl:    1.116600

  Mayer bond orders larger than 0.100000
B(  0-C ,  1-H ) :   0.9668 B(  0-C ,  2-H ) :   0.9715 B(  0-C ,  3-H ) :   0.9493
B(  0-C ,  4-C ) :   0.7899 B(  4-C ,  5-H ) :   0.8336 B(  4-C ,  6-Cl) :   0.5250
B(  4-C ,  7-C ) :   0.8752 B(  7-C ,  8-H ) :   0.8046 B(  7-C ,  9-H ) :   0.8654
B(  7-C , 10-C ) :   1.0170 B(  7-C , 13-Cl) :  -0.1251 B( 10-C , 11-H ) :   0.8790
B( 10-C , 12-H ) :   0.8488 B( 10-C , 13-Cl) :   0.8251

MP2 TOTAL ENERGY:    -1076.420608619 Eh
FINAL SINGLE POINT ENERGY     -1076.420608619242

DIPOLE MOMENT
-------------
                                X             Y             Z
Electronic contribution:      6.21524      -7.11643      -1.25913
Nuclear contribution   :     -6.80238       7.86359       1.71322
                        -----------------------------------------
Total Dipole Moment    :     -0.58713       0.74716       0.45408
                        -----------------------------------------
Magnitude (a.u.)       :      1.05317
Magnitude (Debye)      :      2.67694

Rotational constants in cm-1:     0.146191     0.030936     0.026603
Rotational constants in MHz :  4382.690223   927.447978   797.552020

                             ****ORCA TERMINATED NORMALLY****
TOTAL RUN TIME: 0 days 0 hours 25 minutes 46 seconds 889 msec
