                         Program Version 5.0.4 -  RELEASE  -
|  1> !ri-mp2 aug-cc-pvqz aug-cc-pvqz/c tightscf
|  2> %pal nprocs 16 end
|  3>
|  4> * xyz 0 1
|  5> Cl     0.249784   -0.974350    1.469255
|  6> Cl     0.249795   -0.974958   -1.468853
|  7> O     -2.276486   -0.317705    0.000014
|  8> O     -1.578642    1.732450   -0.000305
|  9> N     -1.417338    0.529360   -0.000112
| 10> C      1.046188    1.203382   -0.000248
| 11> C      0.088165    0.027254   -0.000009
| 12> C      2.523780    0.818478   -0.000164
| 13> H      0.809962    1.806954    0.875296
| 14> H      0.809968    1.806595   -0.876042
| 15> H      3.125160    1.726672   -0.000357
| 16> H      2.787839    0.239740   -0.883469
| 17> H      2.787837    0.240117    0.883389
| 18> *
| 19>
| 20>                          ****END OF INPUT****

CARTESIAN COORDINATES (ANGSTROEM)
---------------------------------
  Cl     0.249784   -0.974350    1.469255
  Cl     0.249795   -0.974958   -1.468853
  O     -2.276486   -0.317705    0.000014
  O     -1.578642    1.732450   -0.000305
  N     -1.417338    0.529360   -0.000112
  C      1.046188    1.203382   -0.000248
  C      0.088165    0.027254   -0.000009
  C      2.523780    0.818478   -0.000164
  H      0.809962    1.806954    0.875296
  H      0.809968    1.806595   -0.876042
  H      3.125160    1.726672   -0.000357
  H      2.787839    0.239740   -0.883469
  H      2.787837    0.240117    0.883389

 Total Charge           Charge          ....    0
 Multiplicity           Mult            ....    1
 Number of Electrons    NEL             ....   80
 Basis Dimension        Dim             ....  878

ORBITAL ENERGIES
----------------

  NO   OCC          E(Eh)            E(eV)
   0   2.0000    -104.876189     -2853.8262
   1   2.0000    -104.876189     -2853.8262
   2   2.0000     -20.623717      -561.1999
   3   2.0000     -20.622407      -561.1642
   4   2.0000     -15.870120      -431.8479
   5   2.0000     -11.451048      -311.5989
   6   2.0000     -11.274305      -306.7894
   7   2.0000     -11.243979      -305.9642
   8   2.0000     -10.601587      -288.4838
   9   2.0000     -10.601578      -288.4836
  10   2.0000      -8.068574      -219.5570
  11   2.0000      -8.068572      -219.5570
  12   2.0000      -8.066642      -219.5045
  13   2.0000      -8.066642      -219.5045
  14   2.0000      -8.066575      -219.5027
  15   2.0000      -8.066574      -219.5026
  16   2.0000      -1.632728       -44.4288
  17   2.0000      -1.430000       -38.9123
  18   2.0000      -1.242632       -33.8137
  19   2.0000      -1.126198       -30.6454
  20   2.0000      -1.076213       -29.2853
  21   2.0000      -1.013089       -27.5675
  22   2.0000      -0.907303       -24.6890
  23   2.0000      -0.818813       -22.2810
  24   2.0000      -0.760887       -20.7048
  25   2.0000      -0.748338       -20.3633
  26   2.0000      -0.746102       -20.3025
  27   2.0000      -0.669666       -18.2225
  28   2.0000      -0.642006       -17.4699
  29   2.0000      -0.594962       -16.1897
  30   2.0000      -0.581941       -15.8354
  31   2.0000      -0.551306       -15.0018
  32   2.0000      -0.537588       -14.6285
  33   2.0000      -0.525022       -14.2866
  34   2.0000      -0.509443       -13.8626
  35   2.0000      -0.498099       -13.5540
  36   2.0000      -0.489360       -13.3162
  37   2.0000      -0.471482       -12.8297
  38   2.0000      -0.471177       -12.8214
  39   2.0000      -0.466799       -12.7022
  40   0.0000       0.022401         0.6096
  41   0.0000       0.034340         0.9344
  42   0.0000       0.035232         0.9587
  43   0.0000       0.042775         1.1640
  44   0.0000       0.048684         1.3247

MULLIKEN ATOMIC CHARGES
-----------------------
   0 Cl:   -0.299494
   1 Cl:   -0.299491
   2 O :   -0.583654
   3 O :   -0.598850
   4 N :    0.882270
   5 C :   -0.371207
   6 C :    0.634356
   7 C :   -0.784520
   8 H :    0.324592
   9 H :    0.324612
  10 H :    0.259581
  11 H :    0.255905
  12 H :    0.255898
Sum of atomic charges:   -0.0000000

LOEWDIN ATOMIC CHARGES
----------------------
   0 Cl:    1.171599
   1 Cl:    1.171603
   2 O :    0.474647
   3 O :    0.532495
   4 N :   -1.026231
   5 C :    0.212732
   6 C :   -1.814567
   7 C :    0.864706
   8 H :   -0.334664
   9 H :   -0.334657
  10 H :   -0.279113
  11 H :   -0.319276
  12 H :   -0.319274

  Mayer bond orders larger than 0.100000
B(  0-Cl,  6-C ) :   0.6668 B(  1-Cl,  6-C ) :   0.6668 B(  2-O ,  3-O ) :   0.1300
B(  2-O ,  4-N ) :   1.2433 B(  2-O ,  6-C ) :   0.1383 B(  3-O ,  4-N ) :   1.2121
B(  4-N ,  6-C ) :   0.7977 B(  5-C ,  6-C ) :   0.8890 B(  5-C ,  7-C ) :   0.9152
B(  5-C ,  8-H ) :   0.8290 B(  5-C ,  9-H ) :   0.8290 B(  7-C , 10-H ) :   0.9942
B(  7-C , 11-H ) :   0.9360 B(  7-C , 12-H ) :   0.9360

MP2 TOTAL ENERGY:    -1241.457573635 Eh
FINAL SINGLE POINT ENERGY     -1241.457573634663

DIPOLE MOMENT
-------------
                                X             Y             Z
Electronic contribution:     -7.57635      -7.98264       0.00162
Nuclear contribution   :      9.06982       8.21136      -0.00168
                        -----------------------------------------
Total Dipole Moment    :      1.49347       0.22872      -0.00005
                        -----------------------------------------
Magnitude (a.u.)       :      1.51088
Magnitude (Debye)      :      3.84035

Rotational constants in cm-1:     0.054248     0.039483     0.039342
Rotational constants in MHz :  1626.321039  1183.675149  1179.433100

                             ****ORCA TERMINATED NORMALLY****
TOTAL RUN TIME: 0 days 0 hours 28 minutes 2 seconds 533 msec
