                         Program Version 5.0.4 -  RELEASE  -
|  1> !ri-mp2 aug-cc-pvqz aug-cc-pvqz/c tightscf
|  2> %pal nprocs 16 end
|  3>
|  4> * xyz 0 1
|  5> O     -1.482146   -1.542331    0.230188
|  6> O     -0.780161    0.943861    1.241654
|  7> O     -0.288525    1.618368   -0.871586
|  8> O      2.697279    0.071265    0.337982
|  9> N      0.716696   -0.999336   -0.393493
| 10> C     -0.677117   -0.691619   -0.564145
| 11> C     -1.055012    0.730034   -0.123074
| 12> C      1.681516   -0.387203   -0.003450
| 13> H     -1.203672   -2.453161    0.090455
| 14> H     -1.228041    0.256337    1.750743
| 15> H     -0.405482    2.503660   -0.509998
| 16> H     -0.919496   -0.810808   -1.623032
| 17> H     -2.128076    0.862744   -0.315611
| 18> *
| 19>
| 20>                          ****END OF INPUT****

CARTESIAN COORDINATES (ANGSTROEM)
---------------------------------
  O     -1.482146   -1.542331    0.230188
  O     -0.780161    0.943861    1.241654
  O     -0.288525    1.618368   -0.871586
  O      2.697279    0.071265    0.337982
  N      0.716696   -0.999336   -0.393493
  C     -0.677117   -0.691619   -0.564145
  C     -1.055012    0.730034   -0.123074
  C      1.681516   -0.387203   -0.003450
  H     -1.203672   -2.453161    0.090455
  H     -1.228041    0.256337    1.750743
  H     -0.405482    2.503660   -0.509998
  H     -0.919496   -0.810808   -1.623032
  H     -2.128076    0.862744   -0.315611

 Total Charge           Charge          ....    0
 Multiplicity           Mult            ....    1
 Number of Electrons    NEL             ....   62
 Basis Dimension        Dim             ....  870

ORBITAL ENERGIES
----------------

  NO   OCC          E(Eh)            E(eV)
   0   2.0000     -20.606595      -560.7340
   1   2.0000     -20.592155      -560.3410
   2   2.0000     -20.585694      -560.1652
   3   2.0000     -20.580001      -560.0103
   4   2.0000     -15.583360      -424.0448
   5   2.0000     -11.402345      -310.2736
   6   2.0000     -11.358580      -309.0827
   7   2.0000     -11.357870      -309.0634
   8   2.0000      -1.462552       -39.7981
   9   2.0000      -1.441744       -39.2319
  10   2.0000      -1.403342       -38.1869
  11   2.0000      -1.354176       -36.8490
  12   2.0000      -1.267279       -34.4844
  13   2.0000      -1.019217       -27.7343
  14   2.0000      -0.890514       -24.2321
  15   2.0000      -0.788390       -21.4532
  16   2.0000      -0.751202       -20.4412
  17   2.0000      -0.733640       -19.9634
  18   2.0000      -0.728680       -19.8284
  19   2.0000      -0.698434       -19.0054
  20   2.0000      -0.663440       -18.0531
  21   2.0000      -0.641816       -17.4647
  22   2.0000      -0.626394       -17.0451
  23   2.0000      -0.595814       -16.2129
  24   2.0000      -0.578114       -15.7313
  25   2.0000      -0.560610       -15.2550
  26   2.0000      -0.521607       -14.1936
  27   2.0000      -0.506720       -13.7886
  28   2.0000      -0.486809       -13.2467
  29   2.0000      -0.440189       -11.9781
  30   2.0000      -0.430118       -11.7041
  31   0.0000       0.021598         0.5877
  32   0.0000       0.030201         0.8218
  33   0.0000       0.034682         0.9438
  34   0.0000       0.040898         1.1129
  35   0.0000       0.050944         1.3863

MULLIKEN ATOMIC CHARGES
-----------------------
   0 O :   -0.848995
   1 O :   -0.842981
   2 O :   -0.860477
   3 O :   -0.649690
   4 N :   -0.839411
   5 C :    0.563846
   6 C :    0.602116
   7 C :    1.107384
   8 H :    0.314010
   9 H :    0.348556
  10 H :    0.332666
  11 H :    0.433551
  12 H :    0.339424
Sum of atomic charges:   -0.0000000

LOEWDIN ATOMIC CHARGES
----------------------
   0 O :    1.270043
   1 O :    1.279013
   2 O :    1.270200
   3 O :    0.617095
   4 N :    0.495294
   5 C :   -0.529980
   6 C :   -0.644445
   7 C :   -0.753360
   8 H :   -0.777147
   9 H :   -0.810131
  10 H :   -0.770953
  11 H :   -0.331821
  12 H :   -0.313807

  Mayer bond orders larger than 0.100000
B(  0-O ,  5-C ) :   0.5176 B(  0-O ,  8-H ) :   0.9107 B(  1-O ,  6-C ) :   0.5672
B(  1-O ,  9-H ) :   0.8567 B(  2-O ,  6-C ) :   0.7262 B(  2-O , 10-H ) :   0.9058
B(  3-O ,  4-N ) :   0.2961 B(  3-O ,  7-C ) :   1.6181 B(  4-N ,  5-C ) :   0.5505
B(  4-N ,  7-C ) :   2.2067 B(  5-C ,  6-C ) :   0.9460 B(  5-C , 11-H ) :   0.7946
B(  6-C , 12-H ) :   0.8345

MP2 TOTAL ENERGY:     -472.387967100 Eh
FINAL SINGLE POINT ENERGY      -472.387967100200

DIPOLE MOMENT
-------------
                                X             Y             Z
Electronic contribution:      4.48562      -0.69894       0.34794
Nuclear contribution   :     -5.74815       0.36192      -0.58179
                        -----------------------------------------
Total Dipole Moment    :     -1.26253      -0.33702      -0.23385
                        -----------------------------------------
Magnitude (a.u.)       :      1.32750
Magnitude (Debye)      :      3.37422

Rotational constants in cm-1:     0.089729     0.059630     0.045932
Rotational constants in MHz :  2690.015900  1787.651242  1376.995947

                             ****ORCA TERMINATED NORMALLY****
TOTAL RUN TIME: 0 days 0 hours 25 minutes 7 seconds 362 msec
