                         Program Version 5.0.4 -  RELEASE  -
|  1> !ri-mp2 aug-cc-pvqz aug-cc-pvqz/c tightscf
|  2> %pal nprocs 16 end
|  3>
|  4> * xyz 0 1
|  5> Cl     0.551587    1.629115    0.087511
|  6> Cl    -2.244644   -0.339481   -0.083117
|  7> N      2.790232   -1.254867    0.059102
|  8> C      0.482758   -0.120609   -0.375006
|  9> C     -0.599970   -0.872040    0.395411
| 10> C      1.784559   -0.732929   -0.133991
| 11> H      0.269104   -0.138557   -1.441420
| 12> H     -0.528062   -1.933131    0.170399
| 13> H     -0.494775   -0.714549    1.464113
| 14> *
| 15>
| 16>                          ****END OF INPUT****

CARTESIAN COORDINATES (ANGSTROEM)
---------------------------------
  Cl     0.551587    1.629115    0.087511
  Cl    -2.244644   -0.339481   -0.083117
  N      2.790232   -1.254867    0.059102
  C      0.482758   -0.120609   -0.375006
  C     -0.599970   -0.872040    0.395411
  C      1.784559   -0.732929   -0.133991
  H      0.269104   -0.138557   -1.441420
  H     -0.528062   -1.933131    0.170399
  H     -0.494775   -0.714549    1.464113

 Total Charge           Charge          ....    0
 Multiplicity           Mult            ....    1
 Number of Electrons    NEL             ....   62
 Basis Dimension        Dim             ....  626

ORBITAL ENERGIES
----------------

  NO   OCC          E(Eh)            E(eV)
   0   2.0000    -104.864560     -2853.5098
   1   2.0000    -104.854595     -2853.2386
   2   2.0000     -15.601695      -424.5437
   3   2.0000     -11.377993      -309.6109
   4   2.0000     -11.341221      -308.6103
   5   2.0000     -11.302129      -307.5466
   6   2.0000     -10.589608      -288.1579
   7   2.0000     -10.579865      -287.8928
   8   2.0000      -8.056626      -219.2319
   9   2.0000      -8.054732      -219.1804
  10   2.0000      -8.054703      -219.1796
  11   2.0000      -8.046936      -218.9683
  12   2.0000      -8.045183      -218.9205
  13   2.0000      -8.045128      -218.9191
  14   2.0000      -1.258599       -34.2482
  15   2.0000      -1.202722       -32.7277
  16   2.0000      -1.140185       -31.0260
  17   2.0000      -1.032985       -28.1089
  18   2.0000      -0.906300       -24.6617
  19   2.0000      -0.755527       -20.5589
  20   2.0000      -0.696695       -18.9580
  21   2.0000      -0.647207       -17.6114
  22   2.0000      -0.596767       -16.2389
  23   2.0000      -0.590879       -16.0786
  24   2.0000      -0.567228       -15.4350
  25   2.0000      -0.501914       -13.6578
  26   2.0000      -0.498641       -13.5687
  27   2.0000      -0.482018       -13.1164
  28   2.0000      -0.474902       -12.9227
  29   2.0000      -0.464429       -12.6378
  30   2.0000      -0.460808       -12.5392
  31   0.0000       0.023894         0.6502
  32   0.0000       0.031910         0.8683
  33   0.0000       0.039067         1.0631
  34   0.0000       0.050710         1.3799
  35   0.0000       0.059349         1.6150

MULLIKEN ATOMIC CHARGES
-----------------------
   0 Cl:   -0.275234
   1 Cl:   -0.277434
   2 N :   -0.617236
   3 C :    0.097659
   4 C :   -0.376228
   5 C :    0.394385
   6 H :    0.402031
   7 H :    0.321980
   8 H :    0.330078
Sum of atomic charges:   -0.0000000

LOEWDIN ATOMIC CHARGES
----------------------
   0 Cl:    1.166229
   1 Cl:    1.148200
   2 N :    0.421337
   3 C :   -0.754322
   4 C :   -0.281820
   5 C :   -0.423319
   6 H :   -0.454767
   7 H :   -0.405005
   8 H :   -0.416533

  Mayer bond orders larger than 0.100000
B(  0-Cl,  3-C ) :   0.7778 B(  1-Cl,  4-C ) :   0.8554 B(  2-N ,  5-C ) :   2.5749
B(  3-C ,  4-C ) :   0.9755 B(  3-C ,  5-C ) :   0.9967 B(  3-C ,  6-H ) :   0.7635
B(  4-C ,  7-H ) :   0.8354 B(  4-C ,  8-H ) :   0.8424

MP2 TOTAL ENERGY:    -1090.038865353 Eh
FINAL SINGLE POINT ENERGY     -1090.038865353471

DIPOLE MOMENT
-------------
                                X             Y             Z
Electronic contribution:     -2.32459       4.15486      -0.33947
Nuclear contribution   :      1.58250      -4.35689       0.17579
                        -----------------------------------------
Total Dipole Moment    :     -0.74209      -0.20203      -0.16369
                        -----------------------------------------
Magnitude (a.u.)       :      0.78633
Magnitude (Debye)      :      1.99868

Rotational constants in cm-1:     0.113333     0.047750     0.034789
Rotational constants in MHz :  3397.634151  1431.512787  1042.958568

                             ****ORCA TERMINATED NORMALLY****
TOTAL RUN TIME: 0 days 0 hours 7 minutes 22 seconds 866 msec
