                         Program Version 5.0.4 -  RELEASE  -
|  1> !ri-mp2 aug-cc-pvqz aug-cc-pvqz/c tightscf
|  2> %pal nprocs 16 end
|  3>
|  4> * xyz 0 1
|  5> C      0.645337   -1.483107    0.000000
|  6> C      1.115639   -0.197648    0.000000
|  7> C     -1.077575   -0.225768    0.000000
|  8> C     -0.022919    2.058005    0.000000
|  9> N     -0.726800   -1.489807    0.000000
| 10> N      0.000000    0.608310    0.000000
| 11> H      1.214722   -2.396921    0.000000
| 12> H      2.111503    0.208433    0.000000
| 13> H     -2.087758    0.150798    0.000000
| 14> H      0.471699    2.452768    0.887470
| 15> H      0.471699    2.452768   -0.887470
| 16> H     -1.057157    2.393731    0.000000
| 17> *
| 18>
| 19>                          ****END OF INPUT****

CARTESIAN COORDINATES (ANGSTROEM)
---------------------------------
  C      0.645337   -1.483107    0.000000
  C      1.115639   -0.197648    0.000000
  C     -1.077575   -0.225768    0.000000
  C     -0.022919    2.058005    0.000000
  N     -0.726800   -1.489807    0.000000
  N      0.000000    0.608310    0.000000
  H      1.214722   -2.396921    0.000000
  H      2.111503    0.208433    0.000000
  H     -2.087758    0.150798    0.000000
  H      0.471699    2.452768    0.887470
  H      0.471699    2.452768   -0.887470
  H     -1.057157    2.393731    0.000000

 Total Charge           Charge          ....    0
 Multiplicity           Mult            ....    1
 Number of Electrons    NEL             ....   44
 Basis Dimension        Dim             ....  756

ORBITAL ENERGIES
----------------

  NO   OCC          E(Eh)            E(eV)
   0   2.0000     -15.618862      -425.0108
   1   2.0000     -15.537207      -422.7889
   2   2.0000     -11.288884      -307.1861
   3   2.0000     -11.284431      -307.0650
   4   2.0000     -11.252616      -306.1992
   5   2.0000     -11.238401      -305.8124
   6   2.0000      -1.343585       -36.5608
   7   2.0000      -1.182348       -32.1733
   8   2.0000      -1.013815       -27.5873
   9   2.0000      -0.967061       -26.3151
  10   2.0000      -0.805358       -21.9149
  11   2.0000      -0.784687       -21.3524
  12   2.0000      -0.720616       -19.6090
  13   2.0000      -0.651367       -17.7246
  14   2.0000      -0.619875       -16.8676
  15   2.0000      -0.591162       -16.0863
  16   2.0000      -0.575419       -15.6579
  17   2.0000      -0.557952       -15.1826
  18   2.0000      -0.553050       -15.0493
  19   2.0000      -0.431070       -11.7300
  20   2.0000      -0.383418       -10.4333
  21   2.0000      -0.317146        -8.6300
  22   0.0000       0.019658         0.5349
  23   0.0000       0.029979         0.8158
  24   0.0000       0.036570         0.9951
  25   0.0000       0.037021         1.0074
  26   0.0000       0.046034         1.2527

MULLIKEN ATOMIC CHARGES
-----------------------
   0 C :   -0.104965
   1 C :   -0.398198
   2 C :    0.136951
   3 C :   -0.787585
   4 N :   -0.847156
   5 N :   -0.235015
   6 H :    0.485206
   7 H :    0.320378
   8 H :    0.553556
   9 H :    0.295352
  10 H :    0.295352
  11 H :    0.286124
Sum of atomic charges:    0.0000000

LOEWDIN ATOMIC CHARGES
----------------------
   0 C :    0.045099
   1 C :    0.173142
   2 C :   -0.089897
   3 C :    0.814744
   4 N :    0.551017
   5 N :    0.350523
   6 H :   -0.353345
   7 H :   -0.308986
   8 H :   -0.320731
   9 H :   -0.278860
  10 H :   -0.278860
  11 H :   -0.303846

  Mayer bond orders larger than 0.100000
B(  0-C ,  1-C ) :   1.5600 B(  0-C ,  4-N ) :   0.9949 B(  0-C ,  5-N ) :  -0.1250
B(  0-C ,  6-H ) :   0.8221 B(  1-C ,  4-N ) :   0.1496 B(  1-C ,  5-N ) :   1.0319
B(  1-C ,  7-H ) :   1.0006 B(  2-C ,  4-N ) :   1.5164 B(  2-C ,  5-N ) :   1.3194
B(  2-C ,  8-H ) :   0.6830 B(  3-C ,  5-N ) :   0.7239 B(  3-C ,  9-H ) :   0.9545
B(  3-C , 10-H ) :   0.9545 B(  3-C , 11-H ) :   0.9352

MP2 TOTAL ENERGY:     -265.087878151 Eh
FINAL SINGLE POINT ENERGY      -265.087878151182

DIPOLE MOMENT
-------------
                                X             Y             Z
Electronic contribution:     -0.73039      -3.67798       0.00000
Nuclear contribution   :      1.12766       5.29028       0.00000
                        -----------------------------------------
Total Dipole Moment    :      0.39728       1.61231       0.00000
                        -----------------------------------------
Magnitude (a.u.)       :      1.66053
Magnitude (Debye)      :      4.22074

Rotational constants in cm-1:     0.307477     0.120703     0.088116
Rotational constants in MHz :  9217.937616  3618.574322  2641.641924

                             ****ORCA TERMINATED NORMALLY****
TOTAL RUN TIME: 0 days 0 hours 14 minutes 25 seconds 470 msec
