                         Program Version 5.0.4 -  RELEASE  -
|  1> !ri-mp2 aug-cc-pvqz aug-cc-pvqz/c tightscf
|  2> %pal nprocs 16 end
|  3>
|  4> * xyz 0 1
|  5> C     0.566910   -0.338873    0.000000
|  6> C    -0.170872    1.010509    0.000000
|  7> H     1.633086   -0.144099    0.000000
|  8> Cl    0.182082   -1.256529    1.476575
|  9> Cl    0.182082   -1.256529   -1.476575
| 10> F    -1.497512    0.873510    0.000000
| 11> F     0.182082    1.720816    1.083344
| 12> F     0.182082    1.720816   -1.083344
| 13> *
| 14>
| 15>                          ****END OF INPUT****

CARTESIAN COORDINATES (ANGSTROEM)
---------------------------------
  C      0.566910   -0.338873    0.000000
  C     -0.170872    1.010509    0.000000
  H      1.633086   -0.144099    0.000000
  Cl     0.182082   -1.256529    1.476575
  Cl     0.182082   -1.256529   -1.476575
  F     -1.497512    0.873510    0.000000
  F      0.182082    1.720816    1.083344
  F      0.182082    1.720816   -1.083344

 Total Charge           Charge          ....    0
 Multiplicity           Mult            ....    1
 Number of Electrons    NEL             ....   74
 Basis Dimension        Dim             ....  614

ORBITAL ENERGIES
----------------

  NO   OCC          E(Eh)            E(eV)
   0   2.0000    -104.871983     -2853.7117
   1   2.0000    -104.871982     -2853.7117
   2   2.0000     -26.357702      -717.2295
   3   2.0000     -26.357688      -717.2292
   4   2.0000     -26.357652      -717.2282
   5   2.0000     -11.539704      -314.0113
   6   2.0000     -11.406291      -310.3810
   7   2.0000     -10.597193      -288.3643
   8   2.0000     -10.597185      -288.3641
   9   2.0000      -8.064245      -219.4392
  10   2.0000      -8.064243      -219.4392
  11   2.0000      -8.062301      -219.3864
  12   2.0000      -8.062300      -219.3863
  13   2.0000      -8.062235      -219.3846
  14   2.0000      -8.062234      -219.3845
  15   2.0000      -1.750883       -47.6439
  16   2.0000      -1.656673       -45.0804
  17   2.0000      -1.654857       -45.0309
  18   2.0000      -1.226963       -33.3874
  19   2.0000      -1.119886       -30.4736
  20   2.0000      -1.030836       -28.0505
  21   2.0000      -0.918976       -25.0066
  22   2.0000      -0.848116       -23.0784
  23   2.0000      -0.844156       -22.9706
  24   2.0000      -0.801359       -21.8061
  25   2.0000      -0.733517       -19.9600
  26   2.0000      -0.731254       -19.8984
  27   2.0000      -0.690557       -18.7910
  28   2.0000      -0.686251       -18.6738
  29   2.0000      -0.670397       -18.2424
  30   2.0000      -0.655907       -17.8481
  31   2.0000      -0.616032       -16.7631
  32   2.0000      -0.605091       -16.4654
  33   2.0000      -0.497901       -13.5486
  34   2.0000      -0.494649       -13.4601
  35   2.0000      -0.473953       -12.8969
  36   2.0000      -0.468264       -12.7421
  37   0.0000       0.027947         0.7605
  38   0.0000       0.051011         1.3881
  39   0.0000       0.053879         1.4661
  40   0.0000       0.055568         1.5121
  41   0.0000       0.080706         2.1961

MULLIKEN ATOMIC CHARGES
-----------------------
   0 C :   -0.107641
   1 C :    1.861429
   2 H :    0.413423
   3 Cl:   -0.191388
   4 Cl:   -0.191388
   5 F :   -0.595172
   6 F :   -0.594631
   7 F :   -0.594631
Sum of atomic charges:    0.0000000

LOEWDIN ATOMIC CHARGES
----------------------
   0 C :   -1.434500
   1 C :   -2.417308
   2 H :   -0.569515
   3 Cl:    1.097183
   4 Cl:    1.097183
   5 F :    0.740475
   6 F :    0.743242
   7 F :    0.743242

  Mayer bond orders larger than 0.100000
B(  0-C ,  1-C ) :   0.9698 B(  0-C ,  2-H ) :   0.7588 B(  0-C ,  3-Cl) :   0.8518
B(  0-C ,  4-Cl) :   0.8518 B(  1-C ,  5-F ) :   0.4896 B(  1-C ,  6-F ) :   0.4901
B(  1-C ,  7-F ) :   0.4901

MP2 TOTAL ENERGY:    -1295.448551937 Eh
FINAL SINGLE POINT ENERGY     -1295.448551936899

DIPOLE MOMENT
-------------
                                X             Y             Z
Electronic contribution:     -1.46092       0.56357      -0.00000
Nuclear contribution   :      2.02779      -0.73644       0.00000
                        -----------------------------------------
Total Dipole Moment    :      0.56687      -0.17286      -0.00000
                        -----------------------------------------
Magnitude (a.u.)       :      0.59264
Magnitude (Debye)      :      1.50638

Rotational constants in cm-1:     0.068331     0.055144     0.036858
Rotational constants in MHz :  2048.498705  1653.171459  1104.964849

                             ****ORCA TERMINATED NORMALLY****
TOTAL RUN TIME: 0 days 0 hours 8 minutes 56 seconds 949 msec
