                         Program Version 5.0.4 -  RELEASE  -
|  1> !ri-mp2 aug-cc-pvqz aug-cc-pvqz/c tightscf
|  2> %pal nprocs 16 end
|  3>
|  4> * xyz 0 1
|  5> C      0.000000    1.283548        0.000000
|  6> N      1.195886    0.688755        0.000000
|  7> N     -1.187170    0.683937        0.000000
|  8> C      1.154952   -0.633315        0.000000
|  9> C     -0.067010   -1.302568        0.000000
| 10> N     -1.219098   -0.643966        0.000000
| 11> H     -0.131661   -2.382786        0.000000
| 12> H      2.096736   -1.170292        0.000000
| 13> H     -0.020059    2.366010        0.000000
| 14> *
| 15>
| 16>                          ****END OF INPUT****

CARTESIAN COORDINATES (ANGSTROEM)
---------------------------------
  C      0.000000    1.283548    0.000000
  N      1.195886    0.688755    0.000000
  N     -1.187170    0.683937    0.000000
  C      1.154952   -0.633315    0.000000
  C     -0.067010   -1.302568    0.000000
  N     -1.219098   -0.643966    0.000000
  H     -0.131661   -2.382786    0.000000
  H      2.096736   -1.170292    0.000000
  H     -0.020059    2.366010    0.000000

 Total Charge           Charge          ....    0
 Multiplicity           Mult            ....    1
 Number of Electrons    NEL             ....   42
 Basis Dimension        Dim             ....  618

ORBITAL ENERGIES
----------------

  NO   OCC          E(Eh)            E(eV)
   0   2.0000     -15.640528      -425.6004
   1   2.0000     -15.620738      -425.0619
   2   2.0000     -15.605698      -424.6526
   3   2.0000     -11.324858      -308.1650
   4   2.0000     -11.317120      -307.9545
   5   2.0000     -11.294939      -307.3509
   6   2.0000      -1.386395       -37.7257
   7   2.0000      -1.261328       -34.3225
   8   2.0000      -1.138142       -30.9704
   9   2.0000      -0.952294       -25.9132
  10   2.0000      -0.926026       -25.1984
  11   2.0000      -0.749458       -20.3938
  12   2.0000      -0.745055       -20.2740
  13   2.0000      -0.680747       -18.5241
  14   2.0000      -0.617515       -16.8034
  15   2.0000      -0.614056       -16.7093
  16   2.0000      -0.525353       -14.2956
  17   2.0000      -0.500134       -13.6093
  18   2.0000      -0.463191       -12.6041
  19   2.0000      -0.411600       -11.2002
  20   2.0000      -0.403333       -10.9752
  21   0.0000       0.021285         0.5792
  22   0.0000       0.032607         0.8873
  23   0.0000       0.035178         0.9572
  24   0.0000       0.048568         1.3216
  25   0.0000       0.063740         1.7344

MULLIKEN ATOMIC CHARGES
-----------------------
   0 C :   -0.107977
   1 N :   -0.435424
   2 N :   -0.285046
   3 C :   -0.268063
   4 C :   -0.116134
   5 N :   -0.357047
   6 H :    0.472287
   7 H :    0.488182
   8 H :    0.609223
Sum of atomic charges:    0.0000000

LOEWDIN ATOMIC CHARGES
----------------------
   0 C :   -0.219860
   1 N :    0.580812
   2 N :    0.320753
   3 C :    0.053967
   4 C :    0.039551
   5 N :    0.323450
   6 H :   -0.365188
   7 H :   -0.341621
   8 H :   -0.391863

  Mayer bond orders larger than 0.100000
B(  0-C ,  1-N ) :   1.3626 B(  0-C ,  2-N ) :   1.4033 B(  0-C ,  8-H ) :   0.6665
B(  1-N ,  3-C ) :   1.2402 B(  2-N ,  5-N ) :   0.8917 B(  3-C ,  4-C ) :   1.2354
B(  3-C ,  5-N ) :   0.1436 B(  3-C ,  7-H ) :   0.8195 B(  4-C ,  5-N ) :   1.1923
B(  4-C ,  6-H ) :   0.8388 B(  5-N ,  6-H ) :  -0.1070

MP2 TOTAL ENERGY:     -279.885444538 Eh
FINAL SINGLE POINT ENERGY      -279.885444538418

DIPOLE MOMENT
-------------
                                X             Y             Z
Electronic contribution:     -0.94201       0.60322       0.00000
Nuclear contribution   :      1.88535      -1.15071       0.00000
                        -----------------------------------------
Total Dipole Moment    :      0.94334      -0.54749       0.00000
                        -----------------------------------------
Magnitude (a.u.)       :      1.09071
Magnitude (Debye)      :      2.77236

Rotational constants in cm-1:     0.220686     0.207093     0.106837
Rotational constants in MHz :  6616.011043  6208.497939  3202.889949

                             ****ORCA TERMINATED NORMALLY****
TOTAL RUN TIME: 0 days 0 hours 9 minutes 54 seconds 914 msec
