                         Program Version 5.0.4 -  RELEASE  -
|  1> !ri-mp2 aug-cc-pvqz aug-cc-pvqz/c tightscf
|  2> %pal nprocs 16 end
|  3>
|  4> * xyz 0 1
|  5> C      0.662598   -0.995432        0.000000
|  6> C     -0.743268   -0.890370        0.000000
|  7> C      1.107645    0.307032        0.000000
|  8> N     -1.142688    0.375589        0.000000
|  9> N      0.000000    1.085189        0.000000
| 10> H      1.262650   -1.887482        0.000000
| 11> H     -1.475618   -1.680369        0.000000
| 12> H      2.098322    0.726839        0.000000
| 13> H     -0.048386    2.088195        0.000000
| 14> *
| 15>
| 16>                          ****END OF INPUT****

CARTESIAN COORDINATES (ANGSTROEM)
---------------------------------
  C      0.662598   -0.995432    0.000000
  C     -0.743268   -0.890370    0.000000
  C      1.107645    0.307032    0.000000
  N     -1.142688    0.375589    0.000000
  N      0.000000    1.085189    0.000000
  H      1.262650   -1.887482    0.000000
  H     -1.475618   -1.680369    0.000000
  H      2.098322    0.726839    0.000000
  H     -0.048386    2.088195    0.000000

 Total Charge           Charge          ....    0
 Multiplicity           Mult            ....    1
 Number of Electrons    NEL             ....   36
 Basis Dimension        Dim             ....  584

ORBITAL ENERGIES
----------------

  NO   OCC          E(Eh)            E(eV)
   0   2.0000     -15.638503      -425.5453
   1   2.0000     -15.585446      -424.1015
   2   2.0000     -11.277628      -306.8799
   3   2.0000     -11.251694      -306.1742
   4   2.0000     -11.220999      -305.3389
   5   2.0000      -1.376185       -37.4479
   6   2.0000      -1.098512       -29.8920
   7   2.0000      -1.052786       -28.6478
   8   2.0000      -0.825935       -22.4748
   9   2.0000      -0.802399       -21.8344
  10   2.0000      -0.744708       -20.2645
  11   2.0000      -0.612529       -16.6678
  12   2.0000      -0.609002       -16.5718
  13   2.0000      -0.593773       -16.1574
  14   2.0000      -0.565077       -15.3765
  15   2.0000      -0.460085       -12.5195
  16   2.0000      -0.366689        -9.9781
  17   2.0000      -0.347851        -9.4655
  18   0.0000       0.021859         0.5948
  19   0.0000       0.031345         0.8529
  20   0.0000       0.035451         0.9647
  21   0.0000       0.047290         1.2868
  22   0.0000       0.070296         1.9129

MULLIKEN ATOMIC CHARGES
-----------------------
   0 C :   -0.632099
   1 C :   -0.213918
   2 C :   -0.168153
   3 N :   -0.438627
   4 N :   -0.205095
   5 H :    0.458257
   6 H :    0.490425
   7 H :    0.453532
   8 H :    0.255679
Sum of atomic charges:    0.0000000

LOEWDIN ATOMIC CHARGES
----------------------
   0 C :    0.290882
   1 C :    0.018818
   2 C :    0.173480
   3 N :    0.461750
   4 N :    0.538088
   5 H :   -0.340538
   6 H :   -0.354483
   7 H :   -0.304345
   8 H :   -0.483652

  Mayer bond orders larger than 0.100000
B(  0-C ,  1-C ) :   1.2812 B(  0-C ,  2-C ) :   1.5258 B(  0-C ,  5-H ) :   0.7865
B(  1-C ,  2-C ) :  -0.1687 B(  1-C ,  3-N ) :   1.5226 B(  1-C ,  6-H ) :   0.8102
B(  2-C ,  4-N ) :   1.1491 B(  2-C ,  7-H ) :   0.8438 B(  3-N ,  4-N ) :   0.6832
B(  4-N ,  8-H ) :   1.0062

MP2 TOTAL ENERGY:     -225.840880155 Eh
FINAL SINGLE POINT ENERGY      -225.840880154579

DIPOLE MOMENT
-------------
                                X             Y             Z
Electronic contribution:     -0.91602       1.01520      -0.00000
Nuclear contribution   :      1.81767      -0.73912       0.00000
                        -----------------------------------------
Total Dipole Moment    :      0.90165       0.27608      -0.00000
                        -----------------------------------------
Magnitude (a.u.)       :      0.94297
Magnitude (Debye)      :      2.39684

Rotational constants in cm-1:     0.322655     0.316485     0.159770
Rotational constants in MHz :  9672.958928  9487.967290  4789.785048

                             ****ORCA TERMINATED NORMALLY****
TOTAL RUN TIME: 0 days 0 hours 6 minutes 11 seconds 963 msec
