                         Program Version 5.0.4 -  RELEASE  -
|  1> !ri-mp2 aug-cc-pvqz aug-cc-pvqz/c tightscf
|  2> %pal nprocs 16 end
|  3>
|  4> * xyz 0 1
|  5> C     0.000000    1.290037   -0.095700
|  6> S     0.000000    0.000000    1.123017
|  7> C     0.000000   -1.290037   -0.095700
|  8> S     0.098380   -2.902976    0.183152
|  9> S    -0.098380    2.902976    0.183152
| 10> N     0.082142    0.693918   -1.317219
| 11> N    -0.082142   -0.693918   -1.317219
| 12> H    -0.281158    1.189103   -2.119842
| 13> H     0.281158   -1.189103   -2.119842
| 14> *
| 15>
| 16>                          ****END OF INPUT****

CARTESIAN COORDINATES (ANGSTROEM)
---------------------------------
  C      0.000000    1.290037   -0.095700
  S      0.000000    0.000000    1.123017
  C      0.000000   -1.290037   -0.095700
  S      0.098380   -2.902976    0.183152
  S     -0.098380    2.902976    0.183152
  N      0.082142    0.693918   -1.317219
  N     -0.082142   -0.693918   -1.317219
  H     -0.281158    1.189103   -2.119842
  H      0.281158   -1.189103   -2.119842

 Total Charge           Charge          ....    0
 Multiplicity           Mult            ....    1
 Number of Electrons    NEL             ....   76
 Basis Dimension        Dim             ....  664

ORBITAL ENERGIES
----------------

  NO   OCC          E(Eh)            E(eV)
   0   2.0000     -92.037724     -2504.4738
   1   2.0000     -91.937250     -2501.7398
   2   2.0000     -91.937250     -2501.7398
   3   2.0000     -15.688766      -426.9130
   4   2.0000     -15.688234      -426.8986
   5   2.0000     -11.410383      -310.4923
   6   2.0000     -11.410369      -310.4919
   7   2.0000      -9.039222      -245.9697
   8   2.0000      -8.941083      -243.2992
   9   2.0000      -8.941082      -243.2992
  10   2.0000      -6.720079      -182.8626
  11   2.0000      -6.719202      -182.8388
  12   2.0000      -6.718378      -182.8164
  13   2.0000      -6.622672      -180.2121
  14   2.0000      -6.622671      -180.2121
  15   2.0000      -6.621023      -180.1672
  16   2.0000      -6.621022      -180.1672
  17   2.0000      -6.620258      -180.1464
  18   2.0000      -6.620257      -180.1464
  19   2.0000      -1.430678       -38.9307
  20   2.0000      -1.221589       -33.2411
  21   2.0000      -1.135866       -30.9085
  22   2.0000      -1.005279       -27.3550
  23   2.0000      -0.995683       -27.0939
  24   2.0000      -0.872463       -23.7409
  25   2.0000      -0.814906       -22.1747
  26   2.0000      -0.781752       -21.2726
  27   2.0000      -0.701405       -19.0862
  28   2.0000      -0.652773       -17.7628
  29   2.0000      -0.584222       -15.8975
  30   2.0000      -0.547980       -14.9113
  31   2.0000      -0.542657       -14.7664
  32   2.0000      -0.521495       -14.1906
  33   2.0000      -0.482670       -13.1341
  34   2.0000      -0.370215       -10.0741
  35   2.0000      -0.363196        -9.8831
  36   2.0000      -0.352738        -9.5985
  37   2.0000      -0.349927        -9.5220
  38   0.0000       0.013252         0.3606
  39   0.0000       0.033902         0.9225
  40   0.0000       0.047981         1.3056
  41   0.0000       0.048286         1.3139
  42   0.0000       0.051672         1.4061

MULLIKEN ATOMIC CHARGES
-----------------------
   0 C :   -0.284088
   1 S :    0.456108
   2 C :   -0.284088
   3 S :   -0.046800
   4 S :   -0.046800
   5 N :   -0.231125
   6 N :   -0.231125
   7 H :    0.333959
   8 H :    0.333959
Sum of atomic charges:   -0.0000000

LOEWDIN ATOMIC CHARGES
----------------------
   0 C :   -1.501249
   1 S :    1.156512
   2 C :   -1.501249
   3 S :    0.945300
   4 S :    0.945300
   5 N :    0.501317
   6 N :    0.501317
   7 H :   -0.523623
   8 H :   -0.523623

  Mayer bond orders larger than 0.100000
B(  0-C ,  1-S ) :   1.0756 B(  0-C ,  2-C ) :  -0.1331 B(  0-C ,  4-S ) :   1.4779
B(  0-C ,  5-N ) :   1.1798 B(  1-S ,  2-C ) :   1.0756 B(  2-C ,  3-S ) :   1.4779
B(  2-C ,  6-N ) :   1.1798 B(  5-N ,  6-N ) :   0.7152 B(  5-N ,  7-H ) :   0.8885
B(  6-N ,  8-H ) :   0.8885

MP2 TOTAL ENERGY:    -1379.810151239 Eh
FINAL SINGLE POINT ENERGY     -1379.810151239059

DIPOLE MOMENT
-------------
                                X             Y             Z
Electronic contribution:      0.00000      -0.00000       2.68103
Nuclear contribution   :      0.00000       0.00000      -4.08642
                        -----------------------------------------
Total Dipole Moment    :      0.00000      -0.00000      -1.40540
                        -----------------------------------------
Magnitude (a.u.)       :      1.40540
Magnitude (Debye)      :      3.57223

Rotational constants in cm-1:     0.167223     0.028207     0.024168
Rotational constants in MHz :  5013.209785   845.621398   724.528552

                             ****ORCA TERMINATED NORMALLY****
TOTAL RUN TIME: 0 days 0 hours 11 minutes 51 seconds 390 msec
