                         Program Version 5.0.4 -  RELEASE  -
|  1> !ri-mp2 aug-cc-pvqz aug-cc-pvqz/c tightscf
|  2> %pal nprocs 16 end
|  3>
|  4> * xyz 0 1
|  5> H      0.551499   -2.301909    0.000000
|  6> H      1.666462   -0.888490    0.000000
|  7> C      0.613674   -1.217264    0.000000
|  8> O     -0.017447   -0.764404    1.171597
|  9> O     -0.017447   -0.764404   -1.171597
| 10> H     -0.553642    0.923256   -2.152989
| 11> H      1.017015    1.020150   -1.338331
| 12> C     -0.017447    0.661398   -1.242927
| 13> H      1.017015    1.020150    1.338331
| 14> H     -0.553642    0.923256    2.152989
| 15> C     -0.017447    0.661398    1.242927
| 16> H     -0.568831    2.344294    0.000000
| 17> H     -1.736457    1.016352    0.000000
| 18> C     -0.672158    1.256703    0.000000
| 19> *
| 20>
| 21>                          ****END OF INPUT****

CARTESIAN COORDINATES (ANGSTROEM)
---------------------------------
  H      0.551499   -2.301909    0.000000
  H      1.666462   -0.888490    0.000000
  C      0.613674   -1.217264    0.000000
  O     -0.017447   -0.764404    1.171597
  O     -0.017447   -0.764404   -1.171597
  H     -0.553642    0.923256   -2.152989
  H      1.017015    1.020150   -1.338331
  C     -0.017447    0.661398   -1.242927
  H      1.017015    1.020150    1.338331
  H     -0.553642    0.923256    2.152989
  C     -0.017447    0.661398    1.242927
  H     -0.568831    2.344294    0.000000
  H     -1.736457    1.016352    0.000000
  C     -0.672158    1.256703    0.000000

 Total Charge           Charge          ....    0
 Multiplicity           Mult            ....    1
 Number of Electrons    NEL             ....   48
 Basis Dimension        Dim             ....  848

ORBITAL ENERGIES
----------------

  NO   OCC          E(Eh)            E(eV)
   0   2.0000     -20.559165      -559.4433
   1   2.0000     -20.559146      -559.4428
   2   2.0000     -11.324825      -308.1641
   3   2.0000     -11.280672      -306.9627
   4   2.0000     -11.280667      -306.9625
   5   2.0000     -11.228554      -305.5445
   6   2.0000      -1.419070       -38.6149
   7   2.0000      -1.342303       -36.5259
   8   2.0000      -1.066805       -29.0292
   9   2.0000      -0.918553       -24.9951
  10   2.0000      -0.912960       -24.8429
  11   2.0000      -0.798199       -21.7201
  12   2.0000      -0.705356       -19.1937
  13   2.0000      -0.666900       -18.1473
  14   2.0000      -0.653845       -17.7920
  15   2.0000      -0.636304       -17.3147
  16   2.0000      -0.615573       -16.7506
  17   2.0000      -0.567544       -15.4437
  18   2.0000      -0.566669       -15.4199
  19   2.0000      -0.511939       -13.9306
  20   2.0000      -0.483523       -13.1573
  21   2.0000      -0.479628       -13.0513
  22   2.0000      -0.431982       -11.7548
  23   2.0000      -0.428262       -11.6536
  24   0.0000       0.024927         0.6783
  25   0.0000       0.033110         0.9010
  26   0.0000       0.034076         0.9273
  27   0.0000       0.036206         0.9852
  28   0.0000       0.049350         1.3429

MULLIKEN ATOMIC CHARGES
-----------------------
   0 H :    0.518620
   1 H :    0.195729
   2 C :    0.117259
   3 O :   -0.908646
   4 O :   -0.908646
   5 H :    0.438876
   6 H :    0.176645
   7 C :   -0.065864
   8 H :    0.176645
   9 H :    0.438876
  10 C :   -0.065864
  11 H :    0.322901
  12 H :    0.219851
  13 C :   -0.656382
Sum of atomic charges:    0.0000000

LOEWDIN ATOMIC CHARGES
----------------------
   0 H :   -0.350687
   1 H :   -0.324761
   2 C :   -0.203967
   3 O :    0.888361
   4 O :    0.888361
   5 H :   -0.304532
   6 H :   -0.295508
   7 C :    0.173170
   8 H :   -0.295508
   9 H :   -0.304532
  10 C :    0.173170
  11 H :   -0.270352
  12 H :   -0.278355
  13 C :    0.505138

  Mayer bond orders larger than 0.100000
B(  0-H ,  2-C ) :   0.6772 B(  1-H ,  2-C ) :   0.9687 B(  2-C ,  3-O ) :   0.8261
B(  2-C ,  4-O ) :   0.8261 B(  3-O , 10-C ) :   0.7097 B(  4-O ,  7-C ) :   0.7097
B(  5-H ,  7-C ) :   0.7839 B(  6-H ,  7-C ) :   0.9703 B(  7-C , 13-C ) :   1.0127
B(  8-H , 10-C ) :   0.9703 B(  9-H , 10-C ) :   0.7839 B( 10-C , 13-C ) :   1.0127
B( 11-H , 13-C ) :   0.8751 B( 12-H , 13-C ) :   0.8765

MP2 TOTAL ENERGY:     -307.209145959 Eh
FINAL SINGLE POINT ENERGY      -307.209145958875

DIPOLE MOMENT
-------------
                                X             Y             Z
Electronic contribution:     -0.51468      -3.27441      -0.00000
Nuclear contribution   :      0.85831       4.12641       0.00000
                        -----------------------------------------
Total Dipole Moment    :      0.34362       0.85199      -0.00000
                        -----------------------------------------
Magnitude (a.u.)       :      0.91868
Magnitude (Debye)      :      2.33510

Rotational constants in cm-1:     0.166156     0.160341     0.091470
Rotational constants in MHz :  4981.225016  4806.893536  2742.199326

                             ****ORCA TERMINATED NORMALLY****
TOTAL RUN TIME: 0 days 0 hours 26 minutes 35 seconds 389 msec
