                         Program Version 5.0.4 -  RELEASE  -
|  1> !ri-mp2 aug-cc-pvqz aug-cc-pvqz/c tightscf
|  2> %pal nprocs 16 end
|  3>
|  4> * xyz 0 1
|  5> C      0.016027    0.345002    0.000000
|  6> C     -1.158543    1.289602    0.000000
|  7> F      1.179679    1.042816    0.000000
|  8> Cl     0.016027   -0.698667    1.468731
|  9> Cl     0.016027   -0.698667   -1.468731
| 10> H     -2.090468    0.731884    0.000000
| 11> H     -1.108226    1.914914    0.889721
| 12> H     -1.108226    1.914914   -0.889721
| 13> *
| 14>
| 15>                          ****END OF INPUT****

CARTESIAN COORDINATES (ANGSTROEM)
---------------------------------
  C      0.016027    0.345002    0.000000
  C     -1.158543    1.289602    0.000000
  F      1.179679    1.042816    0.000000
  Cl     0.016027   -0.698667    1.468731
  Cl     0.016027   -0.698667   -1.468731
  H     -2.090468    0.731884    0.000000
  H     -1.108226    1.914914    0.889721
  H     -1.108226    1.914914   -0.889721

 Total Charge           Charge          ....    0
 Multiplicity           Mult            ....    1
 Number of Electrons    NEL             ....   58
 Basis Dimension        Dim             ....  546

ORBITAL ENERGIES
----------------

  NO   OCC          E(Eh)            E(eV)
   0   2.0000    -104.855427     -2853.2612
   1   2.0000    -104.855427     -2853.2612
   2   2.0000     -26.333644      -716.5749
   3   2.0000     -11.465173      -311.9832
   4   2.0000     -11.260952      -306.4261
   5   2.0000     -10.581079      -287.9258
   6   2.0000     -10.581069      -287.9255
   7   2.0000      -8.048021      -218.9978
   8   2.0000      -8.048018      -218.9977
   9   2.0000      -8.046225      -218.9489
  10   2.0000      -8.046224      -218.9489
  11   2.0000      -8.046186      -218.9478
  12   2.0000      -8.046185      -218.9478
  13   2.0000      -1.658753       -45.1370
  14   2.0000      -1.194674       -32.5087
  15   2.0000      -1.105810       -30.0906
  16   2.0000      -1.031020       -28.0555
  17   2.0000      -0.861801       -23.4508
  18   2.0000      -0.737447       -20.0670
  19   2.0000      -0.736492       -20.0410
  20   2.0000      -0.712682       -19.3931
  21   2.0000      -0.620420       -16.8825
  22   2.0000      -0.590440       -16.0667
  23   2.0000      -0.578642       -15.7456
  24   2.0000      -0.534362       -14.5407
  25   2.0000      -0.494960       -13.4686
  26   2.0000      -0.472550       -12.8588
  27   2.0000      -0.472118       -12.8470
  28   2.0000      -0.452344       -12.3089
  29   0.0000       0.026087         0.7098
  30   0.0000       0.041442         1.1277
  31   0.0000       0.041659         1.1336
  32   0.0000       0.054556         1.4846
  33   0.0000       0.068426         1.8620

MULLIKEN ATOMIC CHARGES
-----------------------
   0 C :    0.936774
   1 C :   -0.812427
   2 F :   -0.597779
   3 Cl:   -0.223432
   4 Cl:   -0.223432
   5 H :    0.313493
   6 H :    0.303402
   7 H :    0.303402
Sum of atomic charges:    0.0000000

LOEWDIN ATOMIC CHARGES
----------------------
   0 C :   -2.312909
   1 C :    0.620323
   2 F :    0.645207
   3 Cl:    1.029568
   4 Cl:    1.029568
   5 H :   -0.345983
   6 H :   -0.332887
   7 H :   -0.332887

  Mayer bond orders larger than 0.100000
B(  0-C ,  1-C ) :   0.9551 B(  0-C ,  2-F ) :   0.4296 B(  0-C ,  3-Cl) :   0.8373
B(  0-C ,  4-Cl) :   0.8373 B(  1-C ,  5-H ) :   0.9142 B(  1-C ,  6-H ) :   0.8887
B(  1-C ,  7-H ) :   0.8887

MP2 TOTAL ENERGY:    -1097.107352614 Eh
FINAL SINGLE POINT ENERGY     -1097.107352613817

DIPOLE MOMENT
-------------
                                X             Y             Z
Electronic contribution:      4.41658      -4.65437       0.00000
Nuclear contribution   :     -5.13934       5.15157       0.00000
                        -----------------------------------------
Total Dipole Moment    :     -0.72276       0.49719       0.00000
                        -----------------------------------------
Magnitude (a.u.)       :      0.87726
Magnitude (Debye)      :      2.22982

Rotational constants in cm-1:     0.126222     0.082743     0.070557
Rotational constants in MHz :  3784.047840  2480.560673  2115.233668

                             ****ORCA TERMINATED NORMALLY****
TOTAL RUN TIME: 0 days 0 hours 6 minutes 49 seconds 308 msec
