                         Program Version 5.0.4 -  RELEASE  -
|  1> !ri-mp2 aug-cc-pvqz aug-cc-pvqz/c tightscf
|  2> %pal nprocs 16 end
|  3>
|  4> * xyz 0 1
|  5> C      1.161089    2.783469    0.000000
|  6> C      1.336413    1.265667    0.000000
|  7> C      0.000000    0.516511    0.000000
|  8> C      0.195757   -0.987200    0.000000
|  9> Cl    -1.389892   -1.875231    0.000000
| 10> H      0.609343    3.116554    0.880936
| 11> H      2.125518    3.292440    0.000000
| 12> H      0.609343    3.116554   -0.880936
| 13> H      1.921195    0.966651    0.874698
| 14> H      1.921195    0.966651   -0.874698
| 15> H     -0.585899    0.802883    0.876235
| 16> H     -0.585899    0.802883   -0.876235
| 17> H      0.726910   -1.328188    0.885109
| 18> H      0.726910   -1.328188   -0.885109
| 19> *
| 20>
| 21>                          ****END OF INPUT****

CARTESIAN COORDINATES (ANGSTROEM)
---------------------------------
  C      1.161089    2.783469    0.000000
  C      1.336413    1.265667    0.000000
  C      0.000000    0.516511    0.000000
  C      0.195757   -0.987200    0.000000
  Cl    -1.389892   -1.875231    0.000000
  H      0.609343    3.116554    0.880936
  H      2.125518    3.292440    0.000000
  H      0.609343    3.116554   -0.880936
  H      1.921195    0.966651    0.874698
  H      1.921195    0.966651   -0.874698
  H     -0.585899    0.802883    0.876235
  H     -0.585899    0.802883   -0.876235
  H      0.726910   -1.328188    0.885109
  H      0.726910   -1.328188   -0.885109

 Total Charge           Charge          ....    0
 Multiplicity           Mult            ....    1
 Number of Electrons    NEL             ....   50
 Basis Dimension        Dim             ....  818

ORBITAL ENERGIES
----------------

  NO   OCC          E(Eh)            E(eV)
   0   2.0000    -104.815587     -2852.1771
   1   2.0000     -11.290870      -307.2402
   2   2.0000     -11.233798      -305.6872
   3   2.0000     -11.231783      -305.6324
   4   2.0000     -11.220137      -305.3154
   5   2.0000     -10.540968      -286.8343
   6   2.0000      -8.007993      -217.9086
   7   2.0000      -8.006425      -217.8659
   8   2.0000      -8.006403      -217.8653
   9   2.0000      -1.132887       -30.8274
  10   2.0000      -1.066398       -29.0182
  11   2.0000      -0.971299       -26.4304
  12   2.0000      -0.858044       -23.3486
  13   2.0000      -0.809117       -22.0172
  14   2.0000      -0.668857       -18.2005
  15   2.0000      -0.608486       -16.5578
  16   2.0000      -0.605255       -16.4698
  17   2.0000      -0.574805       -15.6412
  18   2.0000      -0.540045       -14.6954
  19   2.0000      -0.526406       -14.3242
  20   2.0000      -0.497201       -13.5295
  21   2.0000      -0.481989       -13.1156
  22   2.0000      -0.478273       -13.0145
  23   2.0000      -0.429064       -11.6754
  24   2.0000      -0.426191       -11.5973
  25   0.0000       0.024834         0.6758
  26   0.0000       0.032090         0.8732
  27   0.0000       0.033692         0.9168
  28   0.0000       0.036845         1.0026
  29   0.0000       0.049904         1.3580

MULLIKEN ATOMIC CHARGES
-----------------------
   0 C :   -0.880267
   1 C :   -0.386359
   2 C :   -0.298420
   3 C :   -0.369909
   4 Cl:   -0.412413
   5 H :    0.232943
   6 H :    0.272098
   7 H :    0.232943
   8 H :    0.251282
   9 H :    0.251282
  10 H :    0.275866
  11 H :    0.275866
  12 H :    0.277543
  13 H :    0.277543
Sum of atomic charges:   -0.0000000

LOEWDIN ATOMIC CHARGES
----------------------
   0 C :    0.928501
   1 C :    0.494320
   2 C :    0.385437
   3 C :   -0.123719
   4 Cl:    1.100927
   5 H :   -0.283764
   6 H :   -0.282989
   7 H :   -0.283764
   8 H :   -0.274964
   9 H :   -0.274964
  10 H :   -0.300412
  11 H :   -0.300412
  12 H :   -0.392099
  13 H :   -0.392099

  Mayer bond orders larger than 0.100000
B(  0-C ,  1-C ) :   0.9615 B(  0-C ,  5-H ) :   0.9522 B(  0-C ,  6-H ) :   0.9883
B(  0-C ,  7-H ) :   0.9522 B(  1-C ,  2-C ) :   0.9047 B(  1-C ,  8-H ) :   0.8726
B(  1-C ,  9-H ) :   0.8726 B(  2-C ,  3-C ) :   1.0041 B(  2-C ,  4-Cl) :  -0.1856
B(  2-C , 10-H ) :   0.8649 B(  2-C , 11-H ) :   0.8649 B(  3-C ,  4-Cl) :   0.8292
B(  3-C , 12-H ) :   0.8747 B(  3-C , 13-H ) :   0.8747

MP2 TOTAL ENERGY:     -617.274194592 Eh
FINAL SINGLE POINT ENERGY      -617.274194591739

DIPOLE MOMENT
-------------
                                X             Y             Z
Electronic contribution:     -8.77220     -12.67381      -0.00000
Nuclear contribution   :      9.59342      13.27979       0.00000
                        -----------------------------------------
Total Dipole Moment    :      0.82122       0.60599      -0.00000
                        -----------------------------------------
Magnitude (a.u.)       :      1.02060
Magnitude (Debye)      :      2.59416

Rotational constants in cm-1:     0.566297     0.043210     0.041375
Rotational constants in MHz : 16977.145669  1295.391348  1240.388657

                             ****ORCA TERMINATED NORMALLY****
TOTAL RUN TIME: 0 days 0 hours 20 minutes 41 seconds 471 msec
