                         Program Version 5.0.4 -  RELEASE  -
|  1> !ri-mp2 aug-cc-pvqz aug-cc-pvqz/c tightscf
|  2> %pal nprocs 16 end
|  3>
|  4> * xyz 0 1
|  5> S      1.269184    0.021994   -0.048659
|  6> N     -0.119168    1.321785   -0.175767
|  7> N      0.137736   -1.247091    0.185652
|  8> N     -1.310755    0.631314    0.167212
|  9> C     -1.144328   -0.729142   -0.328537
| 10> H      0.047793    2.004441    0.559957
| 11> H      0.046503   -1.444294    1.177121
| 12> H     -1.422604    0.577582    1.179868
| 13> H     -1.098328   -0.703317   -1.415165
| 14> H     -1.969031   -1.353519    0.008300
| 15> *
| 16>
| 17>                          ****END OF INPUT****

CARTESIAN COORDINATES (ANGSTROEM)
---------------------------------
  S      1.269184    0.021994   -0.048659
  N     -0.119168    1.321785   -0.175767
  N      0.137736   -1.247091    0.185652
  N     -1.310755    0.631314    0.167212
  C     -1.144328   -0.729142   -0.328537
  H      0.047793    2.004441    0.559957
  H      0.046503   -1.444294    1.177121
  H     -1.422604    0.577582    1.179868
  H     -1.098328   -0.703317   -1.415165
  H     -1.969031   -1.353519    0.008300

 Total Charge           Charge          ....    0
 Multiplicity           Mult            ....    1
 Number of Electrons    NEL             ....   48
 Basis Dimension        Dim             ....  634

ORBITAL ENERGIES
----------------

  NO   OCC          E(Eh)            E(eV)
   0   2.0000     -91.993146     -2503.2608
   1   2.0000     -15.616420      -424.9444
   2   2.0000     -15.600754      -424.5181
   3   2.0000     -15.590899      -424.2499
   4   2.0000     -11.301829      -307.5384
   5   2.0000      -8.989301      -244.6113
   6   2.0000      -6.670335      -181.5091
   7   2.0000      -6.669387      -181.4833
   8   2.0000      -6.667932      -181.4437
   9   2.0000      -1.329544       -36.1787
  10   2.0000      -1.197636       -32.5893
  11   2.0000      -1.068562       -29.0771
  12   2.0000      -0.882271       -24.0078
  13   2.0000      -0.866512       -23.5790
  14   2.0000      -0.735533       -20.0149
  15   2.0000      -0.667191       -18.1552
  16   2.0000      -0.650139       -17.6912
  17   2.0000      -0.584955       -15.9174
  18   2.0000      -0.541540       -14.7361
  19   2.0000      -0.532994       -14.5035
  20   2.0000      -0.492500       -13.4016
  21   2.0000      -0.439576       -11.9615
  22   2.0000      -0.382506       -10.4085
  23   2.0000      -0.335119        -9.1191
  24   0.0000       0.019581         0.5328
  25   0.0000       0.033337         0.9072
  26   0.0000       0.039218         1.0672
  27   0.0000       0.041701         1.1347
  28   0.0000       0.053836         1.4649

MULLIKEN ATOMIC CHARGES
-----------------------
   0 S :    0.199385
   1 N :   -0.418959
   2 N :   -0.578294
   3 N :   -0.342765
   4 C :   -0.266875
   5 H :    0.246168
   6 H :    0.225412
   7 H :    0.228146
   8 H :    0.335283
   9 H :    0.372501
Sum of atomic charges:    0.0000000

LOEWDIN ATOMIC CHARGES
----------------------
   0 S :    0.996681
   1 N :    0.454465
   2 N :    0.414777
   3 N :    0.623675
   4 C :    0.032469
   5 H :   -0.679103
   6 H :   -0.661176
   7 H :   -0.554791
   8 H :   -0.330471
   9 H :   -0.296525

  Mayer bond orders larger than 0.100000
B(  0-S ,  1-N ) :   0.9121 B(  0-S ,  2-N ) :   0.9221 B(  1-N ,  3-N ) :   0.7918
B(  1-N ,  5-H ) :   0.8720 B(  2-N ,  4-C ) :   0.9466 B(  2-N ,  6-H ) :   0.8899
B(  3-N ,  4-C ) :   0.9713 B(  3-N ,  7-H ) :   0.8713 B(  4-C ,  8-H ) :   0.8851
B(  4-C ,  9-H ) :   0.8341

MP2 TOTAL ENERGY:     -602.724418342 Eh
FINAL SINGLE POINT ENERGY      -602.724418342125

DIPOLE MOMENT
-------------
                                X             Y             Z
Electronic contribution:      3.86039       0.73734      -0.41133
Nuclear contribution   :     -4.39442      -0.90575       1.49628
                        -----------------------------------------
Total Dipole Moment    :     -0.53403      -0.16841       1.08496
                        -----------------------------------------
Magnitude (a.u.)       :      1.22093
Magnitude (Debye)      :      3.10337

Rotational constants in cm-1:     0.225877     0.157772     0.101589
Rotational constants in MHz :  6771.625243  4729.872662  3045.558855

                             ****ORCA TERMINATED NORMALLY****
TOTAL RUN TIME: 0 days 0 hours 9 minutes 13 seconds 566 msec
