                         Program Version 5.0.4 -  RELEASE  -
|  1> !ri-mp2 aug-cc-pvqz aug-cc-pvqz/c tightscf
|  2> %pal nprocs 16 end
|  3>
|  4> * xyz 0 1
|  5> C     -0.375827    1.083218   -0.143727
|  6> C     -1.730720    0.914545    0.013207
|  7> C     -0.800510   -1.127958    0.050865
|  8> C      0.213730   -0.211135   -0.126043
|  9> N     -1.984695   -0.422966    0.119352
| 10> N      2.473612    0.408232    0.261342
| 11> N      1.571203   -0.508797   -0.347613
| 12> H      0.147064    2.015954   -0.252645
| 13> H     -2.523634    1.639838    0.060015
| 14> H     -0.779966   -2.201879    0.108656
| 15> H     -2.889932   -0.832811    0.250080
| 16> H      3.335494    0.406023   -0.266084
| 17> H      2.672619    0.160352    1.227596
| 18> H      1.777472   -1.474780   -0.124995
| 19> *
| 20>
| 21>                          ****END OF INPUT****

CARTESIAN COORDINATES (ANGSTROEM)
---------------------------------
  C     -0.375827    1.083218   -0.143727
  C     -1.730720    0.914545    0.013207
  C     -0.800510   -1.127958    0.050865
  C      0.213730   -0.211135   -0.126043
  N     -1.984695   -0.422966    0.119352
  N      2.473612    0.408232    0.261342
  N      1.571203   -0.508797   -0.347613
  H      0.147064    2.015954   -0.252645
  H     -2.523634    1.639838    0.060015
  H     -0.779966   -2.201879    0.108656
  H     -2.889932   -0.832811    0.250080
  H      3.335494    0.406023   -0.266084
  H      2.672619    0.160352    1.227596
  H      1.777472   -1.474780   -0.124995

 Total Charge           Charge          ....    0
 Multiplicity           Mult            ....    1
 Number of Electrons    NEL             ....   52
 Basis Dimension        Dim             ....  882

ORBITAL ENERGIES
----------------

  NO   OCC          E(Eh)            E(eV)
   0   2.0000     -15.593870      -424.3308
   1   2.0000     -15.576824      -423.8669
   2   2.0000     -15.570478      -423.6942
   3   2.0000     -11.247940      -306.0720
   4   2.0000     -11.241568      -305.8986
   5   2.0000     -11.234612      -305.7093
   6   2.0000     -11.196280      -304.6663
   7   2.0000      -1.290934       -35.1281
   8   2.0000      -1.267977       -34.5034
   9   2.0000      -1.074549       -29.2400
  10   2.0000      -1.002872       -27.2895
  11   2.0000      -0.949760       -25.8443
  12   2.0000      -0.794733       -21.6258
  13   2.0000      -0.749220       -20.3873
  14   2.0000      -0.728316       -19.8185
  15   2.0000      -0.680533       -18.5182
  16   2.0000      -0.667552       -18.1650
  17   2.0000      -0.601230       -16.3603
  18   2.0000      -0.577627       -15.7180
  19   2.0000      -0.564903       -15.3718
  20   2.0000      -0.556677       -15.1480
  21   2.0000      -0.521848       -14.2002
  22   2.0000      -0.448915       -12.2156
  23   2.0000      -0.417269       -11.3545
  24   2.0000      -0.317305        -8.6343
  25   2.0000      -0.277283        -7.5452
  26   0.0000       0.022742         0.6188
  27   0.0000       0.027522         0.7489
  28   0.0000       0.032110         0.8738
  29   0.0000       0.044438         1.2092
  30   0.0000       0.045954         1.2505

MULLIKEN ATOMIC CHARGES
-----------------------
   0 C :   -0.289001
   1 C :   -0.332167
   2 C :   -0.266036
   3 C :    0.399939
   4 N :   -0.484913
   5 N :   -0.520918
   6 N :   -0.572939
   7 H :    0.372529
   8 H :    0.449441
   9 H :    0.421003
  10 H :    0.045897
  11 H :    0.246747
  12 H :    0.241283
  13 H :    0.289134
Sum of atomic charges:    0.0000000

LOEWDIN ATOMIC CHARGES
----------------------
   0 C :    0.310856
   1 C :    0.201941
   2 C :    0.206991
   3 C :   -0.323150
   4 N :    0.779219
   5 N :    1.120100
   6 N :    0.698305
   7 H :   -0.330556
   8 H :   -0.308997
   9 H :   -0.311020
  10 H :   -0.456644
  11 H :   -0.534632
  12 H :   -0.509207
  13 H :   -0.543205

  Mayer bond orders larger than 0.100000
B(  0-C ,  1-C ) :   1.4779 B(  0-C ,  3-C ) :   1.1065 B(  0-C ,  7-H ) :   0.9045
B(  1-C ,  3-C ) :  -0.2092 B(  1-C ,  4-N ) :   1.0539 B(  1-C ,  8-H ) :   0.8781
B(  2-C ,  3-C ) :   1.4946 B(  2-C ,  4-N ) :   1.0054 B(  2-C ,  9-H ) :   0.8449
B(  3-C ,  4-N ) :  -0.1324 B(  3-C ,  5-N ) :  -0.1484 B(  3-C ,  6-N ) :   0.8678
B(  4-N , 10-H ) :   1.2605 B(  5-N ,  6-N ) :   0.9087 B(  5-N , 11-H ) :   0.9405
B(  5-N , 12-H ) :   0.9402 B(  6-N , 13-H ) :   0.8515

MP2 TOTAL ENERGY:     -320.323857156 Eh
FINAL SINGLE POINT ENERGY      -320.323857155915

DIPOLE MOMENT
-------------
                                X             Y             Z
Electronic contribution:     -1.91529      -0.43676      -0.51949
Nuclear contribution   :      1.76092      -0.29199       1.00838
                        -----------------------------------------
Total Dipole Moment    :     -0.15436      -0.72875       0.48889
                        -----------------------------------------
Magnitude (a.u.)       :      0.89102
Magnitude (Debye)      :      2.26480

Rotational constants in cm-1:     0.246992     0.063982     0.052413
Rotational constants in MHz :  7404.629743  1918.136203  1571.309090

                             ****ORCA TERMINATED NORMALLY****
TOTAL RUN TIME: 0 days 0 hours 21 minutes 49 seconds 968 msec
