                         Program Version 5.0.4 -  RELEASE  -
|  1> !ri-mp2 aug-cc-pvqz aug-cc-pvqz/c tightscf
|  2> %pal nprocs 16 end
|  3>
|  4> * xyz 0 1
|  5> S    -1.343024    1.653778   -0.188507
|  6> S    -1.672982   -1.441915    0.055760
|  7> N     0.022233    0.641827   -0.044011
|  8> N     0.993395   -1.482659    0.024447
|  9> N     2.446897    0.418854   -0.082676
| 10> C    -0.052767   -0.722709    0.020912
| 11> C     1.336826    1.254097    0.292287
| 12> C     2.209200   -0.831052   -0.160281
| 13> H    -1.575475    1.878237    1.129449
| 14> H    -1.161932   -2.687349    0.059929
| 15> H     1.376602    1.458299    1.372225
| 16> H     1.387735    2.206582   -0.231409
| 17> H     3.031951   -1.493748   -0.408073
| 18> *
| 19>
| 20>                          ****END OF INPUT****

CARTESIAN COORDINATES (ANGSTROEM)
---------------------------------
  S     -1.343024    1.653778   -0.188507
  S     -1.672982   -1.441915    0.055760
  N      0.022233    0.641827   -0.044011
  N      0.993395   -1.482659    0.024447
  N      2.446897    0.418854   -0.082676
  C     -0.052767   -0.722709    0.020912
  C      1.336826    1.254097    0.292287
  C      2.209200   -0.831052   -0.160281
  H     -1.575475    1.878237    1.129449
  H     -1.161932   -2.687349    0.059929
  H      1.376602    1.458299    1.372225
  H      1.387735    2.206582   -0.231409
  H      3.031951   -1.493748   -0.408073

 Total Charge           Charge          ....    0
 Multiplicity           Mult            ....    1
 Number of Electrons    NEL             ....   76
 Basis Dimension        Dim             ....  878

ORBITAL ENERGIES
----------------

  NO   OCC          E(Eh)            E(eV)
   0   2.0000     -92.017571     -2503.9254
   1   2.0000     -91.990638     -2503.1925
   2   2.0000     -15.633708      -425.4148
   3   2.0000     -15.551514      -423.1782
   4   2.0000     -15.550495      -423.1505
   5   2.0000     -11.382571      -309.7355
   6   2.0000     -11.310138      -307.7645
   7   2.0000     -11.308752      -307.7268
   8   2.0000      -9.016021      -245.3384
   9   2.0000      -8.993293      -244.7199
  10   2.0000      -6.697526      -182.2489
  11   2.0000      -6.696239      -182.2139
  12   2.0000      -6.695413      -182.1914
  13   2.0000      -6.674697      -181.6277
  14   2.0000      -6.673746      -181.6019
  15   2.0000      -6.672864      -181.5778
  16   2.0000      -1.348051       -36.6823
  17   2.0000      -1.233124       -33.5550
  18   2.0000      -1.198437       -32.6111
  19   2.0000      -1.030843       -28.0507
  20   2.0000      -0.998992       -27.1839
  21   2.0000      -0.940775       -25.5998
  22   2.0000      -0.855773       -23.2868
  23   2.0000      -0.732693       -19.9376
  24   2.0000      -0.707293       -19.2464
  25   2.0000      -0.699456       -19.0332
  26   2.0000      -0.649180       -17.6651
  27   2.0000      -0.598383       -16.2828
  28   2.0000      -0.588364       -16.0102
  29   2.0000      -0.565680       -15.3929
  30   2.0000      -0.537177       -14.6173
  31   2.0000      -0.522437       -14.2162
  32   2.0000      -0.471639       -12.8339
  33   2.0000      -0.462640       -12.5891
  34   2.0000      -0.430557       -11.7160
  35   2.0000      -0.405704       -11.0398
  36   2.0000      -0.383398       -10.4328
  37   2.0000      -0.346768        -9.4360
  38   0.0000       0.022887         0.6228
  39   0.0000       0.032352         0.8803
  40   0.0000       0.036475         0.9925
  41   0.0000       0.039752         1.0817
  42   0.0000       0.046215         1.2576

MULLIKEN ATOMIC CHARGES
-----------------------
   0 S :    0.040798
   1 S :    0.092493
   2 N :   -0.274492
   3 N :   -0.636351
   4 N :   -0.701019
   5 C :    0.321257
   6 C :   -0.141643
   7 C :   -0.078652
   8 H :    0.066165
   9 H :    0.044549
  10 H :    0.298372
  11 H :    0.372092
  12 H :    0.596431
Sum of atomic charges:   -0.0000000

LOEWDIN ATOMIC CHARGES
----------------------
   0 S :    1.435137
   1 S :    1.553983
   2 N :   -0.144578
   3 N :    0.464633
   4 N :    0.601396
   5 C :   -1.129376
   6 C :   -0.006322
   7 C :   -0.205258
   8 H :   -0.713521
   9 H :   -0.788295
  10 H :   -0.309954
  11 H :   -0.366360
  12 H :   -0.391487

  Mayer bond orders larger than 0.100000
B(  0-S ,  2-N ) :   0.7651 B(  0-S ,  8-H ) :   1.0050 B(  1-S ,  2-N ) :  -0.1346
B(  1-S ,  5-C ) :   0.9833 B(  1-S ,  9-H ) :   1.0683 B(  2-N ,  5-C ) :   1.1366
B(  2-N ,  6-C ) :   0.8053 B(  3-N ,  5-C ) :   1.3453 B(  3-N ,  7-C ) :   1.1309
B(  4-N ,  6-C ) :   0.7922 B(  4-N ,  7-C ) :   1.6535 B(  6-C , 10-H ) :   0.8961
B(  6-C , 11-H ) :   0.8834 B(  7-C , 12-H ) :   0.6981

MP2 TOTAL ENERGY:    -1076.572968953 Eh
FINAL SINGLE POINT ENERGY     -1076.572968952753

DIPOLE MOMENT
-------------
                                X             Y             Z
Electronic contribution:     -3.91517      -1.02302      -1.43357
Nuclear contribution   :      3.07572       1.31183       1.86701
                        -----------------------------------------
Total Dipole Moment    :     -0.83945       0.28880       0.43344
                        -----------------------------------------
Magnitude (a.u.)       :      0.98791
Magnitude (Debye)      :      2.51106

Rotational constants in cm-1:     0.066625     0.048398     0.028606
Rotational constants in MHz :  1997.353867  1450.921670   857.590987

                             ****ORCA TERMINATED NORMALLY****
TOTAL RUN TIME: 0 days 0 hours 29 minutes 52 seconds 30 msec
