                         Program Version 5.0.4 -  RELEASE  -
|  1> !ri-mp2 aug-cc-pvqz aug-cc-pvqz/c tightscf
|  2> %pal nprocs 16 end
|  3>
|  4> * xyz 0 1
|  5> H     -2.225998   -0.334426    0.000000
|  6> C     -1.153291   -0.397233    0.000000
|  7> C      0.000000    0.177369    0.000000
|  8> H      0.299785   -1.863186    0.910841
|  9> H      0.299785   -1.863186   -0.910841
| 10> C      0.031359   -1.328906    0.000000
| 11> H      1.501616    1.388241    0.877063
| 12> H      0.254349    2.293402    0.000000
| 13> H      1.501616    1.388241   -0.877063
| 14> C      0.850074    1.380589    0.000000
| 15> *
| 16>
| 17>                          ****END OF INPUT****

CARTESIAN COORDINATES (ANGSTROEM)
---------------------------------
  H     -2.225998   -0.334426    0.000000
  C     -1.153291   -0.397233    0.000000
  C      0.000000    0.177369    0.000000
  H      0.299785   -1.863186    0.910841
  H      0.299785   -1.863186   -0.910841
  C      0.031359   -1.328906    0.000000
  H      1.501616    1.388241    0.877063
  H      0.254349    2.293402    0.000000
  H      1.501616    1.388241   -0.877063
  C      0.850074    1.380589    0.000000

 Total Charge           Charge          ....    0
 Multiplicity           Mult            ....    1
 Number of Electrons    NEL             ....   30
 Basis Dimension        Dim             ....  596

ORBITAL ENERGIES
----------------

  NO   OCC          E(Eh)            E(eV)
   0   2.0000     -11.242123      -305.9137
   1   2.0000     -11.234940      -305.7183
   2   2.0000     -11.228089      -305.5318
   3   2.0000     -11.227483      -305.5153
   4   2.0000      -1.156917       -31.4813
   5   2.0000      -0.987550       -26.8726
   6   2.0000      -0.812838       -22.1184
   7   2.0000      -0.724966       -19.7273
   8   2.0000      -0.634192       -17.2572
   9   2.0000      -0.604632       -16.4529
  10   2.0000      -0.588193       -16.0055
  11   2.0000      -0.559194       -15.2164
  12   2.0000      -0.470555       -12.8044
  13   2.0000      -0.405581       -11.0364
  14   2.0000      -0.343492        -9.3469
  15   0.0000       0.026593         0.7236
  16   0.0000       0.031312         0.8520
  17   0.0000       0.035495         0.9659
  18   0.0000       0.038701         1.0531
  19   0.0000       0.053304         1.4505

MULLIKEN ATOMIC CHARGES
-----------------------
   0 H :    0.410232
   1 C :   -0.767448
   2 C :    0.104976
   3 H :    0.313441
   4 H :    0.313441
   5 C :   -0.513005
   6 H :    0.233638
   7 H :    0.217753
   8 H :    0.233638
   9 C :   -0.546667
Sum of atomic charges:    0.0000000

LOEWDIN ATOMIC CHARGES
----------------------
   0 H :   -0.318376
   1 C :    0.447886
   2 C :   -0.013303
   3 H :   -0.326122
   4 H :   -0.326122
   5 C :    0.522968
   6 H :   -0.303089
   7 H :   -0.305538
   8 H :   -0.303089
   9 C :    0.924785

  Mayer bond orders larger than 0.100000
B(  0-H ,  1-C ) :   0.8501 B(  1-C ,  2-C ) :   1.6775 B(  1-C ,  5-C ) :   1.0454
B(  2-C ,  5-C ) :   0.8332 B(  2-C ,  9-C ) :   0.6238 B(  3-H ,  5-C ) :   0.8686
B(  4-H ,  5-C ) :   0.8686 B(  6-H ,  9-C ) :   0.9794 B(  7-H ,  9-C ) :   1.0235
B(  8-H ,  9-C ) :   0.9794

MP2 TOTAL ENERGY:     -155.638254541 Eh
FINAL SINGLE POINT ENERGY      -155.638254540878

DIPOLE MOMENT
-------------
                                X             Y             Z
Electronic contribution:     -1.63751      -0.69601       0.00000
Nuclear contribution   :      1.69901       1.05106       0.00000
                        -----------------------------------------
Total Dipole Moment    :      0.06150       0.35505       0.00000
                        -----------------------------------------
Magnitude (a.u.)       :      0.36034
Magnitude (Debye)      :      0.91591

Rotational constants in cm-1:     0.692299     0.212960     0.173678
Rotational constants in MHz : 20754.590498  6384.365399  5206.741531

                             ****ORCA TERMINATED NORMALLY****
TOTAL RUN TIME: 0 days 0 hours 8 minutes 52 seconds 305 msec
