                         Program Version 5.0.4 -  RELEASE  -
|  1> !ri-mp2 aug-cc-pvqz aug-cc-pvqz/c tightscf
|  2> %pal nprocs 16 end
|  3>
|  4> * xyz 0 1
|  5> O     -1.918563   -0.173683   -0.195389
|  6> H     -2.312775    0.187830    0.609427
|  7> O     -0.661485   -0.686944    0.324121
|  8> C      1.651684   -0.787137    0.026852
|  9> H      1.820412   -0.777766    1.104424
| 10> H      1.554045   -1.821145   -0.300398
| 11> H      2.523590   -0.349504   -0.459304
| 12> C      0.487776    1.469705    0.103519
| 13> H      0.672394    1.540668    1.177022
| 14> H      1.301951    1.974955   -0.418152
| 15> H     -0.436230    1.995634   -0.131444
| 16> C      0.408750    0.013954   -0.330908
| 17> H      0.227738   -0.044785   -1.408201
| 18> *
| 19>
| 20>                          ****END OF INPUT****

CARTESIAN COORDINATES (ANGSTROEM)
---------------------------------
  O     -1.918563   -0.173683   -0.195389
  H     -2.312775    0.187830    0.609427
  O     -0.661485   -0.686944    0.324121
  C      1.651684   -0.787137    0.026852
  H      1.820412   -0.777766    1.104424
  H      1.554045   -1.821145   -0.300398
  H      2.523590   -0.349504   -0.459304
  C      0.487776    1.469705    0.103519
  H      0.672394    1.540668    1.177022
  H      1.301951    1.974955   -0.418152
  H     -0.436230    1.995634   -0.131444
  C      0.408750    0.013954   -0.330908
  H      0.227738   -0.044785   -1.408201

 Total Charge           Charge          ....    0
 Multiplicity           Mult            ....    1
 Number of Electrons    NEL             ....   42
 Basis Dimension        Dim             ....  768

ORBITAL ENERGIES
----------------

  NO   OCC          E(Eh)            E(eV)
   0   2.0000     -20.615916      -560.9876
   1   2.0000     -20.614462      -560.9480
   2   2.0000     -11.285352      -307.0900
   3   2.0000     -11.218973      -305.2838
   4   2.0000     -11.217484      -305.2432
   5   2.0000      -1.463519       -39.8244
   6   2.0000      -1.226308       -33.3695
   7   2.0000      -1.036213       -28.1968
   8   2.0000      -0.944473       -25.7004
   9   2.0000      -0.802894       -21.8479
  10   2.0000      -0.717823       -19.5329
  11   2.0000      -0.656079       -17.8528
  12   2.0000      -0.636118       -17.3096
  13   2.0000      -0.621806       -16.9202
  14   2.0000      -0.551451       -15.0057
  15   2.0000      -0.548710       -14.9312
  16   2.0000      -0.535500       -14.5717
  17   2.0000      -0.519532       -14.1372
  18   2.0000      -0.493243       -13.4218
  19   2.0000      -0.476837       -12.9754
  20   2.0000      -0.440207       -11.9786
  21   0.0000       0.026464         0.7201
  22   0.0000       0.032362         0.8806
  23   0.0000       0.036022         0.9802
  24   0.0000       0.037591         1.0229
  25   0.0000       0.052640         1.4324

MULLIKEN ATOMIC CHARGES
-----------------------
   0 O :   -0.521989
   1 H :    0.359039
   2 O :   -0.462151
   3 C :   -0.850751
   4 H :    0.228653
   5 H :    0.264977
   6 H :    0.256181
   7 C :   -0.919529
   8 H :    0.221338
   9 H :    0.274079
  10 H :    0.287167
  11 C :    0.544791
  12 H :    0.318194
Sum of atomic charges:   -0.0000000

LOEWDIN ATOMIC CHARGES
----------------------
   0 O :    0.938164
   1 H :   -0.894654
   2 O :    0.564806
   3 C :    0.879403
   4 H :   -0.289214
   5 H :   -0.288287
   6 H :   -0.286884
   7 C :    0.893437
   8 H :   -0.288987
   9 H :   -0.284899
  10 H :   -0.306201
  11 C :   -0.319378
  12 H :   -0.317306

  Mayer bond orders larger than 0.100000
B(  0-O ,  1-H ) :   0.8843 B(  0-O ,  2-O ) :   0.8489 B(  2-O , 11-C ) :   0.5376
B(  3-C ,  4-H ) :   0.9484 B(  3-C ,  5-H ) :   0.9605 B(  3-C ,  6-H ) :   0.9858
B(  3-C , 11-C ) :   0.7726 B(  7-C ,  8-H ) :   0.9422 B(  7-C ,  9-H ) :   0.9572
B(  7-C , 10-H ) :   0.9559 B(  7-C , 11-C ) :   0.8414 B( 11-C , 12-H ) :   0.8371

MP2 TOTAL ENERGY:     -269.097218566 Eh
FINAL SINGLE POINT ENERGY      -269.097218566400

DIPOLE MOMENT
-------------
                                X             Y             Z
Electronic contribution:     -5.13535      -2.20533       0.02601
Nuclear contribution   :      5.50474       2.79082       0.18182
                        -----------------------------------------
Total Dipole Moment    :      0.36939       0.58549       0.20782
                        -----------------------------------------
Magnitude (a.u.)       :      0.72280
Magnitude (Debye)      :      1.83722

Rotational constants in cm-1:     0.259713     0.127247     0.094202
Rotational constants in MHz :  7785.990381  3814.782296  2824.113219

                             ****ORCA TERMINATED NORMALLY****
TOTAL RUN TIME: 0 days 0 hours 18 minutes 12 seconds 372 msec
