                         Program Version 5.0.4 -  RELEASE  -
|  1> !ri-mp2 aug-cc-pvqz aug-cc-pvqz/c tightscf
|  2> %pal nprocs 16 end
|  3>
|  4> * xyz 0 1
|  5> S      0.913405   -0.731150   -0.602876
|  6> S     -1.659560    0.749648   -0.498267
|  7> N      3.513666   -0.356225    0.501355
|  8> N     -2.753361   -1.506382    0.868888
|  9> C      0.061580    0.725895    0.003060
| 10> C      2.453147   -0.497661    0.065289
| 11> C     -2.270244   -0.603474    0.334802
| 12> C      0.589938    1.764744    0.634480
| 13> H      1.649607    1.825737    0.840445
| 14> H     -0.039790    2.579515    0.960377
| 15> *
| 16>
| 17>                          ****END OF INPUT****

CARTESIAN COORDINATES (ANGSTROEM)
---------------------------------
  S      0.913405   -0.731150   -0.602876
  S     -1.659560    0.749648   -0.498267
  N      3.513666   -0.356225    0.501355
  N     -2.753361   -1.506382    0.868888
  C      0.061580    0.725895    0.003060
  C      2.453147   -0.497661    0.065289
  C     -2.270244   -0.603474    0.334802
  C      0.589938    1.764744    0.634480
  H      1.649607    1.825737    0.840445
  H     -0.039790    2.579515    0.960377

 Total Charge           Charge          ....    0
 Multiplicity           Mult            ....    1
 Number of Electrons    NEL             ....   72
 Basis Dimension        Dim             ....  740

ORBITAL ENERGIES
----------------

  NO   OCC          E(Eh)            E(eV)
   0   2.0000     -92.053423     -2504.9010
   1   2.0000     -92.050852     -2504.8310
   2   2.0000     -15.606180      -424.6657
   3   2.0000     -15.602243      -424.5586
   4   2.0000     -11.357716      -309.0592
   5   2.0000     -11.317882      -307.9752
   6   2.0000     -11.314324      -307.8784
   7   2.0000     -11.295376      -307.3628
   8   2.0000      -9.053373      -246.3548
   9   2.0000      -9.051078      -246.2923
  10   2.0000      -6.734966      -183.2677
  11   2.0000      -6.733664      -183.2323
  12   2.0000      -6.732759      -183.2077
  13   2.0000      -6.732750      -183.2075
  14   2.0000      -6.731207      -183.1654
  15   2.0000      -6.730280      -183.1402
  16   2.0000      -1.255569       -34.1658
  17   2.0000      -1.250299       -34.0224
  18   2.0000      -1.177935       -32.0533
  19   2.0000      -1.068864       -29.0853
  20   2.0000      -1.034683       -28.1552
  21   2.0000      -0.834098       -22.6970
  22   2.0000      -0.732231       -19.9250
  23   2.0000      -0.707296       -19.2465
  24   2.0000      -0.656805       -17.8726
  25   2.0000      -0.611289       -16.6340
  26   2.0000      -0.584712       -15.9108
  27   2.0000      -0.577889       -15.7251
  28   2.0000      -0.558927       -15.2092
  29   2.0000      -0.554908       -15.0998
  30   2.0000      -0.547429       -14.8963
  31   2.0000      -0.498331       -13.5603
  32   2.0000      -0.482311       -13.1243
  33   2.0000      -0.475379       -12.9357
  34   2.0000      -0.414733       -11.2855
  35   2.0000      -0.385422       -10.4879
  36   0.0000       0.018713         0.5092
  37   0.0000       0.038111         1.0370
  38   0.0000       0.039195         1.0666
  39   0.0000       0.043054         1.1715
  40   0.0000       0.052147         1.4190

MULLIKEN ATOMIC CHARGES
-----------------------
   0 S :    0.719993
   1 S :    0.629734
   2 N :   -0.518727
   3 N :   -0.513818
   4 C :   -0.160061
   5 C :   -0.148323
   6 C :   -0.086351
   7 C :   -0.727909
   8 H :    0.407465
   9 H :    0.397998
Sum of atomic charges:   -0.0000000

LOEWDIN ATOMIC CHARGES
----------------------
   0 S :    1.143030
   1 S :    1.112754
   2 N :    0.308797
   3 N :    0.280809
   4 C :   -0.935431
   5 C :   -0.866149
   6 C :   -0.866347
   7 C :    0.591106
   8 H :   -0.395502
   9 H :   -0.373066

  Mayer bond orders larger than 0.100000
B(  0-S ,  4-C ) :   0.7834 B(  0-S ,  5-C ) :   0.9424 B(  1-S ,  4-C ) :   0.7498
B(  1-S ,  6-C ) :   0.9380 B(  2-N ,  5-C ) :   2.5440 B(  3-N ,  6-C ) :   2.5636
B(  4-C ,  5-C ) :  -0.1244 B(  4-C ,  7-C ) :   1.6025 B(  7-C ,  8-H ) :   0.8444
B(  7-C ,  9-H ) :   0.9029

MP2 TOTAL ENERGY:    -1058.104189724 Eh
FINAL SINGLE POINT ENERGY     -1058.104189724447

DIPOLE MOMENT
-------------
                                X             Y             Z
Electronic contribution:     -1.79978      -2.76005      -2.34746
Nuclear contribution   :      1.55702       4.17829       1.75247
                        -----------------------------------------
Total Dipole Moment    :     -0.24276       1.41824      -0.59498
                        -----------------------------------------
Magnitude (a.u.)       :      1.55703
Magnitude (Debye)      :      3.95766

Rotational constants in cm-1:     0.098429     0.029231     0.025341
Rotational constants in MHz :  2950.829160   876.337826   759.716011

                             ****ORCA TERMINATED NORMALLY****
TOTAL RUN TIME: 0 days 0 hours 14 minutes 26 seconds 350 msec
