                         Program Version 5.0.4 -  RELEASE  -
|  1> !ri-mp2 aug-cc-pvqz aug-cc-pvqz/c tightscf
|  2> %pal nprocs 16 end
|  3>
|  4> * xyz 0 1
|  5> C      0.000000    0.000000    1.245285
|  6> C      0.000000    1.281625    0.433521
|  7> C      0.000000   -1.281625    0.433521
|  8> Cl    -1.529889    1.476800   -0.530841
|  9> Cl     1.529889   -1.476800   -0.530841
| 10> H      0.878901    0.017822    1.895082
| 11> H     -0.878901   -0.017822    1.895082
| 12> H      0.056209    2.153738    1.077110
| 13> H      0.813369    1.306239   -0.284878
| 14> H     -0.813369   -1.306239   -0.284878
| 15> H     -0.056209   -2.153738    1.077110
| 16> *
| 17>
| 18>                          ****END OF INPUT****

CARTESIAN COORDINATES (ANGSTROEM)
---------------------------------
  C      0.000000    0.000000    1.245285
  C      0.000000    1.281625    0.433521
  C      0.000000   -1.281625    0.433521
  Cl    -1.529889    1.476800   -0.530841
  Cl     1.529889   -1.476800   -0.530841
  H      0.878901    0.017822    1.895082
  H     -0.878901   -0.017822    1.895082
  H      0.056209    2.153738    1.077110
  H      0.813369    1.306239   -0.284878
  H     -0.813369   -1.306239   -0.284878
  H     -0.056209   -2.153738    1.077110

 Total Charge           Charge          ....    0
 Multiplicity           Mult            ....    1
 Number of Electrons    NEL             ....   58
 Basis Dimension        Dim             ....  684

ORBITAL ENERGIES
----------------

  NO   OCC          E(Eh)            E(eV)
   0   2.0000    -104.825369     -2852.4433
   1   2.0000    -104.825369     -2852.4433
   2   2.0000     -11.301630      -307.5330
   3   2.0000     -11.301623      -307.5328
   4   2.0000     -11.258691      -306.3646
   5   2.0000     -10.550829      -287.1027
   6   2.0000     -10.550829      -287.1026
   7   2.0000      -8.017844      -218.1766
   8   2.0000      -8.017844      -218.1766
   9   2.0000      -8.016285      -218.1342
  10   2.0000      -8.016285      -218.1342
  11   2.0000      -8.016246      -218.1331
  12   2.0000      -8.016246      -218.1331
  13   2.0000      -1.158956       -31.5368
  14   2.0000      -1.118962       -30.4485
  15   2.0000      -1.027324       -27.9549
  16   2.0000      -0.919054       -25.0087
  17   2.0000      -0.814852       -22.1732
  18   2.0000      -0.671497       -18.2724
  19   2.0000      -0.663536       -18.0557
  20   2.0000      -0.599166       -16.3041
  21   2.0000      -0.570712       -15.5299
  22   2.0000      -0.560446       -15.2505
  23   2.0000      -0.520396       -14.1607
  24   2.0000      -0.501161       -13.6373
  25   2.0000      -0.446812       -12.1584
  26   2.0000      -0.443091       -12.0571
  27   2.0000      -0.435087       -11.8393
  28   2.0000      -0.434273       -11.8172
  29   0.0000       0.024221         0.6591
  30   0.0000       0.030455         0.8287
  31   0.0000       0.038955         1.0600
  32   0.0000       0.040546         1.1033
  33   0.0000       0.053713         1.4616

MULLIKEN ATOMIC CHARGES
-----------------------
   0 C :   -0.376238
   1 C :   -0.368403
   2 C :   -0.368403
   3 Cl:   -0.370903
   4 Cl:   -0.370903
   5 H :    0.305878
   6 H :    0.305878
   7 H :    0.324018
   8 H :    0.297529
   9 H :    0.297529
  10 H :    0.324018
Sum of atomic charges:   -0.0000000

LOEWDIN ATOMIC CHARGES
----------------------
   0 C :    0.287657
   1 C :   -0.135785
   2 C :   -0.135785
   3 Cl:    1.120358
   4 Cl:    1.120358
   5 H :   -0.307674
   6 H :   -0.307674
   7 H :   -0.392816
   8 H :   -0.427912
   9 H :   -0.427912
  10 H :   -0.392816

  Mayer bond orders larger than 0.100000
B(  0-C ,  1-C ) :   0.9749 B(  0-C ,  2-C ) :   0.9749 B(  0-C ,  5-H ) :   0.8271
B(  0-C ,  6-H ) :   0.8271 B(  1-C ,  3-Cl) :   0.8219 B(  1-C ,  7-H ) :   0.8804
B(  1-C ,  8-H ) :   0.8696 B(  2-C ,  4-Cl) :   0.8219 B(  2-C ,  9-H ) :   0.8696
B(  2-C , 10-H ) :   0.8804

MP2 TOTAL ENERGY:    -1037.180181946 Eh
FINAL SINGLE POINT ENERGY     -1037.180181945573

DIPOLE MOMENT
-------------
                                X             Y             Z
Electronic contribution:     -0.00000       0.00000      -5.66074
Nuclear contribution   :     -0.00000       0.00000       6.64590
                        -----------------------------------------
Total Dipole Moment    :     -0.00000       0.00000       0.98516
                        -----------------------------------------
Magnitude (a.u.)       :      0.98516
Magnitude (Debye)      :      2.50407

Rotational constants in cm-1:     0.207103     0.044864     0.042224
Rotational constants in MHz :  6208.778173  1344.994869  1265.829094

                             ****ORCA TERMINATED NORMALLY****
TOTAL RUN TIME: 0 days 0 hours 12 minutes 17 seconds 110 msec
