                         Program Version 5.0.4 -  RELEASE  -
|  1> !ri-mp2 aug-cc-pvqz aug-cc-pvqz/c tightscf
|  2> %pal nprocs 16 end
|  3>
|  4> * xyz 0 1
|  5> C      1.696861   -1.488658    0.000000
|  6> C      1.351488   -0.149893    0.000000
|  7> C      0.678555   -2.438597    0.000000
|  8> C     -0.937596   -0.833228    0.000000
|  9> C      0.000000    0.201553    0.000000
| 10> C     -0.380417    1.650164    0.000000
| 11> C     -1.846581    2.020736    0.000000
| 12> N     -0.617071   -2.126889    0.000000
| 13> O      0.479637    2.507928    0.000000
| 14> H      2.731891   -1.800787    0.000000
| 15> H      2.096554    0.633301    0.000000
| 16> H      0.915030   -3.496491    0.000000
| 17> H     -1.998650   -0.616441    0.000000
| 18> H     -2.350642    1.614767    0.878826
| 19> H     -2.350642    1.614767   -0.878826
| 20> H     -1.935004    3.103219    0.000000
| 21> *
| 22>
| 23>                          ****END OF INPUT****

CARTESIAN COORDINATES (ANGSTROEM)
---------------------------------
  C      1.696861   -1.488658    0.000000
  C      1.351488   -0.149893    0.000000
  C      0.678555   -2.438597    0.000000
  C     -0.937596   -0.833228    0.000000
  C      0.000000    0.201553    0.000000
  C     -0.380417    1.650164    0.000000
  C     -1.846581    2.020736    0.000000
  N     -0.617071   -2.126889    0.000000
  O      0.479637    2.507928    0.000000
  H      2.731891   -1.800787    0.000000
  H      2.096554    0.633301    0.000000
  H      0.915030   -3.496491    0.000000
  H     -1.998650   -0.616441    0.000000
  H     -2.350642    1.614767    0.878826
  H     -2.350642    1.614767   -0.878826
  H     -1.935004    3.103219    0.000000

 Total Charge           Charge          ....    0
 Multiplicity           Mult            ....    1
 Number of Electrons    NEL             ....   64
 Basis Dimension        Dim             .... 1042

ORBITAL ENERGIES
----------------

  NO   OCC          E(Eh)            E(eV)
   0   2.0000     -20.549141      -559.1706
   1   2.0000     -15.575325      -423.8261
   2   2.0000     -11.343299      -308.6669
   3   2.0000     -11.293266      -307.3054
   4   2.0000     -11.291263      -307.2509
   5   2.0000     -11.269532      -306.6596
   6   2.0000     -11.254934      -306.2623
   7   2.0000     -11.250000      -306.1281
   8   2.0000     -11.240226      -305.8621
   9   2.0000      -1.394169       -37.9373
  10   2.0000      -1.275294       -34.7025
  11   2.0000      -1.109465       -30.1901
  12   2.0000      -1.065523       -28.9944
  13   2.0000      -1.009399       -27.4671
  14   2.0000      -0.892272       -24.2799
  15   2.0000      -0.871951       -23.7270
  16   2.0000      -0.777490       -21.1566
  17   2.0000      -0.729493       -19.8505
  18   2.0000      -0.687120       -18.6975
  19   2.0000      -0.669129       -18.2079
  20   2.0000      -0.631558       -17.1856
  21   2.0000      -0.615692       -16.7538
  22   2.0000      -0.614343       -16.7171
  23   2.0000      -0.584997       -15.9186
  24   2.0000      -0.563174       -15.3247
  25   2.0000      -0.557372       -15.1669
  26   2.0000      -0.542128       -14.7521
  27   2.0000      -0.510537       -13.8924
  28   2.0000      -0.440685       -11.9917
  29   2.0000      -0.421082       -11.4582
  30   2.0000      -0.394360       -10.7311
  31   2.0000      -0.362749        -9.8709
  32   0.0000       0.022883         0.6227
  33   0.0000       0.025122         0.6836
  34   0.0000       0.032939         0.8963
  35   0.0000       0.039212         1.0670
  36   0.0000       0.041265         1.1229

MULLIKEN ATOMIC CHARGES
-----------------------
   0 C :   -0.313859
   1 C :   -0.189365
   2 C :   -0.408137
   3 C :   -0.107226
   4 C :   -0.183680
   5 C :    1.188011
   6 C :   -0.821985
   7 N :   -0.686786
   8 O :   -0.793379
   9 H :    0.311064
  10 H :    0.330822
  11 H :    0.512006
  12 H :    0.432853
  13 H :    0.212889
  14 H :    0.212889
  15 H :    0.303884
Sum of atomic charges:    0.0000000

LOEWDIN ATOMIC CHARGES
----------------------
   0 C :    0.356450
   1 C :    0.314907
   2 C :    0.086354
   3 C :    0.066766
   4 C :   -0.126677
   5 C :   -0.655532
   6 C :    0.880923
   7 N :    0.611194
   8 O :    0.738119
   9 H :   -0.325216
  10 H :   -0.328755
  11 H :   -0.346175
  12 H :   -0.370041
  13 H :   -0.292657
  14 H :   -0.292657
  15 H :   -0.317004

  Mayer bond orders larger than 0.100000
B(  0-C ,  1-C ) :   1.2598 B(  0-C ,  2-C ) :   1.2552 B(  0-C ,  4-C ) :  -0.3179
B(  0-C ,  9-H ) :   1.0195 B(  1-C ,  4-C ) :   0.9497 B(  1-C ,  5-C ) :  -0.2756
B(  1-C ,  9-H ) :  -0.1279 B(  1-C , 10-H ) :   0.9104 B(  2-C ,  7-N ) :   1.3710
B(  2-C , 11-H ) :   0.8078 B(  3-C ,  4-C ) :   1.2534 B(  3-C ,  7-N ) :   1.0392
B(  3-C , 12-H ) :   0.8683 B(  4-C ,  5-C ) :   0.8047 B(  4-C ,  8-O ) :   0.4241
B(  4-C , 12-H ) :  -0.1117 B(  5-C ,  6-C ) :   0.9061 B(  5-C ,  8-O ) :   0.8620
B(  6-C , 13-H ) :   0.9888 B(  6-C , 14-H ) :   0.9888 B(  6-C , 15-H ) :   0.9611
B(  7-N , 12-H ) :  -0.1110

MP2 TOTAL ENERGY:     -400.272960919 Eh
FINAL SINGLE POINT ENERGY      -400.272960918547

DIPOLE MOMENT
-------------
                                X             Y             Z
Electronic contribution:      2.70284      -1.52443      -0.00000
Nuclear contribution   :     -2.86506       1.07099       0.00000
                        -----------------------------------------
Total Dipole Moment    :     -0.16222      -0.45344      -0.00000
                        -----------------------------------------
Magnitude (a.u.)       :      0.48158
Magnitude (Debye)      :      1.22409

Rotational constants in cm-1:     0.125952     0.041168     0.031206
Rotational constants in MHz :  3775.947284  1234.200357   935.529301

                             ****ORCA TERMINATED NORMALLY****
TOTAL RUN TIME: 0 days 0 hours 47 minutes 11 seconds 298 msec
