                         Program Version 5.0.4 -  RELEASE  -
|  1> !ri-mp2 aug-cc-pvqz aug-cc-pvqz/c tightscf
|  2> %pal nprocs 16 end
|  3>
|  4> * xyz 0 1
|  5> C      0.170671    2.748478   -0.443046
|  6> C     -0.170671   -2.748478   -0.443046
|  7> C     -0.170671    0.735400    0.732131
|  8> C      0.170671   -0.735400    0.732131
|  9> O      0.508228    1.383432   -0.325029
| 10> O     -0.508228   -1.383432   -0.325029
| 11> H      0.742895    3.152831   -1.275405
| 12> H      0.423122    3.306090    0.467816
| 13> H     -0.898648    2.880525   -0.647014
| 14> H      0.898648   -2.880525   -0.647014
| 15> H     -0.742895   -3.152831   -1.275405
| 16> H     -0.423122   -3.306090    0.467816
| 17> H      0.125486    1.172411    1.696274
| 18> H     -1.256057    0.857539    0.624047
| 19> H     -0.125486   -1.172411    1.696274
| 20> H      1.256057   -0.857539    0.624047
| 21> *
| 22>
| 23>                          ****END OF INPUT****

CARTESIAN COORDINATES (ANGSTROEM)
---------------------------------
  C      0.170671    2.748478   -0.443046
  C     -0.170671   -2.748478   -0.443046
  C     -0.170671    0.735400    0.732131
  C      0.170671   -0.735400    0.732131
  O      0.508228    1.383432   -0.325029
  O     -0.508228   -1.383432   -0.325029
  H      0.742895    3.152831   -1.275405
  H      0.423122    3.306090    0.467816
  H     -0.898648    2.880525   -0.647014
  H      0.898648   -2.880525   -0.647014
  H     -0.742895   -3.152831   -1.275405
  H     -0.423122   -3.306090    0.467816
  H      0.125486    1.172411    1.696274
  H     -1.256057    0.857539    0.624047
  H     -0.125486   -1.172411    1.696274
  H      1.256057   -0.857539    0.624047

 Total Charge           Charge          ....    0
 Multiplicity           Mult            ....    1
 Number of Electrons    NEL             ....   50
 Basis Dimension        Dim             ....  940

ORBITAL ENERGIES
----------------

  NO   OCC          E(Eh)            E(eV)
   0   2.0000     -20.550155      -559.1982
   1   2.0000     -20.550154      -559.1981
   2   2.0000     -11.272860      -306.7501
   3   2.0000     -11.272184      -306.7317
   4   2.0000     -11.266508      -306.5773
   5   2.0000     -11.266508      -306.5773
   6   2.0000      -1.378757       -37.5179
   7   2.0000      -1.362148       -37.0659
   8   2.0000      -1.026653       -27.9366
   9   2.0000      -0.931007       -25.3340
  10   2.0000      -0.892210       -24.2783
  11   2.0000      -0.822974       -22.3943
  12   2.0000      -0.679450       -18.4888
  13   2.0000      -0.676009       -18.3951
  14   2.0000      -0.652616       -17.7586
  15   2.0000      -0.630914       -17.1680
  16   2.0000      -0.625935       -17.0326
  17   2.0000      -0.593420       -16.1478
  18   2.0000      -0.548103       -14.9146
  19   2.0000      -0.535804       -14.5800
  20   2.0000      -0.508412       -13.8346
  21   2.0000      -0.481464       -13.1013
  22   2.0000      -0.469404       -12.7731
  23   2.0000      -0.427403       -11.6302
  24   2.0000      -0.417366       -11.3571
  25   0.0000       0.026833         0.7302
  26   0.0000       0.031411         0.8547
  27   0.0000       0.035391         0.9630
  28   0.0000       0.037544         1.0216
  29   0.0000       0.048292         1.3141

MULLIKEN ATOMIC CHARGES
-----------------------
   0 C :   -0.645088
   1 C :   -0.645088
   2 C :    0.065413
   3 C :    0.065412
   4 O :   -0.795414
   5 O :   -0.795414
   6 H :    0.380555
   7 H :    0.256622
   8 H :    0.259024
   9 H :    0.259024
  10 H :    0.380555
  11 H :    0.256622
  12 H :    0.246220
  13 H :    0.232669
  14 H :    0.246220
  15 H :    0.232669
Sum of atomic charges:   -0.0000000

LOEWDIN ATOMIC CHARGES
----------------------
   0 C :    0.559422
   1 C :    0.559422
   2 C :    0.119800
   3 C :    0.119800
   4 O :    0.874047
   5 O :    0.874047
   6 H :   -0.328635
   7 H :   -0.310276
   8 H :   -0.310832
   9 H :   -0.310832
  10 H :   -0.328635
  11 H :   -0.310276
  12 H :   -0.298527
  13 H :   -0.304999
  14 H :   -0.298527
  15 H :   -0.304999

  Mayer bond orders larger than 0.100000
B(  0-C ,  2-C ) :  -0.1137 B(  0-C ,  4-O ) :   0.9380 B(  0-C ,  6-H ) :   0.8876
B(  0-C ,  7-H ) :   0.9235 B(  0-C ,  8-H ) :   0.9166 B(  1-C ,  3-C ) :  -0.1137
B(  1-C ,  5-O ) :   0.9380 B(  1-C ,  9-H ) :   0.9166 B(  1-C , 10-H ) :   0.8876
B(  1-C , 11-H ) :   0.9235 B(  2-C ,  3-C ) :   1.0492 B(  2-C ,  4-O ) :   0.6976
B(  2-C , 12-H ) :   0.9443 B(  2-C , 13-H ) :   0.8607 B(  3-C ,  5-O ) :   0.6976
B(  3-C , 14-H ) :   0.9443 B(  3-C , 15-H ) :   0.8607

MP2 TOTAL ENERGY:     -308.384408683 Eh
FINAL SINGLE POINT ENERGY      -308.384408683368

DIPOLE MOMENT
-------------
                                X             Y             Z
Electronic contribution:     -0.00000      -0.00000      -1.17409
Nuclear contribution   :      0.00000       0.00000       1.79341
                        -----------------------------------------
Total Dipole Moment    :     -0.00000      -0.00000       0.61932
                        -----------------------------------------
Magnitude (a.u.)       :      0.61932
Magnitude (Debye)      :      1.57419

Rotational constants in cm-1:     0.375562     0.050362     0.047617
Rotational constants in MHz : 11259.058299  1509.803962  1427.525770

                             ****ORCA TERMINATED NORMALLY****
TOTAL RUN TIME: 0 days 0 hours 26 minutes 9 seconds 131 msec
