                         Program Version 5.0.4 -  RELEASE  -
|  1> !ri-mp2 aug-cc-pvqz aug-cc-pvqz/c tightscf
|  2> %pal nprocs 16 end
|  3>
|  4> * xyz 0 1
|  5> C      0.000000    0.000000   -0.140930
|  6> S      0.000000    0.000000    1.541614
|  7> N     -0.517952   -1.016530   -0.880814
|  8> N      0.517952    1.016530   -0.880814
|  9> C     -1.052435   -2.261346   -0.344065
| 10> C      1.052435    2.261346   -0.344065
| 11> H      1.838995    2.593560   -1.024235
| 12> H      1.512770    2.026931    0.612762
| 13> C      0.000000    3.353187   -0.170351
| 14> H     -1.838995   -2.593560   -1.024235
| 15> H     -1.512770   -2.026931    0.612762
| 16> C      0.000000   -3.353187   -0.170351
| 17> H      0.475134   -3.601948   -1.121155
| 18> H     -0.461950   -4.260562    0.222206
| 19> H      0.769069   -3.029798    0.529468
| 20> H      0.461950    4.260562    0.222206
| 21> H     -0.769069    3.029798    0.529468
| 22> H     -0.475134    3.601948   -1.121155
| 23> H     -0.367821   -0.990573   -1.876978
| 24> H      0.367821    0.990573   -1.876978
| 25> *
| 26>
| 27>                          ****END OF INPUT****

CARTESIAN COORDINATES (ANGSTROEM)
---------------------------------
  C      0.000000    0.000000   -0.140930
  S      0.000000    0.000000    1.541614
  N     -0.517952   -1.016530   -0.880814
  N      0.517952    1.016530   -0.880814
  C     -1.052435   -2.261346   -0.344065
  C      1.052435    2.261346   -0.344065
  H      1.838995    2.593560   -1.024235
  H      1.512770    2.026931    0.612762
  C      0.000000    3.353187   -0.170351
  H     -1.838995   -2.593560   -1.024235
  H     -1.512770   -2.026931    0.612762
  C      0.000000   -3.353187   -0.170351
  H      0.475134   -3.601948   -1.121155
  H     -0.461950   -4.260562    0.222206
  H      0.769069   -3.029798    0.529468
  H      0.461950    4.260562    0.222206
  H     -0.769069    3.029798    0.529468
  H     -0.475134    3.601948   -1.121155
  H     -0.367821   -0.990573   -1.876978
  H      0.367821    0.990573   -1.876978

 Total Charge           Charge          ....    0
 Multiplicity           Mult            ....    1
 Number of Electrons    NEL             ....   72
 Basis Dimension        Dim             .... 1196

ORBITAL ENERGIES
----------------

  NO   OCC          E(Eh)            E(eV)
   0   2.0000     -91.875880     -2500.0698
   1   2.0000     -15.593506      -424.3209
   2   2.0000     -15.593478      -424.3201
   3   2.0000     -11.368105      -309.3419
   4   2.0000     -11.263736      -306.5018
   5   2.0000     -11.263735      -306.5018
   6   2.0000     -11.214900      -305.1729
   7   2.0000     -11.214900      -305.1729
   8   2.0000      -8.880573      -241.6527
   9   2.0000      -6.562423      -178.5726
  10   2.0000      -6.560591      -178.5228
  11   2.0000      -6.560141      -178.5105
  12   2.0000      -1.309570       -35.6352
  13   2.0000      -1.215995       -33.0889
  14   2.0000      -1.042981       -28.3809
  15   2.0000      -1.000304       -27.2197
  16   2.0000      -0.965629       -26.2761
  17   2.0000      -0.881505       -23.9870
  18   2.0000      -0.840874       -22.8813
  19   2.0000      -0.766432       -20.8557
  20   2.0000      -0.754340       -20.5266
  21   2.0000      -0.673496       -18.3268
  22   2.0000      -0.632265       -17.2048
  23   2.0000      -0.611241       -16.6327
  24   2.0000      -0.600842       -16.3497
  25   2.0000      -0.589835       -16.0502
  26   2.0000      -0.574246       -15.6260
  27   2.0000      -0.530277       -14.4296
  28   2.0000      -0.522561       -14.2196
  29   2.0000      -0.510352       -13.8874
  30   2.0000      -0.498971       -13.5777
  31   2.0000      -0.494797       -13.4641
  32   2.0000      -0.487235       -13.2583
  33   2.0000      -0.386993       -10.5306
  34   2.0000      -0.317138        -8.6298
  35   2.0000      -0.313737        -8.5372
  36   0.0000       0.015358         0.4179
  37   0.0000       0.026671         0.7258
  38   0.0000       0.030929         0.8416
  39   0.0000       0.035025         0.9531
  40   0.0000       0.042627         1.1599

MULLIKEN ATOMIC CHARGES
-----------------------
   0 C :    0.674792
   1 S :   -0.306280
   2 N :   -0.497729
   3 N :   -0.497729
   4 C :   -0.357647
   5 C :   -0.357648
   6 H :    0.319050
   7 H :    0.339555
   8 C :   -0.909159
   9 H :    0.319048
  10 H :    0.339556
  11 C :   -0.909159
  12 H :    0.241612
  13 H :    0.322014
  14 H :    0.278692
  15 H :    0.322014
  16 H :    0.278692
  17 H :    0.241611
  18 H :    0.079357
  19 H :    0.079358
Sum of atomic charges:    0.0000000

LOEWDIN ATOMIC CHARGES
----------------------
   0 C :   -1.050542
   1 S :    1.101407
   2 N :    0.763903
   3 N :    0.763903
   4 C :    0.324747
   5 C :    0.324747
   6 H :   -0.281260
   7 H :   -0.377842
   8 C :    0.922121
   9 H :   -0.281260
  10 H :   -0.377842
  11 C :    0.922121
  12 H :   -0.287581
  13 H :   -0.284565
  14 H :   -0.303908
  15 H :   -0.284565
  16 H :   -0.303908
  17 H :   -0.287581
  18 H :   -0.501049
  19 H :   -0.501049

  Mayer bond orders larger than 0.100000
B(  0-C ,  1-S ) :   1.4552 B(  0-C ,  2-N ) :   1.1079 B(  0-C ,  3-N ) :   1.1079
B(  2-N ,  4-C ) :   0.7516 B(  2-N , 18-H ) :   1.1188 B(  3-N ,  5-C ) :   0.7516
B(  3-N , 19-H ) :   1.1188 B(  4-C ,  9-H ) :   0.8665 B(  4-C , 10-H ) :   0.8675
B(  4-C , 11-C ) :   1.0341 B(  5-C ,  6-H ) :   0.8665 B(  5-C ,  7-H ) :   0.8675
B(  5-C ,  8-C ) :   1.0341 B(  8-C , 15-H ) :   0.9235 B(  8-C , 16-H ) :   0.8955
B(  8-C , 17-H ) :   0.9520 B( 11-C , 12-H ) :   0.9520 B( 11-C , 13-H ) :   0.9235
B( 11-C , 14-H ) :   0.8955

MP2 TOTAL ENERGY:     -704.477396163 Eh
FINAL SINGLE POINT ENERGY      -704.477396163026

DIPOLE MOMENT
-------------
                                X             Y             Z
Electronic contribution:     -0.00000      -0.00000       3.43472
Nuclear contribution   :     -0.00000       0.00000      -5.49554
                        -----------------------------------------
Total Dipole Moment    :     -0.00000      -0.00000      -2.06083
                        -----------------------------------------
Magnitude (a.u.)       :      2.06083
Magnitude (Debye)      :      5.23820

Rotational constants in cm-1:     0.113767     0.029324     0.025697
Rotational constants in MHz :  3410.654479   879.116418   770.368199

                             ****ORCA TERMINATED NORMALLY****
TOTAL RUN TIME: 0 days 1 hours 12 minutes 1 seconds 894 msec
