                         Program Version 5.0.4 -  RELEASE  -
|  1> !ri-mp2 aug-cc-pvqz aug-cc-pvqz/c tightscf
|  2> %pal nprocs 16 end
|  3>
|  4> * xyz 0 1
|  5> C      1.450960   -0.211024   -0.011521
|  6> C     -2.167694   -0.617691    0.265295
|  7> C     -2.071854    0.820259   -0.260051
|  8> C     -0.795643   -1.209168   -0.064247
|  9> C     -0.629862    1.220730    0.068588
| 10> C      2.289731    1.049920    0.075090
| 11> N      0.101430   -0.048120   -0.007516
| 12> O      1.961184   -1.322156   -0.085316
| 13> H     -2.323362   -0.611690    1.345899
| 14> H     -2.982362   -1.182603   -0.184363
| 15> H     -2.222111    0.835109   -1.341119
| 16> H     -2.800072    1.494779    0.187414
| 17> H     -0.466604   -1.973381    0.637241
| 18> H     -0.772611   -1.654471   -1.062577
| 19> H     -0.232266    1.952833   -0.633874
| 20> H     -0.563031    1.651531    1.073408
| 21> H      2.013722    1.662081    0.934901
| 22> H      2.163330    1.663339   -0.818914
| 23> H      3.332065    0.758403    0.158197
| 24> *
| 25>
| 26>                          ****END OF INPUT****

CARTESIAN COORDINATES (ANGSTROEM)
---------------------------------
  C      1.450960   -0.211024   -0.011521
  C     -2.167694   -0.617691    0.265295
  C     -2.071854    0.820259   -0.260051
  C     -0.795643   -1.209168   -0.064247
  C     -0.629862    1.220730    0.068588
  C      2.289731    1.049920    0.075090
  N      0.101430   -0.048120   -0.007516
  O      1.961184   -1.322156   -0.085316
  H     -2.323362   -0.611690    1.345899
  H     -2.982362   -1.182603   -0.184363
  H     -2.222111    0.835109   -1.341119
  H     -2.800072    1.494779    0.187414
  H     -0.466604   -1.973381    0.637241
  H     -0.772611   -1.654471   -1.062577
  H     -0.232266    1.952833   -0.633874
  H     -0.563031    1.651531    1.073408
  H      2.013722    1.662081    0.934901
  H      2.163330    1.663339   -0.818914
  H      3.332065    0.758403    0.158197

 Total Charge           Charge          ....    0
 Multiplicity           Mult            ....    1
 Number of Electrons    NEL             ....   62
 Basis Dimension        Dim             .... 1146

ORBITAL ENERGIES
----------------

  NO   OCC          E(Eh)            E(eV)
   0   2.0000     -20.501940      -557.8861
   1   2.0000     -15.574140      -423.7939
   2   2.0000     -11.337348      -308.5049
   3   2.0000     -11.271322      -306.7083
   4   2.0000     -11.255479      -306.2772
   5   2.0000     -11.236018      -305.7476
   6   2.0000     -11.231264      -305.6182
   7   2.0000     -11.229211      -305.5624
   8   2.0000      -1.367307       -37.2063
   9   2.0000      -1.249459       -33.9995
  10   2.0000      -1.073408       -29.2089
  11   2.0000      -1.008784       -27.4504
  12   2.0000      -0.983374       -26.7590
  13   2.0000      -0.866793       -23.5866
  14   2.0000      -0.812714       -22.1151
  15   2.0000      -0.745812       -20.2946
  16   2.0000      -0.687846       -18.7172
  17   2.0000      -0.674095       -18.3431
  18   2.0000      -0.624426       -16.9915
  19   2.0000      -0.604879       -16.4596
  20   2.0000      -0.598115       -16.2755
  21   2.0000      -0.583364       -15.8741
  22   2.0000      -0.561237       -15.2720
  23   2.0000      -0.548227       -14.9180
  24   2.0000      -0.534621       -14.5478
  25   2.0000      -0.499270       -13.5858
  26   2.0000      -0.496620       -13.5137
  27   2.0000      -0.493514       -13.4292
  28   2.0000      -0.478826       -13.0295
  29   2.0000      -0.411346       -11.1933
  30   2.0000      -0.365572        -9.9477
  31   0.0000       0.020661         0.5622
  32   0.0000       0.028059         0.7635
  33   0.0000       0.029846         0.8122
  34   0.0000       0.034627         0.9423
  35   0.0000       0.043886         1.1942

MULLIKEN ATOMIC CHARGES
-----------------------
   0 C :    1.062395
   1 C :   -0.516998
   2 C :   -0.525447
   3 C :   -0.575741
   4 C :   -0.507646
   5 C :   -0.783864
   6 N :   -0.209980
   7 O :   -0.866857
   8 H :    0.188717
   9 H :    0.311663
  10 H :    0.202530
  11 H :    0.300158
  12 H :    0.331005
  13 H :    0.256636
  14 H :    0.324842
  15 H :    0.261929
  16 H :    0.218906
  17 H :    0.248494
  18 H :    0.279258
Sum of atomic charges:    0.0000000

LOEWDIN ATOMIC CHARGES
----------------------
   0 C :   -0.838204
   1 C :    0.542304
   2 C :    0.544066
   3 C :    0.372843
   4 C :    0.377195
   5 C :    0.890244
   6 N :    0.428693
   7 O :    0.699805
   8 H :   -0.261730
   9 H :   -0.256949
  10 H :   -0.260457
  11 H :   -0.255348
  12 H :   -0.280192
  13 H :   -0.257721
  14 H :   -0.279852
  15 H :   -0.258557
  16 H :   -0.295195
  17 H :   -0.291475
  18 H :   -0.319472

  Mayer bond orders larger than 0.100000
B(  0-C ,  5-C ) :   0.8394 B(  0-C ,  6-N ) :   1.1937 B(  0-C ,  7-O ) :   1.0966
B(  1-C ,  2-C ) :   1.0197 B(  1-C ,  3-C ) :   1.0151 B(  1-C ,  8-H ) :   0.9765
B(  1-C ,  9-H ) :   0.8800 B(  2-C ,  4-C ) :   0.9754 B(  2-C , 10-H ) :   0.9608
B(  2-C , 11-H ) :   0.9061 B(  3-C ,  6-N ) :   0.6864 B(  3-C , 12-H ) :   0.8979
B(  3-C , 13-H ) :   0.9851 B(  4-C ,  6-N ) :   0.6695 B(  4-C , 14-H ) :   0.9024
B(  4-C , 15-H ) :   0.9739 B(  5-C , 16-H ) :   0.9825 B(  5-C , 17-H ) :   0.9510
B(  5-C , 18-H ) :   0.9844 B(  6-N ,  7-O ) :   0.3282

MP2 TOTAL ENERGY:     -364.649777257 Eh
FINAL SINGLE POINT ENERGY      -364.649777256964

DIPOLE MOMENT
-------------
                                X             Y             Z
Electronic contribution:      3.76418      -3.36791      -0.21565
Nuclear contribution   :     -4.96158       4.70743       0.30337
                        -----------------------------------------
Total Dipole Moment    :     -1.19740       1.33952       0.08772
                        -----------------------------------------
Magnitude (a.u.)       :      1.79882
Magnitude (Debye)      :      4.57224

Rotational constants in cm-1:     0.136107     0.051189     0.038980
Rotational constants in MHz :  4080.378060  1534.611912  1168.587136

                             ****ORCA TERMINATED NORMALLY****
TOTAL RUN TIME: 0 days 1 hours 5 minutes 46 seconds 38 msec
