                         Program Version 5.0.4 -  RELEASE  -
|  1> !ri-mp2 aug-cc-pvqz aug-cc-pvqz/c tightscf
|  2> %pal nprocs 16 end
|  3>
|  4> * xyz 0 1
|  5> O     -1.586677    0.242823   -0.452011
|  6> O      2.127839   -0.895530    1.082740
|  7> O      2.980961    0.036614   -0.679653
|  8> O     -3.549446   -0.597000   -0.150032
|  9> N      2.051118   -0.418864   -0.038076
| 10> N     -2.519406   -0.492165    0.375228
| 11> C     -0.310700    0.372479    0.201478
| 12> C      0.684193   -0.397131   -0.672929
| 13> C      0.022761    1.846227    0.352622
| 14> H     -0.376425   -0.112909    1.175395
| 15> H      0.382088   -1.438003   -0.762724
| 16> H      0.800672    0.053603   -1.652876
| 17> H      0.997303    1.974383    0.824190
| 18> H     -0.723135    2.333423    0.978516
| 19> H      0.038585    2.342002   -0.617938
| 20> *
| 21>
| 22>                          ****END OF INPUT****

CARTESIAN COORDINATES (ANGSTROEM)
---------------------------------
  O     -1.586677    0.242823   -0.452011
  O      2.127839   -0.895530    1.082740
  O      2.980961    0.036614   -0.679653
  O     -3.549446   -0.597000   -0.150032
  N      2.051118   -0.418864   -0.038076
  N     -2.519406   -0.492165    0.375228
  C     -0.310700    0.372479    0.201478
  C      0.684193   -0.397131   -0.672929
  C      0.022761    1.846227    0.352622
  H     -0.376425   -0.112909    1.175395
  H      0.382088   -1.438003   -0.762724
  H      0.800672    0.053603   -1.652876
  H      0.997303    1.974383    0.824190
  H     -0.723135    2.333423    0.978516
  H      0.038585    2.342002   -0.617938

 Total Charge           Charge          ....    0
 Multiplicity           Mult            ....    1
 Number of Electrons    NEL             ....   70
 Basis Dimension        Dim             ....  996

ORBITAL ENERGIES
----------------

  NO   OCC          E(Eh)            E(eV)
   0   2.0000     -20.679041      -562.7053
   1   2.0000     -20.638775      -561.6096
   2   2.0000     -20.616644      -561.0074
   3   2.0000     -20.612286      -560.8888
   4   2.0000     -15.858313      -431.5266
   5   2.0000     -15.807587      -430.1463
   6   2.0000     -11.333934      -308.4120
   7   2.0000     -11.320413      -308.0441
   8   2.0000     -11.246724      -306.0389
   9   2.0000      -1.624827       -44.2138
  10   2.0000      -1.619206       -44.0608
  11   2.0000      -1.417594       -38.5747
  12   2.0000      -1.414175       -38.4817
  13   2.0000      -1.139828       -31.0163
  14   2.0000      -1.040299       -28.3080
  15   2.0000      -0.958806       -26.0904
  16   2.0000      -0.902967       -24.5710
  17   2.0000      -0.843571       -22.9547
  18   2.0000      -0.784316       -21.3423
  19   2.0000      -0.760396       -20.6914
  20   2.0000      -0.754269       -20.5247
  21   2.0000      -0.745028       -20.2732
  22   2.0000      -0.722695       -19.6655
  23   2.0000      -0.700819       -19.0703
  24   2.0000      -0.654619       -17.8131
  25   2.0000      -0.630546       -17.1580
  26   2.0000      -0.609235       -16.5781
  27   2.0000      -0.584960       -15.9176
  28   2.0000      -0.556881       -15.1535
  29   2.0000      -0.536081       -14.5875
  30   2.0000      -0.510581       -13.8936
  31   2.0000      -0.506263       -13.7761
  32   2.0000      -0.485925       -13.2227
  33   2.0000      -0.467050       -12.7091
  34   2.0000      -0.463024       -12.5995
  35   0.0000       0.025717         0.6998
  36   0.0000       0.028189         0.7671
  37   0.0000       0.033382         0.9084
  38   0.0000       0.046485         1.2649
  39   0.0000       0.048781         1.3274

MULLIKEN ATOMIC CHARGES
-----------------------
   0 O :   -0.685932
   1 O :   -0.621447
   2 O :   -0.617745
   3 O :   -0.392226
   4 N :    0.846224
   5 N :    0.423479
   6 C :    0.509665
   7 C :   -0.440485
   8 C :   -0.854551
   9 H :    0.303093
  10 H :    0.339189
  11 H :    0.396528
  12 H :    0.262181
  13 H :    0.266284
  14 H :    0.265743
Sum of atomic charges:    0.0000000

LOEWDIN ATOMIC CHARGES
----------------------
   0 O :    0.583758
   1 O :    0.553497
   2 O :    0.555921
   3 O :    0.383803
   4 N :   -0.834538
   5 N :   -0.284520
   6 C :   -0.339462
   7 C :    0.305521
   8 C :    0.908165
   9 H :   -0.372145
  10 H :   -0.290882
  11 H :   -0.319268
  12 H :   -0.287628
  13 H :   -0.280647
  14 H :   -0.281574

  Mayer bond orders larger than 0.100000
B(  0-O ,  5-N ) :   1.0223 B(  0-O ,  6-C ) :   0.4893 B(  1-O ,  2-O ) :   0.1281
B(  1-O ,  4-N ) :   1.2230 B(  2-O ,  4-N ) :   1.2365 B(  3-O ,  5-N ) :   1.7543
B(  4-N ,  7-C ) :   0.8283 B(  5-N ,  6-C ) :  -0.1591 B(  6-C ,  7-C ) :   0.8799
B(  6-C ,  8-C ) :   0.7729 B(  6-C ,  9-H ) :   0.8940 B(  7-C , 10-H ) :   0.8824
B(  7-C , 11-H ) :   0.8064 B(  8-C , 12-H ) :   0.9620 B(  8-C , 13-H ) :   0.9780
B(  8-C , 14-H ) :   0.9257

MP2 TOTAL ENERGY:     -527.468163625 Eh
FINAL SINGLE POINT ENERGY      -527.468163624856

DIPOLE MOMENT
-------------
                                X             Y             Z
Electronic contribution:     -1.80018      -4.75789      -0.12056
Nuclear contribution   :      1.09405       5.02761      -0.05549
                        -----------------------------------------
Total Dipole Moment    :     -0.70612       0.26972      -0.17604
                        -----------------------------------------
Magnitude (a.u.)       :      0.77611
Magnitude (Debye)      :      1.97271

Rotational constants in cm-1:     0.127083     0.025572     0.024065
Rotational constants in MHz :  3809.845660   766.628077   721.447337

                             ****ORCA TERMINATED NORMALLY****
TOTAL RUN TIME: 0 days 0 hours 40 minutes 1 seconds 531 msec
