                         Program Version 5.0.4 -  RELEASE  -
|  1> !ri-mp2 aug-cc-pvqz aug-cc-pvqz/c tightscf
|  2> %pal nprocs 16 end
|  3>
|  4> * xyz 0 1
|  5> C     -0.115632    2.015647    0.000000
|  6> H     -0.652547    2.342305    0.887714
|  7> H     -0.652547    2.342305   -0.887714
|  8> H      0.882425    2.445220    0.000000
|  9> N      0.000000    0.569086    0.000000
| 10> N     -1.090343   -0.221557    0.000000
| 11> N     -0.666004   -1.437578    0.000000
| 12> H      2.096573    0.126082    0.000000
| 13> C      1.080585   -0.227007    0.000000
| 14> N      0.690116   -1.479630    0.000000
| 15> *
| 16>
| 17>                          ****END OF INPUT****

CARTESIAN COORDINATES (ANGSTROEM)
---------------------------------
  C     -0.115632    2.015647    0.000000
  H     -0.652547    2.342305    0.887714
  H     -0.652547    2.342305   -0.887714
  H      0.882425    2.445220    0.000000
  N      0.000000    0.569086    0.000000
  N     -1.090343   -0.221557    0.000000
  N     -0.666004   -1.437578    0.000000
  H      2.096573    0.126082    0.000000
  C      1.080585   -0.227007    0.000000
  N      0.690116   -1.479630    0.000000

 Total Charge           Charge          ....    0
 Multiplicity           Mult            ....    1
 Number of Electrons    NEL             ....   44
 Basis Dimension        Dim             ....  664

ORBITAL ENERGIES
----------------

  NO   OCC          E(Eh)            E(eV)
   0   2.0000     -15.676344      -426.5750
   1   2.0000     -15.651275      -425.8928
   2   2.0000     -15.639541      -425.5736
   3   2.0000     -15.594555      -424.3494
   4   2.0000     -11.326437      -308.2080
   5   2.0000     -11.305314      -307.6332
   6   2.0000      -1.488634       -40.5078
   7   2.0000      -1.266408       -34.4607
   8   2.0000      -1.188076       -32.3292
   9   2.0000      -1.020167       -27.7602
  10   2.0000      -0.890600       -24.2345
  11   2.0000      -0.853517       -23.2254
  12   2.0000      -0.743173       -20.2228
  13   2.0000      -0.700160       -19.0523
  14   2.0000      -0.658089       -17.9075
  15   2.0000      -0.615692       -16.7538
  16   2.0000      -0.605206       -16.4685
  17   2.0000      -0.558413       -15.1952
  18   2.0000      -0.471874       -12.8403
  19   2.0000      -0.463413       -12.6101
  20   2.0000      -0.431277       -11.7356
  21   2.0000      -0.412169       -11.2157
  22   0.0000       0.014558         0.3961
  23   0.0000       0.030218         0.8223
  24   0.0000       0.034851         0.9484
  25   0.0000       0.041318         1.1243
  26   0.0000       0.066778         1.8171

MULLIKEN ATOMIC CHARGES
-----------------------
   0 C :   -0.706269
   1 H :    0.309117
   2 H :    0.309117
   3 H :    0.329778
   4 N :   -0.073271
   5 N :   -0.164624
   6 N :   -0.183520
   7 H :    0.545807
   8 C :    0.087748
   9 N :   -0.453883
Sum of atomic charges:   -0.0000000

LOEWDIN ATOMIC CHARGES
----------------------
   0 C :    0.802407
   1 H :   -0.285455
   2 H :   -0.285455
   3 H :   -0.302119
   4 N :    0.074008
   5 N :    0.175240
   6 N :    0.028424
   7 H :   -0.321560
   8 C :   -0.165527
   9 N :    0.280037

  Mayer bond orders larger than 0.100000
B(  0-C ,  1-H ) :   0.9397 B(  0-C ,  2-H ) :   0.9397 B(  0-C ,  3-H ) :   0.8886
B(  0-C ,  4-N ) :   0.6867 B(  4-N ,  5-N ) :   0.9022 B(  4-N ,  8-C ) :   1.3346
B(  5-N ,  6-N ) :   1.4391 B(  6-N ,  9-N ) :   1.0574 B(  7-H ,  8-C ) :   0.6723
B(  8-C ,  9-N ) :   1.5809

MP2 TOTAL ENERGY:     -297.131844287 Eh
FINAL SINGLE POINT ENERGY      -297.131844286576

DIPOLE MOMENT
-------------
                                X             Y             Z
Electronic contribution:     -0.70937      -4.88862       0.00000
Nuclear contribution   :      1.63895       7.11624       0.00000
                        -----------------------------------------
Total Dipole Moment    :      0.92958       2.22762       0.00000
                        -----------------------------------------
Magnitude (a.u.)       :      2.41379
Magnitude (Debye)      :      6.13538

Rotational constants in cm-1:     0.329566     0.127197     0.093392
Rotational constants in MHz :  9880.139942  3813.282627  2799.808306

                             ****ORCA TERMINATED NORMALLY****
TOTAL RUN TIME: 0 days 0 hours 10 minutes 54 seconds 166 msec
