                         Program Version 5.0.4 -  RELEASE  -
|  1> !ri-mp2 aug-cc-pvqz aug-cc-pvqz/c tightscf
|  2> %pal nprocs 16 end
|  3>
|  4> * xyz 0 1
|  5> C      0.607256   -1.472453    0.000000
|  6> C     -0.720908   -1.347453    0.000000
|  7> C      0.000000    0.838463    0.000000
|  8> C      1.215158   -0.096851    0.000000
|  9> N     -1.101042    0.002861    0.000000
| 10> O     -0.024582    2.048657    0.000000
| 11> H      1.152714   -2.400270    0.000000
| 12> H     -1.477373   -2.115225    0.000000
| 13> H      1.831991    0.113272    0.876531
| 14> H      1.831991    0.113272   -0.876531
| 15> H     -2.044414    0.349438    0.000000
| 16> *
| 17>
| 18>                          ****END OF INPUT****

CARTESIAN COORDINATES (ANGSTROEM)
---------------------------------
  C      0.607256   -1.472453    0.000000
  C     -0.720908   -1.347453    0.000000
  C      0.000000    0.838463    0.000000
  C      1.215158   -0.096851    0.000000
  N     -1.101042    0.002861    0.000000
  O     -0.024582    2.048657    0.000000
  H      1.152714   -2.400270    0.000000
  H     -1.477373   -2.115225    0.000000
  H      1.831991    0.113272    0.876531
  H      1.831991    0.113272   -0.876531
  H     -2.044414    0.349438    0.000000

 Total Charge           Charge          ....    0
 Multiplicity           Mult            ....    1
 Number of Electrons    NEL             ....   44
 Basis Dimension        Dim             ....  710

ORBITAL ENERGIES
----------------

  NO   OCC          E(Eh)            E(eV)
   0   2.0000     -20.525569      -558.5291
   1   2.0000     -15.599020      -424.4709
   2   2.0000     -11.356334      -309.0216
   3   2.0000     -11.287751      -307.1553
   4   2.0000     -11.248364      -306.0836
   5   2.0000     -11.234039      -305.6937
   6   2.0000      -1.389318       -37.8053
   7   2.0000      -1.274302       -34.6755
   8   2.0000      -1.069090       -29.0914
   9   2.0000      -0.976177       -26.5631
  10   2.0000      -0.816024       -22.2052
  11   2.0000      -0.799099       -21.7446
  12   2.0000      -0.707587       -19.2544
  13   2.0000      -0.640306       -17.4236
  14   2.0000      -0.632364       -17.2075
  15   2.0000      -0.608187       -16.5496
  16   2.0000      -0.590704       -16.0739
  17   2.0000      -0.545696       -14.8491
  18   2.0000      -0.540549       -14.7091
  19   2.0000      -0.480459       -13.0739
  20   2.0000      -0.423187       -11.5155
  21   2.0000      -0.330355        -8.9894
  22   0.0000       0.020224         0.5503
  23   0.0000       0.027821         0.7571
  24   0.0000       0.035967         0.9787
  25   0.0000       0.040805         1.1104
  26   0.0000       0.047974         1.3054

MULLIKEN ATOMIC CHARGES
-----------------------
   0 C :   -0.408316
   1 C :   -0.249159
   2 C :    0.976240
   3 C :   -0.432857
   4 N :   -0.560094
   5 O :   -0.809246
   6 H :    0.397144
   7 H :    0.484419
   8 H :    0.258420
   9 H :    0.258420
  10 H :    0.085028
Sum of atomic charges:   -0.0000000

LOEWDIN ATOMIC CHARGES
----------------------
   0 C :    0.368412
   1 C :    0.224835
   2 C :   -0.854389
   3 C :    0.448998
   4 N :    0.808579
   5 O :    0.669418
   6 H :   -0.320707
   7 H :   -0.303560
   8 H :   -0.283400
   9 H :   -0.283400
  10 H :   -0.474787

  Mayer bond orders larger than 0.100000
B(  0-C ,  1-C ) :   1.6857 B(  0-C ,  3-C ) :   0.9215 B(  0-C ,  6-H ) :   0.8574
B(  1-C ,  3-C ) :  -0.1241 B(  1-C ,  4-N ) :   0.8417 B(  1-C ,  7-H ) :   0.8144
B(  2-C ,  3-C ) :   1.1051 B(  2-C ,  4-N ) :   1.0387 B(  2-C ,  5-O ) :   1.2248
B(  3-C ,  5-O ) :   0.1219 B(  3-C ,  8-H ) :   0.8976 B(  3-C ,  9-H ) :   0.8976
B(  4-N ,  5-O ) :   0.1916 B(  4-N , 10-H ) :   1.1956

MP2 TOTAL ENERGY:     -284.960751344 Eh
FINAL SINGLE POINT ENERGY      -284.960751344407

DIPOLE MOMENT
-------------
                                X             Y             Z
Electronic contribution:     -1.58869       2.38727      -0.00000
Nuclear contribution   :      1.28101      -3.88582       0.00000
                        -----------------------------------------
Total Dipole Moment    :     -0.30768      -1.49855      -0.00000
                        -----------------------------------------
Magnitude (a.u.)       :      1.52981
Magnitude (Debye)      :      3.88846

Rotational constants in cm-1:     0.274443     0.124496     0.087014
Rotational constants in MHz :  8227.587162  3732.298684  2608.622808

                             ****ORCA TERMINATED NORMALLY****
TOTAL RUN TIME: 0 days 0 hours 13 minutes 0 seconds 276 msec
