                         Program Version 5.0.4 -  RELEASE  -
|  1> !ri-mp2 aug-cc-pvqz aug-cc-pvqz/c tightscf
|  2> %pal nprocs 16 end
|  3>
|  4> * xyz 0 1
|  5> C      0.743618   -1.988841        0.000000
|  6> N     -0.536382   -1.791562        0.000000
|  7> C     -0.865081   -0.470779        0.000000
|  8> C      0.000000    0.626262        0.000000
|  9> C     -0.849694    1.757502        0.000000
| 10> N     -2.119175    1.395232        0.000000
| 11> N     -2.113501    0.036902        0.000000
| 12> N      1.682928   -1.003258        0.000000
| 13> C      1.418760    0.396955        0.000000
| 14> H      1.125544   -3.002395        0.000000
| 15> O      2.336731    1.192002        0.000000
| 16> H     -0.582351    2.800421        0.000000
| 17> H      2.661588   -1.251117        0.000000
| 18> H     -2.981334   -0.470717        0.000000
| 19> *
| 20>
| 21>                          ****END OF INPUT****

CARTESIAN COORDINATES (ANGSTROEM)
---------------------------------
  C      0.743618   -1.988841    0.000000
  N     -0.536382   -1.791562    0.000000
  C     -0.865081   -0.470779    0.000000
  C      0.000000    0.626262    0.000000
  C     -0.849694    1.757502    0.000000
  N     -2.119175    1.395232    0.000000
  N     -2.113501    0.036902    0.000000
  N      1.682928   -1.003258    0.000000
  C      1.418760    0.396955    0.000000
  H      1.125544   -3.002395    0.000000
  O      2.336731    1.192002    0.000000
  H     -0.582351    2.800421    0.000000
  H      2.661588   -1.251117    0.000000
  H     -2.981334   -0.470717    0.000000

 Total Charge           Charge          ....    0
 Multiplicity           Mult            ....    1
 Number of Electrons    NEL             ....   70
 Basis Dimension        Dim             ....  984

ORBITAL ENERGIES
----------------

  NO   OCC          E(Eh)            E(eV)
   0   2.0000     -20.535585      -558.8017
   1   2.0000     -15.649268      -425.8382
   2   2.0000     -15.641720      -425.6328
   3   2.0000     -15.604621      -424.6233
   4   2.0000     -15.587989      -424.1707
   5   2.0000     -11.379982      -309.6650
   6   2.0000     -11.370011      -309.3937
   7   2.0000     -11.337062      -308.4971
   8   2.0000     -11.278658      -306.9079
   9   2.0000     -11.240621      -305.8728
  10   2.0000      -1.410565       -38.3834
  11   2.0000      -1.393405       -37.9165
  12   2.0000      -1.331096       -36.2210
  13   2.0000      -1.230247       -33.4767
  14   2.0000      -1.118360       -30.4321
  15   2.0000      -1.087849       -29.6019
  16   2.0000      -0.928112       -25.2552
  17   2.0000      -0.911724       -24.8093
  18   2.0000      -0.837913       -22.8008
  19   2.0000      -0.793280       -21.5863
  20   2.0000      -0.755963       -20.5708
  21   2.0000      -0.725529       -19.7426
  22   2.0000      -0.674394       -18.3512
  23   2.0000      -0.661230       -17.9930
  24   2.0000      -0.632917       -17.2225
  25   2.0000      -0.626485       -17.0475
  26   2.0000      -0.613278       -16.6881
  27   2.0000      -0.604437       -16.4476
  28   2.0000      -0.537137       -14.6162
  29   2.0000      -0.488498       -13.2927
  30   2.0000      -0.466877       -12.7044
  31   2.0000      -0.450496       -12.2586
  32   2.0000      -0.445204       -12.1146
  33   2.0000      -0.389682       -10.6038
  34   2.0000      -0.339384        -9.2351
  35   0.0000       0.015016         0.4086
  36   0.0000       0.028853         0.7851
  37   0.0000       0.035121         0.9557
  38   0.0000       0.042583         1.1587
  39   0.0000       0.046194         1.2570

MULLIKEN ATOMIC CHARGES
-----------------------
   0 C :    0.056861
   1 N :   -0.701068
   2 C :    0.941782
   3 C :   -0.520377
   4 C :   -0.222565
   5 N :   -0.536077
   6 N :   -0.276634
   7 N :   -0.651375
   8 C :    1.345629
   9 H :    0.571948
  10 O :   -0.831394
  11 H :    0.436201
  12 H :    0.061745
  13 H :    0.325323
Sum of atomic charges:   -0.0000000

LOEWDIN ATOMIC CHARGES
----------------------
   0 C :   -0.026418
   1 N :    0.629203
   2 C :   -0.596009
   3 C :   -0.196468
   4 C :    0.079115
   5 N :    0.491782
   6 N :    0.589333
   7 N :    0.817233
   8 C :   -0.839318
   9 H :   -0.324844
  10 O :    0.677263
  11 H :   -0.331284
  12 H :   -0.498346
  13 H :   -0.471241

  Mayer bond orders larger than 0.100000
B(  0-C ,  1-N ) :   1.6820 B(  0-C ,  7-N ) :   1.0229 B(  0-C ,  9-H ) :   0.7201
B(  1-N ,  2-C ) :   0.7289 B(  2-C ,  3-C ) :   1.2601 B(  2-C ,  4-C ) :  -0.1643
B(  2-C ,  6-N ) :   1.1790 B(  2-C ,  8-C ) :  -0.1306 B(  3-C ,  4-C ) :   1.2063
B(  3-C ,  8-C ) :   1.2235 B(  3-C , 10-O ) :   0.4555 B(  4-C ,  5-N ) :   1.6128
B(  4-C ,  8-C ) :  -0.1013 B(  4-C , 11-H ) :   0.8761 B(  5-N ,  6-N ) :   0.4965
B(  6-N , 13-H ) :   0.9212 B(  7-N ,  8-C ) :   1.0257 B(  7-N , 10-O ) :   0.2595
B(  7-N , 12-H ) :   1.2177 B(  8-C , 10-O ) :   0.7904

MP2 TOTAL ENERGY:     -486.460902565 Eh
FINAL SINGLE POINT ENERGY      -486.460902565491

DIPOLE MOMENT
-------------
                                X             Y             Z
Electronic contribution:     -0.12907       0.15630       0.00000
Nuclear contribution   :      0.23390      -1.84768       0.00000
                        -----------------------------------------
Total Dipole Moment    :      0.10482      -1.69138       0.00000
                        -----------------------------------------
Magnitude (a.u.)       :      1.69463
Magnitude (Debye)      :      4.30740

Rotational constants in cm-1:     0.080926     0.050151     0.030963
Rotational constants in MHz :  2426.102444  1503.495006   928.245948

                             ****ORCA TERMINATED NORMALLY****
TOTAL RUN TIME: 0 days 0 hours 43 minutes 23 seconds 170 msec
