                         Program Version 5.0.4 -  RELEASE  -
|  1> !ri-mp2 aug-cc-pvqz aug-cc-pvqz/c tightscf
|  2> %pal nprocs 16 end
|  3>
|  4> * xyz 0 1
|  5> O     -4.169729   -0.037851   -0.000189
|  6> O      4.169729    0.037850   -0.000331
|  7> N     -1.822306    0.260406    0.000120
|  8> N      1.822306   -0.260406    0.000229
|  9> C     -0.587346   -0.486761    0.000192
| 10> C      0.587346    0.486762    0.000114
| 11> C     -3.002288    0.047253   -0.000041
| 12> C      3.002288   -0.047254   -0.000081
| 13> H     -0.530798   -1.125725   -0.882692
| 14> H     -0.530812   -1.125555    0.883200
| 15> H      0.530823    1.125555   -0.882895
| 16> H      0.530787    1.125727    0.882997
| 17> *
| 18>
| 19>                          ****END OF INPUT****

CARTESIAN COORDINATES (ANGSTROEM)
---------------------------------
  O     -4.169729   -0.037851   -0.000189
  O      4.169729    0.037850   -0.000331
  N     -1.822306    0.260406    0.000120
  N      1.822306   -0.260406    0.000229
  C     -0.587346   -0.486761    0.000192
  C      0.587346    0.486762    0.000114
  C     -3.002288    0.047253   -0.000041
  C      3.002288   -0.047254   -0.000081
  H     -0.530798   -1.125725   -0.882692
  H     -0.530812   -1.125555    0.883200
  H      0.530823    1.125555   -0.882895
  H      0.530787    1.125727    0.882997

 Total Charge           Charge          ....    0
 Multiplicity           Mult            ....    1
 Number of Electrons    NEL             ....   58
 Basis Dimension        Dim             ....  824

ORBITAL ENERGIES
----------------

  NO   OCC          E(Eh)            E(eV)
   0   2.0000     -20.611803      -560.8757
   1   2.0000     -20.611802      -560.8757
   2   2.0000     -15.597048      -424.4173
   3   2.0000     -15.597047      -424.4172
   4   2.0000     -11.406822      -310.3954
   5   2.0000     -11.406821      -310.3954
   6   2.0000     -11.311900      -307.8125
   7   2.0000     -11.311274      -307.7954
   8   2.0000      -1.465780       -39.8859
   9   2.0000      -1.465722       -39.8843
  10   2.0000      -1.293571       -35.1998
  11   2.0000      -1.279622       -34.8203
  12   2.0000      -1.080393       -29.3990
  13   2.0000      -0.934347       -25.4249
  14   2.0000      -0.774124       -21.0650
  15   2.0000      -0.743998       -20.2452
  16   2.0000      -0.724786       -19.7224
  17   2.0000      -0.706511       -19.2251
  18   2.0000      -0.687221       -18.7002
  19   2.0000      -0.667231       -18.1563
  20   2.0000      -0.664430       -18.0801
  21   2.0000      -0.644499       -17.5377
  22   2.0000      -0.634623       -17.2690
  23   2.0000      -0.583745       -15.8845
  24   2.0000      -0.570536       -15.5251
  25   2.0000      -0.465012       -12.6536
  26   2.0000      -0.449117       -12.2211
  27   2.0000      -0.434445       -11.8219
  28   2.0000      -0.434006       -11.8099
  29   0.0000       0.020040         0.5453
  30   0.0000       0.030212         0.8221
  31   0.0000       0.031675         0.8619
  32   0.0000       0.040078         1.0906
  33   0.0000       0.050255         1.3675

MULLIKEN ATOMIC CHARGES
-----------------------
   0 O :   -0.637458
   1 O :   -0.637459
   2 N :   -0.960788
   3 N :   -0.960792
   4 C :   -0.107933
   5 C :   -0.107931
   6 C :    1.159409
   7 C :    1.159412
   8 H :    0.273385
   9 H :    0.273384
  10 H :    0.273384
  11 H :    0.273385
Sum of atomic charges:    0.0000000

LOEWDIN ATOMIC CHARGES
----------------------
   0 O :    0.587931
   1 O :    0.587931
   2 N :    0.498836
   3 N :    0.498836
   4 C :    0.236232
   5 C :    0.236233
   6 C :   -0.720321
   7 C :   -0.720322
   8 H :   -0.301338
   9 H :   -0.301341
  10 H :   -0.301338
  11 H :   -0.301341

  Mayer bond orders larger than 0.100000
B(  0-O ,  2-N ) :   0.3431 B(  0-O ,  6-C ) :   1.5684 B(  1-O ,  3-N ) :   0.3431
B(  1-O ,  7-C ) :   1.5684 B(  2-N ,  4-C ) :   0.7592 B(  2-N ,  6-C ) :   2.2942
B(  3-N ,  5-C ) :   0.7592 B(  3-N ,  7-C ) :   2.2942 B(  4-C ,  5-C ) :   1.1559
B(  4-C ,  8-H ) :   0.8599 B(  4-C ,  9-H ) :   0.8599 B(  5-C , 10-H ) :   0.8599
B(  5-C , 11-H ) :   0.8598

MP2 TOTAL ENERGY:     -414.198967015 Eh
FINAL SINGLE POINT ENERGY      -414.198967015364

DIPOLE MOMENT
-------------
                                X             Y             Z
Electronic contribution:     -0.00000      -0.00000      -0.00050
Nuclear contribution   :      0.00000       0.00000       0.00059
                        -----------------------------------------
Total Dipole Moment    :     -0.00000       0.00000       0.00009
                        -----------------------------------------
Magnitude (a.u.)       :      0.00009
Magnitude (Debye)      :      0.00023

Rotational constants in cm-1:     1.057805     0.019190     0.018981
Rotational constants in MHz : 31712.192139   575.296818   569.045961

                             ****ORCA TERMINATED NORMALLY****
TOTAL RUN TIME: 0 days 0 hours 15 minutes 31 seconds 216 msec
