                         Program Version 5.0.4 -  RELEASE  -
|  1> !ri-mp2 aug-cc-pvqz aug-cc-pvqz/c tightscf
|  2> %pal nprocs 16 end
|  3>
|  4> * xyz 0 1
|  5> C      0.682278   -2.011975        0.000000
|  6> N     -0.594186   -1.780881        0.000000
|  7> C     -0.879403   -0.454202        0.000000
|  8> C      0.000000    0.622440        0.000000
|  9> N     -0.689283    1.811813        0.000000
| 10> C     -1.948126    1.467994        0.000000
| 11> N     -2.127037    0.103915        0.000000
| 12> N      1.638326   -1.045896        0.000000
| 13> C      1.418524    0.367369        0.000000
| 14> H      1.040118   -3.033903        0.000000
| 15> H     -2.782873    2.149310        0.000000
| 16> H     -2.996743   -0.401694        0.000000
| 17> O      2.361664    1.128525        0.000000
| 18> H      2.611808   -1.314335        0.000000
| 19> *
| 20>
| 21>                          ****END OF INPUT****

CARTESIAN COORDINATES (ANGSTROEM)
---------------------------------
  C      0.682278   -2.011975    0.000000
  N     -0.594186   -1.780881    0.000000
  C     -0.879403   -0.454202    0.000000
  C      0.000000    0.622440    0.000000
  N     -0.689283    1.811813    0.000000
  C     -1.948126    1.467994    0.000000
  N     -2.127037    0.103915    0.000000
  N      1.638326   -1.045896    0.000000
  C      1.418524    0.367369    0.000000
  H      1.040118   -3.033903    0.000000
  H     -2.782873    2.149310    0.000000
  H     -2.996743   -0.401694    0.000000
  O      2.361664    1.128525    0.000000
  H      2.611808   -1.314335    0.000000

 Total Charge           Charge          ....    0
 Multiplicity           Mult            ....    1
 Number of Electrons    NEL             ....   70
 Basis Dimension        Dim             ....  984

ORBITAL ENERGIES
----------------

  NO   OCC          E(Eh)            E(eV)
   0   2.0000     -20.525223      -558.5197
   1   2.0000     -15.638012      -425.5319
   2   2.0000     -15.635510      -425.4638
   3   2.0000     -15.583521      -424.0492
   4   2.0000     -15.566662      -423.5904
   5   2.0000     -11.368926      -309.3642
   6   2.0000     -11.360339      -309.1305
   7   2.0000     -11.328233      -308.2569
   8   2.0000     -11.318825      -308.0009
   9   2.0000     -11.260288      -306.4080
  10   2.0000      -1.400663       -38.1140
  11   2.0000      -1.370877       -37.3035
  12   2.0000      -1.320304       -35.9273
  13   2.0000      -1.225275       -33.3414
  14   2.0000      -1.187128       -32.3034
  15   2.0000      -1.052934       -28.6518
  16   2.0000      -0.911373       -24.7997
  17   2.0000      -0.909220       -24.7411
  18   2.0000      -0.851474       -23.1698
  19   2.0000      -0.791213       -21.5300
  20   2.0000      -0.748544       -20.3689
  21   2.0000      -0.726919       -19.7805
  22   2.0000      -0.688053       -18.7229
  23   2.0000      -0.657045       -17.8791
  24   2.0000      -0.625259       -17.0142
  25   2.0000      -0.621392       -16.9089
  26   2.0000      -0.613041       -16.6817
  27   2.0000      -0.595124       -16.1941
  28   2.0000      -0.531259       -14.4563
  29   2.0000      -0.502233       -13.6665
  30   2.0000      -0.444936       -12.1073
  31   2.0000      -0.438548       -11.9335
  32   2.0000      -0.437982       -11.9181
  33   2.0000      -0.417541       -11.3619
  34   2.0000      -0.317586        -8.6420
  35   0.0000       0.016127         0.4388
  36   0.0000       0.019154         0.5212
  37   0.0000       0.035130         0.9559
  38   0.0000       0.043262         1.1772
  39   0.0000       0.048718         1.3257

MULLIKEN ATOMIC CHARGES
-----------------------
   0 C :    0.040111
   1 N :   -0.713497
   2 C :    0.939911
   3 C :   -0.152685
   4 N :   -0.652731
   5 C :   -0.234855
   6 N :   -0.539146
   7 N :   -0.638760
   8 C :    1.426413
   9 H :    0.573058
  10 H :    0.562845
  11 H :    0.161222
  12 O :   -0.817009
  13 H :    0.045122
Sum of atomic charges:   -0.0000000

LOEWDIN ATOMIC CHARGES
----------------------
   0 C :   -0.034275
   1 N :    0.621356
   2 C :   -0.590309
   3 C :   -0.445677
   4 N :    0.592867
   5 C :   -0.034571
   6 N :    0.831965
   7 N :    0.809752
   8 C :   -0.839594
   9 H :   -0.327913
  10 H :   -0.317831
  11 H :   -0.438103
  12 O :    0.673991
  13 H :   -0.501656

  Mayer bond orders larger than 0.100000
B(  0-C ,  1-N ) :   1.6769 B(  0-C ,  7-N ) :   1.0338 B(  0-C ,  9-H ) :   0.7219
B(  1-N ,  2-C ) :   0.8116 B(  2-C ,  3-C ) :   1.4497 B(  2-C ,  6-N ) :   0.8839
B(  2-C ,  8-C ) :  -0.2416 B(  3-C ,  4-N ) :   0.5716 B(  3-C ,  8-C ) :   1.3303
B(  3-C , 12-O ) :   0.5544 B(  4-N ,  5-C ) :   1.7556 B(  5-C ,  6-N ) :   1.2338
B(  5-C , 10-H ) :   0.7069 B(  6-N , 11-H ) :   1.0937 B(  7-N ,  8-C ) :   1.0010
B(  7-N , 12-O ) :   0.2681 B(  7-N , 13-H ) :   1.2264 B(  8-C , 12-O ) :   0.7273

MP2 TOTAL ENERGY:     -486.479272137 Eh
FINAL SINGLE POINT ENERGY      -486.479272137122

DIPOLE MOMENT
-------------
                                X             Y             Z
Electronic contribution:      0.72195       0.61811      -0.00000
Nuclear contribution   :     -2.02911      -2.49978       0.00000
                        -----------------------------------------
Total Dipole Moment    :     -1.30716      -1.88167      -0.00000
                        -----------------------------------------
Magnitude (a.u.)       :      2.29114
Magnitude (Debye)      :      5.82362

Rotational constants in cm-1:     0.080031     0.051728     0.031420
Rotational constants in MHz :  2399.280106  1550.765605   941.943799

                             ****ORCA TERMINATED NORMALLY****
TOTAL RUN TIME: 0 days 0 hours 44 minutes 48 seconds 378 msec
