                         Program Version 5.0.4 -  RELEASE  -
|  1> !ri-mp2 aug-cc-pvqz aug-cc-pvqz/c tightscf
|  2> %pal nprocs 16 end
|  3>
|  4> * xyz 0 1
|  5> O      1.052746   -0.884054    1.262930
|  6> S      0.899001   -0.165953    0.000000
|  7> O      1.052746   -0.884054   -1.262930
|  8> C      2.067344    1.204889    0.000000
|  9> C     -0.723417    0.647846    0.000000
| 10> C     -1.851316   -0.380647    0.000000
| 11> C     -3.225240    0.289975    0.000000
| 12> H      3.053274    0.745574    0.000000
| 13> H      1.925580    1.797049   -0.900169
| 14> H      1.925580    1.797049    0.900169
| 15> H     -0.749135    1.277504    0.890070
| 16> H     -0.749135    1.277504   -0.890070
| 17> H     -1.747958   -1.021292   -0.876349
| 18> H     -1.747958   -1.021292    0.876349
| 19> H     -3.362963    0.917670    0.882223
| 20> H     -3.362963    0.917671   -0.882223
| 21> H     -4.016488   -0.459710    0.000000
| 22> *
| 23>
| 24>                          ****END OF INPUT****

CARTESIAN COORDINATES (ANGSTROEM)
---------------------------------
  O      1.052746   -0.884054    1.262930
  S      0.899001   -0.165953    0.000000
  O      1.052746   -0.884054   -1.262930
  C      2.067344    1.204889    0.000000
  C     -0.723417    0.647846    0.000000
  C     -1.851316   -0.380647    0.000000
  C     -3.225240    0.289975    0.000000
  H      3.053274    0.745574    0.000000
  H      1.925580    1.797049   -0.900169
  H      1.925580    1.797049    0.900169
  H     -0.749135    1.277504    0.890070
  H     -0.749135    1.277504   -0.890070
  H     -1.747958   -1.021292   -0.876349
  H     -1.747958   -1.021292    0.876349
  H     -3.362963    0.917670    0.882223
  H     -3.362963    0.917671   -0.882223
  H     -4.016488   -0.459710    0.000000

 Total Charge           Charge          ....    0
 Multiplicity           Mult            ....    1
 Number of Electrons    NEL             ....   66
 Basis Dimension        Dim             .... 1024

ORBITAL ENERGIES
----------------

  NO   OCC          E(Eh)            E(eV)
   0   2.0000     -92.167686     -2508.0102
   1   2.0000     -20.536344      -558.8223
   2   2.0000     -20.536324      -558.8218
   3   2.0000     -11.277168      -306.8673
   4   2.0000     -11.275373      -306.8185
   5   2.0000     -11.243151      -305.9417
   6   2.0000     -11.229990      -305.5836
   7   2.0000      -9.137724      -248.6501
   8   2.0000      -6.822989      -185.6630
   9   2.0000      -6.822337      -185.6452
  10   2.0000      -6.821954      -185.6348
  11   2.0000      -1.435194       -39.0536
  12   2.0000      -1.324428       -36.0395
  13   2.0000      -1.100321       -29.9412
  14   2.0000      -1.042628       -28.3713
  15   2.0000      -0.973083       -26.4789
  16   2.0000      -0.850361       -23.1395
  17   2.0000      -0.798530       -21.7291
  18   2.0000      -0.684536       -18.6272
  19   2.0000      -0.676071       -18.3968
  20   2.0000      -0.657027       -17.8786
  21   2.0000      -0.641854       -17.4657
  22   2.0000      -0.603159       -16.4128
  23   2.0000      -0.599851       -16.3228
  24   2.0000      -0.593608       -16.1529
  25   2.0000      -0.572935       -15.5904
  26   2.0000      -0.533261       -14.5108
  27   2.0000      -0.510182       -13.8828
  28   2.0000      -0.500714       -13.6251
  29   2.0000      -0.487786       -13.2733
  30   2.0000      -0.484294       -13.1783
  31   2.0000      -0.462191       -12.5769
  32   2.0000      -0.429540       -11.6884
  33   0.0000       0.019026         0.5177
  34   0.0000       0.026273         0.7149
  35   0.0000       0.031899         0.8680
  36   0.0000       0.035750         0.9728
  37   0.0000       0.046719         1.2713

MULLIKEN ATOMIC CHARGES
-----------------------
   0 O :   -1.290877
   1 S :    2.427034
   2 O :   -1.290879
   3 C :   -1.072560
   4 C :   -0.465528
   5 C :   -0.408386
   6 C :   -0.897103
   7 H :    0.390741
   8 H :    0.340440
   9 H :    0.340437
  10 H :    0.317588
  11 H :    0.317588
  12 H :    0.271056
  13 H :    0.271067
  14 H :    0.232718
  15 H :    0.232718
  16 H :    0.283945
Sum of atomic charges:    0.0000000

LOEWDIN ATOMIC CHARGES
----------------------
   0 O :    0.301295
   1 S :   -0.199263
   2 O :    0.301295
   3 C :    0.834761
   4 C :    0.403971
   5 C :    0.467008
   6 C :    0.933280
   7 H :   -0.334926
   8 H :   -0.327240
   9 H :   -0.327240
  10 H :   -0.315904
  11 H :   -0.315904
  12 H :   -0.287367
  13 H :   -0.287367
  14 H :   -0.282921
  15 H :   -0.282921
  16 H :   -0.280558

  Mayer bond orders larger than 0.100000
B(  0-O ,  1-S ) :   0.8845 B(  1-S ,  2-O ) :   0.8845 B(  1-S ,  3-C ) :   0.9792
B(  1-S ,  4-C ) :   0.8463 B(  3-C ,  7-H ) :   0.8585 B(  3-C ,  8-H ) :   0.8835
B(  3-C ,  9-H ) :   0.8835 B(  4-C ,  5-C ) :   0.8350 B(  4-C , 10-H ) :   0.8625
B(  4-C , 11-H ) :   0.8625 B(  5-C ,  6-C ) :   0.9747 B(  5-C , 12-H ) :   0.8626
B(  5-C , 13-H ) :   0.8626 B(  6-C , 14-H ) :   0.9489 B(  6-C , 15-H ) :   0.9489
B(  6-C , 16-H ) :   1.0051

MP2 TOTAL ENERGY:     -706.161894400 Eh
FINAL SINGLE POINT ENERGY      -706.161894400389

DIPOLE MOMENT
-------------
                                X             Y             Z
Electronic contribution:      8.33699      -4.38798       0.00000
Nuclear contribution   :     -8.95464       6.29491       0.00000
                        -----------------------------------------
Total Dipole Moment    :     -0.61766       1.90692       0.00000
                        -----------------------------------------
Magnitude (a.u.)       :      2.00446
Magnitude (Debye)      :      5.09493

Rotational constants in cm-1:     0.137682     0.041603     0.040830
Rotational constants in MHz :  4127.603545  1247.212466  1224.043828

                             ****ORCA TERMINATED NORMALLY****
TOTAL RUN TIME: 0 days 0 hours 42 minutes 9 seconds 988 msec
