                         Program Version 5.0.4 -  RELEASE  -
|  1> !ri-mp2 aug-cc-pvqz aug-cc-pvqz/c tightscf
|  2> %pal nprocs 16 end
|  3>
|  4> * xyz 0 1
|  5> O     -0.672368   -0.891320        0.000000
|  6> N      0.733709   -0.902550        0.000000
|  7> N      1.120509    0.284725        0.000000
|  8> C      0.000000    1.089677        0.000000
|  9> N     -1.090635    0.393352        0.000000
| 10> H      0.033864    2.163813        0.000000
| 11> *
| 12>
| 13>                          ****END OF INPUT****

CARTESIAN COORDINATES (ANGSTROEM)
---------------------------------
  O     -0.672368   -0.891320    0.000000
  N      0.733709   -0.902550    0.000000
  N      1.120509    0.284725    0.000000
  C      0.000000    1.089677    0.000000
  N     -1.090635    0.393352    0.000000
  H      0.033864    2.163813    0.000000

 Total Charge           Charge          ....    0
 Multiplicity           Mult            ....    1
 Number of Electrons    NEL             ....   36
 Basis Dimension        Dim             ....  446

ORBITAL ENERGIES
----------------

  NO   OCC          E(Eh)            E(eV)
   0   2.0000     -20.710098      -563.5504
   1   2.0000     -15.736287      -428.2061
   2   2.0000     -15.683012      -426.7564
   3   2.0000     -15.664242      -426.2457
   4   2.0000     -11.340512      -308.5910
   5   2.0000      -1.595981       -43.4288
   6   2.0000      -1.359245       -36.9869
   7   2.0000      -1.228614       -33.4323
   8   2.0000      -0.947109       -25.7721
   9   2.0000      -0.907401       -24.6916
  10   2.0000      -0.775552       -21.1038
  11   2.0000      -0.728300       -19.8181
  12   2.0000      -0.648101       -17.6357
  13   2.0000      -0.608449       -16.5567
  14   2.0000      -0.536648       -14.6029
  15   2.0000      -0.525681       -14.3045
  16   2.0000      -0.510862       -13.9013
  17   2.0000      -0.458819       -12.4851
  18   0.0000       0.023406         0.6369
  19   0.0000       0.055936         1.5221
  20   0.0000       0.059548         1.6204
  21   0.0000       0.061776         1.6810
  22   0.0000       0.064260         1.7486

MULLIKEN ATOMIC CHARGES
-----------------------
   0 O :   -0.356947
   1 N :    0.135870
   2 N :   -0.293464
   3 C :    0.001917
   4 N :   -0.122728
   5 H :    0.635352
Sum of atomic charges:    0.0000000

LOEWDIN ATOMIC CHARGES
----------------------
   0 O :    0.313123
   1 N :   -0.011577
   2 N :    0.207148
   3 C :   -0.296131
   4 N :    0.166533
   5 H :   -0.379096

  Mayer bond orders larger than 0.100000
B(  0-O ,  1-N ) :   0.9191 B(  0-O ,  4-N ) :   0.8940 B(  1-N ,  2-N ) :   1.6790
B(  2-N ,  3-C ) :   1.1149 B(  3-C ,  4-N ) :   1.7045 B(  3-C ,  5-H ) :   0.6112

MP2 TOTAL ENERGY:     -277.716427608 Eh
FINAL SINGLE POINT ENERGY      -277.716427607702

DIPOLE MOMENT
-------------
                                X             Y             Z
Electronic contribution:      0.05358      -1.16885       0.00000
Nuclear contribution   :      0.02641       2.04476       0.00000
                        -----------------------------------------
Total Dipole Moment    :      0.07999       0.87591       0.00000
                        -----------------------------------------
Magnitude (a.u.)       :      0.87956
Magnitude (Debye)      :      2.23566

Rotational constants in cm-1:     0.367175     0.340899     0.176775
Rotational constants in MHz : 11007.638176 10219.903875  5299.577491

                             ****ORCA TERMINATED NORMALLY****
TOTAL RUN TIME: 0 days 0 hours 2 minutes 59 seconds 717 msec
