                         Program Version 5.0.4 -  RELEASE  -
|  1> !ri-mp2 aug-cc-pvqz aug-cc-pvqz/c tightscf
|  2> %pal nprocs 16 end
|  3>
|  4> * xyz 0 1
|  5> N      0.000000    1.125330    0.353534
|  6> N      0.000000    0.000000    1.049856
|  7> N      0.000000   -1.125330    0.353534
|  8> C      0.000000   -0.700907   -0.908175
|  9> C      0.000000    0.700907   -0.908175
| 10> H      0.000000    0.000000    2.055597
| 11> H      0.000000   -1.396879   -1.727982
| 12> H      0.000000    1.396879   -1.727982
| 13> *
| 14>
| 15>                          ****END OF INPUT****

CARTESIAN COORDINATES (ANGSTROEM)
---------------------------------
  N      0.000000    1.125330    0.353534
  N      0.000000    0.000000    1.049856
  N      0.000000   -1.125330    0.353534
  C      0.000000   -0.700907   -0.908175
  C      0.000000    0.700907   -0.908175
  H      0.000000    0.000000    2.055597
  H      0.000000   -1.396879   -1.727982
  H      0.000000    1.396879   -1.727982

 Total Charge           Charge          ....    0
 Multiplicity           Mult            ....    1
 Number of Electrons    NEL             ....   36
 Basis Dimension        Dim             ....  538

ORBITAL ENERGIES
----------------

  NO   OCC          E(Eh)            E(eV)
   0   2.0000     -15.683253      -426.7630
   1   2.0000     -15.618710      -425.0067
   2   2.0000     -15.618649      -425.0051
   3   2.0000     -11.267417      -306.6020
   4   2.0000     -11.266244      -306.5701
   5   2.0000      -1.453599       -39.5545
   6   2.0000      -1.197578       -32.5878
   7   2.0000      -1.109839       -30.2002
   8   2.0000      -0.864027       -23.5114
   9   2.0000      -0.844233       -22.9728
  10   2.0000      -0.751650       -20.4534
  11   2.0000      -0.653992       -17.7960
  12   2.0000      -0.629758       -17.1366
  13   2.0000      -0.622647       -16.9431
  14   2.0000      -0.507408       -13.8073
  15   2.0000      -0.478844       -13.0300
  16   2.0000      -0.404158       -10.9977
  17   2.0000      -0.382103       -10.3976
  18   0.0000       0.026112         0.7105
  19   0.0000       0.032459         0.8833
  20   0.0000       0.036337         0.9888
  21   0.0000       0.070244         1.9114
  22   0.0000       0.075638         2.0582

MULLIKEN ATOMIC CHARGES
-----------------------
   0 N :   -0.398207
   1 N :    0.007246
   2 N :   -0.398207
   3 C :   -0.279851
   4 C :   -0.279851
   5 H :    0.346411
   6 H :    0.501229
   7 H :    0.501229
Sum of atomic charges:    0.0000000

LOEWDIN ATOMIC CHARGES
----------------------
   0 N :    0.449882
   1 N :    0.288142
   2 N :    0.449882
   3 C :    0.017377
   4 C :    0.017377
   5 H :   -0.507143
   6 H :   -0.357759
   7 H :   -0.357759

  Mayer bond orders larger than 0.100000
B(  0-N ,  1-N ) :   1.0279 B(  0-N ,  2-N ) :   0.1087 B(  0-N ,  3-C ) :   0.1017
B(  0-N ,  4-C ) :   1.4257 B(  1-N ,  2-N ) :   1.0279 B(  1-N ,  5-H ) :   0.9179
B(  2-N ,  3-C ) :   1.4257 B(  2-N ,  4-C ) :   0.1017 B(  3-C ,  4-C ) :   1.3068
B(  3-C ,  6-H ) :   0.7763 B(  4-C ,  7-H ) :   0.7763

MP2 TOTAL ENERGY:     -241.874406263 Eh
FINAL SINGLE POINT ENERGY      -241.874406263475

DIPOLE MOMENT
-------------
                                X             Y             Z
Electronic contribution:      0.00000       0.00000       1.23455
Nuclear contribution   :      0.00000       0.00000      -1.36074
                        -----------------------------------------
Total Dipole Moment    :      0.00000       0.00000      -0.12619
                        -----------------------------------------
Magnitude (a.u.)       :      0.12619
Magnitude (Debye)      :      0.32075

Rotational constants in cm-1:     0.344005     0.329180     0.168215
Rotational constants in MHz : 10313.019640  9868.555937  5042.946761

                             ****ORCA TERMINATED NORMALLY****
TOTAL RUN TIME: 0 days 0 hours 5 minutes 10 seconds 467 msec
