                         Program Version 5.0.4 -  RELEASE  -
|  1> !ri-mp2 aug-cc-pvqz aug-cc-pvqz/c tightscf
|  2> %pal nprocs 16 end
|  3>
|  4> * xyz 0 1
|  5> C      3.493846   -0.421699    0.204243
|  6> C     -3.184549   -0.384832    0.026086
|  7> C      2.208239    0.268987   -0.251395
|  8> C     -1.762741   -0.898519    0.195965
|  9> C      0.966634   -0.554479    0.069940
| 10> O     -0.668107    1.544752    0.490797
| 11> S     -0.558033    0.349232   -0.423484
| 12> H      4.366226    0.187832   -0.033018
| 13> H      3.490187   -0.590172    1.282549
| 14> H      3.622266   -1.390088   -0.283365
| 15> H     -3.313566    0.561793    0.548967
| 16> H     -3.430342   -0.232732   -1.025459
| 17> H     -3.894890   -1.102230    0.438056
| 18> H      2.251096    0.456272   -1.327242
| 19> H      2.117148    1.242262    0.233126
| 20> H     -1.584775   -1.813954   -0.371007
| 21> H     -1.518743   -1.069941    1.245101
| 22> H      0.880940   -0.746643    1.141226
| 23> H      0.959278   -1.504876   -0.468592
| 24> *
| 25>
| 26>                          ****END OF INPUT****

CARTESIAN COORDINATES (ANGSTROEM)
---------------------------------
  C      3.493846   -0.421699    0.204243
  C     -3.184549   -0.384832    0.026086
  C      2.208239    0.268987   -0.251395
  C     -1.762741   -0.898519    0.195965
  C      0.966634   -0.554479    0.069940
  O     -0.668107    1.544752    0.490797
  S     -0.558033    0.349232   -0.423484
  H      4.366226    0.187832   -0.033018
  H      3.490187   -0.590172    1.282549
  H      3.622266   -1.390088   -0.283365
  H     -3.313566    0.561793    0.548967
  H     -3.430342   -0.232732   -1.025459
  H     -3.894890   -1.102230    0.438056
  H      2.251096    0.456272   -1.327242
  H      2.117148    1.242262    0.233126
  H     -1.584775   -1.813954   -0.371007
  H     -1.518743   -1.069941    1.245101
  H      0.880940   -0.746643    1.141226
  H      0.959278   -1.504876   -0.468592

 Total Charge           Charge          ....    0
 Multiplicity           Mult            ....    1
 Number of Electrons    NEL             ....   66
 Basis Dimension        Dim             .... 1116

ORBITAL ENERGIES
----------------

  NO   OCC          E(Eh)            E(eV)
   0   2.0000     -92.055342     -2504.9532
   1   2.0000     -20.495943      -557.7230
   2   2.0000     -11.264210      -306.5147
   3   2.0000     -11.261395      -306.4381
   4   2.0000     -11.233557      -305.6806
   5   2.0000     -11.228477      -305.5424
   6   2.0000     -11.222779      -305.3873
   7   2.0000      -9.043120      -246.0758
   8   2.0000      -6.725122      -182.9999
   9   2.0000      -6.724913      -182.9942
  10   2.0000      -6.723647      -182.9597
  11   2.0000      -1.320545       -35.9339
  12   2.0000      -1.091376       -29.6979
  13   2.0000      -1.060143       -28.8480
  14   2.0000      -0.977561       -26.6008
  15   2.0000      -0.894416       -24.3383
  16   2.0000      -0.822976       -22.3943
  17   2.0000      -0.793874       -21.6024
  18   2.0000      -0.662132       -18.0175
  19   2.0000      -0.640336       -17.4244
  20   2.0000      -0.632403       -17.2086
  21   2.0000      -0.602220       -16.3872
  22   2.0000      -0.572924       -15.5901
  23   2.0000      -0.567232       -15.4352
  24   2.0000      -0.554095       -15.0777
  25   2.0000      -0.526830       -14.3358
  26   2.0000      -0.526677       -14.3316
  27   2.0000      -0.503281       -13.6950
  28   2.0000      -0.501338       -13.6421
  29   2.0000      -0.494535       -13.4570
  30   2.0000      -0.487094       -13.2545
  31   2.0000      -0.403604       -10.9826
  32   2.0000      -0.359184        -9.7739
  33   0.0000       0.021705         0.5906
  34   0.0000       0.025694         0.6992
  35   0.0000       0.031787         0.8650
  36   0.0000       0.034305         0.9335
  37   0.0000       0.044562         1.2126

MULLIKEN ATOMIC CHARGES
-----------------------
   0 C :   -0.910380
   1 C :   -0.876046
   2 C :   -0.404135
   3 C :   -0.562077
   4 C :   -0.405285
   5 O :   -1.203351
   6 S :    1.103936
   7 H :    0.274897
   8 H :    0.241497
   9 H :    0.231665
  10 H :    0.261782
  11 H :    0.225934
  12 H :    0.295151
  13 H :    0.226745
  14 H :    0.272998
  15 H :    0.319833
  16 H :    0.299303
  17 H :    0.280043
  18 H :    0.327489
Sum of atomic charges:   -0.0000000

LOEWDIN ATOMIC CHARGES
----------------------
   0 C :    0.925954
   1 C :    0.860514
   2 C :    0.442558
   3 C :    0.320379
   4 C :    0.317637
   5 O :    0.098403
   6 S :    0.712898
   7 H :   -0.282769
   8 H :   -0.284870
   9 H :   -0.285315
  10 H :   -0.309081
  11 H :   -0.297304
  12 H :   -0.288172
  13 H :   -0.287241
  14 H :   -0.299550
  15 H :   -0.339210
  16 H :   -0.338948
  17 H :   -0.333631
  18 H :   -0.332252

  Mayer bond orders larger than 0.100000
B(  0-C ,  2-C ) :   1.0266 B(  0-C ,  7-H ) :   1.0084 B(  0-C ,  8-H ) :   0.9392
B(  0-C ,  9-H ) :   0.9492 B(  1-C ,  3-C ) :   0.8639 B(  1-C , 10-H ) :   0.9484
B(  1-C , 11-H ) :   0.9750 B(  1-C , 12-H ) :   0.9615 B(  2-C ,  4-C ) :   0.7903
B(  2-C , 13-H ) :   0.8816 B(  2-C , 14-H ) :   0.8712 B(  3-C ,  6-S ) :   0.9816
B(  3-C , 15-H ) :   0.8543 B(  3-C , 16-H ) :   0.8273 B(  4-C ,  6-S ) :   0.9007
B(  4-C , 17-H ) :   0.8390 B(  4-C , 18-H ) :   0.8724 B(  5-O ,  6-S ) :   1.1669

MP2 TOTAL ENERGY:     -670.230858316 Eh
FINAL SINGLE POINT ENERGY      -670.230858316020

DIPOLE MOMENT
-------------
                                X             Y             Z
Electronic contribution:     -3.82819       4.50267      -1.77465
Nuclear contribution   :      4.07454      -6.17537       1.44477
                        -----------------------------------------
Total Dipole Moment    :      0.24635      -1.67270      -0.32988
                        -----------------------------------------
Magnitude (a.u.)       :      1.72263
Magnitude (Debye)      :      4.37857

Rotational constants in cm-1:     0.181852     0.032965     0.029853
Rotational constants in MHz :  5451.797447   988.252663   894.968358

                             ****ORCA TERMINATED NORMALLY****
TOTAL RUN TIME: 0 days 1 hours 0 minutes 35 seconds 189 msec
