                         Program Version 5.0.4 -  RELEASE  -
|  1> !ri-mp2 aug-cc-pvqz aug-cc-pvqz/c tightscf
|  2> %pal nprocs 16 end
|  3>
|  4> * xyz 0 1
|  5> C      0.989190    2.876892    0.000000
|  6> H      1.934526    3.421126    0.000000
|  7> H      0.422313    3.170372    0.883513
|  8> H      0.422313    3.170372   -0.883513
|  9> C      1.244016    1.383759    0.000000
| 10> H      1.827047    1.091952   -0.884410
| 11> H      1.827047    1.091952    0.884410
| 12> O      0.000000    0.704770    0.000000
| 13> C      0.125303   -0.705775    0.000000
| 14> H      0.691231   -1.031792   -0.884779
| 15> H      0.691231   -1.031792    0.884779
| 16> C     -1.257913   -1.331654    0.000000
| 17> H     -1.802831   -0.972980    0.875837
| 18> H     -1.802831   -0.972980   -0.875837
| 19> C     -1.205589   -2.858427    0.000000
| 20> H     -0.685547   -3.239386   -0.881267
| 21> H     -0.685547   -3.239386    0.881267
| 22> H     -2.208990   -3.284394    0.000000
| 23> *
| 24>
| 25>                          ****END OF INPUT****

CARTESIAN COORDINATES (ANGSTROEM)
---------------------------------
  C      0.989190    2.876892    0.000000
  H      1.934526    3.421126    0.000000
  H      0.422313    3.170372    0.883513
  H      0.422313    3.170372   -0.883513
  C      1.244016    1.383759    0.000000
  H      1.827047    1.091952   -0.884410
  H      1.827047    1.091952    0.884410
  O      0.000000    0.704770    0.000000
  C      0.125303   -0.705775    0.000000
  H      0.691231   -1.031792   -0.884779
  H      0.691231   -1.031792    0.884779
  C     -1.257913   -1.331654    0.000000
  H     -1.802831   -0.972980    0.875837
  H     -1.802831   -0.972980   -0.875837
  C     -1.205589   -2.858427    0.000000
  H     -0.685547   -3.239386   -0.881267
  H     -0.685547   -3.239386    0.881267
  H     -2.208990   -3.284394    0.000000

 Total Charge           Charge          ....    0
 Multiplicity           Mult            ....    1
 Number of Electrons    NEL             ....   50
 Basis Dimension        Dim             .... 1032

ORBITAL ENERGIES
----------------

  NO   OCC          E(Eh)            E(eV)
   0   2.0000     -20.546031      -559.0859
   1   2.0000     -11.270078      -306.6744
   2   2.0000     -11.267434      -306.6025
   3   2.0000     -11.214877      -305.1723
   4   2.0000     -11.212901      -305.1185
   5   2.0000     -11.209995      -305.0395
   6   2.0000      -1.367099       -37.2006
   7   2.0000      -1.059836       -28.8396
   8   2.0000      -1.007719       -27.4214
   9   2.0000      -0.909421       -24.7466
  10   2.0000      -0.828780       -22.5522
  11   2.0000      -0.804950       -21.9038
  12   2.0000      -0.675980       -18.3944
  13   2.0000      -0.658913       -17.9299
  14   2.0000      -0.619506       -16.8576
  15   2.0000      -0.605017       -16.4633
  16   2.0000      -0.561146       -15.2696
  17   2.0000      -0.552270       -15.0280
  18   2.0000      -0.536015       -14.5857
  19   2.0000      -0.505070       -13.7437
  20   2.0000      -0.499823       -13.6009
  21   2.0000      -0.479114       -13.0373
  22   2.0000      -0.472907       -12.8684
  23   2.0000      -0.462535       -12.5862
  24   2.0000      -0.416894       -11.3443
  25   0.0000       0.027029         0.7355
  26   0.0000       0.029155         0.7933
  27   0.0000       0.034489         0.9385
  28   0.0000       0.034792         0.9468
  29   0.0000       0.045435         1.2364

MULLIKEN ATOMIC CHARGES
-----------------------
   0 C :   -0.897058
   1 H :    0.280582
   2 H :    0.232840
   3 H :    0.232840
   4 C :    0.033186
   5 H :    0.237064
   6 H :    0.237064
   7 O :   -0.887781
   8 C :    0.283630
   9 H :    0.216714
  10 H :    0.216714
  11 C :   -0.527485
  12 H :    0.235972
  13 H :    0.235971
  14 C :   -0.853410
  15 H :    0.227769
  16 H :    0.227769
  17 H :    0.267619
Sum of atomic charges:    0.0000000

LOEWDIN ATOMIC CHARGES
----------------------
   0 C :    0.905291
   1 H :   -0.294039
   2 H :   -0.293067
   3 H :   -0.293067
   4 C :    0.136996
   5 H :   -0.298164
   6 H :   -0.298164
   7 O :    0.897470
   8 C :    0.134739
   9 H :   -0.292535
  10 H :   -0.292535
  11 C :    0.487721
  12 H :   -0.280179
  13 H :   -0.280179
  14 C :    0.917671
  15 H :   -0.286077
  16 H :   -0.286077
  17 H :   -0.285805

  Mayer bond orders larger than 0.100000
B(  0-C ,  1-H ) :   0.9839 B(  0-C ,  2-H ) :   0.9556 B(  0-C ,  3-H ) :   0.9556
B(  0-C ,  4-C ) :   0.8971 B(  4-C ,  5-H ) :   0.8715 B(  4-C ,  6-H ) :   0.8715
B(  4-C ,  7-O ) :   0.8828 B(  7-O ,  8-C ) :   0.8267 B(  8-C ,  9-H ) :   0.8882
B(  8-C , 10-H ) :   0.8882 B(  8-C , 11-C ) :   0.8946 B( 11-C , 12-H ) :   0.8877
B( 11-C , 13-H ) :   0.8877 B( 11-C , 14-C ) :   1.0311 B( 11-C , 17-H ) :  -0.1003
B( 14-C , 15-H ) :   0.9434 B( 14-C , 16-H ) :   0.9434 B( 14-C , 17-H ) :   1.0067

MP2 TOTAL ENERGY:     -272.500434974 Eh
FINAL SINGLE POINT ENERGY      -272.500434974232

DIPOLE MOMENT
-------------
                                X             Y             Z
Electronic contribution:     -0.26621       1.70342      -0.00000
Nuclear contribution   :      0.67108      -1.93435       0.00000
                        -----------------------------------------
Total Dipole Moment    :      0.40487      -0.23092      -0.00000
                        -----------------------------------------
Magnitude (a.u.)       :      0.46609
Magnitude (Debye)      :      1.18471

Rotational constants in cm-1:     0.529958     0.041998     0.040376
Rotational constants in MHz : 15887.731666  1259.078981  1210.443799

                             ****ORCA TERMINATED NORMALLY****
TOTAL RUN TIME: 0 days 0 hours 39 minutes 7 seconds 842 msec
