                         Program Version 5.0.4 -  RELEASE  -
|  1> !ri-mp2 aug-cc-pvqz aug-cc-pvqz/c tightscf
|  2> %pal nprocs 16 end
|  3>
|  4> * xyz 0 1
|  5> C      1.897976   -0.126622    0.018618
|  6> C      0.516931    0.524551   -0.044771
|  7> C     -0.613059   -0.494853    0.024012
|  8> O     -1.909274    0.090322   -0.086974
|  9> H      2.048829   -0.814819   -0.815272
| 10> H      2.688867    0.622294   -0.024744
| 11> H      2.029572   -0.693014    0.942713
| 12> H      0.411143    1.099907   -0.967085
| 13> H      0.407044    1.234976    0.781380
| 14> H     -0.541025   -1.193082   -0.811207
| 15> H     -0.535151   -1.082893    0.946811
| 16> H     -2.046169    0.685602    0.656039
| 17> *
| 18>
| 19>                          ****END OF INPUT****

CARTESIAN COORDINATES (ANGSTROEM)
---------------------------------
  C      1.897976   -0.126622    0.018618
  C      0.516931    0.524551   -0.044771
  C     -0.613059   -0.494853    0.024012
  O     -1.909274    0.090322   -0.086974
  H      2.048829   -0.814819   -0.815272
  H      2.688867    0.622294   -0.024744
  H      2.029572   -0.693014    0.942713
  H      0.411143    1.099907   -0.967085
  H      0.407044    1.234976    0.781380
  H     -0.541025   -1.193082   -0.811207
  H     -0.535151   -1.082893    0.946811
  H     -2.046169    0.685602    0.656039

 Total Charge           Charge          ....    0
 Multiplicity           Mult            ....    1
 Number of Electrons    NEL             ....   34
 Basis Dimension        Dim             ....  688

ORBITAL ENERGIES
----------------

  NO   OCC          E(Eh)            E(eV)
   0   2.0000     -20.551889      -559.2453
   1   2.0000     -11.271228      -306.7057
   2   2.0000     -11.222204      -305.3717
   3   2.0000     -11.218081      -305.2595
   4   2.0000      -1.353427       -36.8286
   5   2.0000      -1.053817       -28.6758
   6   2.0000      -0.917358       -24.9626
   7   2.0000      -0.817044       -22.2329
   8   2.0000      -0.689755       -18.7692
   9   2.0000      -0.633075       -17.2268
  10   2.0000      -0.596522       -16.2322
  11   2.0000      -0.586660       -15.9638
  12   2.0000      -0.545692       -14.8490
  13   2.0000      -0.502133       -13.6637
  14   2.0000      -0.500436       -13.6176
  15   2.0000      -0.471677       -12.8350
  16   2.0000      -0.437198       -11.8968
  17   0.0000       0.025953         0.7062
  18   0.0000       0.032720         0.8904
  19   0.0000       0.035022         0.9530
  20   0.0000       0.038473         1.0469
  21   0.0000       0.055476         1.5096

MULLIKEN ATOMIC CHARGES
-----------------------
   0 C :   -0.825685
   1 C :   -0.509026
   2 C :    0.086253
   3 O :   -0.848632
   4 H :    0.229695
   5 H :    0.276359
   6 H :    0.231230
   7 H :    0.267405
   8 H :    0.253452
   9 H :    0.292993
  10 H :    0.203833
  11 H :    0.342125
Sum of atomic charges:    0.0000000

LOEWDIN ATOMIC CHARGES
----------------------
   0 C :    0.915513
   1 C :    0.485410
   2 C :    0.173743
   3 O :    1.265825
   4 H :   -0.285911
   5 H :   -0.285610
   6 H :   -0.286793
   7 H :   -0.283389
   8 H :   -0.284449
   9 H :   -0.318523
  10 H :   -0.295999
  11 H :   -0.799818

  Mayer bond orders larger than 0.100000
B(  0-C ,  1-C ) :   0.9511 B(  0-C ,  4-H ) :   0.9498 B(  0-C ,  5-H ) :   0.9655
B(  0-C ,  6-H ) :   0.9410 B(  1-C ,  2-C ) :   0.9949 B(  1-C ,  7-H ) :   0.8596
B(  1-C ,  8-H ) :   0.8718 B(  2-C ,  3-O ) :   0.6563 B(  2-C ,  9-H ) :   0.8823
B(  2-C , 10-H ) :   0.9334 B(  3-O , 11-H ) :   0.8721

MP2 TOTAL ENERGY:     -194.039296988 Eh
FINAL SINGLE POINT ENERGY      -194.039296988243

DIPOLE MOMENT
-------------
                                X             Y             Z
Electronic contribution:     -4.16634       0.29770      -0.27823
Nuclear contribution   :      4.71026      -0.14834       0.75150
                        -----------------------------------------
Total Dipole Moment    :      0.54392       0.14936       0.47326
                        -----------------------------------------
Magnitude (a.u.)       :      0.73630
Magnitude (Debye)      :      1.87152

Rotational constants in cm-1:     0.877206     0.124807     0.117242
Rotational constants in MHz : 26297.961328  3741.627396  3514.829443

                             ****ORCA TERMINATED NORMALLY****
TOTAL RUN TIME: 0 days 0 hours 11 minutes 23 seconds 985 msec
