                         Program Version 5.0.4 -  RELEASE  -
|  1> !ri-mp2 aug-cc-pvqz aug-cc-pvqz/c tightscf
|  2> %pal nprocs 16 end
|  3>
|  4> * xyz 0 1
|  5> O     -2.903943    0.542304    0.000007
|  6> O     -2.224534   -1.527721   -0.000004
|  7> N     -0.718011    0.114913    0.000001
|  8> N     -2.064664   -0.328750    0.000001
|  9> N      3.923133   -0.694141   -0.000009
| 10> C      1.475503    0.087120    0.000000
| 11> C      0.370315   -0.724286   -0.000004
| 12> C     -0.330392    1.446894    0.000007
| 13> C      1.027257    1.456025    0.000005
| 14> C      2.822191   -0.353769   -0.000005
| 15> H      0.260075   -1.791459   -0.000009
| 16> H     -1.062361    2.231220    0.000012
| 17> H      1.657653    2.327515    0.000009
| 18> *
| 19>
| 20>                          ****END OF INPUT****

CARTESIAN COORDINATES (ANGSTROEM)
---------------------------------
  O     -2.903943    0.542304    0.000007
  O     -2.224534   -1.527721   -0.000004
  N     -0.718011    0.114913    0.000001
  N     -2.064664   -0.328750    0.000001
  N      3.923133   -0.694141   -0.000009
  C      1.475503    0.087120    0.000000
  C      0.370315   -0.724286   -0.000004
  C     -0.330392    1.446894    0.000007
  C      1.027257    1.456025    0.000005
  C      2.822191   -0.353769   -0.000005
  H      0.260075   -1.791459   -0.000009
  H     -1.062361    2.231220    0.000012
  H      1.657653    2.327515    0.000009

 Total Charge           Charge          ....    0
 Multiplicity           Mult            ....    1
 Number of Electrons    NEL             ....   70
 Basis Dimension        Dim             ....  938

ORBITAL ENERGIES
----------------

  NO   OCC          E(Eh)            E(eV)
   0   2.0000     -20.649636      -561.9052
   1   2.0000     -20.649314      -561.8964
   2   2.0000     -15.939131      -433.7258
   3   2.0000     -15.720117      -427.7661
   4   2.0000     -15.584575      -424.0778
   5   2.0000     -11.335405      -308.4520
   6   2.0000     -11.318831      -308.0010
   7   2.0000     -11.304674      -307.6158
   8   2.0000     -11.290277      -307.2241
   9   2.0000     -11.281449      -306.9838
  10   2.0000      -1.680428       -45.7268
  11   2.0000      -1.467310       -39.9275
  12   2.0000      -1.385722       -37.7074
  13   2.0000      -1.237055       -33.6620
  14   2.0000      -1.162755       -31.6402
  15   2.0000      -1.065215       -28.9860
  16   2.0000      -0.998231       -27.1633
  17   2.0000      -0.886537       -24.1239
  18   2.0000      -0.852134       -23.1877
  19   2.0000      -0.815167       -22.1818
  20   2.0000      -0.798776       -21.7358
  21   2.0000      -0.780914       -21.2498
  22   2.0000      -0.744882       -20.2693
  23   2.0000      -0.659015       -17.9327
  24   2.0000      -0.652449       -17.7540
  25   2.0000      -0.637289       -17.3415
  26   2.0000      -0.618409       -16.8278
  27   2.0000      -0.573206       -15.5977
  28   2.0000      -0.557367       -15.1667
  29   2.0000      -0.545529       -14.8446
  30   2.0000      -0.523238       -14.2380
  31   2.0000      -0.507749       -13.8166
  32   2.0000      -0.481779       -13.1099
  33   2.0000      -0.412048       -11.2124
  34   2.0000      -0.368732       -10.0337
  35   0.0000       0.019128         0.5205
  36   0.0000       0.022016         0.5991
  37   0.0000       0.029003         0.7892
  38   0.0000       0.033615         0.9147
  39   0.0000       0.051465         1.4004

MULLIKEN ATOMIC CHARGES
-----------------------
   0 O :   -0.613011
   1 O :   -0.615429
   2 N :   -0.625361
   3 N :    1.285628
   4 N :   -0.782914
   5 C :   -0.410314
   6 C :    0.194093
   7 C :   -0.496627
   8 C :   -0.096297
   9 C :    0.673805
  10 H :    0.535361
  11 H :    0.466717
  12 H :    0.484350
Sum of atomic charges:    0.0000000

LOEWDIN ATOMIC CHARGES
----------------------
   0 O :    0.561510
   1 O :    0.561565
   2 N :    0.178177
   3 N :   -0.947498
   4 N :    0.407786
   5 C :   -0.231653
   6 C :    0.176780
   7 C :    0.206087
   8 C :    0.328510
   9 C :   -0.307548
  10 H :   -0.306107
  11 H :   -0.321587
  12 H :   -0.306022

  Mayer bond orders larger than 0.100000
B(  0-O ,  1-O ) :   0.1001 B(  0-O ,  2-N ) :   0.2175 B(  0-O ,  3-N ) :   1.1251
B(  1-O ,  2-N ) :   0.2526 B(  1-O ,  3-N ) :   1.1047 B(  2-N ,  3-N ) :   1.0995
B(  2-N ,  5-C ) :  -0.1904 B(  2-N ,  6-C ) :   1.1199 B(  2-N ,  7-C ) :   1.0107
B(  3-N ,  6-C ) :  -0.1949 B(  4-N ,  9-C ) :   2.3347 B(  5-C ,  6-C ) :   1.3398
B(  5-C ,  7-C ) :  -0.2286 B(  5-C ,  8-C ) :   0.9395 B(  5-C ,  9-C ) :   1.4808
B(  6-C ,  9-C ) :  -0.3257 B(  6-C , 10-H ) :   0.7047 B(  7-C ,  8-C ) :   1.6620
B(  7-C , 11-H ) :   0.8223 B(  8-C ,  9-C ) :  -0.2715 B(  8-C , 12-H ) :   0.7686

MP2 TOTAL ENERGY:     -506.174982206 Eh
FINAL SINGLE POINT ENERGY      -506.174982206392

DIPOLE MOMENT
-------------
                                X             Y             Z
Electronic contribution:     -1.48748      -1.78871      -0.00001
Nuclear contribution   :      0.74912       2.63357       0.00001
                        -----------------------------------------
Total Dipole Moment    :     -0.73836       0.84486       0.00001
                        -----------------------------------------
Magnitude (a.u.)       :      1.12204
Magnitude (Debye)      :      2.85199

Rotational constants in cm-1:     0.137440     0.026422     0.022161
Rotational constants in MHz :  4120.345078   792.103593   664.381525

                             ****ORCA TERMINATED NORMALLY****
TOTAL RUN TIME: 0 days 0 hours 37 minutes 18 seconds 238 msec
