                         Program Version 5.0.4 -  RELEASE  -
|  1> !ri-mp2 aug-cc-pvqz aug-cc-pvqz/c tightscf
|  2> %pal nprocs 16 end
|  3>
|  4> * xyz 0 1
|  5> C    -0.237982    0.743614    0.000000
|  6> C     0.237982   -0.743614    0.000000
|  7> Cl   -2.016512    0.831072    0.000000
|  8> Cl    2.016512   -0.831072    0.000000
|  9> F     0.237982    1.361871    1.086622
| 10> F     0.237982    1.361871   -1.086622
| 11> F    -0.237982   -1.361871    1.086622
| 12> F    -0.237982   -1.361871   -1.086622
| 13> *
| 14>
| 15>                          ****END OF INPUT****

CARTESIAN COORDINATES (ANGSTROEM)
---------------------------------
  C     -0.237982    0.743614    0.000000
  C      0.237982   -0.743614    0.000000
  Cl    -2.016512    0.831072    0.000000
  Cl     2.016512   -0.831072    0.000000
  F      0.237982    1.361871    1.086622
  F      0.237982    1.361871   -1.086622
  F     -0.237982   -1.361871    1.086622
  F     -0.237982   -1.361871   -1.086622

 Total Charge           Charge          ....    0
 Multiplicity           Mult            ....    1
 Number of Electrons    NEL             ....   82
 Basis Dimension        Dim             ....  648

ORBITAL ENERGIES
----------------

  NO   OCC          E(Eh)            E(eV)
   0   2.0000    -104.882881     -2854.0083
   1   2.0000    -104.882881     -2854.0083
   2   2.0000     -26.369169      -717.5416
   3   2.0000     -26.369166      -717.5415
   4   2.0000     -26.369148      -717.5410
   5   2.0000     -26.369148      -717.5410
   6   2.0000     -11.528141      -313.6967
   7   2.0000     -11.527601      -313.6820
   8   2.0000     -10.608515      -288.6724
   9   2.0000     -10.608514      -288.6723
  10   2.0000      -8.075530      -219.7463
  11   2.0000      -8.075530      -219.7463
  12   2.0000      -8.073549      -219.6924
  13   2.0000      -8.073549      -219.6924
  14   2.0000      -8.073546      -219.6924
  15   2.0000      -8.073546      -219.6923
  16   2.0000      -1.741109       -47.3780
  17   2.0000      -1.724150       -46.9165
  18   2.0000      -1.670179       -45.4479
  19   2.0000      -1.660708       -45.1902
  20   2.0000      -1.195705       -32.5368
  21   2.0000      -1.176323       -32.0094
  22   2.0000      -1.031355       -28.0646
  23   2.0000      -0.933169       -25.3928
  24   2.0000      -0.866006       -23.5652
  25   2.0000      -0.846472       -23.0337
  26   2.0000      -0.810198       -22.0466
  27   2.0000      -0.807724       -21.9793
  28   2.0000      -0.790337       -21.5062
  29   2.0000      -0.748737       -20.3742
  30   2.0000      -0.726193       -19.7607
  31   2.0000      -0.724439       -19.7130
  32   2.0000      -0.695651       -18.9296
  33   2.0000      -0.682715       -18.5776
  34   2.0000      -0.659319       -17.9410
  35   2.0000      -0.621219       -16.9042
  36   2.0000      -0.552598       -15.0370
  37   2.0000      -0.517197       -14.0737
  38   2.0000      -0.507836       -13.8189
  39   2.0000      -0.503080       -13.6895
  40   2.0000      -0.490962       -13.3598
  41   0.0000       0.045648         1.2421
  42   0.0000       0.049634         1.3506
  43   0.0000       0.055976         1.5232
  44   0.0000       0.070173         1.9095
  45   0.0000       0.073920         2.0115

MULLIKEN ATOMIC CHARGES
-----------------------
   0 C :    1.275842
   1 C :    1.275842
   2 Cl:   -0.139855
   3 Cl:   -0.139855
   4 F :   -0.567993
   5 F :   -0.567993
   6 F :   -0.567993
   7 F :   -0.567993
Sum of atomic charges:   -0.0000000

LOEWDIN ATOMIC CHARGES
----------------------
   0 C :   -2.486012
   1 C :   -2.486012
   2 Cl:    1.104862
   3 Cl:    1.104862
   4 F :    0.690575
   5 F :    0.690575
   6 F :    0.690575
   7 F :    0.690575

  Mayer bond orders larger than 0.100000
B(  0-C ,  1-C ) :   0.8887 B(  0-C ,  2-Cl) :   0.9449 B(  0-C ,  4-F ) :   0.5280
B(  0-C ,  5-F ) :   0.5280 B(  1-C ,  3-Cl) :   0.9449 B(  1-C ,  6-F ) :   0.5280
B(  1-C ,  7-F ) :   0.5280

MP2 TOTAL ENERGY:    -1394.602582761 Eh
FINAL SINGLE POINT ENERGY     -1394.602582761034

DIPOLE MOMENT
-------------
                                X             Y             Z
Electronic contribution:     -0.00000      -0.00000       0.00000
Nuclear contribution   :      0.00000       0.00000       0.00000
                        -----------------------------------------
Total Dipole Moment    :     -0.00000      -0.00000       0.00000
                        -----------------------------------------
Magnitude (a.u.)       :      0.00000
Magnitude (Debye)      :      0.00000

Rotational constants in cm-1:     0.073323     0.037735     0.033906
Rotational constants in MHz :  2198.173524  1131.272997  1016.472918

                             ****ORCA TERMINATED NORMALLY****
TOTAL RUN TIME: 0 days 0 hours 10 minutes 50 seconds 632 msec
