                         Program Version 5.0.4 -  RELEASE  -
|  1> !ri-mp2 aug-cc-pvqz aug-cc-pvqz/c tightscf
|  2> %pal nprocs 16 end
|  3>
|  4> * xyz 0 1
|  5> O      0.000000    0.000000    1.123780
|  6> C      0.000000    1.052759    0.266386
|  7> N      0.000000    0.701433   -0.967868
|  8> N      0.000000   -0.701433   -0.967868
|  9> C      0.000000   -1.052759    0.266386
| 10> H      0.000000    2.044558    0.681643
| 11> H      0.000000   -2.044558    0.681643
| 12> *
| 13>
| 14>                          ****END OF INPUT****

CARTESIAN COORDINATES (ANGSTROEM)
---------------------------------
  O      0.000000    0.000000    1.123780
  C      0.000000    1.052759    0.266386
  N      0.000000    0.701433   -0.967868
  N      0.000000   -0.701433   -0.967868
  C      0.000000   -1.052759    0.266386
  H      0.000000    2.044558    0.681643
  H      0.000000   -2.044558    0.681643

 Total Charge           Charge          ....    0
 Multiplicity           Mult            ....    1
 Number of Electrons    NEL             ....   36
 Basis Dimension        Dim             ....  492

ORBITAL ENERGIES
----------------

  NO   OCC          E(Eh)            E(eV)
   0   2.0000     -20.667646      -562.3952
   1   2.0000     -15.609305      -424.7508
   2   2.0000     -15.608714      -424.7347
   3   2.0000     -11.352071      -308.9055
   4   2.0000     -11.352030      -308.9044
   5   2.0000      -1.531522       -41.6748
   6   2.0000      -1.314491       -35.7691
   7   2.0000      -1.137004       -30.9394
   8   2.0000      -0.896726       -24.4011
   9   2.0000      -0.858306       -23.3557
  10   2.0000      -0.771161       -20.9844
  11   2.0000      -0.696025       -18.9398
  12   2.0000      -0.657554       -17.8929
  13   2.0000      -0.632046       -17.1989
  14   2.0000      -0.506545       -13.7838
  15   2.0000      -0.497589       -13.5401
  16   2.0000      -0.472909       -12.8685
  17   2.0000      -0.403945       -10.9919
  18   0.0000       0.022790         0.6202
  19   0.0000       0.029043         0.7903
  20   0.0000       0.055953         1.5226
  21   0.0000       0.064028         1.7423
  22   0.0000       0.072124         1.9626

MULLIKEN ATOMIC CHARGES
-----------------------
   0 O :   -0.601533
   1 C :    0.050668
   2 N :   -0.395822
   3 N :   -0.395822
   4 C :    0.050668
   5 H :    0.645921
   6 H :    0.645921
Sum of atomic charges:    0.0000000

LOEWDIN ATOMIC CHARGES
----------------------
   0 O :    0.813731
   1 C :   -0.344311
   2 N :    0.290346
   3 N :    0.290346
   4 C :   -0.344311
   5 H :   -0.352900
   6 H :   -0.352900

  Mayer bond orders larger than 0.100000
B(  0-O ,  1-C ) :   1.0590 B(  0-O ,  4-C ) :   1.0590 B(  1-C ,  2-N ) :   1.7382
B(  1-C ,  5-H ) :   0.5859 B(  2-N ,  3-N ) :   0.7634 B(  3-N ,  4-C ) :   1.7382
B(  4-C ,  6-H ) :   0.5859

MP2 TOTAL ENERGY:     -261.734009150 Eh
FINAL SINGLE POINT ENERGY      -261.734009149862

DIPOLE MOMENT
-------------
                                X             Y             Z
Electronic contribution:      0.00000       0.00000      -0.00101
Nuclear contribution   :      0.00000       0.00000       1.32192
                        -----------------------------------------
Total Dipole Moment    :      0.00000       0.00000       1.32091
                        -----------------------------------------
Magnitude (a.u.)       :      1.32091
Magnitude (Debye)      :      3.35750

Rotational constants in cm-1:     0.345203     0.343596     0.172199
Rotational constants in MHz : 10348.914599 10300.755762  5162.389512

                             ****ORCA TERMINATED NORMALLY****
TOTAL RUN TIME: 0 days 0 hours 4 minutes 7 seconds 957 msec
