                         Program Version 5.0.4 -  RELEASE  -
|  1> !ri-mp2 aug-cc-pvqz aug-cc-pvqz/c tightscf
|  2> %pal nprocs 16 end
|  3>
|  4> * xyz 0 1
|  5> O      0.710722   -1.733894        0.000000
|  6> N     -0.691138   -1.797404        0.000000
|  7> N     -0.085068    2.920338        0.000000
|  8> C      0.000000    0.355924        0.000000
|  9> C      1.091283   -0.460386        0.000000
| 10> C     -1.094603   -0.562112        0.000000
| 11> C     -0.038720    1.769277        0.000000
| 12> H      2.149576   -0.263840        0.000000
| 13> H     -2.149674   -0.341769        0.000000
| 14> *
| 15>
| 16>                          ****END OF INPUT****

CARTESIAN COORDINATES (ANGSTROEM)
---------------------------------
  O      0.710722   -1.733894    0.000000
  N     -0.691138   -1.797404    0.000000
  N     -0.085068    2.920338    0.000000
  C      0.000000    0.355924    0.000000
  C      1.091283   -0.460386    0.000000
  C     -1.094603   -0.562112    0.000000
  C     -0.038720    1.769277    0.000000
  H      2.149576   -0.263840    0.000000
  H     -2.149674   -0.341769    0.000000

 Total Charge           Charge          ....    0
 Multiplicity           Mult            ....    1
 Number of Electrons    NEL             ....   48
 Basis Dimension        Dim             ....  652

ORBITAL ENERGIES
----------------

  NO   OCC          E(Eh)            E(eV)
   0   2.0000     -20.686756      -562.9152
   1   2.0000     -15.660505      -426.1440
   2   2.0000     -15.590696      -424.2444
   3   2.0000     -11.368273      -309.3464
   4   2.0000     -11.322221      -308.0933
   5   2.0000     -11.303594      -307.5864
   6   2.0000     -11.297707      -307.4262
   7   2.0000      -1.536485       -41.8099
   8   2.0000      -1.244282       -33.8586
   9   2.0000      -1.210890       -32.9500
  10   2.0000      -1.128783       -30.7157
  11   2.0000      -0.914443       -24.8832
  12   2.0000      -0.864576       -23.5263
  13   2.0000      -0.814375       -22.1603
  14   2.0000      -0.715456       -19.4685
  15   2.0000      -0.698118       -18.9968
  16   2.0000      -0.639408       -17.3992
  17   2.0000      -0.611601       -16.6425
  18   2.0000      -0.578788       -15.7496
  19   2.0000      -0.538619       -14.6566
  20   2.0000      -0.530038       -14.4231
  21   2.0000      -0.483466       -13.1558
  22   2.0000      -0.460850       -12.5404
  23   2.0000      -0.396604       -10.7921
  24   0.0000       0.020950         0.5701
  25   0.0000       0.026869         0.7311
  26   0.0000       0.048585         1.3221
  27   0.0000       0.052783         1.4363
  28   0.0000       0.062523         1.7013

MULLIKEN ATOMIC CHARGES
-----------------------
   0 O :   -0.586795
   1 N :   -0.358464
   2 N :   -0.682501
   3 C :   -0.548478
   4 C :    0.199220
   5 C :    0.010555
   6 C :    0.689020
   7 H :    0.700895
   8 H :    0.576546
Sum of atomic charges:    0.0000000

LOEWDIN ATOMIC CHARGES
----------------------
   0 O :    0.615107
   1 N :    0.312033
   2 N :    0.402018
   3 C :   -0.273631
   4 C :   -0.074676
   5 C :   -0.015446
   6 C :   -0.326684
   7 H :   -0.304680
   8 H :   -0.334041

  Mayer bond orders larger than 0.100000
B(  0-O ,  1-N ) :   0.7151 B(  0-O ,  3-C ) :   0.1195 B(  0-O ,  4-C ) :   1.0141
B(  1-N ,  5-C ) :   1.5524 B(  2-N ,  6-C ) :   2.4350 B(  3-C ,  4-C ) :   1.5095
B(  3-C ,  5-C ) :   1.0675 B(  3-C ,  6-C ) :   1.2844 B(  4-C ,  5-C ) :  -0.1241
B(  4-C ,  6-C ) :  -0.1318 B(  4-C ,  7-H ) :   0.5446 B(  5-C ,  6-C ) :  -0.1141
B(  5-C ,  8-H ) :   0.6590

MP2 TOTAL ENERGY:     -337.776874273 Eh
FINAL SINGLE POINT ENERGY      -337.776874273455

DIPOLE MOMENT
-------------
                                X             Y             Z
Electronic contribution:      0.30181       0.07951      -0.00000
Nuclear contribution   :      0.00628      -0.60021       0.00000
                        -----------------------------------------
Total Dipole Moment    :      0.30808      -0.52070      -0.00000
                        -----------------------------------------
Magnitude (a.u.)       :      0.60502
Magnitude (Debye)      :      1.53783

Rotational constants in cm-1:     0.319418     0.065193     0.054143
Rotational constants in MHz :  9575.910017  1954.449418  1623.161174

                             ****ORCA TERMINATED NORMALLY****
TOTAL RUN TIME: 0 days 0 hours 12 minutes 16 seconds 201 msec
