                         Program Version 5.0.4 -  RELEASE  -
|  1> !ri-mp2 aug-cc-pvqz aug-cc-pvqz/c tightscf
|  2> %pal nprocs 16 end
|  3>
|  4> * xyz 0 1
|  5> C     -0.676877    1.824455    0.000000
|  6> C      0.000000    0.712806    0.000000
|  7> C      0.674729   -0.400337    0.000000
|  8> C      0.070788   -1.779546    0.000000
|  9> H     -0.970419    2.308430    0.924346
| 10> H     -0.970419    2.308430   -0.924346
| 11> H      1.759891   -0.339248    0.000000
| 12> H     -1.016629   -1.735258    0.000000
| 13> H      0.392869   -2.343309   -0.878652
| 14> H      0.392869   -2.343309    0.878652
| 15> *
| 16>
| 17>                          ****END OF INPUT****

CARTESIAN COORDINATES (ANGSTROEM)
---------------------------------
  C     -0.676877    1.824455    0.000000
  C      0.000000    0.712806    0.000000
  C      0.674729   -0.400337    0.000000
  C      0.070788   -1.779546    0.000000
  H     -0.970419    2.308430    0.924346
  H     -0.970419    2.308430   -0.924346
  H      1.759891   -0.339248    0.000000
  H     -1.016629   -1.735258    0.000000
  H      0.392869   -2.343309   -0.878652
  H      0.392869   -2.343309    0.878652

 Total Charge           Charge          ....    0
 Multiplicity           Mult            ....    1
 Number of Electrons    NEL             ....   30
 Basis Dimension        Dim             ....  596

ORBITAL ENERGIES
----------------

  NO   OCC          E(Eh)            E(eV)
   0   2.0000     -11.247545      -306.0613
   1   2.0000     -11.238261      -305.8086
   2   2.0000     -11.229343      -305.5660
   3   2.0000     -11.227142      -305.5061
   4   2.0000      -1.086945       -29.5773
   5   2.0000      -0.999130       -27.1877
   6   2.0000      -0.892030       -24.2734
   7   2.0000      -0.702485       -19.1156
   8   2.0000      -0.639350       -17.3976
   9   2.0000      -0.604435       -16.4475
  10   2.0000      -0.573096       -15.5947
  11   2.0000      -0.568616       -15.4728
  12   2.0000      -0.528164       -14.3721
  13   2.0000      -0.372517       -10.1367
  14   2.0000      -0.360743        -9.8163
  15   0.0000       0.026635         0.7248
  16   0.0000       0.032979         0.8974
  17   0.0000       0.037561         1.0221
  18   0.0000       0.038022         1.0346
  19   0.0000       0.051088         1.3902

MULLIKEN ATOMIC CHARGES
-----------------------
   0 C :   -0.631378
   1 C :   -0.128474
   2 C :   -0.408879
   3 C :   -0.708810
   4 H :    0.347422
   5 H :    0.347422
   6 H :    0.434103
   7 H :    0.275113
   8 H :    0.236741
   9 H :    0.236741
Sum of atomic charges:   -0.0000000

LOEWDIN ATOMIC CHARGES
----------------------
   0 C :    0.717733
   1 C :    0.190057
   2 C :    0.298953
   3 C :    0.862250
   4 H :   -0.393702
   5 H :   -0.393702
   6 H :   -0.362286
   7 H :   -0.315735
   8 H :   -0.301784
   9 H :   -0.301784

  Mayer bond orders larger than 0.100000
B(  0-C ,  1-C ) :   1.8784 B(  0-C ,  2-C ) :  -0.1786 B(  0-C ,  4-H ) :   0.8984
B(  0-C ,  5-H ) :   0.8984 B(  1-C ,  2-C ) :   1.9785 B(  2-C ,  3-C ) :   0.9258
B(  2-C ,  6-H ) :   0.7141 B(  3-C ,  7-H ) :   0.9150 B(  3-C ,  8-H ) :   0.9647
B(  3-C ,  9-H ) :   0.9647

MP2 TOTAL ENERGY:     -155.662647461 Eh
FINAL SINGLE POINT ENERGY      -155.662647460692

DIPOLE MOMENT
-------------
                                X             Y             Z
Electronic contribution:      0.45390       2.04890       0.00000
Nuclear contribution   :     -0.42897      -2.23346       0.00000
                        -----------------------------------------
Total Dipole Moment    :      0.02493      -0.18456       0.00000
                        -----------------------------------------
Magnitude (a.u.)       :      0.18624
Magnitude (Debye)      :      0.47337

Rotational constants in cm-1:     1.161776     0.140044     0.131366
Rotational constants in MHz : 34829.167260  4198.421116  3938.243570

                             ****ORCA TERMINATED NORMALLY****
TOTAL RUN TIME: 0 days 0 hours 6 minutes 41 seconds 194 msec
