                         Program Version 5.0.4 -  RELEASE  -
|  1> !ri-mp2 aug-cc-pvqz aug-cc-pvqz/c tightscf
|  2> %pal nprocs 16 end
|  3>
|  4> * xyz 0 1
|  5> C      0.575831   -0.555754        0.000000
|  6> C      0.000000    0.742606        0.000000
|  7> C     -0.120645   -1.693322        0.000000
|  8> C     -0.451906    1.856856        0.000000
|  9> H      1.660286   -0.592176        0.000000
| 10> H      0.382293   -2.649906        0.000000
| 11> H     -1.201790   -1.696289        0.000000
| 12> H     -0.860469    2.836051        0.000000
| 13> *
| 14>
| 15>                          ****END OF INPUT****

CARTESIAN COORDINATES (ANGSTROEM)
---------------------------------
  C      0.575831   -0.555754    0.000000
  C      0.000000    0.742606    0.000000
  C     -0.120645   -1.693322    0.000000
  C     -0.451906    1.856856    0.000000
  H      1.660286   -0.592176    0.000000
  H      0.382293   -2.649906    0.000000
  H     -1.201790   -1.696289    0.000000
  H     -0.860469    2.836051    0.000000

 Total Charge           Charge          ....    0
 Multiplicity           Mult            ....    1
 Number of Electrons    NEL             ....   28
 Basis Dimension        Dim             ....  504

ORBITAL ENERGIES
----------------

  NO   OCC          E(Eh)            E(eV)
   0   2.0000     -11.261172      -306.4321
   1   2.0000     -11.246812      -306.0413
   2   2.0000     -11.239022      -305.8293
   3   2.0000     -11.229535      -305.5712
   4   2.0000      -1.093995       -29.7691
   5   2.0000      -1.007030       -27.4027
   6   2.0000      -0.844992       -22.9934
   7   2.0000      -0.723901       -19.6983
   8   2.0000      -0.675920       -18.3927
   9   2.0000      -0.625933       -17.0325
  10   2.0000      -0.543082       -14.7780
  11   2.0000      -0.467436       -12.7196
  12   2.0000      -0.398068       -10.8320
  13   2.0000      -0.346390        -9.4257
  14   0.0000       0.026577         0.7232
  15   0.0000       0.029760         0.8098
  16   0.0000       0.036465         0.9923
  17   0.0000       0.046744         1.2720
  18   0.0000       0.064794         1.7631

MULLIKEN ATOMIC CHARGES
-----------------------
   0 C :   -0.208704
   1 C :   -0.077973
   2 C :   -0.854264
   3 C :   -0.731693
   4 H :    0.509528
   5 H :    0.381157
   6 H :    0.476418
   7 H :    0.505530
Sum of atomic charges:    0.0000000

LOEWDIN ATOMIC CHARGES
----------------------
   0 C :    0.217980
   1 C :    0.013947
   2 C :    0.762013
   3 C :    0.552816
   4 H :   -0.374124
   5 H :   -0.354033
   6 H :   -0.352434
   7 H :   -0.466164

  Mayer bond orders larger than 0.100000
B(  0-C ,  1-C ) :   0.9398 B(  0-C ,  2-C ) :   1.8032 B(  0-C ,  3-C ) :  -0.1818
B(  0-C ,  4-H ) :   0.7224 B(  1-C ,  3-C ) :   2.6959 B(  2-C ,  5-H ) :   0.9290
B(  2-C ,  6-H ) :   0.7477 B(  3-C ,  7-H ) :   0.8460

MP2 TOTAL ENERGY:     -154.440263551 Eh
FINAL SINGLE POINT ENERGY      -154.440263551030

DIPOLE MOMENT
-------------
                                X             Y             Z
Electronic contribution:      0.03161       1.91562      -0.00000
Nuclear contribution   :     -0.01987      -2.12291       0.00000
                        -----------------------------------------
Total Dipole Moment    :      0.01174      -0.20729      -0.00000
                        -----------------------------------------
Magnitude (a.u.)       :      0.20762
Magnitude (Debye)      :      0.52774

Rotational constants in cm-1:     1.737002     0.158176     0.144974
Rotational constants in MHz : 52074.011402  4742.005242  4346.225758

                             ****ORCA TERMINATED NORMALLY****
TOTAL RUN TIME: 0 days 0 hours 4 minutes 5 seconds 673 msec
