                         Program Version 5.0.4 -  RELEASE  -
|  1> !ri-mp2 aug-cc-pvqz aug-cc-pvqz/c tightscf
|  2> %pal nprocs 16 end
|  3>
|  4> * xyz 0 1
|  5> C      2.223779   -0.070950        0.000000
|  6> C      1.362423    1.015554        0.000000
|  7> C      0.000000    0.733827        0.000000
|  8> C     -0.501452   -0.584713        0.000000
|  9> N     -1.888696   -0.569217        0.000000
| 10> C     -2.211130    0.692186        0.000000
| 11> N     -1.126415    1.533371        0.000000
| 12> C      0.383372   -1.663536        0.000000
| 13> C      1.741213   -1.390393        0.000000
| 14> H      3.291494    0.100590        0.000000
| 15> H      1.739293    2.029395        0.000000
| 16> H     -3.218802    1.076717        0.000000
| 17> H     -1.153964    2.537179        0.000000
| 18> H      0.008732   -2.677482        0.000000
| 19> H      2.449793   -2.207335        0.000000
| 20> *
| 21>
| 22>                          ****END OF INPUT****

CARTESIAN COORDINATES (ANGSTROEM)
---------------------------------
  C      2.223779   -0.070950    0.000000
  C      1.362423    1.015554    0.000000
  C      0.000000    0.733827    0.000000
  C     -0.501452   -0.584713    0.000000
  N     -1.888696   -0.569217    0.000000
  C     -2.211130    0.692186    0.000000
  N     -1.126415    1.533371    0.000000
  C      0.383372   -1.663536    0.000000
  C      1.741213   -1.390393    0.000000
  H      3.291494    0.100590    0.000000
  H      1.739293    2.029395    0.000000
  H     -3.218802    1.076717    0.000000
  H     -1.153964    2.537179    0.000000
  H      0.008732   -2.677482    0.000000
  H      2.449793   -2.207335    0.000000

 Total Charge           Charge          ....    0
 Multiplicity           Mult            ....    1
 Number of Electrons    NEL             ....   62
 Basis Dimension        Dim             ....  996

ORBITAL ENERGIES
----------------

  NO   OCC          E(Eh)            E(eV)
   0   2.0000     -15.619178      -425.0194
   1   2.0000     -15.549295      -423.1178
   2   2.0000     -11.314450      -307.8818
   3   2.0000     -11.272390      -306.7373
   4   2.0000     -11.252590      -306.1985
   5   2.0000     -11.238794      -305.8231
   6   2.0000     -11.233072      -305.6674
   7   2.0000     -11.230987      -305.6107
   8   2.0000     -11.226394      -305.4857
   9   2.0000      -1.346904       -36.6511
  10   2.0000      -1.180375       -32.1196
  11   2.0000      -1.139002       -30.9938
  12   2.0000      -1.012398       -27.5487
  13   2.0000      -1.002859       -27.2892
  14   2.0000      -0.858276       -23.3549
  15   2.0000      -0.838038       -22.8042
  16   2.0000      -0.814954       -22.1760
  17   2.0000      -0.741582       -20.1795
  18   2.0000      -0.685208       -18.6454
  19   2.0000      -0.664695       -18.0873
  20   2.0000      -0.614821       -16.7301
  21   2.0000      -0.613450       -16.6928
  22   2.0000      -0.605408       -16.4740
  23   2.0000      -0.583179       -15.8691
  24   2.0000      -0.522614       -14.2211
  25   2.0000      -0.513056       -13.9610
  26   2.0000      -0.477161       -12.9842
  27   2.0000      -0.438029       -11.9194
  28   2.0000      -0.431991       -11.7551
  29   2.0000      -0.316517        -8.6129
  30   2.0000      -0.306151        -8.3308
  31   0.0000       0.017309         0.4710
  32   0.0000       0.026038         0.7085
  33   0.0000       0.031772         0.8646
  34   0.0000       0.039545         1.0761
  35   0.0000       0.044620         1.2142

MULLIKEN ATOMIC CHARGES
-----------------------
   0 C :   -0.496402
   1 C :   -0.355910
   2 C :    0.635575
   3 C :    0.884866
   4 N :   -0.854913
   5 C :   -0.162678
   6 N :   -0.612105
   7 C :   -0.412890
   8 C :   -0.547539
   9 H :    0.260578
  10 H :    0.332917
  11 H :    0.586009
  12 H :    0.147847
  13 H :    0.367874
  14 H :    0.226770
Sum of atomic charges:   -0.0000000

LOEWDIN ATOMIC CHARGES
----------------------
   0 C :    0.324676
   1 C :    0.373590
   2 C :   -0.299608
   3 C :   -0.417421
   4 N :    0.602629
   5 C :   -0.039180
   6 N :    0.844326
   7 C :    0.351562
   8 C :    0.328297
   9 H :   -0.331633
  10 H :   -0.322071
  11 H :   -0.315961
  12 H :   -0.445137
  13 H :   -0.320152
  14 H :   -0.333918

  Mayer bond orders larger than 0.100000
B(  0-C ,  1-C ) :   1.4188 B(  0-C ,  2-C ) :  -0.3742 B(  0-C ,  8-C ) :   1.2483
B(  0-C ,  9-H ) :   1.0982 B(  1-C ,  2-C ) :   0.8529 B(  1-C ,  3-C ) :  -0.1451
B(  1-C ,  6-N ) :  -0.1527 B(  1-C ,  7-C ) :   0.1261 B(  1-C ,  9-H ) :  -0.1205
B(  1-C , 10-H ) :   0.9464 B(  2-C ,  3-C ) :   1.5508 B(  2-C ,  6-N ) :   0.6591
B(  2-C ,  7-C ) :  -0.2465 B(  2-C , 12-H ) :  -0.1046 B(  3-C ,  4-N ) :   0.2190
B(  3-C ,  7-C ) :   0.8616 B(  3-C ,  8-C ) :  -0.3540 B(  4-N ,  5-C ) :   1.7992
B(  5-C ,  6-N ) :   1.2847 B(  5-C , 11-H ) :   0.6753 B(  6-N , 12-H ) :   1.1091
B(  7-C ,  8-C ) :   1.3875 B(  7-C , 13-H ) :   0.8975 B(  7-C , 14-H ) :  -0.1316
B(  8-C , 14-H ) :   1.1413

MP2 TOTAL ENERGY:     -379.227648135 Eh
FINAL SINGLE POINT ENERGY      -379.227648134711

DIPOLE MOMENT
-------------
                                X             Y             Z
Electronic contribution:     -2.94055       0.55338       0.00000
Nuclear contribution   :      3.05430       0.85229       0.00000
                        -----------------------------------------
Total Dipole Moment    :      0.11374       1.40567       0.00000
                        -----------------------------------------
Magnitude (a.u.)       :      1.41026
Magnitude (Debye)      :      3.58460

Rotational constants in cm-1:     0.132099     0.056169     0.039411
Rotational constants in MHz :  3960.220564  1683.916020  1181.523294

                             ****ORCA TERMINATED NORMALLY****
TOTAL RUN TIME: 0 days 0 hours 47 minutes 5 seconds 117 msec
