                         Program Version 5.0.4 -  RELEASE  -
|  1> !ri-mp2 aug-cc-pvqz aug-cc-pvqz/c tightscf
|  2> %pal nprocs 16 end
|  3>
|  4> * xyz 0 1
|  5> C      0.361772    0.190165    0.000000
|  6> C     -1.157274    0.243325    0.000000
|  7> F      0.843210    1.450981    0.000000
|  8> F      0.843210   -0.436999    1.084078
|  9> F      0.843210   -0.436999   -1.084078
| 10> F     -1.667677   -1.036067    0.000000
| 11> H     -1.492284    0.765414    0.895748
| 12> H     -1.492284    0.765414   -0.895748
| 13> *
| 14>
| 15>                          ****END OF INPUT****

CARTESIAN COORDINATES (ANGSTROEM)
---------------------------------
  C      0.361772    0.190165    0.000000
  C     -1.157274    0.243325    0.000000
  F      0.843210    1.450981    0.000000
  F      0.843210   -0.436999    1.084078
  F      0.843210   -0.436999   -1.084078
  F     -1.667677   -1.036067    0.000000
  H     -1.492284    0.765414    0.895748
  H     -1.492284    0.765414   -0.895748

 Total Charge           Charge          ....    0
 Multiplicity           Mult            ....    1
 Number of Electrons    NEL             ....   50
 Basis Dimension        Dim             ....  572

ORBITAL ENERGIES
----------------

  NO   OCC          E(Eh)            E(eV)
   0   2.0000     -26.350658      -717.0379
   1   2.0000     -26.346829      -716.9337
   2   2.0000     -26.346808      -716.9331
   3   2.0000     -26.316162      -716.0992
   4   2.0000     -11.521337      -313.5115
   5   2.0000     -11.357790      -309.0612
   6   2.0000      -1.738653       -47.3112
   7   2.0000      -1.646207       -44.7956
   8   2.0000      -1.643721       -44.7279
   9   2.0000      -1.628271       -44.3075
  10   2.0000      -1.075875       -29.2760
  11   2.0000      -0.937317       -25.5057
  12   2.0000      -0.837313       -22.7845
  13   2.0000      -0.836568       -22.7642
  14   2.0000      -0.816298       -22.2126
  15   2.0000      -0.746101       -20.3024
  16   2.0000      -0.734630       -19.9903
  17   2.0000      -0.711352       -19.3569
  18   2.0000      -0.710047       -19.3214
  19   2.0000      -0.679720       -18.4961
  20   2.0000      -0.673783       -18.3346
  21   2.0000      -0.673115       -18.3164
  22   2.0000      -0.660919       -17.9845
  23   2.0000      -0.574026       -15.6200
  24   2.0000      -0.560345       -15.2478
  25   0.0000       0.024641         0.6705
  26   0.0000       0.037575         1.0225
  27   0.0000       0.053382         1.4526
  28   0.0000       0.062891         1.7113
  29   0.0000       0.083919         2.2835

MULLIKEN ATOMIC CHARGES
-----------------------
   0 C :    1.823614
   1 C :   -0.050077
   2 F :   -0.604680
   3 F :   -0.600117
   4 F :   -0.600117
   5 F :   -0.663898
   6 H :    0.347637
   7 H :    0.347637
Sum of atomic charges:    0.0000000

LOEWDIN ATOMIC CHARGES
----------------------
   0 C :   -2.160237
   1 C :   -0.154773
   2 F :    0.751586
   3 F :    0.752756
   4 F :    0.752756
   5 F :    0.773225
   6 H :   -0.357656
   7 H :   -0.357656

  Mayer bond orders larger than 0.100000
B(  0-C ,  1-C ) :   0.9990 B(  0-C ,  2-F ) :   0.5063 B(  0-C ,  3-F ) :   0.4739
B(  0-C ,  4-F ) :   0.4739 B(  1-C ,  5-F ) :   0.4944 B(  1-C ,  6-H ) :   0.8417
B(  1-C ,  7-H ) :   0.8417

MP2 TOTAL ENERGY:     -476.337654245 Eh
FINAL SINGLE POINT ENERGY      -476.337654244662

DIPOLE MOMENT
-------------
                                X             Y             Z
Electronic contribution:      2.93617      -1.13675       0.00000
Nuclear contribution   :     -3.53031       1.82618       0.00000
                        -----------------------------------------
Total Dipole Moment    :     -0.59415       0.68943       0.00000
                        -----------------------------------------
Magnitude (a.u.)       :      0.91013
Magnitude (Debye)      :      2.31336

Rotational constants in cm-1:     0.176958     0.092331     0.090975
Rotational constants in MHz :  5305.074646  2768.009438  2727.369487

                             ****ORCA TERMINATED NORMALLY****
TOTAL RUN TIME: 0 days 0 hours 6 minutes 6 seconds 156 msec
