                         Program Version 5.0.4 -  RELEASE  -
|  1> !ri-mp2 aug-cc-pvqz aug-cc-pvqz/c tightscf
|  2> %pal nprocs 16 end
|  3>
|  4> * xyz 0 1
|  5> F      0.548649    1.404763   -0.866830
|  6> N      1.973333   -1.532425   -0.071295
|  7> N     -2.338792   -0.929583   -0.574584
|  8> C      0.660912    0.696914    0.317359
|  9> C     -0.731990    0.476706    0.920774
| 10> C      1.389652   -0.554071    0.072761
| 11> C     -1.622829   -0.312424    0.077679
| 12> H      1.247307    1.305371    1.008994
| 13> H     -0.623459   -0.014179    1.889654
| 14> H     -1.177948    1.457246    1.092538
| 15> *
| 16>
| 17>                          ****END OF INPUT****

CARTESIAN COORDINATES (ANGSTROEM)
---------------------------------
  F      0.548649    1.404763   -0.866830
  N      1.973333   -1.532425   -0.071295
  N     -2.338792   -0.929583   -0.574584
  C      0.660912    0.696914    0.317359
  C     -0.731990    0.476706    0.920774
  C      1.389652   -0.554071    0.072761
  C     -1.622829   -0.312424    0.077679
  H      1.247307    1.305371    1.008994
  H     -0.623459   -0.014179    1.889654
  H     -1.177948    1.457246    1.092538

 Total Charge           Charge          ....    0
 Multiplicity           Mult            ....    1
 Number of Electrons    NEL             ....   50
 Basis Dimension        Dim             ....  698

ORBITAL ENERGIES
----------------

  NO   OCC          E(Eh)            E(eV)
   0   2.0000     -26.338978      -716.7200
   1   2.0000     -15.609609      -424.7591
   2   2.0000     -15.592535      -424.2944
   3   2.0000     -11.415380      -310.6283
   4   2.0000     -11.331019      -308.3327
   5   2.0000     -11.303827      -307.5928
   6   2.0000     -11.295035      -307.3535
   7   2.0000      -1.653476       -44.9934
   8   2.0000      -1.259316       -34.2677
   9   2.0000      -1.245549       -33.8931
  10   2.0000      -1.139833       -31.0164
  11   2.0000      -0.996091       -27.1050
  12   2.0000      -0.818916       -22.2838
  13   2.0000      -0.780873       -21.2486
  14   2.0000      -0.750828       -20.4311
  15   2.0000      -0.706642       -19.2287
  16   2.0000      -0.662360       -18.0237
  17   2.0000      -0.637657       -17.3515
  18   2.0000      -0.616729       -16.7821
  19   2.0000      -0.585677       -15.9371
  20   2.0000      -0.575011       -15.6468
  21   2.0000      -0.510557       -13.8929
  22   2.0000      -0.502489       -13.6734
  23   2.0000      -0.485860       -13.2209
  24   2.0000      -0.484416       -13.1816
  25   0.0000       0.010335         0.2812
  26   0.0000       0.029950         0.8150
  27   0.0000       0.030685         0.8350
  28   0.0000       0.049998         1.3605
  29   0.0000       0.064222         1.7476

MULLIKEN ATOMIC CHARGES
-----------------------
   0 F :   -0.682519
   1 N :   -0.586266
   2 N :   -0.616276
   3 C :    0.613748
   4 C :   -0.486860
   5 C :    0.266503
   6 C :    0.372337
   7 H :    0.433484
   8 H :    0.337783
   9 H :    0.348066
Sum of atomic charges:   -0.0000000

LOEWDIN ATOMIC CHARGES
----------------------
   0 F :    0.805384
   1 N :    0.434336
   2 N :    0.432014
   3 C :   -0.547503
   4 C :    0.391842
   5 C :   -0.297053
   6 C :   -0.266792
   7 H :   -0.351156
   8 H :   -0.298348
   9 H :   -0.302723

  Mayer bond orders larger than 0.100000
B(  0-F ,  3-C ) :   0.2923 B(  0-F ,  5-C ) :   0.1545 B(  1-N ,  5-C ) :   2.5747
B(  2-N ,  6-C ) :   2.5508 B(  3-C ,  4-C ) :   0.9753 B(  3-C ,  5-C ) :   0.9880
B(  3-C ,  7-H ) :   0.7768 B(  4-C ,  6-C ) :   1.0456 B(  4-C ,  8-H ) :   0.8480
B(  4-C ,  9-H ) :   0.8482

MP2 TOTAL ENERGY:     -363.024391762 Eh
FINAL SINGLE POINT ENERGY      -363.024391761994

DIPOLE MOMENT
-------------
                                X             Y             Z
Electronic contribution:      1.27707       0.31420      -2.92352
Nuclear contribution   :     -1.05133       1.28931       4.63723
                        -----------------------------------------
Total Dipole Moment    :      0.22574       1.60352       1.71371
                        -----------------------------------------
Magnitude (a.u.)       :      2.35775
Magnitude (Debye)      :      5.99294

Rotational constants in cm-1:     0.124107     0.069497     0.054955
Rotational constants in MHz :  3720.634086  2083.465095  1647.497726

                             ****ORCA TERMINATED NORMALLY****
TOTAL RUN TIME: 0 days 0 hours 10 minutes 5 seconds 985 msec
