                         Program Version 5.0.4 -  RELEASE  -
|  1> !ri-mp2 aug-cc-pvqz aug-cc-pvqz/c tightscf
|  2> %pal nprocs 16 end
|  3>
|  4> * xyz 0 1
|  5> C      0.416411    0.100268    0.386308
|  6> C      1.263415   -1.037984   -0.112361
|  7> H      0.427859    0.216469    1.466770
|  8> F      0.842920    1.284656   -0.164507
|  9> Cl    -1.324878   -0.129863   -0.054942
| 10> H      1.189287   -1.116293   -1.195399
| 11> H      2.302538   -0.853754    0.163176
| 12> H      0.938014   -1.974348    0.336348
| 13> *
| 14>
| 15>                          ****END OF INPUT****

CARTESIAN COORDINATES (ANGSTROEM)
---------------------------------
  C      0.416411    0.100268    0.386308
  C      1.263415   -1.037984   -0.112361
  H      0.427859    0.216469    1.466770
  F      0.842920    1.284656   -0.164507
  Cl    -1.324878   -0.129863   -0.054942
  H      1.189287   -1.116293   -1.195399
  H      2.302538   -0.853754    0.163176
  H      0.938014   -1.974348    0.336348

 Total Charge           Charge          ....    0
 Multiplicity           Mult            ....    1
 Number of Electrons    NEL             ....   42
 Basis Dimension        Dim             ....  508

ORBITAL ENERGIES
----------------

  NO   OCC          E(Eh)            E(eV)
   0   2.0000    -104.834980     -2852.7048
   1   2.0000     -26.305799      -715.8172
   2   2.0000     -11.391030      -309.9657
   3   2.0000     -11.246659      -306.0371
   4   2.0000     -10.560735      -287.3722
   5   2.0000      -8.027692      -218.4446
   6   2.0000      -8.026098      -218.4012
   7   2.0000      -8.026014      -218.3989
   8   2.0000      -1.623279       -44.1717
   9   2.0000      -1.142285       -31.0832
  10   2.0000      -1.023523       -27.8515
  11   2.0000      -0.869010       -23.6470
  12   2.0000      -0.742702       -20.2100
  13   2.0000      -0.704714       -19.1762
  14   2.0000      -0.687290       -18.7021
  15   2.0000      -0.605470       -16.4757
  16   2.0000      -0.574603       -15.6357
  17   2.0000      -0.554818       -15.0974
  18   2.0000      -0.513068       -13.9613
  19   2.0000      -0.460871       -12.5409
  20   2.0000      -0.448935       -12.2161
  21   0.0000       0.024948         0.6789
  22   0.0000       0.034859         0.9486
  23   0.0000       0.040589         1.1045
  24   0.0000       0.047050         1.2803
  25   0.0000       0.068162         1.8548

MULLIKEN ATOMIC CHARGES
-----------------------
   0 C :    0.479626
   1 C :   -0.815405
   2 H :    0.388005
   3 F :   -0.643512
   4 Cl:   -0.258289
   5 H :    0.274712
   6 H :    0.273986
   7 H :    0.300878
Sum of atomic charges:    0.0000000

LOEWDIN ATOMIC CHARGES
----------------------
   0 C :   -1.139693
   1 C :    0.761139
   2 H :   -0.466749
   3 F :    0.713084
   4 Cl:    1.081880
   5 H :   -0.325637
   6 H :   -0.303687
   7 H :   -0.320337

  Mayer bond orders larger than 0.100000
B(  0-C ,  1-C ) :   0.9786 B(  0-C ,  2-H ) :   0.7710 B(  0-C ,  3-F ) :   0.4537
B(  0-C ,  4-Cl) :   0.9049 B(  1-C ,  5-H ) :   0.9123 B(  1-C ,  6-H ) :   0.9037
B(  1-C ,  7-H ) :   0.9160

MP2 TOTAL ENERGY:     -637.968249310 Eh
FINAL SINGLE POINT ENERGY      -637.968249309859

DIPOLE MOMENT
-------------
                                X             Y             Z
Electronic contribution:     -5.04386       3.95209      -0.54607
Nuclear contribution   :      5.66048      -4.59942       0.96749
                        -----------------------------------------
Total Dipole Moment    :      0.61662      -0.64733       0.42142
                        -----------------------------------------
Magnitude (a.u.)       :      0.98836
Magnitude (Debye)      :      2.51221

Rotational constants in cm-1:     0.300014     0.151186     0.108668
Rotational constants in MHz :  8994.195728  4532.443628  3257.774980

                             ****ORCA TERMINATED NORMALLY****
TOTAL RUN TIME: 0 days 0 hours 4 minutes 20 seconds 648 msec
