                         Program Version 5.0.4 -  RELEASE  -
|  1> !ri-mp2 aug-cc-pvqz aug-cc-pvqz/c tightscf
|  2> %pal nprocs 16 end
|  3> %maxcore 3800
|  4>
|  5> * xyz 0 1
|  6> C      3.802935   -0.490610    0.000000
|  7> C      2.559112    0.396474    0.000000
|  8> C      1.251338   -0.396094    0.000000
|  9> C      0.000000    0.482704    0.000000
| 10> C     -1.308018   -0.309699    0.000000
| 11> C     -2.556134    0.578683    0.000000
| 12> N     -3.845546   -0.114188    0.000000
| 13> H      4.717679    0.103723    0.000000
| 14> H      3.826861   -1.135787    0.880692
| 15> H      3.826861   -1.135787   -0.880692
| 16> H      2.580491    1.054451    0.873988
| 17> H      2.580491    1.054451   -0.873988
| 18> H      1.230295   -1.055016    0.874553
| 19> H      1.230295   -1.055016   -0.874553
| 20> H      0.022835    1.141535   -0.874500
| 21> H      0.022835    1.141535    0.874500
| 22> H     -1.338505   -0.966435    0.876192
| 23> H     -1.338505   -0.966435   -0.876192
| 24> H     -2.533944    1.235791    0.873348
| 25> H     -2.533944    1.235791   -0.873348
| 26> H     -3.935161   -0.711119    0.813635
| 27> H     -3.935161   -0.711119   -0.813635
| 28> *
| 29>
| 30>                          ****END OF INPUT****

CARTESIAN COORDINATES (ANGSTROEM)
---------------------------------
  C      3.802935   -0.490610    0.000000
  C      2.559112    0.396474    0.000000
  C      1.251338   -0.396094    0.000000
  C      0.000000    0.482704    0.000000
  C     -1.308018   -0.309699    0.000000
  C     -2.556134    0.578683    0.000000
  N     -3.845546   -0.114188    0.000000
  H      4.717679    0.103723    0.000000
  H      3.826861   -1.135787    0.880692
  H      3.826861   -1.135787   -0.880692
  H      2.580491    1.054451    0.873988
  H      2.580491    1.054451   -0.873988
  H      1.230295   -1.055016    0.874553
  H      1.230295   -1.055016   -0.874553
  H      0.022835    1.141535   -0.874500
  H      0.022835    1.141535    0.874500
  H     -1.338505   -0.966435    0.876192
  H     -1.338505   -0.966435   -0.876192
  H     -2.533944    1.235791    0.873348
  H     -2.533944    1.235791   -0.873348
  H     -3.935161   -0.711119    0.813635
  H     -3.935161   -0.711119   -0.813635

 Total Charge           Charge          ....    0
 Multiplicity           Mult            ....    1
 Number of Electrons    NEL             ....   58
 Basis Dimension        Dim             .... 1250

ORBITAL ENERGIES
----------------

  NO   OCC          E(Eh)            E(eV)
   0   2.0000     -15.533977      -422.7010
   1   2.0000     -11.242216      -305.9163
   2   2.0000     -11.215944      -305.2013
   3   2.0000     -11.215746      -305.1960
   4   2.0000     -11.214470      -305.1612
   5   2.0000     -11.214258      -305.1555
   6   2.0000     -11.209518      -305.0265
   7   2.0000      -1.173684       -31.9376
   8   2.0000      -1.082215       -29.4486
   9   2.0000      -1.025434       -27.9035
  10   2.0000      -0.944823       -25.7099
  11   2.0000      -0.859024       -23.3752
  12   2.0000      -0.801765       -21.8171
  13   2.0000      -0.788330       -21.4515
  14   2.0000      -0.676197       -18.4003
  15   2.0000      -0.644191       -17.5293
  16   2.0000      -0.601966       -16.3803
  17   2.0000      -0.597809       -16.2672
  18   2.0000      -0.580559       -15.7978
  19   2.0000      -0.558885       -15.2080
  20   2.0000      -0.542837       -14.7713
  21   2.0000      -0.533336       -14.5128
  22   2.0000      -0.495312       -13.4781
  23   2.0000      -0.488230       -13.2854
  24   2.0000      -0.468865       -12.7585
  25   2.0000      -0.467398       -12.7186
  26   2.0000      -0.461415       -12.5557
  27   2.0000      -0.460030       -12.5180
  28   2.0000      -0.380690       -10.3591
  29   0.0000       0.025538         0.6949
  30   0.0000       0.028172         0.7666
  31   0.0000       0.032410         0.8819
  32   0.0000       0.032437         0.8827
  33   0.0000       0.042372         1.1530

MULLIKEN ATOMIC CHARGES
-----------------------
   0 C :   -0.908347
   1 C :   -0.493232
   2 C :   -0.298297
   3 C :   -0.347957
   4 C :   -0.560887
   5 C :   -0.240057
   6 N :   -0.835676
   7 H :    0.263337
   8 H :    0.225610
   9 H :    0.225549
  10 H :    0.227677
  11 H :    0.227742
  12 H :    0.227887
  13 H :    0.227780
  14 H :    0.253764
  15 H :    0.253725
  16 H :    0.268718
  17 H :    0.268413
  18 H :    0.250285
  19 H :    0.250264
  20 H :    0.256844
  21 H :    0.256858
Sum of atomic charges:   -0.0000000

LOEWDIN ATOMIC CHARGES
----------------------
   0 C :    0.926205
   1 C :    0.508610
   2 C :    0.511156
   3 C :    0.516893
   4 C :    0.520205
   5 C :    0.360865
   6 N :    1.286462
   7 H :   -0.284810
   8 H :   -0.285619
   9 H :   -0.285619
  10 H :   -0.273371
  11 H :   -0.273371
  12 H :   -0.268641
  13 H :   -0.268641
  14 H :   -0.266631
  15 H :   -0.266631
  16 H :   -0.272665
  17 H :   -0.272666
  18 H :   -0.291227
  19 H :   -0.291227
  20 H :   -0.514638
  21 H :   -0.514638

  Mayer bond orders larger than 0.100000
B(  0-C ,  1-C ) :   1.0507 B(  0-C ,  2-C ) :  -0.1269 B(  0-C ,  7-H ) :   1.0276
B(  0-C ,  8-H ) :   0.9553 B(  0-C ,  9-H ) :   0.9554 B(  1-C ,  2-C ) :   0.9640
B(  1-C ,  7-H ) :  -0.1001 B(  1-C , 10-H ) :   0.8824 B(  1-C , 11-H ) :   0.8823
B(  2-C ,  3-C ) :   1.0456 B(  2-C , 12-H ) :   0.8736 B(  2-C , 13-H ) :   0.8736
B(  3-C ,  4-C ) :   1.0669 B(  3-C , 14-H ) :   0.8414 B(  3-C , 15-H ) :   0.8413
B(  4-C ,  5-C ) :   1.1545 B(  4-C , 16-H ) :   0.8239 B(  4-C , 17-H ) :   0.8242
B(  5-C ,  6-N ) :   0.8919 B(  5-C , 18-H ) :   0.9027 B(  5-C , 19-H ) :   0.9027
B(  6-N , 20-H ) :   0.8926 B(  6-N , 21-H ) :   0.8926

MP2 TOTAL ENERGY:     -291.879465140 Eh
FINAL SINGLE POINT ENERGY      -291.879465139637

DIPOLE MOMENT
-------------
                                X             Y             Z
Electronic contribution:     -4.29857       0.48595      -0.00000
Nuclear contribution   :      4.73725      -0.82897       0.00000
                        -----------------------------------------
Total Dipole Moment    :      0.43869      -0.34302      -0.00000
                        -----------------------------------------
Magnitude (a.u.)       :      0.55688
Magnitude (Debye)      :      1.41547

Rotational constants in cm-1:     0.420566     0.023911     0.023288
Rotational constants in MHz : 12608.242234   716.837983   698.152744

                             ****ORCA TERMINATED NORMALLY****
TOTAL RUN TIME: 0 days 0 hours 46 minutes 1 seconds 301 msec
