                         Program Version 5.0.4 -  RELEASE  -
|  1> !ri-mp2 aug-cc-pvqz aug-cc-pvqz/c tightscf
|  2> %pal nprocs 16 end
|  3> %maxcore 3800
|  4>
|  5> * xyz 0 1
|  6> O     -1.061346   -2.675415    0.000027
|  7> C     -1.022143   -1.457090    0.000009
|  8> C      0.261151   -0.701650   -0.000016
|  9> C      0.261151    0.701650    0.000016
| 10> C     -1.022143    1.457090   -0.000009
| 11> O     -1.061346    2.675415   -0.000027
| 12> C     -2.274483    0.667940   -0.000007
| 13> C     -2.274483   -0.667940    0.000007
| 14> C      1.470163    1.394082    0.000035
| 15> C      2.669385    0.696780    0.000020
| 16> C      2.669385   -0.696780   -0.000020
| 17> C      1.470163   -1.394082   -0.000035
| 18> H     -3.189344    1.246182    0.000000
| 19> H     -3.189344   -1.246182   -0.000001
| 20> H      1.449164    2.474559    0.000078
| 21> H      3.606515    1.236642    0.000045
| 22> H      3.606515   -1.236642   -0.000045
| 23> H      1.449163   -2.474559   -0.000077
| 24> *
| 25>
| 26>                          ****END OF INPUT****

CARTESIAN COORDINATES (ANGSTROEM)
---------------------------------
  O     -1.061346   -2.675415    0.000027
  C     -1.022143   -1.457090    0.000009
  C      0.261151   -0.701650   -0.000016
  C      0.261151    0.701650    0.000016
  C     -1.022143    1.457090   -0.000009
  O     -1.061346    2.675415   -0.000027
  C     -2.274483    0.667940   -0.000007
  C     -2.274483   -0.667940    0.000007
  C      1.470163    1.394082    0.000035
  C      2.669385    0.696780    0.000020
  C      2.669385   -0.696780   -0.000020
  C      1.470163   -1.394082   -0.000035
  H     -3.189344    1.246182    0.000000
  H     -3.189344   -1.246182   -0.000001
  H      1.449164    2.474559    0.000078
  H      3.606515    1.236642    0.000045
  H      3.606515   -1.236642   -0.000045
  H      1.449163   -2.474559   -0.000077

 Total Charge           Charge          ....    0
 Multiplicity           Mult            ....    1
 Number of Electrons    NEL             ....   82
 Basis Dimension        Dim             .... 1236

ORBITAL ENERGIES
----------------

  NO   OCC          E(Eh)            E(eV)
   0   2.0000     -20.566658      -559.6472
   1   2.0000     -20.566658      -559.6472
   2   2.0000     -11.355363      -308.9951
   3   2.0000     -11.355356      -308.9950
   4   2.0000     -11.277849      -306.8859
   5   2.0000     -11.276140      -306.8394
   6   2.0000     -11.271247      -306.7062
   7   2.0000     -11.270078      -306.6744
   8   2.0000     -11.263128      -306.4853
   9   2.0000     -11.262007      -306.4548
  10   2.0000     -11.260221      -306.4062
  11   2.0000     -11.260127      -306.4036
  12   2.0000      -1.407447       -38.2986
  13   2.0000      -1.404999       -38.2320
  14   2.0000      -1.192939       -32.4615
  15   2.0000      -1.129425       -30.7332
  16   2.0000      -1.053001       -28.6536
  17   2.0000      -1.051369       -28.6092
  18   2.0000      -0.950112       -25.8539
  19   2.0000      -0.882540       -24.0151
  20   2.0000      -0.871819       -23.7234
  21   2.0000      -0.804827       -21.9005
  22   2.0000      -0.738805       -20.1039
  23   2.0000      -0.738253       -20.0889
  24   2.0000      -0.699746       -19.0411
  25   2.0000      -0.669965       -18.2307
  26   2.0000      -0.655261       -17.8306
  27   2.0000      -0.629100       -17.1187
  28   2.0000      -0.625907       -17.0318
  29   2.0000      -0.605770       -16.4838
  30   2.0000      -0.602043       -16.3824
  31   2.0000      -0.599841       -16.3225
  32   2.0000      -0.553700       -15.0669
  33   2.0000      -0.548820       -14.9341
  34   2.0000      -0.525122       -14.2893
  35   2.0000      -0.513975       -13.9860
  36   2.0000      -0.457399       -12.4465
  37   2.0000      -0.436284       -11.8719
  38   2.0000      -0.411659       -11.2018
  39   2.0000      -0.366802        -9.9812
  40   2.0000      -0.361693        -9.8422
  41   0.0000       0.008727         0.2375
  42   0.0000       0.021272         0.5788
  43   0.0000       0.025218         0.6862
  44   0.0000       0.030246         0.8230
  45   0.0000       0.040082         1.0907

MULLIKEN ATOMIC CHARGES
-----------------------
   0 O :   -0.795903
   1 C :    1.206329
   2 C :    0.224541
   3 C :    0.225031
   4 C :    1.206414
   5 O :   -0.795868
   6 C :   -0.639615
   7 C :   -0.639737
   8 C :   -0.412172
   9 C :   -0.409291
  10 C :   -0.409120
  11 C :   -0.412049
  12 H :    0.291455
  13 H :    0.291490
  14 H :    0.274408
  15 H :    0.259827
  16 H :    0.259902
  17 H :    0.274358
Sum of atomic charges:    0.0000000

LOEWDIN ATOMIC CHARGES
----------------------
   0 O :    0.738839
   1 C :   -0.682744
   2 C :   -0.138599
   3 C :   -0.138599
   4 C :   -0.682744
   5 O :    0.738839
   6 C :    0.347559
   7 C :    0.347559
   8 C :    0.343172
   9 C :    0.374240
  10 C :    0.374240
  11 C :    0.343172
  12 H :   -0.335888
  13 H :   -0.335888
  14 H :   -0.331838
  15 H :   -0.314740
  16 H :   -0.314740
  17 H :   -0.331838

  Mayer bond orders larger than 0.100000
B(  0-O ,  1-C ) :   0.2569 B(  0-O ,  2-C ) :   0.6031 B(  0-O ,  6-C ) :   0.1295
B(  0-O ,  7-C ) :   0.3531 B(  1-C ,  2-C ) :   0.8355 B(  1-C ,  3-C ) :  -0.2829
B(  1-C ,  6-C ) :  -0.1002 B(  1-C ,  7-C ) :   1.2106 B(  1-C , 11-C ) :  -0.1555
B(  2-C ,  3-C ) :   0.7273 B(  2-C ,  4-C ) :  -0.2830 B(  2-C ,  7-C ) :  -0.1564
B(  2-C ,  8-C ) :  -0.2503 B(  2-C , 10-C ) :  -0.2931 B(  2-C , 11-C ) :   0.9564
B(  3-C ,  4-C ) :   0.8356 B(  3-C ,  5-O ) :   0.6032 B(  3-C ,  6-C ) :  -0.1565
B(  3-C ,  8-C ) :   0.9564 B(  3-C ,  9-C ) :  -0.2933 B(  3-C , 11-C ) :  -0.2505
B(  4-C ,  5-O ) :   0.2568 B(  4-C ,  6-C ) :   1.2106 B(  4-C ,  7-C ) :  -0.1001
B(  4-C ,  8-C ) :  -0.1555 B(  5-O ,  6-C ) :   0.3531 B(  5-O ,  7-C ) :   0.1295
B(  6-C ,  7-C ) :   1.4278 B(  6-C , 12-H ) :   1.0061 B(  6-C , 13-H ) :  -0.1450
B(  7-C , 12-H ) :  -0.1450 B(  7-C , 13-H ) :   1.0060 B(  8-C ,  9-C ) :   1.2294
B(  8-C , 11-C ) :   0.1067 B(  8-C , 14-H ) :   0.9759 B(  8-C , 15-H ) :  -0.1758
B(  9-C , 10-C ) :   1.2586 B(  9-C , 15-H ) :   1.1344 B( 10-C , 11-C ) :   1.2291
B( 10-C , 16-H ) :   1.1343 B( 11-C , 16-H ) :  -0.1759 B( 11-C , 17-H ) :   0.9759

MP2 TOTAL ENERGY:     -534.257361851 Eh
FINAL SINGLE POINT ENERGY      -534.257361850521

DIPOLE MOMENT
-------------
                                X             Y             Z
Electronic contribution:     -3.03565       0.00000       0.00000
Nuclear contribution   :      3.60205      -0.00000      -0.00000
                        -----------------------------------------
Total Dipole Moment    :      0.56640       0.00000       0.00000
                        -----------------------------------------
Magnitude (a.u.)       :      0.56640
Magnitude (Debye)      :      1.43967

Rotational constants in cm-1:     0.044422     0.036566     0.020056
Rotational constants in MHz :  1331.736669  1096.216287   601.276653

                             ****ORCA TERMINATED NORMALLY****
TOTAL RUN TIME: 0 days 1 hours 57 minutes 37 seconds 269 msec
