                         Program Version 5.0.4 -  RELEASE  -
|  1> !ri-mp2 aug-cc-pvqz aug-cc-pvqz/c tightscf
|  2> %pal nprocs 16 end
|  3> %maxcore 3800
|  4>
|  5> * xyz 0 1
|  6> C      0.024001    1.160298   -0.000002
|  7> C     -0.073857   -1.238567    0.000000
|  8> C     -1.364579    1.212066   -0.000005
|  9> C     -1.455060   -1.181361   -0.000003
| 10> C      0.690181   -0.065845    0.000000
| 11> C     -2.127814    0.046194   -0.000004
| 12> C      2.180603   -0.178189    0.000001
| 13> C     -3.631473    0.095804    0.000006
| 14> C      3.009944    1.089796    0.000003
| 15> O      2.722996   -1.266717    0.000000
| 16> H      0.581498    2.086205   -0.000003
| 17> H      0.442720   -2.187841    0.000000
| 18> H     -1.861326    2.173886   -0.000007
| 19> H     -2.027249   -2.100948   -0.000006
| 20> H     -4.040560   -0.408087    0.877954
| 21> H     -3.997196    1.121343   -0.000134
| 22> H     -4.040584   -0.408339   -0.877785
| 23> H      2.792622    1.698643    0.879269
| 24> H      2.792624    1.698642   -0.879264
| 25> H      4.061815    0.819045    0.000004
| 26> *
| 27>
| 28>                          ****END OF INPUT****

CARTESIAN COORDINATES (ANGSTROEM)
---------------------------------
  C      0.024001    1.160298   -0.000002
  C     -0.073857   -1.238567    0.000000
  C     -1.364579    1.212066   -0.000005
  C     -1.455060   -1.181361   -0.000003
  C      0.690181   -0.065845    0.000000
  C     -2.127814    0.046194   -0.000004
  C      2.180603   -0.178189    0.000001
  C     -3.631473    0.095804    0.000006
  C      3.009944    1.089796    0.000003
  O      2.722996   -1.266717    0.000000
  H      0.581498    2.086205   -0.000003
  H      0.442720   -2.187841    0.000000
  H     -1.861326    2.173886   -0.000007
  H     -2.027249   -2.100948   -0.000006
  H     -4.040560   -0.408087    0.877954
  H     -3.997196    1.121343   -0.000134
  H     -4.040584   -0.408339   -0.877785
  H      2.792622    1.698643    0.879269
  H      2.792624    1.698642   -0.879264
  H      4.061815    0.819045    0.000004

 Total Charge           Charge          ....    0
 Multiplicity           Mult            ....    1
 Number of Electrons    NEL             ....   72
 Basis Dimension        Dim             .... 1260

ORBITAL ENERGIES
----------------

  NO   OCC          E(Eh)            E(eV)
   0   2.0000     -20.536777      -558.8341
   1   2.0000     -11.330537      -308.3196
   2   2.0000     -11.257503      -306.3322
   3   2.0000     -11.251180      -306.1602
   4   2.0000     -11.242857      -305.9337
   5   2.0000     -11.241100      -305.8859
   6   2.0000     -11.237758      -305.7949
   7   2.0000     -11.235437      -305.7318
   8   2.0000     -11.232680      -305.6567
   9   2.0000     -11.231094      -305.6136
  10   2.0000      -1.380976       -37.5783
  11   2.0000      -1.169225       -31.8162
  12   2.0000      -1.070727       -29.1360
  13   2.0000      -1.027630       -27.9632
  14   2.0000      -1.006084       -27.3769
  15   2.0000      -0.949431       -25.8353
  16   2.0000      -0.841184       -22.8898
  17   2.0000      -0.833878       -22.6910
  18   2.0000      -0.759613       -20.6701
  19   2.0000      -0.692735       -18.8503
  20   2.0000      -0.659574       -17.9479
  21   2.0000      -0.640616       -17.4320
  22   2.0000      -0.615956       -16.7610
  23   2.0000      -0.603390       -16.4191
  24   2.0000      -0.602756       -16.4018
  25   2.0000      -0.595230       -16.1970
  26   2.0000      -0.586498       -15.9594
  27   2.0000      -0.551835       -15.0162
  28   2.0000      -0.545380       -14.8405
  29   2.0000      -0.518071       -14.0974
  30   2.0000      -0.513100       -13.9622
  31   2.0000      -0.495101       -13.4724
  32   2.0000      -0.483123       -13.1464
  33   2.0000      -0.415511       -11.3066
  34   2.0000      -0.347644        -9.4599
  35   2.0000      -0.337084        -9.1725
  36   0.0000       0.021352         0.5810
  37   0.0000       0.024558         0.6683
  38   0.0000       0.030982         0.8431
  39   0.0000       0.035957         0.9784
  40   0.0000       0.038166         1.0385

MULLIKEN ATOMIC CHARGES
-----------------------
   0 C :   -0.059750
   1 C :   -0.224529
   2 C :   -0.429017
   3 C :   -0.310508
   4 C :   -0.349335
   5 C :    0.488492
   6 C :    1.138017
   7 C :   -0.841813
   8 C :   -0.876896
   9 O :   -0.822469
  10 H :    0.213114
  11 H :    0.208966
  12 H :    0.156325
  13 H :    0.281075
  14 H :    0.237489
  15 H :    0.227516
  16 H :    0.237458
  17 H :    0.201278
  18 H :    0.201277
  19 H :    0.323310
Sum of atomic charges:    0.0000000

LOEWDIN ATOMIC CHARGES
----------------------
   0 C :    0.337224
   1 C :    0.330677
   2 C :    0.367696
   3 C :    0.364901
   4 C :   -0.115467
   5 C :   -0.064877
   6 C :   -0.653080
   7 C :    0.913177
   8 C :    0.878775
   9 O :    0.736413
  10 H :   -0.341670
  11 H :   -0.340167
  12 H :   -0.322008
  13 H :   -0.314185
  14 H :   -0.281594
  15 H :   -0.307607
  16 H :   -0.281601
  17 H :   -0.293502
  18 H :   -0.293503
  19 H :   -0.319602

  Mayer bond orders larger than 0.100000
B(  0-C ,  2-C ) :   1.0575 B(  0-C ,  4-C ) :   0.9858 B(  0-C ,  5-C ) :  -0.3451
B(  0-C ,  6-C ) :  -0.3140 B(  0-C , 10-H ) :   1.1136 B(  0-C , 12-H ) :  -0.1996
B(  1-C ,  2-C ) :   0.1803 B(  1-C ,  3-C ) :   1.3070 B(  1-C ,  4-C ) :   1.1033
B(  1-C ,  5-C ) :  -0.1506 B(  1-C ,  6-C ) :  -0.2687 B(  1-C ,  9-O ) :  -0.1448
B(  1-C , 11-H ) :   1.0158 B(  1-C , 13-H ) :  -0.1426 B(  2-C ,  4-C ) :  -0.2213
B(  2-C ,  5-C ) :   1.0289 B(  2-C , 10-H ) :  -0.1584 B(  2-C , 12-H ) :   1.1563
B(  3-C ,  4-C ) :  -0.2779 B(  3-C ,  5-C ) :   0.9419 B(  3-C , 11-H ) :  -0.1134
B(  3-C , 13-H ) :   1.0203 B(  4-C ,  6-C ) :   0.8989 B(  4-C ,  9-O ) :   0.6673
B(  4-C , 10-H ) :  -0.1709 B(  5-C ,  7-C ) :   0.6368 B(  5-C , 12-H ) :  -0.1085
B(  5-C , 14-H ) :  -0.1210 B(  5-C , 15-H ) :  -0.1157 B(  5-C , 16-H ) :  -0.1211
B(  6-C ,  8-C ) :   0.9811 B(  6-C ,  9-O ) :   0.7277 B(  7-C , 14-H ) :   1.0330
B(  7-C , 15-H ) :   1.0429 B(  7-C , 16-H ) :   1.0330 B(  8-C , 17-H ) :   0.9944
B(  8-C , 18-H ) :   0.9944 B(  8-C , 19-H ) :   0.9532

MP2 TOTAL ENERGY:     -423.479449016 Eh
FINAL SINGLE POINT ENERGY      -423.479449015528

DIPOLE MOMENT
-------------
                                X             Y             Z
Electronic contribution:      4.23799      -3.43182      -0.00002
Nuclear contribution   :     -5.29355       4.50736       0.00003
                        -----------------------------------------
Total Dipole Moment    :     -1.05556       1.07553       0.00001
                        -----------------------------------------
Magnitude (a.u.)       :      1.50698
Magnitude (Debye)      :      3.83043

Rotational constants in cm-1:     0.121522     0.026191     0.021720
Rotational constants in MHz :  3643.141170   785.174056   651.137067

                             ****ORCA TERMINATED NORMALLY****
TOTAL RUN TIME: 0 days 1 hours 53 minutes 3 seconds 572 msec
