                         Program Version 5.0.4 -  RELEASE  -
|  1> !ri-mp2 aug-cc-pvqz aug-cc-pvqz/c tightscf
|  2> %pal nprocs 16 end
|  3>
|  4> * xyz 0 1
|  5> C     -0.494582   -1.855654        0.000000
|  6> N      0.801387   -1.341554        0.000000
|  7> C      1.003289    0.010465        0.000000
|  8> C      0.000000    0.951847        0.000000
|  9> N      0.543549    2.219652        0.000000
| 10> C      1.828513    2.045590        0.000000
| 11> N      2.176164    0.698429        0.000000
| 12> N     -1.483837   -0.891134        0.000000
| 13> C     -1.384973    0.528592        0.000000
| 14> O     -0.710820   -3.048700        0.000000
| 15> H      2.579315    2.817576        0.000000
| 16> O     -2.386498    1.205693        0.000000
| 17> H     -2.426033   -1.254649        0.000000
| 18> H      1.543280   -2.021140        0.000000
| 19> H      3.107654    0.319474        0.000000
| 20> *
| 21>
| 22>                          ****END OF INPUT****

CARTESIAN COORDINATES (ANGSTROEM)
---------------------------------
  C     -0.494582   -1.855654    0.000000
  N      0.801387   -1.341554    0.000000
  C      1.003289    0.010465    0.000000
  C      0.000000    0.951847    0.000000
  N      0.543549    2.219652    0.000000
  C      1.828513    2.045590    0.000000
  N      2.176164    0.698429    0.000000
  N     -1.483837   -0.891134    0.000000
  C     -1.384973    0.528592    0.000000
  O     -0.710820   -3.048700    0.000000
  H      2.579315    2.817576    0.000000
  O     -2.386498    1.205693    0.000000
  H     -2.426033   -1.254649    0.000000
  H      1.543280   -2.021140    0.000000
  H      3.107654    0.319474    0.000000

 Total Charge           Charge          ....    0
 Multiplicity           Mult            ....    1
 Number of Electrons    NEL             ....   78
 Basis Dimension        Dim             .... 1064

ORBITAL ENERGIES
----------------

  NO   OCC          E(Eh)            E(eV)
   0   2.0000     -20.545126      -559.0613
   1   2.0000     -20.536582      -558.8288
   2   2.0000     -15.663156      -426.2161
   3   2.0000     -15.648525      -425.8180
   4   2.0000     -15.621785      -425.0904
   5   2.0000     -15.582885      -424.0319
   6   2.0000     -11.421137      -310.7849
   7   2.0000     -11.378623      -309.6281
   8   2.0000     -11.364557      -309.2453
   9   2.0000     -11.329916      -308.3027
  10   2.0000     -11.269425      -306.6566
  11   2.0000      -1.438881       -39.1539
  12   2.0000      -1.400688       -38.1147
  13   2.0000      -1.389432       -37.8084
  14   2.0000      -1.302488       -35.4425
  15   2.0000      -1.244606       -33.8675
  16   2.0000      -1.206999       -32.8441
  17   2.0000      -1.060937       -28.8696
  18   2.0000      -0.925967       -25.1968
  19   2.0000      -0.903885       -24.5960
  20   2.0000      -0.876066       -23.8390
  21   2.0000      -0.832923       -22.6650
  22   2.0000      -0.776918       -21.1410
  23   2.0000      -0.738656       -20.0999
  24   2.0000      -0.695795       -18.9335
  25   2.0000      -0.688663       -18.7395
  26   2.0000      -0.680555       -18.5188
  27   2.0000      -0.647428       -17.6174
  28   2.0000      -0.630925       -17.1683
  29   2.0000      -0.626575       -17.0500
  30   2.0000      -0.619746       -16.8641
  31   2.0000      -0.575292       -15.6545
  32   2.0000      -0.502666       -13.6782
  33   2.0000      -0.490798       -13.3553
  34   2.0000      -0.472246       -12.8505
  35   2.0000      -0.445556       -12.1242
  36   2.0000      -0.442144       -12.0313
  37   2.0000      -0.435206       -11.8426
  38   2.0000      -0.332432        -9.0459
  39   0.0000       0.003211         0.0874
  40   0.0000       0.022511         0.6126
  41   0.0000       0.036103         0.9824
  42   0.0000       0.043512         1.1840
  43   0.0000       0.044284         1.2050

MULLIKEN ATOMIC CHARGES
-----------------------
   0 C :    1.322098
   1 N :   -0.821306
   2 C :    1.171243
   3 C :   -0.184343
   4 N :   -0.680637
   5 C :   -0.224191
   6 N :   -0.601040
   7 N :   -0.784506
   8 C :    1.511054
   9 O :   -0.799382
  10 H :    0.571310
  11 O :   -0.809298
  12 H :    0.039672
  13 H :    0.129187
  14 H :    0.160140
Sum of atomic charges:    0.0000000

LOEWDIN ATOMIC CHARGES
----------------------
   0 C :   -0.981428
   1 N :    0.851016
   2 C :   -0.434033
   3 C :   -0.427057
   4 N :    0.592289
   5 C :   -0.022544
   6 N :    0.861025
   7 N :    0.785518
   8 C :   -0.836493
   9 O :    0.689611
  10 H :   -0.317378
  11 O :    0.691712
  12 H :   -0.531513
  13 H :   -0.487966
  14 H :   -0.432759

  Mayer bond orders larger than 0.100000
B(  0-C ,  1-N ) :   1.2359 B(  0-C ,  7-N ) :   1.1130 B(  0-C ,  9-O ) :   1.0996
B(  1-N ,  2-C ) :   0.8387 B(  1-N ,  3-C ) :   0.1076 B(  1-N ,  6-N ) :   0.1059
B(  1-N ,  9-O ) :   0.1638 B(  1-N , 13-H ) :   1.0902 B(  2-C ,  3-C ) :   1.3517
B(  2-C ,  6-N ) :   0.8301 B(  2-C ,  7-N ) :  -0.1297 B(  2-C ,  8-C ) :  -0.2328
B(  3-C ,  4-N ) :   0.4988 B(  3-C ,  8-C ) :   1.3516 B(  3-C , 11-O ) :   0.5745
B(  4-N ,  5-C ) :   1.7725 B(  5-C ,  6-N ) :   1.2093 B(  5-C , 10-H ) :   0.6892
B(  6-N , 14-H ) :   1.0889 B(  7-N ,  8-C ) :   0.9245 B(  7-N ,  9-O ) :   0.2419
B(  7-N , 11-O ) :   0.2504 B(  7-N , 12-H ) :   1.2487 B(  8-C , 11-O ) :   0.7567
B(  8-C , 12-H ) :  -0.1130

MP2 TOTAL ENERGY:     -561.650095894 Eh
FINAL SINGLE POINT ENERGY      -561.650095893616

DIPOLE MOMENT
-------------
                                X             Y             Z
Electronic contribution:     -1.52940      -0.27710       0.00000
Nuclear contribution   :      4.59111      -0.15771       0.00000
                        -----------------------------------------
Total Dipole Moment    :      3.06171      -0.43481       0.00000
                        -----------------------------------------
Magnitude (a.u.)       :      3.09243
Magnitude (Debye)      :      7.86034

Rotational constants in cm-1:     0.064628     0.037023     0.023539
Rotational constants in MHz :  1937.501551  1109.926792   705.672009

                             ****ORCA TERMINATED NORMALLY****
TOTAL RUN TIME: 0 days 0 hours 46 minutes 0 seconds 218 msec
