                         Program Version 5.0.4 -  RELEASE  -
|  1> !ri-mp2 aug-cc-pvqz aug-cc-pvqz/c tightscf
|  2> %pal nprocs 16 end
|  3>
|  4> * xyz 0 1
|  5> N      0.000000    0.691069   -0.992631
|  6> N      0.000000   -0.691069   -0.992631
|  7> C      0.000000   -1.080094    0.251566
|  8> N      0.000000    0.000000    1.085367
|  9> C      0.000000    1.080094    0.251566
| 10> H      0.000000   -2.100069    0.594993
| 11> H      0.000000    0.000000    2.090477
| 12> H      0.000000    2.100069    0.594993
| 13> *
| 14>
| 15>                          ****END OF INPUT****

CARTESIAN COORDINATES (ANGSTROEM)
---------------------------------
  N      0.000000    0.691069   -0.992631
  N      0.000000   -0.691069   -0.992631
  C      0.000000   -1.080094    0.251566
  N      0.000000    0.000000    1.085367
  C      0.000000    1.080094    0.251566
  H      0.000000   -2.100069    0.594993
  H      0.000000    0.000000    2.090477
  H      0.000000    2.100069    0.594993

 Total Charge           Charge          ....    0
 Multiplicity           Mult            ....    1
 Number of Electrons    NEL             ....   36
 Basis Dimension        Dim             ....  538

ORBITAL ENERGIES
----------------

  NO   OCC          E(Eh)            E(eV)
   0   2.0000     -15.640338      -425.5952
   1   2.0000     -15.582375      -424.0180
   2   2.0000     -15.581719      -424.0001
   3   2.0000     -11.309283      -307.7412
   4   2.0000     -11.309242      -307.7401
   5   2.0000      -1.401626       -38.1402
   6   2.0000      -1.219775       -33.1918
   7   2.0000      -1.099900       -29.9298
   8   2.0000      -0.858193       -23.3526
   9   2.0000      -0.844661       -22.9844
  10   2.0000      -0.785854       -21.3842
  11   2.0000      -0.647977       -17.6324
  12   2.0000      -0.633183       -17.2298
  13   2.0000      -0.627365       -17.0715
  14   2.0000      -0.484809       -13.1923
  15   2.0000      -0.435404       -11.8480
  16   2.0000      -0.433770       -11.8035
  17   2.0000      -0.370631       -10.0854
  18   0.0000       0.012740         0.3467
  19   0.0000       0.027624         0.7517
  20   0.0000       0.039533         1.0757
  21   0.0000       0.056994         1.5509
  22   0.0000       0.067751         1.8436

MULLIKEN ATOMIC CHARGES
-----------------------
   0 N :   -0.421514
   1 N :   -0.421514
   2 C :   -0.018303
   3 N :   -0.433471
   4 C :   -0.018303
   5 H :    0.567993
   6 H :    0.177120
   7 H :    0.567993
Sum of atomic charges:   -0.0000000

LOEWDIN ATOMIC CHARGES
----------------------
   0 N :    0.296242
   1 N :    0.296242
   2 C :   -0.123209
   3 N :    0.765844
   4 C :   -0.123209
   5 H :   -0.330822
   6 H :   -0.450267
   7 H :   -0.330822

  Mayer bond orders larger than 0.100000
B(  0-N ,  1-N ) :   0.7750 B(  0-N ,  4-C ) :   1.6203 B(  1-N ,  2-C ) :   1.6203
B(  2-C ,  3-N ) :   1.1449 B(  2-C ,  5-H ) :   0.6972 B(  3-N ,  4-C ) :   1.1449
B(  3-N ,  6-H ) :   1.0274 B(  4-C ,  7-H ) :   0.6972

MP2 TOTAL ENERGY:     -241.881845132 Eh
FINAL SINGLE POINT ENERGY      -241.881845131574

DIPOLE MOMENT
-------------
                                X             Y             Z
Electronic contribution:      0.00000      -0.00000      -0.85885
Nuclear contribution   :      0.00000       0.00000       3.20612
                        -----------------------------------------
Total Dipole Moment    :      0.00000      -0.00000       2.34727
                        -----------------------------------------
Magnitude (a.u.)       :      2.34727
Magnitude (Debye)      :      5.96628

Rotational constants in cm-1:     0.335181     0.333229     0.167101
Rotational constants in MHz : 10048.483028  9989.949655  5009.565426

                             ****ORCA TERMINATED NORMALLY****
TOTAL RUN TIME: 0 days 0 hours 4 minutes 36 seconds 232 msec
