                         Program Version 5.0.4 -  RELEASE  -
|  1> !ri-mp2 aug-cc-pvqz aug-cc-pvqz/c tightscf
|  2> %pal nprocs 16 end
|  3>
|  4> * xyz 0 1
|  5> C     -2.057620   -0.570893    0.000000
|  6> C     -1.349473   -1.765667    0.000000
|  7> C     -1.385262    0.643953    0.000000
|  8> C      0.722393   -0.566463    0.000000
|  9> C      0.048829   -1.783697    0.000000
| 10> C      0.000000    0.619586    0.000000
| 11> C      0.801538   -3.087682    0.000000
| 12> N      0.736402    1.899710    0.000000
| 13> O      0.081540    2.932000    0.000000
| 14> O      1.958229    1.853894    0.000000
| 15> H     -3.138638   -0.583862    0.000000
| 16> H     -1.890749   -2.703493    0.000000
| 17> H     -1.907623    1.587184    0.000000
| 18> H      1.800839   -0.524533    0.000000
| 19> H      1.877726   -2.925062    0.000000
| 20> H      0.551524   -3.685088    0.878569
| 21> H      0.551524   -3.685088   -0.878569
| 22> *
| 23>
| 24>                          ****END OF INPUT****

CARTESIAN COORDINATES (ANGSTROEM)
---------------------------------
  C     -2.057620   -0.570893    0.000000
  C     -1.349473   -1.765667    0.000000
  C     -1.385262    0.643953    0.000000
  C      0.722393   -0.566463    0.000000
  C      0.048829   -1.783697    0.000000
  C      0.000000    0.619586    0.000000
  C      0.801538   -3.087682    0.000000
  N      0.736402    1.899710    0.000000
  O      0.081540    2.932000    0.000000
  O      1.958229    1.853894    0.000000
  H     -3.138638   -0.583862    0.000000
  H     -1.890749   -2.703493    0.000000
  H     -1.907623    1.587184    0.000000
  H      1.800839   -0.524533    0.000000
  H      1.877726   -2.925062    0.000000
  H      0.551524   -3.685088    0.878569
  H      0.551524   -3.685088   -0.878569

 Total Charge           Charge          ....    0
 Multiplicity           Mult            ....    1
 Number of Electrons    NEL             ....   72
 Basis Dimension        Dim             .... 1122

ORBITAL ENERGIES
----------------

  NO   OCC          E(Eh)            E(eV)
   0   2.0000     -20.597712      -560.4922
   1   2.0000     -20.597644      -560.4904
   2   2.0000     -15.850369      -431.3105
   3   2.0000     -11.307222      -307.6852
   4   2.0000     -11.269294      -306.6531
   5   2.0000     -11.267415      -306.6020
   6   2.0000     -11.265532      -306.5507
   7   2.0000     -11.263842      -306.5047
   8   2.0000     -11.260784      -306.4215
   9   2.0000     -11.242220      -305.9163
  10   2.0000      -1.604076       -43.6491
  11   2.0000      -1.397131       -38.0179
  12   2.0000      -1.199779       -32.6476
  13   2.0000      -1.099933       -29.9307
  14   2.0000      -1.066219       -29.0133
  15   2.0000      -0.968474       -26.3535
  16   2.0000      -0.954651       -25.9774
  17   2.0000      -0.849169       -23.1071
  18   2.0000      -0.818556       -22.2741
  19   2.0000      -0.766803       -20.8658
  20   2.0000      -0.726898       -19.7799
  21   2.0000      -0.717876       -19.5344
  22   2.0000      -0.704449       -19.1690
  23   2.0000      -0.667177       -18.1548
  24   2.0000      -0.636552       -17.3215
  25   2.0000      -0.603418       -16.4198
  26   2.0000      -0.598298       -16.2805
  27   2.0000      -0.566118       -15.4049
  28   2.0000      -0.543122       -14.7791
  29   2.0000      -0.523287       -14.2394
  30   2.0000      -0.521090       -14.1796
  31   2.0000      -0.492693       -13.4069
  32   2.0000      -0.491806       -13.3827
  33   2.0000      -0.453540       -12.3415
  34   2.0000      -0.373829       -10.1724
  35   2.0000      -0.357218        -9.7204
  36   0.0000       0.018345         0.4992
  37   0.0000       0.024456         0.6655
  38   0.0000       0.032288         0.8786
  39   0.0000       0.035426         0.9640
  40   0.0000       0.036617         0.9964

MULLIKEN ATOMIC CHARGES
-----------------------
   0 C :   -0.367395
   1 C :   -0.268836
   2 C :   -0.186294
   3 C :   -0.330602
   4 C :    0.386278
   5 C :    0.040393
   6 C :   -0.788112
   7 N :    0.728501
   8 O :   -0.603989
   9 O :   -0.602946
  10 H :    0.202485
  11 H :    0.332531
  12 H :    0.372198
  13 H :    0.404558
  14 H :    0.215743
  15 H :    0.232743
  16 H :    0.232743
Sum of atomic charges:    0.0000000

LOEWDIN ATOMIC CHARGES
----------------------
   0 C :    0.369183
   1 C :    0.360191
   2 C :    0.322287
   3 C :    0.325367
   4 C :   -0.054114
   5 C :   -0.291012
   6 C :    0.916978
   7 N :   -0.834168
   8 O :    0.540941
   9 O :    0.542718
  10 H :   -0.317213
  11 H :   -0.307385
  12 H :   -0.351471
  13 H :   -0.355161
  14 H :   -0.304651
  15 H :   -0.281245
  16 H :   -0.281245

  Mayer bond orders larger than 0.100000
B(  0-C ,  1-C ) :   1.2368 B(  0-C ,  2-C ) :   1.3053 B(  0-C ,  3-C ) :   0.1526
B(  0-C ,  4-C ) :  -0.2334 B(  0-C ,  5-C ) :  -0.3237 B(  0-C , 10-H ) :   1.1906
B(  1-C ,  4-C ) :   0.9898 B(  1-C , 10-H ) :  -0.1240 B(  1-C , 11-H ) :   0.9515
B(  2-C ,  5-C ) :   1.2235 B(  2-C ,  7-N ) :  -0.1009 B(  2-C , 10-H ) :  -0.1206
B(  2-C , 12-H ) :   0.8234 B(  3-C ,  4-C ) :   1.0820 B(  3-C ,  5-C ) :   1.4714
B(  3-C ,  6-C ) :  -0.1209 B(  3-C ,  7-N ) :  -0.1606 B(  3-C , 13-H ) :   0.8099
B(  4-C ,  5-C ) :  -0.5363 B(  4-C ,  6-C ) :   0.7420 B(  5-C ,  7-N ) :   0.8535
B(  5-C ,  8-O ) :   0.2442 B(  5-C ,  9-O ) :   0.2196 B(  6-C , 14-H ) :   1.0474
B(  6-C , 15-H ) :   1.0126 B(  6-C , 16-H ) :   1.0126 B(  7-N ,  8-O ) :   1.1661
B(  7-N ,  9-O ) :   1.1854

MP2 TOTAL ENERGY:     -475.343892031 Eh
FINAL SINGLE POINT ENERGY      -475.343892031372

DIPOLE MOMENT
-------------
                                X             Y             Z
Electronic contribution:      1.17055      10.30697       0.00000
Nuclear contribution   :     -2.08930     -12.25957       0.00000
                        -----------------------------------------
Total Dipole Moment    :     -0.91875      -1.95260       0.00000
                        -----------------------------------------
Magnitude (a.u.)       :      2.15795
Magnitude (Debye)      :      5.48508

Rotational constants in cm-1:     0.089344     0.032804     0.024101
Rotational constants in MHz :  2678.477999   983.428006   722.522786

                             ****ORCA TERMINATED NORMALLY****
TOTAL RUN TIME: 0 days 1 hours 21 minutes 14 seconds 501 msec
