                         Program Version 5.0.4 -  RELEASE  -
|  1> !ri-mp2 aug-cc-pvqz aug-cc-pvqz/c tightscf
|  2> %pal nprocs 16 end
|  3> %maxcore 3800
|  4>
|  5> * xyz 0 1
|  6> C     -0.801844    2.711310   -0.338818
|  7> C     -1.556490    1.634435    0.440931
|  8> C     -1.752233    0.321404   -0.321811
|  9> S     -0.564304   -1.020795    0.008601
| 10> O     -0.486101   -1.205289    1.457548
| 11> C      1.079145   -0.500005   -0.592572
| 12> C      1.950093    0.217261    0.432281
| 13> C      3.350553    0.492327   -0.118099
| 14> O     -0.983323   -2.133534   -0.842642
| 15> H      0.202285    2.392866   -0.619062
| 16> H     -0.702543    3.619858    0.255426
| 17> H     -1.332410    2.972547   -1.256124
| 18> H     -2.546727    2.017284    0.694565
| 19> H     -1.068499    1.426270    1.394331
| 20> H     -1.766872    0.450649   -1.403970
| 21> H     -2.678996   -0.177479   -0.036482
| 22> H      0.908147    0.085211   -1.496916
| 23> H      1.520929   -1.450450   -0.895032
| 24> H      2.010961   -0.398610    1.328781
| 25> H      1.485259    1.155553    0.736171
| 26> H      3.854470   -0.434566   -0.397124
| 27> H      3.316961    1.131141   -1.002632
| 28> H      3.965955    0.992641    0.629730
| 29> *
| 30>
| 31>                          ****END OF INPUT****

CARTESIAN COORDINATES (ANGSTROEM)
---------------------------------
  C     -0.801844    2.711310   -0.338818
  C     -1.556490    1.634435    0.440931
  C     -1.752233    0.321404   -0.321811
  S     -0.564304   -1.020795    0.008601
  O     -0.486101   -1.205289    1.457548
  C      1.079145   -0.500005   -0.592572
  C      1.950093    0.217261    0.432281
  C      3.350553    0.492327   -0.118099
  O     -0.983323   -2.133534   -0.842642
  H      0.202285    2.392866   -0.619062
  H     -0.702543    3.619858    0.255426
  H     -1.332410    2.972547   -1.256124
  H     -2.546727    2.017284    0.694565
  H     -1.068499    1.426270    1.394331
  H     -1.766872    0.450649   -1.403970
  H     -2.678996   -0.177479   -0.036482
  H      0.908147    0.085211   -1.496916
  H      1.520929   -1.450450   -0.895032
  H      2.010961   -0.398610    1.328781
  H      1.485259    1.155553    0.736171
  H      3.854470   -0.434566   -0.397124
  H      3.316961    1.131141   -1.002632
  H      3.965955    0.992641    0.629730

 Total Charge           Charge          ....    0
 Multiplicity           Mult            ....    1
 Number of Electrons    NEL             ....   82
 Basis Dimension        Dim             .... 1368

ORBITAL ENERGIES
----------------

  NO   OCC          E(Eh)            E(eV)
   0   2.0000     -92.161324     -2507.8371
   1   2.0000     -20.533177      -558.7362
   2   2.0000     -20.531301      -558.6851
   3   2.0000     -11.274605      -306.7976
   4   2.0000     -11.274506      -306.7949
   5   2.0000     -11.249708      -306.1201
   6   2.0000     -11.244523      -305.9790
   7   2.0000     -11.235877      -305.7438
   8   2.0000     -11.231341      -305.6203
   9   2.0000      -9.131715      -248.4866
  10   2.0000      -6.816821      -185.4951
  11   2.0000      -6.816280      -185.4804
  12   2.0000      -6.815886      -185.4697
  13   2.0000      -1.430002       -38.9123
  14   2.0000      -1.320149       -35.9231
  15   2.0000      -1.105274       -30.0760
  16   2.0000      -1.087855       -29.6020
  17   2.0000      -1.000558       -27.2266
  18   2.0000      -0.968337       -26.3498
  19   2.0000      -0.867302       -23.6005
  20   2.0000      -0.839806       -22.8523
  21   2.0000      -0.787182       -21.4203
  22   2.0000      -0.691035       -18.8040
  23   2.0000      -0.678540       -18.4640
  24   2.0000      -0.649216       -17.6661
  25   2.0000      -0.636151       -17.3105
  26   2.0000      -0.626541       -17.0490
  27   2.0000      -0.614294       -16.7158
  28   2.0000      -0.594656       -16.1814
  29   2.0000      -0.584168       -15.8960
  30   2.0000      -0.567069       -15.4307
  31   2.0000      -0.545926       -14.8554
  32   2.0000      -0.528562       -14.3829
  33   2.0000      -0.513611       -13.9761
  34   2.0000      -0.512147       -13.9362
  35   2.0000      -0.505090       -13.7442
  36   2.0000      -0.500970       -13.6321
  37   2.0000      -0.479044       -13.0354
  38   2.0000      -0.476882       -12.9766
  39   2.0000      -0.457609       -12.4522
  40   2.0000      -0.418973       -11.4008
  41   0.0000       0.018343         0.4991
  42   0.0000       0.025320         0.6890
  43   0.0000       0.027724         0.7544
  44   0.0000       0.033131         0.9015
  45   0.0000       0.041338         1.1249

MULLIKEN ATOMIC CHARGES
-----------------------
   0 C :   -1.052092
   1 C :   -0.299316
   2 C :   -0.680846
   3 S :    2.686720
   4 O :   -1.337242
   5 C :   -0.558045
   6 C :   -0.490208
   7 C :   -0.832543
   8 O :   -1.486700
   9 H :    0.246540
  10 H :    0.276087
  11 H :    0.226383
  12 H :    0.319006
  13 H :    0.286715
  14 H :    0.338287
  15 H :    0.356774
  16 H :    0.352806
  17 H :    0.325614
  18 H :    0.307143
  19 H :    0.291059
  20 H :    0.218744
  21 H :    0.227825
  22 H :    0.277288
Sum of atomic charges:   -0.0000000

LOEWDIN ATOMIC CHARGES
----------------------
   0 C :    0.930930
   1 C :    0.497656
   2 C :    0.439322
   3 S :   -0.132747
   4 O :    0.320102
   5 C :    0.427982
   6 C :    0.469370
   7 C :    0.939347
   8 O :    0.309906
   9 H :   -0.316543
  10 H :   -0.271707
  11 H :   -0.276888
  12 H :   -0.275106
  13 H :   -0.303475
  14 H :   -0.324134
  15 H :   -0.336186
  16 H :   -0.315483
  17 H :   -0.334711
  18 H :   -0.296430
  19 H :   -0.311432
  20 H :   -0.281180
  21 H :   -0.280368
  22 H :   -0.278226

  Mayer bond orders larger than 0.100000
B(  0-C ,  1-C ) :   0.8818 B(  0-C ,  9-H ) :   0.9212 B(  0-C , 10-H ) :   0.9772
B(  0-C , 11-H ) :   1.0100 B(  1-C ,  2-C ) :   0.7628 B(  1-C , 12-H ) :   0.8746
B(  1-C , 13-H ) :   0.9133 B(  2-C ,  3-S ) :   1.0269 B(  2-C , 14-H ) :   0.8458
B(  2-C , 15-H ) :   0.8802 B(  3-S ,  4-O ) :   0.8740 B(  3-S ,  5-C ) :   0.8898
B(  3-S ,  8-O ) :   0.6593 B(  4-O ,  8-O ) :   0.1063 B(  5-C ,  6-C ) :   0.7796
B(  5-C , 16-H ) :   0.8570 B(  5-C , 17-H ) :   0.9165 B(  6-C ,  7-C ) :   0.8380
B(  6-C , 18-H ) :   0.8833 B(  6-C , 19-H ) :   0.8480 B(  7-C , 20-H ) :   0.9935
B(  7-C , 21-H ) :   0.9627 B(  7-C , 22-H ) :   1.0052

MP2 TOTAL ENERGY:     -784.630994357 Eh
FINAL SINGLE POINT ENERGY      -784.630994356928

DIPOLE MOMENT
-------------
                                X             Y             Z
Electronic contribution:     -6.76984     -12.10009       1.47656
Nuclear contribution   :      7.34273      14.10675      -2.11052
                        -----------------------------------------
Total Dipole Moment    :      0.57289       2.00665      -0.63397
                        -----------------------------------------
Magnitude (a.u.)       :      2.18100
Magnitude (Debye)      :      5.54367

Rotational constants in cm-1:     0.046021     0.038294     0.025318
Rotational constants in MHz :  1379.678229  1148.016151   759.028371

                             ****ORCA TERMINATED NORMALLY****
TOTAL RUN TIME: 0 days 2 hours 1 minutes 10 seconds 832 msec
