                         Program Version 5.0.4 -  RELEASE  -
|  1> !ri-mp2 aug-cc-pvqz aug-cc-pvqz/c tightscf
|  2> %pal nprocs 16 end
|  3>
|  4> * xyz 0 1
|  5> N      0.515491    1.391494   -0.213362
|  6> H     -0.258480    1.947494    0.128733
|  7> H      1.364140    1.866364    0.068915
|  8> N     -2.061342   -0.127690    0.037236
|  9> H     -2.181732    0.757797   -0.436282
| 10> H     -2.220834    0.015135    1.026891
| 11> C     -0.749795   -0.711690   -0.229148
| 12> H     -0.747392   -1.729706    0.168410
| 13> H     -0.635640   -0.788418   -1.312659
| 14> C      1.758237   -0.700957   -0.022941
| 15> H      1.744056   -1.722779    0.358287
| 16> H      1.887491   -0.735988   -1.105935
| 17> H      2.629221   -0.200050    0.404284
| 18> C      0.469629    0.030604    0.335268
| 19> H      0.371697    0.035781    1.433164
| 20> *
| 21>
| 22>                          ****END OF INPUT****

CARTESIAN COORDINATES (ANGSTROEM)
---------------------------------
  N      0.515491    1.391494   -0.213362
  H     -0.258480    1.947494    0.128733
  H      1.364140    1.866364    0.068915
  N     -2.061342   -0.127690    0.037236
  H     -2.181732    0.757797   -0.436282
  H     -2.220834    0.015135    1.026891
  C     -0.749795   -0.711690   -0.229148
  H     -0.747392   -1.729706    0.168410
  H     -0.635640   -0.788418   -1.312659
  C      1.758237   -0.700957   -0.022941
  H      1.744056   -1.722779    0.358287
  H      1.887491   -0.735988   -1.105935
  H      2.629221   -0.200050    0.404284
  C      0.469629    0.030604    0.335268
  H      0.371697    0.035781    1.433164

 Total Charge           Charge          ....    0
 Multiplicity           Mult            ....    1
 Number of Electrons    NEL             ....   42
 Basis Dimension        Dim             ....  860

ORBITAL ENERGIES
----------------

  NO   OCC          E(Eh)            E(eV)
   0   2.0000     -15.538556      -422.8256
   1   2.0000     -15.535932      -422.7542
   2   2.0000     -11.251386      -306.1658
   3   2.0000     -11.240883      -305.8800
   4   2.0000     -11.212791      -305.1156
   5   2.0000      -1.199803       -32.6483
   6   2.0000      -1.154441       -31.4139
   7   2.0000      -1.005873       -27.3712
   8   2.0000      -0.900841       -24.5131
   9   2.0000      -0.785840       -21.3838
  10   2.0000      -0.682750       -18.5786
  11   2.0000      -0.661456       -17.9991
  12   2.0000      -0.628837       -17.1115
  13   2.0000      -0.606921       -16.5152
  14   2.0000      -0.545133       -14.8338
  15   2.0000      -0.525860       -14.3094
  16   2.0000      -0.518309       -14.1039
  17   2.0000      -0.501236       -13.6393
  18   2.0000      -0.495985       -13.4964
  19   2.0000      -0.400316       -10.8932
  20   2.0000      -0.375919       -10.2293
  21   0.0000       0.023481         0.6390
  22   0.0000       0.032248         0.8775
  23   0.0000       0.034242         0.9318
  24   0.0000       0.036922         1.0047
  25   0.0000       0.051305         1.3961

MULLIKEN ATOMIC CHARGES
-----------------------
   0 N :   -0.761686
   1 H :    0.212287
   2 H :    0.189414
   3 N :   -0.741839
   4 H :    0.257180
   5 H :    0.251671
   6 C :   -0.387038
   7 H :    0.324278
   8 H :    0.269028
   9 C :   -0.876331
  10 H :    0.237599
  11 H :    0.235070
  12 H :    0.242579
  13 C :    0.243510
  14 H :    0.304278
Sum of atomic charges:    0.0000000

LOEWDIN ATOMIC CHARGES
----------------------
   0 N :    1.289029
   1 H :   -0.522333
   2 H :   -0.509405
   3 N :    1.292735
   4 H :   -0.523359
   5 H :   -0.504925
   6 C :    0.342054
   7 H :   -0.294397
   8 H :   -0.294684
   9 C :    0.905731
  10 H :   -0.280364
  11 H :   -0.279885
  12 H :   -0.279348
  13 C :   -0.065181
  14 H :   -0.275667

  Mayer bond orders larger than 0.100000
B(  0-N ,  1-H ) :   0.9746 B(  0-N ,  2-H ) :   0.9937 B(  0-N , 13-C ) :   0.5309
B(  3-N ,  4-H ) :   0.9015 B(  3-N ,  5-H ) :   0.8960 B(  3-N ,  6-C ) :   0.9218
B(  6-C ,  7-H ) :   0.8982 B(  6-C ,  8-H ) :   0.9247 B(  6-C , 13-C ) :   0.8061
B(  9-C , 10-H ) :   1.0103 B(  9-C , 11-H ) :   0.9592 B(  9-C , 12-H ) :   1.0078
B(  9-C , 13-C ) :   0.7384 B( 13-C , 14-H ) :   0.8527

MP2 TOTAL ENERGY:     -229.451603595 Eh
FINAL SINGLE POINT ENERGY      -229.451603594700

DIPOLE MOMENT
-------------
                                X             Y             Z
Electronic contribution:     -1.67371       0.93952      -0.10513
Nuclear contribution   :      2.06804      -0.58202       0.77975
                        -----------------------------------------
Total Dipole Moment    :      0.39433       0.35751       0.67462
                        -----------------------------------------
Magnitude (a.u.)       :      0.85932
Magnitude (Debye)      :      2.18421

Rotational constants in cm-1:     0.264809     0.115847     0.088413
Rotational constants in MHz :  7938.769574  3472.999486  2650.568036

                             ****ORCA TERMINATED NORMALLY****
TOTAL RUN TIME: 0 days 0 hours 21 minutes 40 seconds 962 msec
