                         Program Version 5.0.4 -  RELEASE  -
|  1> !ri-mp2 aug-cc-pvqz aug-cc-pvqz/c tightscf
|  2> %pal nprocs 16 end
|  3>
|  4> * xyz 0 1
|  5> C      0.635171   -0.982628        0.000000
|  6> C      1.116435    0.296921        0.000000
|  7> C     -1.089077    0.282717        0.000000
|  8> N     -0.739829   -0.979874        0.000000
|  9> N      0.000000    1.101780        0.000000
| 10> H      1.196253   -1.901176        0.000000
| 11> H      2.113523    0.697918        0.000000
| 12> H     -2.097453    0.661493        0.000000
| 13> H     -0.008690    2.106362        0.000000
| 14> *
| 15>
| 16>                          ****END OF INPUT****

CARTESIAN COORDINATES (ANGSTROEM)
---------------------------------
  C      0.635171   -0.982628    0.000000
  C      1.116435    0.296921    0.000000
  C     -1.089077    0.282717    0.000000
  N     -0.739829   -0.979874    0.000000
  N      0.000000    1.101780    0.000000
  H      1.196253   -1.901176    0.000000
  H      2.113523    0.697918    0.000000
  H     -2.097453    0.661493    0.000000
  H     -0.008690    2.106362    0.000000

 Total Charge           Charge          ....    0
 Multiplicity           Mult            ....    1
 Number of Electrons    NEL             ....   36
 Basis Dimension        Dim             ....  584

ORBITAL ENERGIES
----------------

  NO   OCC          E(Eh)            E(eV)
   0   2.0000     -15.620886      -425.0659
   1   2.0000     -15.542937      -422.9448
   2   2.0000     -11.295633      -307.3698
   3   2.0000     -11.260248      -306.4069
   4   2.0000     -11.241975      -305.9097
   5   2.0000      -1.342350       -36.5272
   6   2.0000      -1.167339       -31.7649
   7   2.0000      -1.008814       -27.4512
   8   2.0000      -0.829646       -22.5758
   9   2.0000      -0.800372       -21.7792
  10   2.0000      -0.760129       -20.6842
  11   2.0000      -0.610735       -16.6189
  12   2.0000      -0.603467       -16.4212
  13   2.0000      -0.600079       -16.3290
  14   2.0000      -0.572619       -15.5818
  15   2.0000      -0.437127       -11.8948
  16   2.0000      -0.401552       -10.9268
  17   2.0000      -0.322636        -8.7794
  18   0.0000       0.018330         0.4988
  19   0.0000       0.030342         0.8257
  20   0.0000       0.037068         1.0087
  21   0.0000       0.047012         1.2793
  22   0.0000       0.060338         1.6419

MULLIKEN ATOMIC CHARGES
-----------------------
   0 C :   -0.216404
   1 C :   -0.318328
   2 C :   -0.031755
   3 N :   -0.649741
   4 N :   -0.430410
   5 H :    0.481201
   6 H :    0.462354
   7 H :    0.564897
   8 H :    0.138185
Sum of atomic charges:    0.0000000

LOEWDIN ATOMIC CHARGES
----------------------
   0 C :    0.035721
   1 C :    0.179744
   2 C :   -0.081582
   3 N :    0.540599
   4 N :    0.773636
   5 H :   -0.355651
   6 H :   -0.316762
   7 H :   -0.325593
   8 H :   -0.450112

  Mayer bond orders larger than 0.100000
B(  0-C ,  1-C ) :   1.6491 B(  0-C ,  3-N ) :   1.0201 B(  0-C ,  5-H ) :   0.8102
B(  1-C ,  4-N ) :   0.9415 B(  1-C ,  6-H ) :   0.8208 B(  2-C ,  3-N ) :   1.6055
B(  2-C ,  4-N ) :   1.2189 B(  2-C ,  7-H ) :   0.7001 B(  4-N ,  8-H ) :   1.1026

MP2 TOTAL ENERGY:     -225.857055789 Eh
FINAL SINGLE POINT ENERGY      -225.857055789177

DIPOLE MOMENT
-------------
                                X             Y             Z
Electronic contribution:     -0.77782      -0.10787      -0.00000
Nuclear contribution   :      1.19104       1.55454       0.00000
                        -----------------------------------------
Total Dipole Moment    :      0.41322       1.44667      -0.00000
                        -----------------------------------------
Magnitude (a.u.)       :      1.50453
Magnitude (Debye)      :      3.82422

Rotational constants in cm-1:     0.325855     0.315477     0.160291
Rotational constants in MHz :  9768.887108  9457.776424  4805.407346

                             ****ORCA TERMINATED NORMALLY****
TOTAL RUN TIME: 0 days 0 hours 6 minutes 5 seconds 927 msec
