                         Program Version 5.0.4 -  RELEASE  -
|  1> !ri-mp2 aug-cc-pvqz aug-cc-pvqz/c tightscf
|  2> %pal nprocs 16 end
|  3>
|  4> * xyz 0 1
|  5> C     -2.640949   -0.019049    0.026517
|  6> C     -1.209042    0.058303   -0.500284
|  7> C     -0.194938   -0.085420    0.631445
|  8> N      1.205024   -0.003386    0.081039
|  9> O      1.765014   -1.053167   -0.189400
| 10> O      1.672267    1.111046   -0.088501
| 11> H     -2.833745   -0.973366    0.519100
| 12> H     -2.844646    0.776897    0.744558
| 13> H     -3.353672    0.081711   -0.791461
| 14> H     -1.043315    1.011913   -1.003038
| 15> H     -1.035929   -0.731717   -1.232936
| 16> H     -0.270535   -1.051673    1.121825
| 17> H     -0.282005    0.723902    1.351821
| 18> *
| 19>
| 20>                          ****END OF INPUT****

CARTESIAN COORDINATES (ANGSTROEM)
---------------------------------
  C     -2.640949   -0.019049    0.026517
  C     -1.209042    0.058303   -0.500284
  C     -0.194938   -0.085420    0.631445
  N      1.205024   -0.003386    0.081039
  O      1.765014   -1.053167   -0.189400
  O      1.672267    1.111046   -0.088501
  H     -2.833745   -0.973366    0.519100
  H     -2.844646    0.776897    0.744558
  H     -3.353672    0.081711   -0.791461
  H     -1.043315    1.011913   -1.003038
  H     -1.035929   -0.731717   -1.232936
  H     -0.270535   -1.051673    1.121825
  H     -0.282005    0.723902    1.351821

 Total Charge           Charge          ....    0
 Multiplicity           Mult            ....    1
 Number of Electrons    NEL             ....   48
 Basis Dimension        Dim             ....  802

ORBITAL ENERGIES
----------------

  NO   OCC          E(Eh)            E(eV)
   0   2.0000     -20.600459      -560.5670
   1   2.0000     -20.599478      -560.5403
   2   2.0000     -15.842590      -431.0988
   3   2.0000     -11.306252      -307.6588
   4   2.0000     -11.258064      -306.3475
   5   2.0000     -11.241119      -305.8864
   6   2.0000      -1.603565       -43.6352
   7   2.0000      -1.398739       -38.0616
   8   2.0000      -1.130965       -30.7751
   9   2.0000      -1.025992       -27.9187
  10   2.0000      -0.886523       -24.1235
  11   2.0000      -0.835691       -22.7403
  12   2.0000      -0.752064       -20.4647
  13   2.0000      -0.734181       -19.9781
  14   2.0000      -0.711483       -19.3604
  15   2.0000      -0.671198       -18.2642
  16   2.0000      -0.603374       -16.4186
  17   2.0000      -0.587365       -15.9830
  18   2.0000      -0.552415       -15.0320
  19   2.0000      -0.521339       -14.1864
  20   2.0000      -0.514587       -14.0026
  21   2.0000      -0.491461       -13.3733
  22   2.0000      -0.479809       -13.0563
  23   2.0000      -0.452186       -12.3046
  24   0.0000       0.020809         0.5662
  25   0.0000       0.029458         0.8016
  26   0.0000       0.032830         0.8934
  27   0.0000       0.039737         1.0813
  28   0.0000       0.051264         1.3950

MULLIKEN ATOMIC CHARGES
-----------------------
   0 C :   -0.812783
   1 C :   -0.470099
   2 C :   -0.325781
   3 N :    0.805451
   4 O :   -0.605232
   5 O :   -0.602113
   6 H :    0.232720
   7 H :    0.235599
   8 H :    0.273803
   9 H :    0.284900
  10 H :    0.281424
  11 H :    0.368472
  12 H :    0.333637
Sum of atomic charges:   -0.0000000

LOEWDIN ATOMIC CHARGES
----------------------
   0 C :    0.934405
   1 C :    0.501904
   2 C :    0.322938
   3 N :   -0.838204
   4 O :    0.540906
   5 O :    0.540840
   6 H :   -0.280660
   7 H :   -0.280508
   8 H :   -0.279273
   9 H :   -0.278939
  10 H :   -0.274328
  11 H :   -0.308099
  12 H :   -0.300981

  Mayer bond orders larger than 0.100000
B(  0-C ,  1-C ) :   0.9514 B(  0-C ,  6-H ) :   0.9481 B(  0-C ,  7-H ) :   0.9453
B(  0-C ,  8-H ) :   0.9653 B(  1-C ,  2-C ) :   0.9588 B(  1-C ,  9-H ) :   0.8554
B(  1-C , 10-H ) :   0.8546 B(  2-C ,  3-N ) :   0.9552 B(  2-C , 11-H ) :   0.8218
B(  2-C , 12-H ) :   0.8465 B(  3-N ,  4-O ) :   1.2339 B(  3-N ,  5-O ) :   1.2433
B(  4-O ,  5-O ) :   0.1342

MP2 TOTAL ENERGY:     -323.187841144 Eh
FINAL SINGLE POINT ENERGY      -323.187841143570

DIPOLE MOMENT
-------------
                                X             Y             Z
Electronic contribution:     10.02266       0.09152      -0.24289
Nuclear contribution   :    -11.73978      -0.16335       0.71431
                        -----------------------------------------
Total Dipole Moment    :     -1.71712      -0.07183       0.47143
                        -----------------------------------------
Magnitude (a.u.)       :      1.78211
Magnitude (Debye)      :      4.52976

Rotational constants in cm-1:     0.290052     0.064628     0.058624
Rotational constants in MHz :  8695.536949  1937.501033  1757.512351

                             ****ORCA TERMINATED NORMALLY****
TOTAL RUN TIME: 0 days 0 hours 15 minutes 41 seconds 330 msec
