                         Program Version 5.0.4 -  RELEASE  -
|  1> !ri-mp2 aug-cc-pvqz aug-cc-pvqz/c tightscf
|  2> %pal nprocs 16 end
|  3>
|  4> * xyz 0 1
|  5> C     -1.485209    1.351731    0.043199
|  6> C     -2.539465   -0.658118    0.027515
|  7> C     -0.256809    0.716701   -0.007150
|  8> C     -0.286056   -0.686804   -0.018776
|  9> C      2.255116   -0.024473    0.324269
| 10> N     -2.633772    0.663232    0.061234
| 11> N     -1.410366   -1.376466   -0.006097
| 12> S      1.321935    1.487762   -0.135275
| 13> S      1.275421   -1.509989   -0.105022
| 14> H     -1.560648    2.432329    0.064669
| 15> H     -3.465024   -1.219915    0.032889
| 16> H      3.180774   -0.038600   -0.242667
| 17> H      2.470711   -0.019781    1.389566
| 18> *
| 19>
| 20>                          ****END OF INPUT****

CARTESIAN COORDINATES (ANGSTROEM)
---------------------------------
  C     -1.485209    1.351731    0.043199
  C     -2.539465   -0.658118    0.027515
  C     -0.256809    0.716701   -0.007150
  C     -0.286056   -0.686804   -0.018776
  C      2.255116   -0.024473    0.324269
  N     -2.633772    0.663232    0.061234
  N     -1.410366   -1.376466   -0.006097
  S      1.321935    1.487762   -0.135275
  S      1.275421   -1.509989   -0.105022
  H     -1.560648    2.432329    0.064669
  H     -3.465024   -1.219915    0.032889
  H      3.180774   -0.038600   -0.242667
  H      2.470711   -0.019781    1.389566

 Total Charge           Charge          ....    0
 Multiplicity           Mult            ....    1
 Number of Electrons    NEL             ....   80
 Basis Dimension        Dim             ....  912

ORBITAL ENERGIES
----------------

  NO   OCC          E(Eh)            E(eV)
   0   2.0000     -91.989695     -2503.1668
   1   2.0000     -91.987690     -2503.1123
   2   2.0000     -15.582919      -424.0328
   3   2.0000     -15.577510      -423.8856
   4   2.0000     -11.340564      -308.5924
   5   2.0000     -11.320984      -308.0596
   6   2.0000     -11.315384      -307.9072
   7   2.0000     -11.307645      -307.6967
   8   2.0000     -11.288169      -307.1667
   9   2.0000      -8.991395      -244.6683
  10   2.0000      -8.989071      -244.6051
  11   2.0000      -6.672665      -181.5724
  12   2.0000      -6.671911      -181.5519
  13   2.0000      -6.670932      -181.5253
  14   2.0000      -6.670533      -181.5144
  15   2.0000      -6.669750      -181.4931
  16   2.0000      -6.668677      -181.4639
  17   2.0000      -1.328679       -36.1552
  18   2.0000      -1.213341       -33.0167
  19   2.0000      -1.153894       -31.3991
  20   2.0000      -1.053158       -28.6579
  21   2.0000      -1.003938       -27.3185
  22   2.0000      -0.915559       -24.9136
  23   2.0000      -0.863101       -23.4862
  24   2.0000      -0.837091       -22.7784
  25   2.0000      -0.730958       -19.8904
  26   2.0000      -0.705030       -19.1848
  27   2.0000      -0.650790       -17.7089
  28   2.0000      -0.610580       -16.6147
  29   2.0000      -0.599704       -16.3188
  30   2.0000      -0.593933       -16.1618
  31   2.0000      -0.557689       -15.1755
  32   2.0000      -0.548288       -14.9197
  33   2.0000      -0.482664       -13.1340
  34   2.0000      -0.467657       -12.7256
  35   2.0000      -0.459599       -12.5063
  36   2.0000      -0.442001       -12.0275
  37   2.0000      -0.421799       -11.4777
  38   2.0000      -0.378801       -10.3077
  39   2.0000      -0.320600        -8.7240
  40   0.0000       0.023627         0.6429
  41   0.0000       0.029856         0.8124
  42   0.0000       0.034479         0.9382
  43   0.0000       0.036641         0.9970
  44   0.0000       0.052549         1.4299

MULLIKEN ATOMIC CHARGES
-----------------------
   0 C :    0.047562
   1 C :   -0.308804
   2 C :   -0.150754
   3 C :    0.336605
   4 C :   -0.624868
   5 N :   -0.593337
   6 N :   -0.540355
   7 S :    0.048320
   8 S :    0.081057
   9 H :    0.507542
  10 H :    0.586940
  11 H :    0.332646
  12 H :    0.277445
Sum of atomic charges:    0.0000000

LOEWDIN ATOMIC CHARGES
----------------------
   0 C :   -0.022959
   1 C :   -0.194617
   2 C :   -0.657428
   3 C :   -0.923412
   4 C :   -0.188298
   5 N :    0.578315
   6 N :    0.493647
   7 S :    1.269936
   8 S :    1.284239
   9 H :   -0.355787
  10 H :   -0.382221
  11 H :   -0.460856
  12 H :   -0.440559

  Mayer bond orders larger than 0.100000
B(  0-C ,  2-C ) :   1.1280 B(  0-C ,  5-N ) :   1.0611 B(  0-C ,  9-H ) :   0.8157
B(  1-C ,  2-C ) :   0.1040 B(  1-C ,  5-N ) :   1.4824 B(  1-C ,  6-N ) :   1.3982
B(  1-C , 10-H ) :   0.6934 B(  2-C ,  3-C ) :   0.8993 B(  2-C ,  4-C ) :  -0.1116
B(  2-C ,  6-N ) :   0.1296 B(  2-C ,  7-S ) :   0.7506 B(  2-C ,  8-S ) :  -0.1793
B(  3-C ,  6-N ) :   0.9621 B(  3-C ,  8-S ) :   0.9599 B(  4-C ,  7-S ) :   0.9727
B(  4-C ,  8-S ) :   0.9777 B(  4-C , 11-H ) :   0.8879 B(  4-C , 12-H ) :   0.8813

MP2 TOTAL ENERGY:    -1097.413732781 Eh
FINAL SINGLE POINT ENERGY     -1097.413732780644

DIPOLE MOMENT
-------------
                                X             Y             Z
Electronic contribution:      0.37914      -0.73968      -0.97147
Nuclear contribution   :      0.50197       1.10653       1.20430
                        -----------------------------------------
Total Dipole Moment    :      0.88111       0.36685       0.23283
                        -----------------------------------------
Magnitude (a.u.)       :      0.98242
Magnitude (Debye)      :      2.49710

Rotational constants in cm-1:     0.074103     0.038734     0.025771
Rotational constants in MHz :  2221.556837  1161.223627   772.583270

                             ****ORCA TERMINATED NORMALLY****
TOTAL RUN TIME: 0 days 0 hours 33 minutes 2 seconds 619 msec
