                         Program Version 5.0.4 -  RELEASE  -
|  1> !ri-mp2 aug-cc-pvqz aug-cc-pvqz/c tightscf
|  2> %pal nprocs 16 end
|  3> %maxcore 3800
|  4>
|  5> * xyz 0 1
|  6> C      2.858294    3.448276    0.000000
|  7> C      1.443396    2.872081    0.000000
|  8> C      1.412286    1.343354    0.000000
|  9> C      0.000000    0.757661    0.000000
| 10> C     -0.030717   -0.771281    0.000000
| 11> C     -1.443246   -1.357334    0.000000
| 12> C     -1.465482   -2.889128    0.000000
| 13> N     -2.786976   -3.518510    0.000000
| 14> H      3.416468    3.123539    0.880618
| 15> H      3.416468    3.123539   -0.880618
| 16> H      2.845446    4.539098    0.000000
| 17> H      0.899109    3.242456    0.874013
| 18> H      0.899109    3.242456   -0.874013
| 19> H      1.957625    0.972748    0.874556
| 20> H      1.957625    0.972748   -0.874556
| 21> H     -0.544592    1.128853    0.874555
| 22> H     -0.544592    1.128853   -0.874555
| 23> H      0.514279   -1.142144   -0.874488
| 24> H      0.514279   -1.142144    0.874488
| 25> H     -1.990914   -0.993618    0.876239
| 26> H     -1.990914   -0.993618   -0.876239
| 27> H     -0.922544   -3.259922   -0.873380
| 28> H     -0.922544   -3.259922    0.873380
| 29> H     -3.321330   -3.237562   -0.813570
| 30> H     -3.321330   -3.237562    0.813570
| 31> *
| 32>
| 33>                          ****END OF INPUT****

CARTESIAN COORDINATES (ANGSTROEM)
---------------------------------
  C      2.858294    3.448276    0.000000
  C      1.443396    2.872081    0.000000
  C      1.412286    1.343354    0.000000
  C      0.000000    0.757661    0.000000
  C     -0.030717   -0.771281    0.000000
  C     -1.443246   -1.357334    0.000000
  C     -1.465482   -2.889128    0.000000
  N     -2.786976   -3.518510    0.000000
  H      3.416468    3.123539    0.880618
  H      3.416468    3.123539   -0.880618
  H      2.845446    4.539098    0.000000
  H      0.899109    3.242456    0.874013
  H      0.899109    3.242456   -0.874013
  H      1.957625    0.972748    0.874556
  H      1.957625    0.972748   -0.874556
  H     -0.544592    1.128853    0.874555
  H     -0.544592    1.128853   -0.874555
  H      0.514279   -1.142144   -0.874488
  H      0.514279   -1.142144    0.874488
  H     -1.990914   -0.993618    0.876239
  H     -1.990914   -0.993618   -0.876239
  H     -0.922544   -3.259922   -0.873380
  H     -0.922544   -3.259922    0.873380
  H     -3.321330   -3.237562   -0.813570
  H     -3.321330   -3.237562    0.813570

 Total Charge           Charge          ....    0
 Multiplicity           Mult            ....    1
 Number of Electrons    NEL             ....   66
 Basis Dimension        Dim             .... 1422

ORBITAL ENERGIES
----------------

  NO   OCC          E(Eh)            E(eV)
   0   2.0000     -15.533901      -422.6989
   1   2.0000     -11.242112      -305.9134
   2   2.0000     -11.215779      -305.1969
   3   2.0000     -11.215129      -305.1792
   4   2.0000     -11.214443      -305.1605
   5   2.0000     -11.214120      -305.1517
   6   2.0000     -11.213130      -305.1248
   7   2.0000     -11.208944      -305.0109
   8   2.0000      -1.173620       -31.9358
   9   2.0000      -1.086995       -29.5786
  10   2.0000      -1.043247       -28.3882
  11   2.0000      -0.978058       -26.6143
  12   2.0000      -0.901135       -24.5211
  13   2.0000      -0.831055       -22.6142
  14   2.0000      -0.793263       -21.5858
  15   2.0000      -0.787035       -21.4163
  16   2.0000      -0.676224       -18.4010
  17   2.0000      -0.649296       -17.6683
  18   2.0000      -0.611831       -16.6488
  19   2.0000      -0.596461       -16.2305
  20   2.0000      -0.592687       -16.1278
  21   2.0000      -0.564138       -15.3510
  22   2.0000      -0.558562       -15.1993
  23   2.0000      -0.540235       -14.7005
  24   2.0000      -0.516876       -14.0649
  25   2.0000      -0.512020       -13.9328
  26   2.0000      -0.481791       -13.1102
  27   2.0000      -0.479910       -13.0590
  28   2.0000      -0.464852       -12.6493
  29   2.0000      -0.460268       -12.5245
  30   2.0000      -0.460087       -12.5196
  31   2.0000      -0.453440       -12.3387
  32   2.0000      -0.380361       -10.3501
  33   0.0000       0.025396         0.6911
  34   0.0000       0.027399         0.7456
  35   0.0000       0.031652         0.8613
  36   0.0000       0.031944         0.8692
  37   0.0000       0.040399         1.0993

MULLIKEN ATOMIC CHARGES
-----------------------
   0 C :   -0.911083
   1 C :   -0.523641
   2 C :   -0.268502
   3 C :   -0.383163
   4 C :   -0.409374
   5 C :   -0.567901
   6 C :   -0.248303
   7 N :   -0.842642
   8 H :    0.224874
   9 H :    0.224846
  10 H :    0.265760
  11 H :    0.224925
  12 H :    0.224954
  13 H :    0.230456
  14 H :    0.230421
  15 H :    0.245809
  16 H :    0.245787
  17 H :    0.240902
  18 H :    0.240951
  19 H :    0.272499
  20 H :    0.272482
  21 H :    0.247570
  22 H :    0.247567
  23 H :    0.257408
  24 H :    0.257398
Sum of atomic charges:   -0.0000000

LOEWDIN ATOMIC CHARGES
----------------------
   0 C :    0.926152
   1 C :    0.508487
   2 C :    0.512908
   3 C :    0.523787
   4 C :    0.520027
   5 C :    0.520688
   6 C :    0.360903
   7 N :    1.286431
   8 H :   -0.285575
   9 H :   -0.285575
  10 H :   -0.284971
  11 H :   -0.273479
  12 H :   -0.273479
  13 H :   -0.267985
  14 H :   -0.267985
  15 H :   -0.265923
  16 H :   -0.265923
  17 H :   -0.265873
  18 H :   -0.265873
  19 H :   -0.272571
  20 H :   -0.272571
  21 H :   -0.291171
  22 H :   -0.291171
  23 H :   -0.514628
  24 H :   -0.514628

  Mayer bond orders larger than 0.100000
B(  0-C ,  1-C ) :   1.0531 B(  0-C ,  2-C ) :  -0.1385 B(  0-C ,  8-H ) :   0.9574
B(  0-C ,  9-H ) :   0.9574 B(  0-C , 10-H ) :   1.0268 B(  1-C ,  2-C ) :   1.0063
B(  1-C , 11-H ) :   0.8807 B(  1-C , 12-H ) :   0.8807 B(  2-C ,  3-C ) :   1.0801
B(  2-C ,  4-C ) :  -0.1138 B(  2-C , 13-H ) :   0.8607 B(  2-C , 14-H ) :   0.8606
B(  3-C ,  4-C ) :   1.1457 B(  3-C , 15-H ) :   0.8469 B(  3-C , 16-H ) :   0.8468
B(  4-C ,  5-C ) :   1.1212 B(  4-C ,  6-C ) :  -0.1179 B(  4-C , 17-H ) :   0.8429
B(  4-C , 18-H ) :   0.8429 B(  5-C ,  6-C ) :   1.1648 B(  5-C , 19-H ) :   0.8168
B(  5-C , 20-H ) :   0.8169 B(  6-C ,  7-N ) :   0.8801 B(  6-C , 21-H ) :   0.9038
B(  6-C , 22-H ) :   0.9038 B(  7-N , 23-H ) :   0.8923 B(  7-N , 24-H ) :   0.8923

MP2 TOTAL ENERGY:     -331.115744096 Eh
FINAL SINGLE POINT ENERGY      -331.115744095880

DIPOLE MOMENT
-------------
                                X             Y             Z
Electronic contribution:     -3.10293      -3.92767      -0.00000
Nuclear contribution   :      3.06094       4.50450       0.00000
                        -----------------------------------------
Total Dipole Moment    :     -0.04198       0.57683      -0.00000
                        -----------------------------------------
Magnitude (a.u.)       :      0.57835
Magnitude (Debye)      :      1.47006

Rotational constants in cm-1:     0.370925     0.016114     0.015794
Rotational constants in MHz : 11120.048569   483.075822   473.503385

                             ****ORCA TERMINATED NORMALLY****
TOTAL RUN TIME: 0 days 1 hours 21 minutes 57 seconds 928 msec
