                         Program Version 5.0.4 -  RELEASE  -
|  1> !ri-mp2 aug-cc-pvqz aug-cc-pvqz/c tightscf
|  2> %pal nprocs 16 end
|  3> %maxcore 3800
|  4>
|  5> * xyz 0 1
|  6> C     3.077395    0.196598   -0.111658
|  7> C     2.666570   -1.128501   -0.161156
|  8> C     2.129143    1.205688    0.034852
|  9> C     1.317412   -1.453527   -0.078360
| 10> C     0.776833    0.911753    0.133669
| 11> C     0.382349   -0.432412    0.060180
| 12> C    -2.008325    0.164976   -0.109593
| 13> C    -0.286188    1.954073    0.363802
| 14> C    -1.588515    1.593777   -0.354663
| 15> N    -0.990799   -0.704017    0.145273
| 16> O    -3.161157   -0.254175   -0.157240
| 17> O    -1.361171   -2.042198    0.243835
| 18> H     4.126728    0.446250   -0.182912
| 19> H     3.395360   -1.919947   -0.269911
| 20> H     2.445503    2.240189    0.082160
| 21> H     0.987299   -2.479262   -0.120828
| 22> H    -0.484242    2.028309    1.438806
| 23> H     0.064034    2.934551    0.042685
| 24> H    -1.473721    1.707651   -1.437370
| 25> H    -2.413797    2.234873   -0.051575
| 26> H    -2.332996   -1.968059    0.126836
| 27> *
| 28>
| 29>                          ****END OF INPUT****

CARTESIAN COORDINATES (ANGSTROEM)
---------------------------------
  C      3.077395    0.196598   -0.111658
  C      2.666570   -1.128501   -0.161156
  C      2.129143    1.205688    0.034852
  C      1.317412   -1.453527   -0.078360
  C      0.776833    0.911753    0.133669
  C      0.382349   -0.432412    0.060180
  C     -2.008325    0.164976   -0.109593
  C     -0.286188    1.954073    0.363802
  C     -1.588515    1.593777   -0.354663
  N     -0.990799   -0.704017    0.145273
  O     -3.161157   -0.254175   -0.157240
  O     -1.361171   -2.042198    0.243835
  H      4.126728    0.446250   -0.182912
  H      3.395360   -1.919947   -0.269911
  H      2.445503    2.240189    0.082160
  H      0.987299   -2.479262   -0.120828
  H     -0.484242    2.028309    1.438806
  H      0.064034    2.934551    0.042685
  H     -1.473721    1.707651   -1.437370
  H     -2.413797    2.234873   -0.051575
  H     -2.332996   -1.968059    0.126836

 Total Charge           Charge          ....    0
 Multiplicity           Mult            ....    1
 Number of Electrons    NEL             ....   86
 Basis Dimension        Dim             .... 1374

ORBITAL ENERGIES
----------------

  NO   OCC          E(Eh)            E(eV)
   0   2.0000     -20.613457      -560.9207
   1   2.0000     -20.539841      -558.9175
   2   2.0000     -15.660845      -426.1533
   3   2.0000     -11.370423      -309.4049
   4   2.0000     -11.296856      -307.4031
   5   2.0000     -11.258213      -306.3516
   6   2.0000     -11.254757      -306.2575
   7   2.0000     -11.252783      -306.2038
   8   2.0000     -11.245674      -306.0103
   9   2.0000     -11.243332      -305.9466
  10   2.0000     -11.239493      -305.8422
  11   2.0000     -11.236526      -305.7614
  12   2.0000      -1.471468       -40.0407
  13   2.0000      -1.377270       -37.4774
  14   2.0000      -1.227278       -33.3959
  15   2.0000      -1.145611       -31.1737
  16   2.0000      -1.091563       -29.7029
  17   2.0000      -1.026225       -27.9250
  18   2.0000      -1.018564       -27.7165
  19   2.0000      -0.905544       -24.6411
  20   2.0000      -0.876565       -23.8526
  21   2.0000      -0.841450       -22.8970
  22   2.0000      -0.774328       -21.0705
  23   2.0000      -0.728685       -19.8285
  24   2.0000      -0.711511       -19.3612
  25   2.0000      -0.687146       -18.6982
  26   2.0000      -0.662920       -18.0390
  27   2.0000      -0.654002       -17.7963
  28   2.0000      -0.629779       -17.1372
  29   2.0000      -0.624977       -17.0065
  30   2.0000      -0.607467       -16.5300
  31   2.0000      -0.595150       -16.1949
  32   2.0000      -0.571701       -15.5568
  33   2.0000      -0.565091       -15.3769
  34   2.0000      -0.561017       -15.2661
  35   2.0000      -0.519570       -14.1382
  36   2.0000      -0.512841       -13.9551
  37   2.0000      -0.503139       -13.6911
  38   2.0000      -0.493844       -13.4382
  39   2.0000      -0.449128       -12.2214
  40   2.0000      -0.428666       -11.6646
  41   2.0000      -0.346495        -9.4286
  42   2.0000      -0.310350        -8.4450
  43   0.0000       0.021073         0.5734
  44   0.0000       0.025416         0.6916
  45   0.0000       0.031071         0.8455
  46   0.0000       0.034298         0.9333
  47   0.0000       0.039673         1.0796

MULLIKEN ATOMIC CHARGES
-----------------------
   0 C :   -0.331254
   1 C :   -0.424465
   2 C :   -0.644966
   3 C :   -0.634671
   4 C :    0.853457
   5 C :    0.445514
   6 C :    1.150738
   7 C :   -0.405837
   8 C :   -0.549416
   9 N :    0.003175
  10 O :   -0.952114
  11 O :   -0.931410
  12 H :    0.262946
  13 H :    0.236835
  14 H :    0.219288
  15 H :    0.272472
  16 H :    0.236173
  17 H :    0.260550
  18 H :    0.251877
  19 H :    0.297004
  20 H :    0.384104
Sum of atomic charges:    0.0000000

LOEWDIN ATOMIC CHARGES
----------------------
   0 C :    0.351067
   1 C :    0.347403
   2 C :    0.358093
   3 C :    0.355356
   4 C :   -0.068567
   5 C :   -0.251362
   6 C :   -0.794827
   7 C :    0.516493
   8 C :    0.518590
   9 N :    0.118270
  10 O :    0.773309
  11 O :    1.161966
  12 H :   -0.325724
  13 H :   -0.320628
  14 H :   -0.314086
  15 H :   -0.344427
  16 H :   -0.257099
  17 H :   -0.277704
  18 H :   -0.261716
  19 H :   -0.284803
  20 H :   -0.999603

  Mayer bond orders larger than 0.100000
B(  0-C ,  1-C ) :   1.2110 B(  0-C ,  2-C ) :   1.2968 B(  0-C ,  4-C ) :  -0.3413
B(  0-C , 12-H ) :   1.1160 B(  1-C ,  2-C ) :   0.1133 B(  1-C ,  3-C ) :   1.2586
B(  1-C ,  5-C ) :  -0.3074 B(  1-C , 12-H ) :  -0.1071 B(  1-C , 13-H ) :   1.1709
B(  2-C ,  3-C ) :   0.1430 B(  2-C ,  4-C ) :   0.7036 B(  2-C ,  5-C ) :  -0.1515
B(  2-C , 12-H ) :  -0.1647 B(  2-C , 14-H ) :   1.0849 B(  3-C ,  4-C ) :  -0.1588
B(  3-C ,  5-C ) :   1.1506 B(  3-C , 13-H ) :  -0.1812 B(  3-C , 15-H ) :   0.9316
B(  4-C ,  5-C ) :   1.1669 B(  4-C ,  7-C ) :   0.4180 B(  4-C ,  8-C ) :  -0.1935
B(  4-C , 14-H ) :  -0.1233 B(  4-C , 17-H ) :  -0.1198 B(  5-C ,  9-N ) :   0.5567
B(  6-C ,  8-C ) :   1.0201 B(  6-C ,  9-N ) :   1.2155 B(  6-C , 10-O ) :   0.7768
B(  7-C ,  8-C ) :   1.1900 B(  7-C , 16-H ) :   0.9073 B(  7-C , 17-H ) :   1.0255
B(  8-C , 10-O ) :   0.2196 B(  8-C , 18-H ) :   0.8866 B(  8-C , 19-H ) :   0.9168
B(  9-N , 10-O ) :   0.2007 B(  9-N , 11-O ) :   0.3323 B( 11-O , 20-H ) :   0.8592

MP2 TOTAL ENERGY:     -552.681114301 Eh
FINAL SINGLE POINT ENERGY      -552.681114300957

DIPOLE MOMENT
-------------
                                X             Y             Z
Electronic contribution:     -3.20663      -4.20349       0.28692
Nuclear contribution   :      4.19391       5.13143      -0.36612
                        -----------------------------------------
Total Dipole Moment    :      0.98729       0.92794      -0.07920
                        -----------------------------------------
Magnitude (a.u.)       :      1.35723
Magnitude (Debye)      :      3.44982

Rotational constants in cm-1:     0.062007     0.026928     0.019203
Rotational constants in MHz :  1858.915492   807.273810   575.678935

                             ****ORCA TERMINATED NORMALLY****
TOTAL RUN TIME: 0 days 2 hours 12 minutes 58 seconds 78 msec
