                         Program Version 5.0.4 -  RELEASE  -
|  1> !ri-mp2 aug-cc-pvqz aug-cc-pvqz/c tightscf
|  2> %pal nprocs 16 end
|  3>
|  4> * xyz 0 1
|  5> C     -0.531875   -1.845904        0.000000
|  6> N      0.771404   -1.348773        0.000000
|  7> C      1.003562   -0.002016        0.000000
|  8> C      0.000000    0.950259        0.000000
|  9> C      0.690256    2.188187        0.000000
| 10> N      1.994421    2.015793        0.000000
| 11> N      2.175035    0.654328        0.000000
| 12> N     -1.513744   -0.871250        0.000000
| 13> C     -1.384929    0.539209        0.000000
| 14> O     -0.763178   -3.034653        0.000000
| 15> O     -2.371414    1.243358        0.000000
| 16> H     -2.459834   -1.224597        0.000000
| 17> H      1.502564   -2.040445        0.000000
| 18> H      3.109527    0.285765        0.000000
| 19> H      0.272581    3.180547        0.000000
| 20> *
| 21>
| 22>                          ****END OF INPUT****

CARTESIAN COORDINATES (ANGSTROEM)
---------------------------------
  C     -0.531875   -1.845904    0.000000
  N      0.771404   -1.348773    0.000000
  C      1.003562   -0.002016    0.000000
  C      0.000000    0.950259    0.000000
  C      0.690256    2.188187    0.000000
  N      1.994421    2.015793    0.000000
  N      2.175035    0.654328    0.000000
  N     -1.513744   -0.871250    0.000000
  C     -1.384929    0.539209    0.000000
  O     -0.763178   -3.034653    0.000000
  O     -2.371414    1.243358    0.000000
  H     -2.459834   -1.224597    0.000000
  H      1.502564   -2.040445    0.000000
  H      3.109527    0.285765    0.000000
  H      0.272581    3.180547    0.000000

 Total Charge           Charge          ....    0
 Multiplicity           Mult            ....    1
 Number of Electrons    NEL             ....   78
 Basis Dimension        Dim             .... 1064

ORBITAL ENERGIES
----------------

  NO   OCC          E(Eh)            E(eV)
   0   2.0000     -20.553193      -559.2808
   1   2.0000     -20.545054      -559.0593
   2   2.0000     -15.672231      -426.4631
   3   2.0000     -15.654508      -425.9808
   4   2.0000     -15.629357      -425.2964
   5   2.0000     -15.614805      -424.9005
   6   2.0000     -11.428647      -310.9893
   7   2.0000     -11.388860      -309.9066
   8   2.0000     -11.374922      -309.5274
   9   2.0000     -11.294760      -307.3460
  10   2.0000     -11.251311      -306.1637
  11   2.0000      -1.447076       -39.3769
  12   2.0000      -1.412529       -38.4369
  13   2.0000      -1.406283       -38.2669
  14   2.0000      -1.313428       -35.7402
  15   2.0000      -1.250907       -34.0389
  16   2.0000      -1.139021       -30.9943
  17   2.0000      -1.098413       -29.8893
  18   2.0000      -0.930081       -25.3088
  19   2.0000      -0.911115       -24.7927
  20   2.0000      -0.868695       -23.6384
  21   2.0000      -0.832713       -22.6593
  22   2.0000      -0.783251       -21.3133
  23   2.0000      -0.747358       -20.3367
  24   2.0000      -0.693480       -18.8706
  25   2.0000      -0.689071       -18.7506
  26   2.0000      -0.672689       -18.3048
  27   2.0000      -0.646599       -17.5948
  28   2.0000      -0.640335       -17.4244
  29   2.0000      -0.632911       -17.2224
  30   2.0000      -0.603542       -16.4232
  31   2.0000      -0.583147       -15.8682
  32   2.0000      -0.510649       -13.8955
  33   2.0000      -0.500137       -13.6094
  34   2.0000      -0.492192       -13.3932
  35   2.0000      -0.452939       -12.3251
  36   2.0000      -0.444141       -12.0857
  37   2.0000      -0.409953       -11.1554
  38   2.0000      -0.356351        -9.6968
  39   0.0000       0.010220         0.2781
  40   0.0000       0.031714         0.8630
  41   0.0000       0.033748         0.9183
  42   0.0000       0.042851         1.1660
  43   0.0000       0.044516         1.2113

MULLIKEN ATOMIC CHARGES
-----------------------
   0 C :    1.348823
   1 N :   -0.765661
   2 C :    1.237289
   3 C :   -0.619920
   4 C :   -0.240368
   5 N :   -0.550758
   6 N :   -0.358510
   7 N :   -0.797097
   8 C :    1.443132
   9 O :   -0.783391
  10 O :   -0.814108
  11 H :    0.063868
  12 H :    0.100573
  13 H :    0.298869
  14 H :    0.437257
Sum of atomic charges:    0.0000000

LOEWDIN ATOMIC CHARGES
----------------------
   0 C :   -0.973601
   1 N :    0.858235
   2 C :   -0.438960
   3 C :   -0.179402
   4 C :    0.074904
   5 N :    0.499277
   6 N :    0.622471
   7 N :    0.790223
   8 C :   -0.836323
   9 O :    0.696201
  10 O :    0.692144
  11 H :   -0.527112
  12 H :   -0.485511
  13 H :   -0.467447
  14 H :   -0.325099

  Mayer bond orders larger than 0.100000
B(  0-C ,  1-N ) :   1.1712 B(  0-C ,  7-N ) :   1.1059 B(  0-C ,  9-O ) :   1.1177
B(  1-N ,  2-C ) :   0.8709 B(  1-N ,  6-N ) :   0.1120 B(  1-N ,  9-O ) :   0.1656
B(  1-N , 12-H ) :   1.1345 B(  2-C ,  3-C ) :   1.0553 B(  2-C ,  4-C ) :  -0.2074
B(  2-C ,  6-N ) :   1.1394 B(  2-C ,  7-N ) :  -0.1085 B(  2-C ,  8-C ) :  -0.1420
B(  2-C , 12-H ) :  -0.1029 B(  3-C ,  4-C ) :   1.2313 B(  3-C ,  8-C ) :   1.2655
B(  3-C , 10-O ) :   0.5015 B(  4-C ,  5-N ) :   1.6147 B(  4-C ,  8-C ) :  -0.1304
B(  4-C , 14-H ) :   0.9012 B(  5-N ,  6-N ) :   0.5465 B(  6-N , 13-H ) :   0.9474
B(  7-N ,  8-C ) :   0.9351 B(  7-N ,  9-O ) :   0.2340 B(  7-N , 10-O ) :   0.2647
B(  7-N , 11-H ) :   1.2234 B(  8-C , 10-O ) :   0.7892

MP2 TOTAL ENERGY:     -561.635638501 Eh
FINAL SINGLE POINT ENERGY      -561.635638501422

DIPOLE MOMENT
-------------
                                X             Y             Z
Electronic contribution:     -0.64132      -0.64393       0.00000
Nuclear contribution   :      2.30698       0.16918       0.00000
                        -----------------------------------------
Total Dipole Moment    :      1.66566      -0.47475       0.00000
                        -----------------------------------------
Magnitude (a.u.)       :      1.73200
Magnitude (Debye)      :      4.40239

Rotational constants in cm-1:     0.064375     0.036480     0.023285
Rotational constants in MHz :  1929.903203  1093.643165   698.062867

                             ****ORCA TERMINATED NORMALLY****
TOTAL RUN TIME: 0 days 0 hours 52 minutes 14 seconds 740 msec
