                         Program Version 5.0.4 -  RELEASE  -
|  1> !ri-mp2 aug-cc-pvqz aug-cc-pvqz/c tightscf
|  2> %pal nprocs 16 end
|  3>
|  4> * xyz 0 1
|  5> C      0.000000    1.377987   -0.525257
|  6> C      0.000000    0.695340   -1.726214
|  7> C      0.000000   -0.695340   -1.726214
|  8> C      0.000000   -1.377987   -0.525257
|  9> C      0.000000   -0.694285    0.684098
| 10> C      0.000000    0.694285    0.684098
| 11> F      0.000000    2.719143   -0.501822
| 12> H      0.000000    1.255360   -2.649366
| 13> H      0.000000   -1.255360   -2.649366
| 14> F      0.000000   -2.719143   -0.501822
| 15> F      0.000000   -1.357117    1.841111
| 16> F      0.000000    1.357117    1.841111
| 17> *
| 18>
| 19>                          ****END OF INPUT****

CARTESIAN COORDINATES (ANGSTROEM)
---------------------------------
  C      0.000000    1.377987   -0.525257
  C      0.000000    0.695340   -1.726214
  C      0.000000   -0.695340   -1.726214
  C      0.000000   -1.377987   -0.525257
  C      0.000000   -0.694285    0.684098
  C      0.000000    0.694285    0.684098
  F      0.000000    2.719143   -0.501822
  H      0.000000    1.255360   -2.649366
  H      0.000000   -1.255360   -2.649366
  F      0.000000   -2.719143   -0.501822
  F      0.000000   -1.357117    1.841111
  F      0.000000    1.357117    1.841111

 Total Charge           Charge          ....    0
 Multiplicity           Mult            ....    1
 Number of Electrons    NEL             ....   74
 Basis Dimension        Dim             ....  892

ORBITAL ENERGIES
----------------

  NO   OCC          E(Eh)            E(eV)
   0   2.0000     -26.342193      -716.8075
   1   2.0000     -26.342191      -716.8075
   2   2.0000     -26.335305      -716.6201
   3   2.0000     -26.335305      -716.6201
   4   2.0000     -11.368678      -309.3575
   5   2.0000     -11.367445      -309.3239
   6   2.0000     -11.361403      -309.1595
   7   2.0000     -11.361397      -309.1593
   8   2.0000     -11.280400      -306.9553
   9   2.0000     -11.279162      -306.9216
  10   2.0000      -1.672492       -45.5108
  11   2.0000      -1.662045       -45.2265
  12   2.0000      -1.651943       -44.9516
  13   2.0000      -1.648264       -44.8515
  14   2.0000      -1.207820       -32.8664
  15   2.0000      -1.070856       -29.1395
  16   2.0000      -1.061814       -28.8934
  17   2.0000      -0.913711       -24.8634
  18   2.0000      -0.905292       -24.6342
  19   2.0000      -0.810412       -22.0524
  20   2.0000      -0.802549       -21.8385
  21   2.0000      -0.793042       -21.5798
  22   2.0000      -0.753132       -20.4938
  23   2.0000      -0.751755       -20.4563
  24   2.0000      -0.727934       -19.8081
  25   2.0000      -0.727309       -19.7911
  26   2.0000      -0.713764       -19.4225
  27   2.0000      -0.706183       -19.2162
  28   2.0000      -0.688973       -18.7479
  29   2.0000      -0.684569       -18.6281
  30   2.0000      -0.681584       -18.5468
  31   2.0000      -0.617265       -16.7966
  32   2.0000      -0.593765       -16.1572
  33   2.0000      -0.573104       -15.5949
  34   2.0000      -0.534226       -14.5370
  35   2.0000      -0.379562       -10.3284
  36   2.0000      -0.369368       -10.0510
  37   0.0000       0.021324         0.5802
  38   0.0000       0.032466         0.8834
  39   0.0000       0.044496         1.2108
  40   0.0000       0.060659         1.6506
  41   0.0000       0.064206         1.7471

MULLIKEN ATOMIC CHARGES
-----------------------
   0 C :    0.793430
   1 C :   -0.511100
   2 C :   -0.511089
   3 C :    0.793427
   4 C :    0.791921
   5 C :    0.791907
   6 F :   -0.729966
   7 H :    0.353826
   8 H :    0.353829
   9 F :   -0.729964
  10 F :   -0.698109
  11 F :   -0.698112
Sum of atomic charges:    0.0000000

LOEWDIN ATOMIC CHARGES
----------------------
   0 C :   -0.740712
   1 C :    0.285737
   2 C :    0.285737
   3 C :   -0.740712
   4 C :   -0.789139
   5 C :   -0.789139
   6 F :    0.782170
   7 H :   -0.327662
   8 H :   -0.327662
   9 F :    0.782170
  10 F :    0.789605
  11 F :    0.789605

  Mayer bond orders larger than 0.100000
B(  0-C ,  1-C ) :   1.3310 B(  0-C ,  2-C ) :  -0.1280 B(  0-C ,  3-C ) :   0.1371
B(  0-C ,  5-C ) :   1.4840 B(  0-C ,  6-F ) :   0.1261 B(  0-C , 11-F ) :   0.1144
B(  1-C ,  2-C ) :   1.1745 B(  1-C ,  3-C ) :  -0.1280 B(  1-C ,  6-F ) :   0.1183
B(  1-C ,  7-H ) :   0.9152 B(  2-C ,  3-C ) :   1.3310 B(  2-C ,  8-H ) :   0.9152
B(  2-C ,  9-F ) :   0.1183 B(  3-C ,  4-C ) :   1.4840 B(  3-C ,  9-F ) :   0.1261
B(  3-C , 10-F ) :   0.1144 B(  4-C ,  5-C ) :   1.4683 B(  4-C , 10-F ) :   0.1095
B(  5-C , 11-F ) :   0.1095

MP2 TOTAL ENERGY:     -628.444005380 Eh
FINAL SINGLE POINT ENERGY      -628.444005379984

DIPOLE MOMENT
-------------
                                X             Y             Z
Electronic contribution:      0.00000      -0.00000       6.20446
Nuclear contribution   :      0.00000       0.00000      -7.35668
                        -----------------------------------------
Total Dipole Moment    :      0.00000      -0.00000      -1.15221
                        -----------------------------------------
Magnitude (a.u.)       :      1.15221
Magnitude (Debye)      :      2.92869

Rotational constants in cm-1:     0.069790     0.039862     0.025371
Rotational constants in MHz :  2092.244442  1195.040388   760.602363

                             ****ORCA TERMINATED NORMALLY****
TOTAL RUN TIME: 0 days 0 hours 33 minutes 7 seconds 384 msec
