                         Program Version 5.0.4 -  RELEASE  -
|  1> !ri-mp2 aug-cc-pvqz aug-cc-pvqz/c tightscf
|  2> %pal nprocs 16 end
|  3>
|  4> * xyz 0 1
|  5> S      2.227257    0.061467    0.015437
|  6> C      0.580287    0.139250    0.025344
|  7> N     -0.170607    1.260373    0.108482
|  8> C     -1.590238    1.151842   -0.196876
|  9> C     -1.989229   -0.260741    0.225693
| 10> S     -0.486681   -1.273692   -0.086772
| 11> H      0.312643    2.142650    0.044203
| 12> H     -1.765588    1.297506   -1.267875
| 13> H     -2.152266    1.906954    0.352089
| 14> H     -2.821611   -0.645528   -0.356536
| 15> H     -2.233067   -0.310700    1.285146
| 16> *
| 17>
| 18>                          ****END OF INPUT****

CARTESIAN COORDINATES (ANGSTROEM)
---------------------------------
  S      2.227257    0.061467    0.015437
  C      0.580287    0.139250    0.025344
  N     -0.170607    1.260373    0.108482
  C     -1.590238    1.151842   -0.196876
  C     -1.989229   -0.260741    0.225693
  S     -0.486681   -1.273692   -0.086772
  H      0.312643    2.142650    0.044203
  H     -1.765588    1.297506   -1.267875
  H     -2.152266    1.906954    0.352089
  H     -2.821611   -0.645528   -0.356536
  H     -2.233067   -0.310700    1.285146

 Total Charge           Charge          ....    0
 Multiplicity           Mult            ....    1
 Number of Electrons    NEL             ....   62
 Basis Dimension        Dim             ....  718

ORBITAL ENERGIES
----------------

  NO   OCC          E(Eh)            E(eV)
   0   2.0000     -91.985348     -2503.0486
   1   2.0000     -91.902507     -2500.7944
   2   2.0000     -15.616467      -424.9457
   3   2.0000     -11.373767      -309.4959
   4   2.0000     -11.304623      -307.6144
   5   2.0000     -11.289681      -307.2078
   6   2.0000      -8.987152      -244.5528
   7   2.0000      -8.906555      -242.3597
   8   2.0000      -6.668303      -181.4537
   9   2.0000      -6.667474      -181.4312
  10   2.0000      -6.666581      -181.4069
  11   2.0000      -6.588222      -179.2746
  12   2.0000      -6.586603      -179.2306
  13   2.0000      -6.585873      -179.2107
  14   2.0000      -1.305681       -35.5294
  15   2.0000      -1.082702       -29.4618
  16   2.0000      -1.058776       -28.8108
  17   2.0000      -0.930033       -25.3075
  18   2.0000      -0.861381       -23.4394
  19   2.0000      -0.794021       -21.6064
  20   2.0000      -0.701944       -19.1009
  21   2.0000      -0.676414       -18.4062
  22   2.0000      -0.597474       -16.2581
  23   2.0000      -0.583454       -15.8766
  24   2.0000      -0.575935       -15.6720
  25   2.0000      -0.522115       -14.2075
  26   2.0000      -0.506353       -13.7786
  27   2.0000      -0.476804       -12.9745
  28   2.0000      -0.383938       -10.4475
  29   2.0000      -0.331879        -9.0309
  30   2.0000      -0.326375        -8.8811
  31   0.0000       0.016060         0.4370
  32   0.0000       0.027992         0.7617
  33   0.0000       0.030101         0.8191
  34   0.0000       0.039626         1.0783
  35   0.0000       0.048904         1.3307

MULLIKEN ATOMIC CHARGES
-----------------------
   0 S :   -0.131873
   1 C :   -0.263424
   2 N :   -0.282783
   3 C :   -0.357081
   4 C :   -0.601800
   5 S :    0.194752
   6 H :    0.193356
   7 H :    0.290937
   8 H :    0.365019
   9 H :    0.338792
  10 H :    0.254103
Sum of atomic charges:   -0.0000000

LOEWDIN ATOMIC CHARGES
----------------------
   0 S :    0.909171
   1 C :   -1.486912
   2 N :    0.646205
   3 C :    0.289682
   4 C :    0.177609
   5 S :    1.237638
   6 H :   -0.521062
   7 H :   -0.277721
   8 H :   -0.275037
   9 H :   -0.351096
  10 H :   -0.348479

  Mayer bond orders larger than 0.100000
B(  0-S ,  1-C ) :   1.4647 B(  1-C ,  2-N ) :   1.0915 B(  1-C ,  5-S ) :   1.0883
B(  2-N ,  3-C ) :   0.7909 B(  2-N ,  6-H ) :   1.0017 B(  3-C ,  4-C ) :   1.0945
B(  3-C ,  7-H ) :   0.8799 B(  3-C ,  8-H ) :   0.8251 B(  4-C ,  5-S ) :   0.9638
B(  4-C ,  9-H ) :   0.8811 B(  4-C , 10-H ) :   0.8748

MP2 TOTAL ENERGY:     -967.263645269 Eh
FINAL SINGLE POINT ENERGY      -967.263645268549

DIPOLE MOMENT
-------------
                                X             Y             Z
Electronic contribution:      6.21729      -3.41178      -0.09054
Nuclear contribution   :     -8.51286       4.33300       0.05848
                        -----------------------------------------
Total Dipole Moment    :     -2.29557       0.92122      -0.03206
                        -----------------------------------------
Magnitude (a.u.)       :      2.47372
Magnitude (Debye)      :      6.28771

Rotational constants in cm-1:     0.158027     0.061430     0.045433
Rotational constants in MHz :  4737.517645  1841.613248  1362.050352

                             ****ORCA TERMINATED NORMALLY****
TOTAL RUN TIME: 0 days 0 hours 15 minutes 11 seconds 622 msec
