                         Program Version 5.0.4 -  RELEASE  -
|  1> !ri-mp2 aug-cc-pvqz aug-cc-pvqz/c tightscf
|  2> %pal nprocs 16 end
|  3>
|  4> * xyz 0 1
|  5> H     -1.470270    2.051300    0.139796
|  6> C     -0.812779    1.192330    0.058323
|  7> H      0.914318    2.364351   -0.092773
|  8> C      0.501406    1.362711   -0.053276
|  9> H      2.325124    0.404708    0.529666
| 10> H      1.868711    0.112198   -1.129780
| 11> C      1.463386    0.206961   -0.115255
| 12> H      0.675255   -1.115005    1.396505
| 13> H      1.389091   -1.962725    0.036134
| 14> C      0.779659   -1.100064    0.308149
| 15> H     -2.309570   -0.197466   -0.590760
| 16> H     -1.867638   -0.356258    1.088810
| 17> C     -1.454743   -0.170688    0.089051
| 18> H     -0.487677   -1.340668   -1.269513
| 19> N     -0.556988   -1.272562   -0.261434
| 20> *
| 21>
| 22>                          ****END OF INPUT****

CARTESIAN COORDINATES (ANGSTROEM)
---------------------------------
  H     -1.470270    2.051300    0.139796
  C     -0.812779    1.192330    0.058323
  H      0.914318    2.364351   -0.092773
  C      0.501406    1.362711   -0.053276
  H      2.325124    0.404708    0.529666
  H      1.868711    0.112198   -1.129780
  C      1.463386    0.206961   -0.115255
  H      0.675255   -1.115005    1.396505
  H      1.389091   -1.962725    0.036134
  C      0.779659   -1.100064    0.308149
  H     -2.309570   -0.197466   -0.590760
  H     -1.867638   -0.356258    1.088810
  C     -1.454743   -0.170688    0.089051
  H     -0.487677   -1.340668   -1.269513
  N     -0.556988   -1.272562   -0.261434

 Total Charge           Charge          ....    0
 Multiplicity           Mult            ....    1
 Number of Electrons    NEL             ....   46
 Basis Dimension        Dim             ....  894

ORBITAL ENERGIES
----------------

  NO   OCC          E(Eh)            E(eV)
   0   2.0000     -15.537192      -422.7885
   1   2.0000     -11.248457      -306.0861
   2   2.0000     -11.244035      -305.9658
   3   2.0000     -11.223100      -305.3961
   4   2.0000     -11.221764      -305.3597
   5   2.0000     -11.220128      -305.3152
   6   2.0000      -1.211528       -32.9674
   7   2.0000      -1.061332       -28.8803
   8   2.0000      -1.012813       -27.5601
   9   2.0000      -0.871006       -23.7013
  10   2.0000      -0.847251       -23.0549
  11   2.0000      -0.721519       -19.6335
  12   2.0000      -0.676190       -18.4001
  13   2.0000      -0.626212       -17.0401
  14   2.0000      -0.607385       -16.5278
  15   2.0000      -0.578474       -15.7411
  16   2.0000      -0.556035       -15.1305
  17   2.0000      -0.535697       -14.5771
  18   2.0000      -0.519390       -14.1333
  19   2.0000      -0.492142       -13.3919
  20   2.0000      -0.470965       -12.8156
  21   2.0000      -0.362796        -9.8722
  22   2.0000      -0.347434        -9.4542
  23   0.0000       0.025878         0.7042
  24   0.0000       0.031280         0.8512
  25   0.0000       0.033914         0.9229
  26   0.0000       0.035304         0.9607
  27   0.0000       0.046814         1.2739

MULLIKEN ATOMIC CHARGES
-----------------------
   0 H :    0.376255
   1 C :   -0.499673
   2 H :    0.355091
   3 C :   -0.436203
   4 H :    0.277821
   5 H :    0.225108
   6 C :   -0.358150
   7 H :    0.230846
   8 H :    0.318510
   9 C :   -0.392233
  10 H :    0.333368
  11 H :    0.250051
  12 C :   -0.318431
  13 H :    0.231479
  14 N :   -0.593841
Sum of atomic charges:    0.0000000

LOEWDIN ATOMIC CHARGES
----------------------
   0 H :   -0.320716
   1 C :    0.398848
   2 H :   -0.321485
   3 C :    0.387477
   4 H :   -0.283021
   5 H :   -0.277915
   6 C :    0.496527
   7 H :   -0.286089
   8 H :   -0.279704
   9 C :    0.350615
  10 H :   -0.298133
  11 H :   -0.289869
  12 C :    0.333204
  13 H :   -0.511121
  14 N :    0.901381

  Mayer bond orders larger than 0.100000
B(  0-H ,  1-C ) :   0.8790 B(  1-C ,  3-C ) :   1.7382 B(  1-C , 12-C ) :   0.8061
B(  2-H ,  3-C ) :   0.9302 B(  3-C ,  6-C ) :   0.6987 B(  4-H ,  6-C ) :   0.9433
B(  5-H ,  6-C ) :   0.9141 B(  6-C ,  9-C ) :   1.0260 B(  7-H ,  9-C ) :   0.9504
B(  8-H ,  9-C ) :   0.8965 B(  9-C , 14-N ) :   0.8954 B( 10-H , 12-C ) :   0.9106
B( 11-H , 12-C ) :   0.9268 B( 12-C , 14-N ) :   0.8657 B( 13-H , 14-N ) :   0.8889

MP2 TOTAL ENERGY:     -250.217901557 Eh
FINAL SINGLE POINT ENERGY      -250.217901556769

DIPOLE MOMENT
-------------
                                X             Y             Z
Electronic contribution:     -0.86352       0.34918      -0.30415
Nuclear contribution   :      1.07459      -0.04888       0.11073
                        -----------------------------------------
Total Dipole Moment    :      0.21107       0.30030      -0.19343
                        -----------------------------------------
Magnitude (a.u.)       :      0.41490
Magnitude (Debye)      :      1.05460

Rotational constants in cm-1:     0.163363     0.157514     0.087851
Rotational constants in MHz :  4897.485339  4722.141089  2633.711525

                             ****ORCA TERMINATED NORMALLY****
TOTAL RUN TIME: 0 days 0 hours 24 minutes 32 seconds 597 msec
