                         Program Version 5.0.4 -  RELEASE  -
|  1> !ri-mp2 aug-cc-pvqz aug-cc-pvqz/c tightscf
|  2> %pal nprocs 16 end
|  3>
|  4> * xyz 0 1
|  5> O     0.313702   -1.614925   -0.926768
|  6> N     1.171613   -1.268187    0.163198
|  7> N     1.427390    2.027391   -0.681155
|  8> N    -2.527750    0.403730   -0.742264
|  9> C     0.711444   -0.025519    0.777150
| 10> C    -0.791840    0.053445    1.169705
| 11> C     1.112029    1.119852   -0.051970
| 12> C    -1.739571    0.231309    0.075617
| 13> H     0.885285   -1.552765   -1.700527
| 14> H     1.045190   -2.024365    0.828812
| 15> H     1.278390    0.046227    1.709846
| 16> H    -1.048671   -0.855680    1.716626
| 17> H    -0.920956    0.890916    1.857922
| 18> *
| 19>
| 20>                          ****END OF INPUT****

CARTESIAN COORDINATES (ANGSTROEM)
---------------------------------
  O      0.313702   -1.614925   -0.926768
  N      1.171613   -1.268187    0.163198
  N      1.427390    2.027391   -0.681155
  N     -2.527750    0.403730   -0.742264
  C      0.711444   -0.025519    0.777150
  C     -0.791840    0.053445    1.169705
  C      1.112029    1.119852   -0.051970
  C     -1.739571    0.231309    0.075617
  H      0.885285   -1.552765   -1.700527
  H      1.045190   -2.024365    0.828812
  H      1.278390    0.046227    1.709846
  H     -1.048671   -0.855680    1.716626
  H     -0.920956    0.890916    1.857922

 Total Charge           Charge          ....    0
 Multiplicity           Mult            ....    1
 Number of Electrons    NEL             ....   58
 Basis Dimension        Dim             ....  870

ORBITAL ENERGIES
----------------

  NO   OCC          E(Eh)            E(eV)
   0   2.0000     -20.620454      -561.1111
   1   2.0000     -15.655552      -426.0092
   2   2.0000     -15.589317      -424.2069
   3   2.0000     -15.575022      -423.8179
   4   2.0000     -11.355822      -309.0076
   5   2.0000     -11.316363      -307.9339
   6   2.0000     -11.288380      -307.1724
   7   2.0000     -11.280561      -306.9597
   8   2.0000      -1.442049       -39.2401
   9   2.0000      -1.247501       -33.9462
  10   2.0000      -1.229199       -33.4482
  11   2.0000      -1.191187       -32.4139
  12   2.0000      -1.076851       -29.3026
  13   2.0000      -0.959445       -26.1078
  14   2.0000      -0.779612       -21.2143
  15   2.0000      -0.732475       -19.9317
  16   2.0000      -0.728471       -19.8227
  17   2.0000      -0.691060       -18.8047
  18   2.0000      -0.647537       -17.6204
  19   2.0000      -0.642047       -17.4710
  20   2.0000      -0.613890       -16.7048
  21   2.0000      -0.573488       -15.6054
  22   2.0000      -0.560357       -15.2481
  23   2.0000      -0.526207       -14.3188
  24   2.0000      -0.492953       -13.4139
  25   2.0000      -0.483975       -13.1696
  26   2.0000      -0.481757       -13.1093
  27   2.0000      -0.470176       -12.7942
  28   2.0000      -0.439610       -11.9624
  29   0.0000       0.009708         0.2642
  30   0.0000       0.026888         0.7317
  31   0.0000       0.030066         0.8181
  32   0.0000       0.036169         0.9842
  33   0.0000       0.049470         1.3462

MULLIKEN ATOMIC CHARGES
-----------------------
   0 O :   -0.633398
   1 N :   -0.267787
   2 N :   -0.686344
   3 N :   -0.688776
   4 C :    0.279996
   5 C :   -0.573012
   6 C :    0.383835
   7 C :    0.492871
   8 H :    0.352496
   9 H :    0.267047
  10 H :    0.405097
  11 H :    0.318006
  12 H :    0.349970
Sum of atomic charges:    0.0000000

LOEWDIN ATOMIC CHARGES
----------------------
   0 O :    1.125378
   1 N :    0.609198
   2 N :    0.442771
   3 N :    0.431340
   4 C :   -0.169428
   5 C :    0.426839
   6 C :   -0.292114
   7 C :   -0.282359
   8 H :   -0.806956
   9 H :   -0.560139
  10 H :   -0.330377
  11 H :   -0.296827
  12 H :   -0.297328

  Mayer bond orders larger than 0.100000
B(  0-O ,  1-N ) :   0.8312 B(  0-O ,  8-H ) :   0.8924 B(  1-N ,  4-C ) :   0.8136
B(  1-N ,  9-H ) :   0.8315 B(  2-N ,  6-C ) :   2.4703 B(  3-N ,  7-C ) :   2.4467
B(  4-C ,  5-C ) :   0.8870 B(  4-C ,  6-C ) :   1.0278 B(  4-C , 10-H ) :   0.7888
B(  5-C ,  7-C ) :   1.1009 B(  5-C , 11-H ) :   0.8782 B(  5-C , 12-H ) :   0.8602

MP2 TOTAL ENERGY:     -394.234680833 Eh
FINAL SINGLE POINT ENERGY      -394.234680833264

DIPOLE MOMENT
-------------
                                X             Y             Z
Electronic contribution:     -0.40952       2.07876      -2.30239
Nuclear contribution   :      1.22023      -3.44548       4.30469
                        -----------------------------------------
Total Dipole Moment    :      0.81071      -1.36671       2.00230
                        -----------------------------------------
Magnitude (a.u.)       :      2.55624
Magnitude (Debye)      :      6.49745

Rotational constants in cm-1:     0.079296     0.061467     0.047217
Rotational constants in MHz :  2377.236481  1842.723854  1415.530535

                             ****ORCA TERMINATED NORMALLY****
TOTAL RUN TIME: 0 days 0 hours 22 minutes 27 seconds 906 msec
