                         Program Version 5.0.4 -  RELEASE  -
|  1> !ri-mp2 aug-cc-pvqz aug-cc-pvqz/c tightscf
|  2> %pal nprocs 16 end
|  3>
|  4> * xyz 0 1
|  5> C      0.000000    1.334824    0.178381
|  6> C      1.155992   -0.667412    0.178381
|  7> C     -1.155992   -0.667412    0.178381
|  8> O      1.164984    0.672604   -0.261238
|  9> O     -1.164984    0.672604   -0.261238
| 10> O      0.000000   -1.345208   -0.261238
| 11> H      0.000000    1.389553    1.278381
| 12> H      0.000000    2.328144   -0.258762
| 13> H      2.016232   -1.164072   -0.258762
| 14> H      1.203388   -0.694777    1.278381
| 15> H     -1.203388   -0.694777    1.278381
| 16> H     -2.016232   -1.164072   -0.258762
| 17> *
| 18>
| 19>                          ****END OF INPUT****

CARTESIAN COORDINATES (ANGSTROEM)
---------------------------------
  C      0.000000    1.334824    0.178381
  C      1.155992   -0.667412    0.178381
  C     -1.155992   -0.667412    0.178381
  O      1.164984    0.672604   -0.261238
  O     -1.164984    0.672604   -0.261238
  O      0.000000   -1.345208   -0.261238
  H      0.000000    1.389553    1.278381
  H      0.000000    2.328144   -0.258762
  H      2.016232   -1.164072   -0.258762
  H      1.203388   -0.694777    1.278381
  H     -1.203388   -0.694777    1.278381
  H     -2.016232   -1.164072   -0.258762

 Total Charge           Charge          ....    0
 Multiplicity           Mult            ....    1
 Number of Electrons    NEL             ....   48
 Basis Dimension        Dim             ....  756

ORBITAL ENERGIES
----------------

  NO   OCC          E(Eh)            E(eV)
   0   2.0000     -20.576606      -559.9179
   1   2.0000     -20.576605      -559.9179
   2   2.0000     -20.576578      -559.9171
   3   2.0000     -11.341771      -308.6253
   4   2.0000     -11.341771      -308.6253
   5   2.0000     -11.341745      -308.6246
   6   2.0000      -1.471118       -40.0312
   7   2.0000      -1.366388       -37.1813
   8   2.0000      -1.366388       -37.1813
   9   2.0000      -0.965274       -26.2664
  10   2.0000      -0.965274       -26.2664
  11   2.0000      -0.837855       -22.7992
  12   2.0000      -0.738464       -20.0946
  13   2.0000      -0.704723       -19.1765
  14   2.0000      -0.676413       -18.4061
  15   2.0000      -0.676413       -18.4061
  16   2.0000      -0.658321       -17.9138
  17   2.0000      -0.605145       -16.4668
  18   2.0000      -0.605145       -16.4668
  19   2.0000      -0.502680       -13.6786
  20   2.0000      -0.502680       -13.6786
  21   2.0000      -0.475884       -12.9495
  22   2.0000      -0.475884       -12.9495
  23   2.0000      -0.444933       -12.1072
  24   0.0000       0.025594         0.6965
  25   0.0000       0.035497         0.9659
  26   0.0000       0.035497         0.9659
  27   0.0000       0.036140         0.9834
  28   0.0000       0.053054         1.4437

MULLIKEN ATOMIC CHARGES
-----------------------
   0 C :    0.128291
   1 C :    0.128288
   2 C :    0.128288
   3 O :   -0.888143
   4 O :   -0.888143
   5 O :   -0.888146
   6 H :    0.225917
   7 H :    0.533935
   8 H :    0.533955
   9 H :    0.225901
  10 H :    0.225899
  11 H :    0.533959
Sum of atomic charges:    0.0000000

LOEWDIN ATOMIC CHARGES
----------------------
   0 C :   -0.200045
   1 C :   -0.200044
   2 C :   -0.200044
   3 O :    0.874164
   4 O :    0.874164
   5 O :    0.874164
   6 H :   -0.327903
   7 H :   -0.346216
   8 H :   -0.346217
   9 H :   -0.327903
  10 H :   -0.327903
  11 H :   -0.346217

  Mayer bond orders larger than 0.100000
B(  0-C ,  3-O ) :   0.8076 B(  0-C ,  4-O ) :   0.8076 B(  0-C ,  6-H ) :   0.9076
B(  0-C ,  7-H ) :   0.6899 B(  1-C ,  3-O ) :   0.8076 B(  1-C ,  5-O ) :   0.8076
B(  1-C ,  8-H ) :   0.6899 B(  1-C ,  9-H ) :   0.9076 B(  2-C ,  4-O ) :   0.8076
B(  2-C ,  5-O ) :   0.8076 B(  2-C , 10-H ) :   0.9076 B(  2-C , 11-H ) :   0.6899

MP2 TOTAL ENERGY:     -343.115393720 Eh
FINAL SINGLE POINT ENERGY      -343.115393719605

DIPOLE MOMENT
-------------
                                X             Y             Z
Electronic contribution:     -0.00000       0.00000      -2.12970
Nuclear contribution   :      0.00000      -0.00000       3.04885
                        -----------------------------------------
Total Dipole Moment    :     -0.00000       0.00000       0.91915
                        -----------------------------------------
Magnitude (a.u.)       :      0.91915
Magnitude (Debye)      :      2.33630

Rotational constants in cm-1:     0.175403     0.175403     0.097282
Rotational constants in MHz :  5258.452225  5258.451977  2916.440825

                             ****ORCA TERMINATED NORMALLY****
TOTAL RUN TIME: 0 days 0 hours 16 minutes 56 seconds 229 msec
