                         Program Version 5.0.4 -  RELEASE  -
|  1> !ri-mp2 aug-cc-pvqz aug-cc-pvqz/c tightscf
|  2> %pal nprocs 16 end
|  3>
|  4> * xyz 0 1
|  5> O      1.184971    1.329150   -0.264204
|  6> H      2.036345    1.691201   -0.001541
|  7> O     -2.681176   -0.346785   -0.166650
|  8> H     -3.437773    0.227118   -0.020588
|  9> C      2.195242   -0.882182   -0.037797
| 10> H      2.250223   -1.017985   -1.118621
| 11> H      3.142448   -0.457668    0.302556
| 12> H      2.084428   -1.861246    0.430820
| 13> C      1.029926    0.029059    0.326369
| 14> H      0.993181    0.139993    1.418550
| 15> C     -0.305850   -0.521316   -0.153420
| 16> H     -0.443749   -1.523300    0.259028
| 17> H     -0.284509   -0.618015   -1.241427
| 18> C     -1.493637    0.335082    0.248850
| 19> H     -1.499349    0.479259    1.336354
| 20> H     -1.425692    1.317864   -0.222316
| 21> *
| 22>
| 23>                          ****END OF INPUT****

CARTESIAN COORDINATES (ANGSTROEM)
---------------------------------
  O      1.184971    1.329150   -0.264204
  H      2.036345    1.691201   -0.001541
  O     -2.681176   -0.346785   -0.166650
  H     -3.437773    0.227118   -0.020588
  C      2.195242   -0.882182   -0.037797
  H      2.250223   -1.017985   -1.118621
  H      3.142448   -0.457668    0.302556
  H      2.084428   -1.861246    0.430820
  C      1.029926    0.029059    0.326369
  H      0.993181    0.139993    1.418550
  C     -0.305850   -0.521316   -0.153420
  H     -0.443749   -1.523300    0.259028
  H     -0.284509   -0.618015   -1.241427
  C     -1.493637    0.335082    0.248850
  H     -1.499349    0.479259    1.336354
  H     -1.425692    1.317864   -0.222316

 Total Charge           Charge          ....    0
 Multiplicity           Mult            ....    1
 Number of Electrons    NEL             ....   50
 Basis Dimension        Dim             ....  940

ORBITAL ENERGIES
----------------

  NO   OCC          E(Eh)            E(eV)
   0   2.0000     -20.554046      -559.3040
   1   2.0000     -20.548657      -559.1574
   2   2.0000     -11.282369      -307.0089
   3   2.0000     -11.266799      -306.5852
   4   2.0000     -11.218679      -305.2758
   5   2.0000     -11.214358      -305.1582
   6   2.0000      -1.358339       -36.9623
   7   2.0000      -1.348832       -36.7036
   8   2.0000      -1.060505       -28.8578
   9   2.0000      -0.980140       -26.6710
  10   2.0000      -0.860210       -23.4075
  11   2.0000      -0.792705       -21.5706
  12   2.0000      -0.705424       -19.1956
  13   2.0000      -0.683822       -18.6077
  14   2.0000      -0.633000       -17.2248
  15   2.0000      -0.621873       -16.9220
  16   2.0000      -0.597809       -16.2672
  17   2.0000      -0.556672       -15.1478
  18   2.0000      -0.541875       -14.7452
  19   2.0000      -0.523786       -14.2529
  20   2.0000      -0.513912       -13.9842
  21   2.0000      -0.491043       -13.3620
  22   2.0000      -0.467126       -12.7111
  23   2.0000      -0.441517       -12.0143
  24   2.0000      -0.436692       -11.8830
  25   0.0000       0.023864         0.6494
  26   0.0000       0.029816         0.8113
  27   0.0000       0.035406         0.9634
  28   0.0000       0.036232         0.9859
  29   0.0000       0.047904         1.3035

MULLIKEN ATOMIC CHARGES
-----------------------
   0 O :   -0.867372
   1 H :    0.292478
   2 O :   -0.852544
   3 H :    0.301963
   4 C :   -0.906387
   5 H :    0.235925
   6 H :    0.258067
   7 H :    0.243887
   8 C :    0.513175
   9 H :    0.227236
  10 C :   -0.583396
  11 H :    0.296055
  12 H :    0.240622
  13 C :    0.109480
  14 H :    0.231799
  15 H :    0.259014
Sum of atomic charges:    0.0000000

LOEWDIN ATOMIC CHARGES
----------------------
   0 O :    1.285887
   1 H :   -0.788145
   2 O :    1.264556
   3 H :   -0.793699
   4 C :    0.917646
   5 H :   -0.283421
   6 H :   -0.285045
   7 H :   -0.280612
   8 C :   -0.230288
   9 H :   -0.292505
  10 C :    0.454960
  11 H :   -0.282044
  12 H :   -0.278048
  13 C :    0.183745
  14 H :   -0.290839
  15 H :   -0.302148

  Mayer bond orders larger than 0.100000
B(  0-O ,  1-H ) :   0.9487 B(  0-O ,  8-C ) :   0.3698 B(  2-O ,  3-H ) :   0.9519
B(  2-O , 10-C ) :   0.1336 B(  2-O , 13-C ) :   0.6171 B(  4-C ,  5-H ) :   0.9459
B(  4-C ,  6-H ) :   0.9892 B(  4-C ,  7-H ) :   0.9760 B(  4-C ,  8-C ) :   0.8481
B(  8-C ,  9-H ) :   0.9207 B(  8-C , 10-C ) :   0.7862 B( 10-C , 11-H ) :   0.8643
B( 10-C , 12-H ) :   0.9078 B( 10-C , 13-C ) :   1.1045 B( 13-C , 14-H ) :   0.9028
B( 13-C , 15-H ) :   0.8720

MP2 TOTAL ENERGY:     -308.425393702 Eh
FINAL SINGLE POINT ENERGY      -308.425393701655

DIPOLE MOMENT
-------------
                                X             Y             Z
Electronic contribution:     -3.00496       1.94303      -0.56974
Nuclear contribution   :      3.53430      -1.67474       1.18369
                        -----------------------------------------
Total Dipole Moment    :      0.52934       0.26829       0.61395
                        -----------------------------------------
Magnitude (a.u.)       :      0.85388
Magnitude (Debye)      :      2.17039

Rotational constants in cm-1:     0.250651     0.058515     0.050536
Rotational constants in MHz :  7514.339662  1754.239220  1515.018418

                             ****ORCA TERMINATED NORMALLY****
TOTAL RUN TIME: 0 days 0 hours 30 minutes 52 seconds 610 msec
