                         Program Version 5.0.4 -  RELEASE  -
|  1> !ri-mp2 aug-cc-pvqz aug-cc-pvqz/c tightscf
|  2> %pal nprocs 16 end
|  3> %maxcore 3800
|  4>
|  5> * xyz 0 1
|  6> C     -4.547650   -1.705638    0.272597
|  7> C     -3.795689   -0.553081   -0.390005
|  8> C     -2.349515   -0.430093    0.100464
|  9> C     -1.615268    0.722413   -0.573309
| 10> S      0.037748    1.077404    0.089018
| 11> O      0.541910    2.249760   -0.624888
| 12> C      1.055947   -0.348493   -0.390800
| 13> C      2.496572   -0.170036    0.080449
| 14> C      3.378082   -1.358055   -0.315035
| 15> C      4.824517   -1.194420    0.147764
| 16> O     -0.048573    1.105880    1.548995
| 17> H     -4.067320   -2.663473    0.063479
| 18> H     -4.581440   -1.582093    1.356437
| 19> H     -5.575090   -1.764796   -0.087565
| 20> H     -4.320256    0.386228   -0.194738
| 21> H     -3.803321   -0.687023   -1.475548
| 22> H     -1.826735   -1.371038   -0.089908
| 23> H     -2.336575   -0.275264    1.180431
| 24> H     -2.130655    1.672755   -0.422484
| 25> H     -1.487390    0.579358   -1.646641
| 26> H      0.990394   -0.416247   -1.477160
| 27> H      0.591980   -1.227121    0.056620
| 28> H      2.505188   -0.047615    1.164989
| 29> H      2.901550    0.749170   -0.346134
| 30> H      3.354143   -1.481736   -1.401693
| 31> H      2.960814   -2.276931    0.107216
| 32> H      5.277008   -0.300011   -0.284003
| 33> H      4.882665   -1.102883    1.233779
| 34> H      5.432396   -2.050455   -0.146968
| 35> *
| 36>
| 37>                          ****END OF INPUT****

CARTESIAN COORDINATES (ANGSTROEM)
---------------------------------
  C     -4.547650   -1.705638    0.272597
  C     -3.795689   -0.553081   -0.390005
  C     -2.349515   -0.430093    0.100464
  C     -1.615268    0.722413   -0.573309
  S      0.037748    1.077404    0.089018
  O      0.541910    2.249760   -0.624888
  C      1.055947   -0.348493   -0.390800
  C      2.496572   -0.170036    0.080449
  C      3.378082   -1.358055   -0.315035
  C      4.824517   -1.194420    0.147764
  O     -0.048573    1.105880    1.548995
  H     -4.067320   -2.663473    0.063479
  H     -4.581440   -1.582093    1.356437
  H     -5.575090   -1.764796   -0.087565
  H     -4.320256    0.386228   -0.194738
  H     -3.803321   -0.687023   -1.475548
  H     -1.826735   -1.371038   -0.089908
  H     -2.336575   -0.275264    1.180431
  H     -2.130655    1.672755   -0.422484
  H     -1.487390    0.579358   -1.646641
  H      0.990394   -0.416247   -1.477160
  H      0.591980   -1.227121    0.056620
  H      2.505188   -0.047615    1.164989
  H      2.901550    0.749170   -0.346134
  H      3.354143   -1.481736   -1.401693
  H      2.960814   -2.276931    0.107216
  H      5.277008   -0.300011   -0.284003
  H      4.882665   -1.102883    1.233779
  H      5.432396   -2.050455   -0.146968

 Total Charge           Charge          ....    0
 Multiplicity           Mult            ....    1
 Number of Electrons    NEL             ....   98
 Basis Dimension        Dim             .... 1712

ORBITAL ENERGIES
----------------

  NO   OCC          E(Eh)            E(eV)
   0   2.0000     -92.160052     -2507.8025
   1   2.0000     -20.531628      -558.6940
   2   2.0000     -20.531058      -558.6785
   3   2.0000     -11.273034      -306.7548
   4   2.0000     -11.272550      -306.7417
   5   2.0000     -11.244790      -305.9863
   6   2.0000     -11.237313      -305.7828
   7   2.0000     -11.237001      -305.7743
   8   2.0000     -11.232532      -305.6527
   9   2.0000     -11.224000      -305.4206
  10   2.0000     -11.218543      -305.2721
  11   2.0000      -9.130525      -248.4542
  12   2.0000      -6.815668      -185.4638
  13   2.0000      -6.815069      -185.4474
  14   2.0000      -6.814725      -185.4381
  15   2.0000      -1.429141       -38.8889
  16   2.0000      -1.318779       -35.8858
  17   2.0000      -1.110648       -30.2223
  18   2.0000      -1.098293       -29.8861
  19   2.0000      -1.037593       -28.2343
  20   2.0000      -1.011318       -27.5193
  21   2.0000      -0.927929       -25.2502
  22   2.0000      -0.891540       -24.2600
  23   2.0000      -0.821589       -22.3566
  24   2.0000      -0.813840       -22.1457
  25   2.0000      -0.787492       -21.4288
  26   2.0000      -0.686032       -18.6679
  27   2.0000      -0.673329       -18.3222
  28   2.0000      -0.663744       -18.0614
  29   2.0000      -0.651083       -17.7169
  30   2.0000      -0.633394       -17.2355
  31   2.0000      -0.605523       -16.4771
  32   2.0000      -0.604241       -16.4422
  33   2.0000      -0.594856       -16.1869
  34   2.0000      -0.590981       -16.0814
  35   2.0000      -0.555389       -15.1129
  36   2.0000      -0.553968       -15.0742
  37   2.0000      -0.529535       -14.4094
  38   2.0000      -0.523524       -14.2458
  39   2.0000      -0.517895       -14.0926
  40   2.0000      -0.500449       -13.6179
  41   2.0000      -0.496190       -13.5020
  42   2.0000      -0.492529       -13.4024
  43   2.0000      -0.487551       -13.2669
  44   2.0000      -0.486918       -13.2497
  45   2.0000      -0.477614       -12.9965
  46   2.0000      -0.469412       -12.7733
  47   2.0000      -0.456369       -12.4184
  48   2.0000      -0.416286       -11.3277
  49   0.0000       0.018553         0.5049
  50   0.0000       0.023169         0.6305
  51   0.0000       0.028204         0.7675
  52   0.0000       0.030755         0.8369
  53   0.0000       0.038328         1.0430

MULLIKEN ATOMIC CHARGES
-----------------------
   0 C :   -0.890118
   1 C :   -0.469976
   2 C :   -0.077937
   3 C :   -0.799552
   4 S :    2.591915
   5 O :   -1.455564
   6 C :   -0.584864
   7 C :   -0.195952
   8 C :   -0.514685
   9 C :   -0.896338
  10 O :   -1.384575
  11 H :    0.223361
  12 H :    0.234460
  13 H :    0.274123
  14 H :    0.226006
  15 H :    0.236219
  16 H :    0.212516
  17 H :    0.244248
  18 H :    0.295857
  19 H :    0.336847
  20 H :    0.320300
  21 H :    0.282342
  22 H :    0.289973
  23 H :    0.304805
  24 H :    0.242011
  25 H :    0.226430
  26 H :    0.229034
  27 H :    0.226442
  28 H :    0.272674
Sum of atomic charges:   -0.0000000

LOEWDIN ATOMIC CHARGES
----------------------
   0 C :    0.934257
   1 C :    0.514675
   2 C :    0.475012
   3 C :    0.430199
   4 S :   -0.152584
   5 O :    0.314702
   6 C :    0.427113
   7 C :    0.472205
   8 C :    0.512495
   9 C :    0.933503
  10 O :    0.320691
  11 H :   -0.282920
  12 H :   -0.281780
  13 H :   -0.281792
  14 H :   -0.271630
  15 H :   -0.270355
  16 H :   -0.284447
  17 H :   -0.290326
  18 H :   -0.324241
  19 H :   -0.310155
  20 H :   -0.307945
  21 H :   -0.320724
  22 H :   -0.281496
  23 H :   -0.283160
  24 H :   -0.272366
  25 H :   -0.272203
  26 H :   -0.282184
  27 H :   -0.282073
  28 H :   -0.282474

  Mayer bond orders larger than 0.100000
B(  0-C ,  1-C ) :   1.0117 B(  0-C ,  2-C ) :  -0.1241 B(  0-C , 11-H ) :   0.9509
B(  0-C , 12-H ) :   0.9471 B(  0-C , 13-H ) :   1.0188 B(  1-C ,  2-C ) :   0.8350
B(  1-C , 14-H ) :   0.9088 B(  1-C , 15-H ) :   0.8773 B(  2-C ,  3-C ) :   0.8474
B(  2-C ,  4-S ) :  -0.1313 B(  2-C , 16-H ) :   0.8906 B(  2-C , 17-H ) :   0.8772
B(  3-C ,  4-S ) :   1.2720 B(  3-C ,  6-C ) :  -0.1625 B(  3-C , 18-H ) :   0.8693
B(  3-C , 19-H ) :   0.8273 B(  4-S ,  5-O ) :   0.7575 B(  4-S ,  6-C ) :   0.9020
B(  4-S , 10-O ) :   0.8336 B(  4-S , 18-H ) :   0.1331 B(  6-C ,  7-C ) :   0.9579
B(  6-C , 20-H ) :   0.7918 B(  6-C , 21-H ) :   0.8823 B(  7-C ,  8-C ) :   0.9538
B(  7-C ,  9-C ) :  -0.1192 B(  7-C , 22-H ) :   0.8200 B(  7-C , 23-H ) :   0.8402
B(  8-C ,  9-C ) :   1.0364 B(  8-C , 24-H ) :   0.8667 B(  8-C , 25-H ) :   0.8751
B(  8-C , 28-H ) :  -0.1033 B(  9-C , 26-H ) :   0.9550 B(  9-C , 27-H ) :   0.9515
B(  9-C , 28-H ) :   1.0227

MP2 TOTAL ENERGY:     -863.108993026 Eh
FINAL SINGLE POINT ENERGY      -863.108993026106

DIPOLE MOMENT
-------------
                                X             Y             Z
Electronic contribution:      0.69638      12.49488       1.55054
Nuclear contribution   :     -1.26565     -14.28672      -2.47556
                        -----------------------------------------
Total Dipole Moment    :     -0.56927      -1.79184      -0.92502
                        -----------------------------------------
Magnitude (a.u.)       :      2.09533
Magnitude (Debye)      :      5.32590

Rotational constants in cm-1:     0.051165     0.012619     0.011062
Rotational constants in MHz :  1533.879521   378.306436   331.636175

                             ****ORCA TERMINATED NORMALLY****
TOTAL RUN TIME: 0 days 3 hours 8 minutes 46 seconds 281 msec
