                         Program Version 5.0.4 -  RELEASE  -
|  1> !ri-mp2 aug-cc-pvqz aug-cc-pvqz/c tightscf
|  2> %pal nprocs 16 end
|  3> %maxcore 3800
|  4>
|  5> * xyz 0 1
|  6> C      1.146241    1.193842   -0.045431
|  7> C      1.145772   -1.192583   -0.047381
|  8> C     -0.230006    1.193850   -0.240696
|  9> C     -0.229569   -1.192065   -0.242263
| 10> C      1.860578    0.000971    0.058338
| 11> C     -0.945645    0.001362   -0.341139
| 12> C      3.348664   -0.001567    0.293250
| 13> C     -3.212526   -0.002676    0.806592
| 14> C     -2.443952    0.001078   -0.522341
| 15> H      1.673704    2.137762    0.019717
| 16> H      1.673111   -2.136822    0.016045
| 17> H     -0.753713    2.138576   -0.325696
| 18> H     -0.753659   -2.136478   -0.328520
| 19> H      3.832697   -0.827825   -0.228257
| 20> H      3.806428    0.927029   -0.047139
| 21> H      3.579777   -0.109506    1.356230
| 22> H     -2.964444   -0.884319    1.399104
| 23> H     -4.290020   -0.003069    0.634112
| 24> H     -2.965687    0.876560    1.403176
| 25> H     -2.738175    0.877564   -1.103946
| 26> H     -2.737362   -0.872740   -1.108399
| 27> *
| 28>
| 29>                          ****END OF INPUT****

CARTESIAN COORDINATES (ANGSTROEM)
---------------------------------
  C      1.146241    1.193842   -0.045431
  C      1.145772   -1.192583   -0.047381
  C     -0.230006    1.193850   -0.240696
  C     -0.229569   -1.192065   -0.242263
  C      1.860578    0.000971    0.058338
  C     -0.945645    0.001362   -0.341139
  C      3.348664   -0.001567    0.293250
  C     -3.212526   -0.002676    0.806592
  C     -2.443952    0.001078   -0.522341
  H      1.673704    2.137762    0.019717
  H      1.673111   -2.136822    0.016045
  H     -0.753713    2.138576   -0.325696
  H     -0.753659   -2.136478   -0.328520
  H      3.832697   -0.827825   -0.228257
  H      3.806428    0.927029   -0.047139
  H      3.579777   -0.109506    1.356230
  H     -2.964444   -0.884319    1.399104
  H     -4.290020   -0.003069    0.634112
  H     -2.965687    0.876560    1.403176
  H     -2.738175    0.877564   -1.103946
  H     -2.737362   -0.872740   -1.108399

 Total Charge           Charge          ....    0
 Multiplicity           Mult            ....    1
 Number of Electrons    NEL             ....   66
 Basis Dimension        Dim             .... 1272

ORBITAL ENERGIES
----------------

  NO   OCC          E(Eh)            E(eV)
   0   2.0000     -11.233167      -305.6700
   1   2.0000     -11.229883      -305.5807
   2   2.0000     -11.224743      -305.4408
   3   2.0000     -11.224546      -305.4354
   4   2.0000     -11.223948      -305.4192
   5   2.0000     -11.223397      -305.4042
   6   2.0000     -11.223287      -305.4012
   7   2.0000     -11.219308      -305.2929
   8   2.0000     -11.212655      -305.1119
   9   2.0000      -1.154148       -31.4060
  10   2.0000      -1.070901       -29.1407
  11   2.0000      -1.007643       -27.4194
  12   2.0000      -1.005660       -27.3654
  13   2.0000      -0.927459       -25.2374
  14   2.0000      -0.846373       -23.0310
  15   2.0000      -0.825006       -22.4496
  16   2.0000      -0.775767       -21.1097
  17   2.0000      -0.668171       -18.1818
  18   2.0000      -0.648587       -17.6489
  19   2.0000      -0.626565       -17.0497
  20   2.0000      -0.588117       -16.0035
  21   2.0000      -0.584487       -15.9047
  22   2.0000      -0.576712       -15.6931
  23   2.0000      -0.571865       -15.5612
  24   2.0000      -0.536616       -14.6021
  25   2.0000      -0.534536       -14.5455
  26   2.0000      -0.513510       -13.9733
  27   2.0000      -0.492489       -13.4013
  28   2.0000      -0.472767       -12.8647
  29   2.0000      -0.472624       -12.8607
  30   2.0000      -0.468990       -12.7619
  31   2.0000      -0.331919        -9.0320
  32   2.0000      -0.312491        -8.5033
  33   0.0000       0.026046         0.7088
  34   0.0000       0.027221         0.7407
  35   0.0000       0.029662         0.8071
  36   0.0000       0.035788         0.9738
  37   0.0000       0.039069         1.0631

MULLIKEN ATOMIC CHARGES
-----------------------
   0 C :   -0.318063
   1 C :   -0.271202
   2 C :   -0.447976
   3 C :   -0.460398
   4 C :    0.340017
   5 C :    0.396653
   6 C :   -0.833249
   7 C :   -0.905365
   8 C :   -0.294049
   9 H :    0.204868
  10 H :    0.231275
  11 H :    0.216943
  12 H :    0.218622
  13 H :    0.220338
  14 H :    0.218463
  15 H :    0.264313
  16 H :    0.239065
  17 H :    0.333590
  18 H :    0.240677
  19 H :    0.203396
  20 H :    0.202084
Sum of atomic charges:    0.0000000

LOEWDIN ATOMIC CHARGES
----------------------
   0 C :    0.353551
   1 C :    0.352504
   2 C :    0.355393
   3 C :    0.355082
   4 C :   -0.075226
   5 C :   -0.080519
   6 C :    0.903768
   7 C :    0.931794
   8 C :    0.484878
   9 H :   -0.320460
  10 H :   -0.318205
  11 H :   -0.314198
  12 H :   -0.314237
  13 H :   -0.297549
  14 H :   -0.304007
  15 H :   -0.279680
  16 H :   -0.283679
  17 H :   -0.281978
  18 H :   -0.283647
  19 H :   -0.291869
  20 H :   -0.291717

  Mayer bond orders larger than 0.100000
B(  0-C ,  1-C ) :  -0.1068 B(  0-C ,  2-C ) :   1.3483 B(  0-C ,  3-C ) :   0.1993
B(  0-C ,  4-C ) :   0.9710 B(  0-C ,  5-C ) :  -0.1755 B(  0-C ,  9-H ) :   1.1002
B(  0-C , 11-H ) :  -0.1366 B(  1-C ,  2-C ) :   0.1882 B(  1-C ,  3-C ) :   1.3456
B(  1-C ,  4-C ) :   0.9525 B(  1-C ,  5-C ) :  -0.1838 B(  1-C , 10-H ) :   1.0669
B(  1-C , 12-H ) :  -0.1393 B(  2-C ,  4-C ) :  -0.1085 B(  2-C ,  5-C ) :   0.9993
B(  2-C ,  8-C ) :  -0.1350 B(  2-C ,  9-H ) :  -0.1609 B(  2-C , 11-H ) :   1.0779
B(  3-C ,  5-C ) :   0.9973 B(  3-C ,  8-C ) :  -0.1447 B(  3-C , 10-H ) :  -0.1483
B(  3-C , 12-H ) :   1.0706 B(  4-C ,  6-C ) :   0.7157 B(  4-C ,  9-H ) :  -0.1065
B(  4-C , 10-H ) :  -0.1133 B(  4-C , 13-H ) :  -0.1176 B(  4-C , 14-H ) :  -0.1148
B(  5-C ,  8-C ) :   0.7034 B(  5-C , 11-H ) :  -0.1109 B(  5-C , 12-H ) :  -0.1049
B(  6-C , 13-H ) :   1.0479 B(  6-C , 14-H ) :   1.0500 B(  6-C , 15-H ) :   0.9562
B(  7-C ,  8-C ) :   1.0113 B(  7-C , 16-H ) :   0.9447 B(  7-C , 17-H ) :   0.9227
B(  7-C , 18-H ) :   0.9433 B(  8-C , 19-H ) :   0.9854 B(  8-C , 20-H ) :   0.9868

MP2 TOTAL ENERGY:     -349.528111388 Eh
FINAL SINGLE POINT ENERGY      -349.528111387889

DIPOLE MOMENT
-------------
                                X             Y             Z
Electronic contribution:      2.71352       0.00915      -1.71452
Nuclear contribution   :     -2.71980      -0.01368       1.73915
                        -----------------------------------------
Total Dipole Moment    :     -0.00627      -0.00453       0.02463
                        -----------------------------------------
Magnitude (a.u.)       :      0.02582
Magnitude (Debye)      :      0.06562

Rotational constants in cm-1:     0.146041     0.031223     0.027751
Rotational constants in MHz :  4378.192125   936.031987   831.961611

                             ****ORCA TERMINATED NORMALLY****
TOTAL RUN TIME: 0 days 1 hours 33 minutes 59 seconds 703 msec
