                         Program Version 5.0.4 -  RELEASE  -
|  1> !ri-mp2 aug-cc-pvqz aug-cc-pvqz/c tightscf
|  2> %pal nprocs 16 end
|  3>
|  4> * xyz 0 1
|  5> N      1.951229   -0.653592    0.274179
|  6> C     -1.544566   -0.217982   -0.577174
|  7> C      0.599777    1.081360   -0.202261
|  8> H      0.156334    2.041637   -0.396652
|  9> C      1.871547    0.709910    0.140798
| 10> H      2.728958    1.343392    0.292022
| 11> H      0.434363   -2.128670    0.020356
| 12> C      0.743448   -1.095776    0.014974
| 13> N     -0.123330   -0.087560   -0.284887
| 14> H     -1.720891   -1.257639   -0.851818
| 15> H     -1.770847    0.387341   -1.456142
| 16> C     -2.439557    0.181938    0.592297
| 17> H     -2.233726   -0.434183    1.467321
| 18> H     -3.488111    0.054549    0.320622
| 19> H     -2.285276    1.224935    0.867450
| 20> *
| 21>
| 22>                          ****END OF INPUT****

CARTESIAN COORDINATES (ANGSTROEM)
---------------------------------
  N      1.951229   -0.653592    0.274179
  C     -1.544566   -0.217982   -0.577174
  C      0.599777    1.081360   -0.202261
  H      0.156334    2.041637   -0.396652
  C      1.871547    0.709910    0.140798
  H      2.728958    1.343392    0.292022
  H      0.434363   -2.128670    0.020356
  C      0.743448   -1.095776    0.014974
  N     -0.123330   -0.087560   -0.284887
  H     -1.720891   -1.257639   -0.851818
  H     -1.770847    0.387341   -1.456142
  C     -2.439557    0.181938    0.592297
  H     -2.233726   -0.434183    1.467321
  H     -3.488111    0.054549    0.320622
  H     -2.285276    1.224935    0.867450

 Total Charge           Charge          ....    0
 Multiplicity           Mult            ....    1
 Number of Electrons    NEL             ....   52
 Basis Dimension        Dim             ....  928

ORBITAL ENERGIES
----------------

  NO   OCC          E(Eh)            E(eV)
   0   2.0000     -15.614753      -424.8990
   1   2.0000     -15.535789      -422.7503
   2   2.0000     -11.287332      -307.1439
   3   2.0000     -11.286757      -307.1283
   4   2.0000     -11.251293      -306.1632
   5   2.0000     -11.236462      -305.7597
   6   2.0000     -11.234347      -305.7021
   7   2.0000      -1.341475       -36.5034
   8   2.0000      -1.183541       -32.2058
   9   2.0000      -1.040539       -28.3145
  10   2.0000      -0.998915       -27.1819
  11   2.0000      -0.889122       -24.1942
  12   2.0000      -0.803924       -21.8759
  13   2.0000      -0.779460       -21.2102
  14   2.0000      -0.718503       -19.5515
  15   2.0000      -0.647015       -17.6062
  16   2.0000      -0.624483       -16.9930
  17   2.0000      -0.594736       -16.1836
  18   2.0000      -0.590685       -16.0734
  19   2.0000      -0.567029       -15.4296
  20   2.0000      -0.546717       -14.8769
  21   2.0000      -0.532529       -14.4909
  22   2.0000      -0.517914       -14.0932
  23   2.0000      -0.429098       -11.6763
  24   2.0000      -0.381107       -10.3704
  25   2.0000      -0.315346        -8.5810
  26   0.0000       0.020284         0.5519
  27   0.0000       0.029387         0.7997
  28   0.0000       0.032385         0.8813
  29   0.0000       0.034712         0.9446
  30   0.0000       0.043206         1.1757

MULLIKEN ATOMIC CHARGES
-----------------------
   0 N :   -0.911626
   1 C :   -0.326805
   2 C :   -0.413314
   3 H :    0.313542
   4 C :   -0.131452
   5 H :    0.492761
   6 H :    0.526637
   7 C :    0.187538
   8 N :   -0.253862
   9 H :    0.284861
  10 H :    0.304749
  11 C :   -0.915323
  12 H :    0.250377
  13 H :    0.328964
  14 H :    0.262955
Sum of atomic charges:    0.0000000

LOEWDIN ATOMIC CHARGES
----------------------
   0 N :    0.554895
   1 C :    0.392719
   2 C :    0.173966
   3 H :   -0.305550
   4 C :    0.050230
   5 H :   -0.352755
   6 H :   -0.316175
   7 C :   -0.084323
   8 N :    0.362649
   9 H :   -0.294710
  10 H :   -0.276278
  11 C :    0.942934
  12 H :   -0.279538
  13 H :   -0.282092
  14 H :   -0.285973

  Mayer bond orders larger than 0.100000
B(  0-N ,  2-C ) :   0.1618 B(  0-N ,  4-C ) :   0.9490 B(  0-N ,  7-C ) :   1.4609
B(  1-C ,  8-N ) :   0.6876 B(  1-C ,  9-H ) :   0.9009 B(  1-C , 10-H ) :   0.8739
B(  1-C , 11-C ) :   1.0248 B(  2-C ,  3-H ) :   0.9929 B(  2-C ,  4-C ) :   1.5178
B(  2-C ,  8-N ) :   1.0521 B(  4-C ,  5-H ) :   0.8302 B(  4-C ,  8-N ) :  -0.1622
B(  6-H ,  7-C ) :   0.6846 B(  7-C ,  8-N ) :   1.3726 B( 11-C , 12-H ) :   0.9395
B( 11-C , 13-H ) :   0.9179 B( 11-C , 14-H ) :   0.9278

MP2 TOTAL ENERGY:     -304.327427928 Eh
FINAL SINGLE POINT ENERGY      -304.327427927666

DIPOLE MOMENT
-------------
                                X             Y             Z
Electronic contribution:      6.63947      -0.95299      -0.61711
Nuclear contribution   :     -8.29820       1.24650       0.26727
                        -----------------------------------------
Total Dipole Moment    :     -1.65873       0.29351      -0.34984
                        -----------------------------------------
Magnitude (a.u.)       :      1.72044
Magnitude (Debye)      :      4.37300

Rotational constants in cm-1:     0.231424     0.064898     0.056556
Rotational constants in MHz :  6937.912450  1945.589727  1695.508054

                             ****ORCA TERMINATED NORMALLY****
TOTAL RUN TIME: 0 days 0 hours 28 minutes 11 seconds 794 msec
