                         Program Version 5.0.4 -  RELEASE  -
|  1> !ri-mp2 aug-cc-pvqz aug-cc-pvqz/c tightscf
|  2> %pal nprocs 16 end
|  3>
|  4> * xyz 0 1
|  5> C      0.000000    0.000000    2.379326
|  6> C     -0.540152    1.120038    1.453423
|  7> C      0.540152   -1.120038    1.453423
|  8> C      0.000000    0.780705    0.063279
|  9> C      0.000000   -0.780705    0.063279
| 10> Cl    -0.918814    1.530370   -1.269894
| 11> Cl     1.722064    1.361119   -0.048861
| 12> Cl    -1.722064   -1.361119   -0.048861
| 13> Cl     0.918814   -1.530370   -1.269894
| 14> H      0.795834    0.369632    3.021692
| 15> H     -0.795834   -0.369632    3.021692
| 16> H     -1.626332    1.099741    1.409111
| 17> H     -0.232881    2.118369    1.749841
| 18> H      1.626332   -1.099741    1.409111
| 19> H      0.232881   -2.118369    1.749841
| 20> *
| 21>
| 22>                          ****END OF INPUT****

CARTESIAN COORDINATES (ANGSTROEM)
---------------------------------
  C      0.000000    0.000000    2.379326
  C     -0.540152    1.120038    1.453423
  C      0.540152   -1.120038    1.453423
  C      0.000000    0.780705    0.063279
  C      0.000000   -0.780705    0.063279
  Cl    -0.918814    1.530370   -1.269894
  Cl     1.722064    1.361119   -0.048861
  Cl    -1.722064   -1.361119   -0.048861
  Cl     0.918814   -1.530370   -1.269894
  H      0.795834    0.369632    3.021692
  H     -0.795834   -0.369632    3.021692
  H     -1.626332    1.099741    1.409111
  H     -0.232881    2.118369    1.749841
  H      1.626332   -1.099741    1.409111
  H      0.232881   -2.118369    1.749841

 Total Charge           Charge          ....    0
 Multiplicity           Mult            ....    1
 Number of Electrons    NEL             ....  104
 Basis Dimension        Dim             .... 1012

ORBITAL ENERGIES
----------------

  NO   OCC          E(Eh)            E(eV)
   0   2.0000    -104.849050     -2853.0877
   1   2.0000    -104.849050     -2853.0877
   2   2.0000    -104.848179     -2853.0640
   3   2.0000    -104.848179     -2853.0640
   4   2.0000     -11.394058      -310.0481
   5   2.0000     -11.393509      -310.0331
   6   2.0000     -11.260576      -306.4159
   7   2.0000     -11.260566      -306.4156
   8   2.0000     -11.253317      -306.2183
   9   2.0000     -10.574565      -287.7485
  10   2.0000     -10.574564      -287.7485
  11   2.0000     -10.573858      -287.7293
  12   2.0000     -10.573856      -287.7293
  13   2.0000      -8.041573      -218.8223
  14   2.0000      -8.041572      -218.8223
  15   2.0000      -8.040772      -218.8005
  16   2.0000      -8.040772      -218.8005
  17   2.0000      -8.039742      -218.7725
  18   2.0000      -8.039742      -218.7725
  19   2.0000      -8.039691      -218.7711
  20   2.0000      -8.039691      -218.7711
  21   2.0000      -8.039051      -218.7537
  22   2.0000      -8.039051      -218.7537
  23   2.0000      -8.038986      -218.7519
  24   2.0000      -8.038986      -218.7519
  25   2.0000      -1.251594       -34.0576
  26   2.0000      -1.166309       -31.7369
  27   2.0000      -1.107504       -30.1367
  28   2.0000      -1.104051       -30.0427
  29   2.0000      -1.079724       -29.3808
  30   2.0000      -0.988885       -26.9089
  31   2.0000      -0.942520       -25.6473
  32   2.0000      -0.823441       -22.4070
  33   2.0000      -0.753465       -20.5028
  34   2.0000      -0.683126       -18.5888
  35   2.0000      -0.678664       -18.4674
  36   2.0000      -0.646296       -17.5866
  37   2.0000      -0.617592       -16.8055
  38   2.0000      -0.581678       -15.8283
  39   2.0000      -0.564619       -15.3641
  40   2.0000      -0.552872       -15.0444
  41   2.0000      -0.527449       -14.3526
  42   2.0000      -0.523097       -14.2342
  43   2.0000      -0.509745       -13.8709
  44   2.0000      -0.484200       -13.1757
  45   2.0000      -0.476598       -12.9689
  46   2.0000      -0.474451       -12.9105
  47   2.0000      -0.463520       -12.6130
  48   2.0000      -0.456993       -12.4354
  49   2.0000      -0.445274       -12.1165
  50   2.0000      -0.439485       -11.9590
  51   2.0000      -0.432891       -11.7796
  52   0.0000       0.023814         0.6480
  53   0.0000       0.032705         0.8899
  54   0.0000       0.034941         0.9508
  55   0.0000       0.040964         1.1147
  56   0.0000       0.049358         1.3431

MULLIKEN ATOMIC CHARGES
-----------------------
   0 C :   -0.468702
   1 C :   -0.555481
   2 C :   -0.555481
   3 C :    0.798792
   4 C :    0.798793
   5 Cl:   -0.484811
   6 Cl:   -0.463858
   7 Cl:   -0.463858
   8 Cl:   -0.484811
   9 H :    0.249531
  10 H :    0.249536
  11 H :    0.304364
  12 H :    0.385810
  13 H :    0.304365
  14 H :    0.385809
Sum of atomic charges:    0.0000000

LOEWDIN ATOMIC CHARGES
----------------------
   0 C :    0.496235
   1 C :    0.259215
   2 C :    0.259215
   3 C :   -1.836125
   4 C :   -1.836125
   5 Cl:    1.119225
   6 Cl:    1.139668
   7 Cl:    1.139668
   8 Cl:    1.119225
   9 H :   -0.267621
  10 H :   -0.267621
  11 H :   -0.347441
  12 H :   -0.315038
  13 H :   -0.347441
  14 H :   -0.315038

  Mayer bond orders larger than 0.100000
B(  0-C ,  1-C ) :   0.9553 B(  0-C ,  2-C ) :   0.9553 B(  0-C ,  9-H ) :   0.9157
B(  0-C , 10-H ) :   0.9157 B(  1-C ,  3-C ) :   0.9074 B(  1-C , 11-H ) :   0.8857
B(  1-C , 12-H ) :   0.8409 B(  2-C ,  4-C ) :   0.9074 B(  2-C , 13-H ) :   0.8857
B(  2-C , 14-H ) :   0.8409 B(  3-C ,  4-C ) :   0.8171 B(  3-C ,  5-Cl) :   0.2847
B(  3-C ,  6-Cl) :   0.4833 B(  4-C ,  7-Cl) :   0.4833 B(  4-C ,  8-Cl) :   0.2847

MP2 TOTAL ENERGY:    -2032.738478783 Eh
FINAL SINGLE POINT ENERGY     -2032.738478783141

DIPOLE MOMENT
-------------
                                X             Y             Z
Electronic contribution:     -0.00000      -0.00000     -13.86616
Nuclear contribution   :      0.00000       0.00000      15.15722
                        -----------------------------------------
Total Dipole Moment    :     -0.00000      -0.00000       1.29107
                        -----------------------------------------
Magnitude (a.u.)       :      1.29107
Magnitude (Debye)      :      3.28163

Rotational constants in cm-1:     0.032405     0.026430     0.026381
Rotational constants in MHz :   971.491342   792.349060   790.876633

                             ****ORCA TERMINATED NORMALLY****
TOTAL RUN TIME: 0 days 0 hours 48 minutes 52 seconds 551 msec
