                         Program Version 5.0.4 -  RELEASE  -
|  1> !ri-mp2 aug-cc-pvqz aug-cc-pvqz/c tightscf
|  2> %pal nprocs 16 end
|  3> %maxcore 3800
|  4>
|  5> * xyz 0 1
|  6> C     0.000000     4.931161    0.525769
|  7> C     0.000000    -4.931161    0.525769
|  8> C     0.000000     3.717960   -0.402856
|  9> C     0.000000    -3.717960   -0.402856
| 10> C     0.000000     2.388987    0.353309
| 11> C     0.000000    -2.388987    0.353309
| 12> C     0.000000     1.184688   -0.571073
| 13> C     0.000000    -1.184688   -0.571073
| 14> O     0.000000     0.000000    0.205597
| 15> H    -0.880623     4.932775    1.171072
| 16> H     0.880623     4.932775    1.171072
| 17> H     0.000000     5.864641   -0.038469
| 18> H     0.880623    -4.932775    1.171072
| 19> H    -0.880623    -4.932775    1.171072
| 20> H     0.000000    -5.864641   -0.038469
| 21> H    -0.874418     3.763393   -1.058921
| 22> H     0.874418     3.763393   -1.058921
| 23> H     0.874418    -3.763393   -1.058921
| 24> H    -0.874418    -3.763393   -1.058921
| 25> H     0.876326     2.331130    1.004232
| 26> H    -0.876326     2.331130    1.004232
| 27> H    -0.876326    -2.331130    1.004232
| 28> H     0.876326    -2.331130    1.004232
| 29> H    -0.884669     1.203511   -1.223789
| 30> H     0.884669     1.203511   -1.223789
| 31> H     0.884669    -1.203511   -1.223789
| 32> H    -0.884669    -1.203511   -1.223789
| 33> *
| 34>
| 35>                          ****END OF INPUT****

CARTESIAN COORDINATES (ANGSTROEM)
---------------------------------
  C      0.000000    4.931161    0.525769
  C      0.000000   -4.931161    0.525769
  C      0.000000    3.717960   -0.402856
  C      0.000000   -3.717960   -0.402856
  C      0.000000    2.388987    0.353309
  C      0.000000   -2.388987    0.353309
  C      0.000000    1.184688   -0.571073
  C      0.000000   -1.184688   -0.571073
  O      0.000000    0.000000    0.205597
  H     -0.880623    4.932775    1.171072
  H      0.880623    4.932775    1.171072
  H      0.000000    5.864641   -0.038469
  H      0.880623   -4.932775    1.171072
  H     -0.880623   -4.932775    1.171072
  H      0.000000   -5.864641   -0.038469
  H     -0.874418    3.763393   -1.058921
  H      0.874418    3.763393   -1.058921
  H      0.874418   -3.763393   -1.058921
  H     -0.874418   -3.763393   -1.058921
  H      0.876326    2.331130    1.004232
  H     -0.876326    2.331130    1.004232
  H     -0.876326   -2.331130    1.004232
  H      0.876326   -2.331130    1.004232
  H     -0.884669    1.203511   -1.223789
  H      0.884669    1.203511   -1.223789
  H      0.884669   -1.203511   -1.223789
  H     -0.884669   -1.203511   -1.223789

 Total Charge           Charge          ....    0
 Multiplicity           Mult            ....    1
 Number of Electrons    NEL             ....   74
 Basis Dimension        Dim             .... 1548

ORBITAL ENERGIES
----------------

  NO   OCC          E(Eh)            E(eV)
   0   2.0000     -20.545107      -559.0608
   1   2.0000     -11.266782      -306.5847
   2   2.0000     -11.266762      -306.5842
   3   2.0000     -11.218104      -305.2601
   4   2.0000     -11.218104      -305.2601
   5   2.0000     -11.211890      -305.0910
   6   2.0000     -11.211890      -305.0910
   7   2.0000     -11.209924      -305.0375
   8   2.0000     -11.209924      -305.0375
   9   2.0000      -1.366058       -37.1723
  10   2.0000      -1.079036       -29.3621
  11   2.0000      -1.062618       -28.9153
  12   2.0000      -0.993156       -27.0251
  13   2.0000      -0.951674       -25.8964
  14   2.0000      -0.864063       -23.5124
  15   2.0000      -0.833488       -22.6804
  16   2.0000      -0.800516       -21.7832
  17   2.0000      -0.786653       -21.4059
  18   2.0000      -0.679296       -18.4846
  19   2.0000      -0.647832       -17.6284
  20   2.0000      -0.641867       -17.4661
  21   2.0000      -0.616429       -16.7739
  22   2.0000      -0.612081       -16.6556
  23   2.0000      -0.575129       -15.6501
  24   2.0000      -0.570648       -15.5281
  25   2.0000      -0.559092       -15.2137
  26   2.0000      -0.530808       -14.4440
  27   2.0000      -0.523276       -14.2391
  28   2.0000      -0.506225       -13.7751
  29   2.0000      -0.494943       -13.4681
  30   2.0000      -0.477974       -13.0063
  31   2.0000      -0.472822       -12.8661
  32   2.0000      -0.468456       -12.7473
  33   2.0000      -0.463067       -12.6007
  34   2.0000      -0.460227       -12.5234
  35   2.0000      -0.453844       -12.3497
  36   2.0000      -0.415898       -11.3171
  37   0.0000       0.025905         0.7049
  38   0.0000       0.026191         0.7127
  39   0.0000       0.032220         0.8767
  40   0.0000       0.033339         0.9072
  41   0.0000       0.038205         1.0396

MULLIKEN ATOMIC CHARGES
-----------------------
   0 C :   -0.890760
   1 C :   -0.890711
   2 C :   -0.496722
   3 C :   -0.496723
   4 C :   -0.375458
   5 C :   -0.375428
   6 C :    0.224748
   7 C :    0.224557
   8 O :   -0.969953
   9 H :    0.221626
  10 H :    0.221619
  11 H :    0.258940
  12 H :    0.221611
  13 H :    0.221611
  14 H :    0.258913
  15 H :    0.237834
  16 H :    0.237852
  17 H :    0.237884
  18 H :    0.237830
  19 H :    0.233030
  20 H :    0.232958
  21 H :    0.232952
  22 H :    0.233063
  23 H :    0.189707
  24 H :    0.189676
  25 H :    0.189677
  26 H :    0.189666
Sum of atomic charges:   -0.0000000

LOEWDIN ATOMIC CHARGES
----------------------
   0 C :    0.925664
   1 C :    0.925664
   2 C :    0.499329
   3 C :    0.499329
   4 C :    0.492669
   5 C :    0.492669
   6 C :    0.154229
   7 C :    0.154229
   8 O :    0.913198
   9 H :   -0.285239
  10 H :   -0.285239
  11 H :   -0.284646
  12 H :   -0.285239
  13 H :   -0.285239
  14 H :   -0.284646
  15 H :   -0.274259
  16 H :   -0.274259
  17 H :   -0.274259
  18 H :   -0.274259
  19 H :   -0.273999
  20 H :   -0.273999
  21 H :   -0.273999
  22 H :   -0.273999
  23 H :   -0.288426
  24 H :   -0.288426
  25 H :   -0.288426
  26 H :   -0.288426

  Mayer bond orders larger than 0.100000
B(  0-C ,  2-C ) :   1.0610 B(  0-C ,  4-C ) :  -0.1214 B(  0-C ,  9-H ) :   0.9584
B(  0-C , 10-H ) :   0.9584 B(  0-C , 11-H ) :   1.0252 B(  1-C ,  3-C ) :   1.0610
B(  1-C ,  5-C ) :  -0.1214 B(  1-C , 12-H ) :   0.9584 B(  1-C , 13-H ) :   0.9584
B(  1-C , 14-H ) :   1.0252 B(  2-C ,  4-C ) :   0.9702 B(  2-C , 11-H ) :  -0.1029
B(  2-C , 15-H ) :   0.8650 B(  2-C , 16-H ) :   0.8650 B(  3-C ,  5-C ) :   0.9702
B(  3-C , 14-H ) :  -0.1029 B(  3-C , 17-H ) :   0.8650 B(  3-C , 18-H ) :   0.8650
B(  4-C ,  6-C ) :   1.1154 B(  4-C ,  8-O ) :   0.1060 B(  4-C , 19-H ) :   0.8552
B(  4-C , 20-H ) :   0.8554 B(  5-C ,  7-C ) :   1.1155 B(  5-C ,  8-O ) :   0.1058
B(  5-C , 21-H ) :   0.8554 B(  5-C , 22-H ) :   0.8553 B(  6-C ,  8-O ) :   0.8154
B(  6-C , 23-H ) :   0.8879 B(  6-C , 24-H ) :   0.8879 B(  7-C ,  8-O ) :   0.8154
B(  7-C , 25-H ) :   0.8880 B(  7-C , 26-H ) :   0.8880

MP2 TOTAL ENERGY:     -390.208354680 Eh
FINAL SINGLE POINT ENERGY      -390.208354680310

DIPOLE MOMENT
-------------
                                X             Y             Z
Electronic contribution:     -0.00000      -0.00000       0.05659
Nuclear contribution   :      0.00000       0.00000      -0.53712
                        -----------------------------------------
Total Dipole Moment    :     -0.00000      -0.00000      -0.48053
                        -----------------------------------------
Magnitude (a.u.)       :      0.48053
Magnitude (Debye)      :      1.22142

Rotational constants in cm-1:     0.308374     0.012471     0.012202
Rotational constants in MHz :  9244.814829   373.865743   365.816678

                             ****ORCA TERMINATED NORMALLY****
TOTAL RUN TIME: 0 days 2 hours 17 minutes 39 seconds 647 msec
