                         Program Version 5.0.4 -  RELEASE  -
|  1> !ri-mp2 aug-cc-pvqz aug-cc-pvqz/c tightscf
|  2> %pal nprocs 16 end
|  3>
|  4> * xyz 0 1
|  5> C    -0.749149   -2.765389    0.000000
|  6> C    -0.579479   -0.671889    0.000000
|  7> C     0.123559    2.779879    0.000000
|  8> C    -0.748568    1.763546    0.000000
|  9> C     1.389116    0.865788    0.000000
| 10> N    -1.948842   -2.317880    0.000000
| 11> N    -1.848213   -0.922014    0.000000
| 12> N     1.407751    2.245729    0.000000
| 13> N     0.000000    0.571384    0.000000
| 14> O     2.321679    0.097408    0.000000
| 15> O     0.193548   -1.775534    0.000000
| 16> H    -0.403540   -3.783062    0.000000
| 17> H    -0.057518    3.838204    0.000000
| 18> H    -1.820876    1.742621    0.000000
| 19> H     2.272372    2.755109    0.000000
| 20> *
| 21>
| 22>                          ****END OF INPUT****

CARTESIAN COORDINATES (ANGSTROEM)
---------------------------------
  C     -0.749149   -2.765389    0.000000
  C     -0.579479   -0.671889    0.000000
  C      0.123559    2.779879    0.000000
  C     -0.748568    1.763546    0.000000
  C      1.389116    0.865788    0.000000
  N     -1.948842   -2.317880    0.000000
  N     -1.848213   -0.922014    0.000000
  N      1.407751    2.245729    0.000000
  N      0.000000    0.571384    0.000000
  O      2.321679    0.097408    0.000000
  O      0.193548   -1.775534    0.000000
  H     -0.403540   -3.783062    0.000000
  H     -0.057518    3.838204    0.000000
  H     -1.820876    1.742621    0.000000
  H      2.272372    2.755109    0.000000

 Total Charge           Charge          ....    0
 Multiplicity           Mult            ....    1
 Number of Electrons    NEL             ....   78
 Basis Dimension        Dim             .... 1064

ORBITAL ENERGIES
----------------

  NO   OCC          E(Eh)            E(eV)
   0   2.0000     -20.664867      -562.3196
   1   2.0000     -20.537741      -558.8603
   2   2.0000     -15.651862      -425.9088
   3   2.0000     -15.628471      -425.2723
   4   2.0000     -15.607397      -424.6989
   5   2.0000     -15.594711      -424.3537
   6   2.0000     -11.409978      -310.4813
   7   2.0000     -11.400111      -310.2128
   8   2.0000     -11.344986      -308.7128
   9   2.0000     -11.300863      -307.5121
  10   2.0000     -11.293424      -307.3097
  11   2.0000      -1.536498       -41.8102
  12   2.0000      -1.431029       -38.9403
  13   2.0000      -1.344915       -36.5970
  14   2.0000      -1.313183       -35.7335
  15   2.0000      -1.260196       -34.2917
  16   2.0000      -1.122719       -30.5507
  17   2.0000      -1.045528       -28.4503
  18   2.0000      -0.932467       -25.3737
  19   2.0000      -0.904986       -24.6259
  20   2.0000      -0.848377       -23.0855
  21   2.0000      -0.812263       -22.1028
  22   2.0000      -0.757598       -20.6153
  23   2.0000      -0.738147       -20.0860
  24   2.0000      -0.717295       -19.5186
  25   2.0000      -0.692283       -18.8380
  26   2.0000      -0.660660       -17.9775
  27   2.0000      -0.646669       -17.5968
  28   2.0000      -0.642029       -17.4705
  29   2.0000      -0.637597       -17.3499
  30   2.0000      -0.629055       -17.1174
  31   2.0000      -0.531268       -14.4565
  32   2.0000      -0.505777       -13.7629
  33   2.0000      -0.505187       -13.7468
  34   2.0000      -0.495576       -13.4853
  35   2.0000      -0.470799       -12.8111
  36   2.0000      -0.463569       -12.6144
  37   2.0000      -0.385672       -10.4947
  38   2.0000      -0.327934        -8.9235
  39   0.0000       0.015345         0.4176
  40   0.0000       0.028458         0.7744
  41   0.0000       0.031198         0.8489
  42   0.0000       0.041037         1.1167
  43   0.0000       0.050303         1.3688

MULLIKEN ATOMIC CHARGES
-----------------------
   0 C :   -0.029361
   1 C :    1.244694
   2 C :   -0.075784
   3 C :   -0.500689
   4 C :    1.281591
   5 N :   -0.484382
   6 N :   -0.361459
   7 N :   -0.757391
   8 N :   -0.500068
   9 O :   -0.747275
  10 O :   -0.651861
  11 H :    0.609325
  12 H :    0.471466
  13 H :    0.386962
  14 H :    0.114232
Sum of atomic charges:    0.0000000

LOEWDIN ATOMIC CHARGES
----------------------
   0 C :   -0.299589
   1 C :   -0.978354
   2 C :    0.237693
   3 C :    0.202723
   4 C :   -1.017484
   5 N :    0.308048
   6 N :    0.318609
   7 N :    0.800306
   8 N :    0.332893
   9 O :    0.672174
  10 O :    0.858632
  11 H :   -0.347720
  12 H :   -0.304712
  13 H :   -0.319169
  14 H :   -0.464052

  Mayer bond orders larger than 0.100000
B(  0-C ,  5-N ) :   1.7736 B(  0-C , 10-O ) :   1.1291 B(  0-C , 11-H ) :   0.6435
B(  1-C ,  6-N ) :   1.5345 B(  1-C ,  8-N ) :   1.0148 B(  1-C , 10-O ) :   0.7551
B(  2-C ,  3-C ) :   1.6321 B(  2-C ,  7-N ) :   0.8052 B(  2-C ,  8-N ) :  -0.1818
B(  2-C , 12-H ) :   0.8555 B(  3-C ,  7-N ) :   0.1004 B(  3-C ,  8-N ) :   0.9982
B(  3-C , 13-H ) :   0.8944 B(  4-C ,  7-N ) :   1.2297 B(  4-C ,  8-N ) :   1.1086
B(  4-C ,  9-O ) :   1.1371 B(  5-N ,  6-N ) :   0.5410 B(  5-N , 10-O ) :   0.1226
B(  7-N ,  8-N ) :  -0.1777 B(  7-N ,  9-O ) :   0.1986 B(  7-N , 14-H ) :   1.1841
B(  8-N ,  9-O ) :   0.2778

MP2 TOTAL ENERGY:     -561.571452616 Eh
FINAL SINGLE POINT ENERGY      -561.571452615831

DIPOLE MOMENT
-------------
                                X             Y             Z
Electronic contribution:      0.42545      -2.91279       0.00000
Nuclear contribution   :      0.01547       4.35670       0.00000
                        -----------------------------------------
Total Dipole Moment    :      0.44092       1.44390       0.00000
                        -----------------------------------------
Magnitude (a.u.)       :      1.50972
Magnitude (Debye)      :      3.83741

Rotational constants in cm-1:     0.095361     0.029180     0.022343
Rotational constants in MHz :  2858.845608   874.792977   669.828641

                             ****ORCA TERMINATED NORMALLY****
TOTAL RUN TIME: 0 days 0 hours 54 minutes 53 seconds 222 msec
