                         Program Version 5.0.4 -  RELEASE  -
|  1> !ri-mp2 aug-cc-pvqz aug-cc-pvqz/c tightscf
|  2> %pal nprocs 16 end
|  3>
|  4> * xyz 0 1
|  5> C     -0.756198    0.073934   -0.002520
|  6> H     -0.343604    2.171486   -0.066463
|  7> C      0.023743    1.153783   -0.022376
|  8> H     -2.647844   -0.452806    0.859762
|  9> H     -2.606606   -0.553100   -0.889410
| 10> H     -2.679983    1.029419   -0.103430
| 11> C     -2.248786    0.030965   -0.036722
| 12> H     -0.043702   -1.617124    1.120770
| 13> H     -0.250301   -1.964412   -0.582053
| 14> C      0.069948   -1.188503    0.117983
| 15> H      1.780513   -0.916913   -1.185058
| 16> H      2.249118   -1.218041    0.478619
| 17> C      1.515599   -0.711239   -0.147209
| 18> H      1.879408    1.089875    1.069321
| 19> H      2.101884    1.357766   -0.645531
| 20> C      1.489213    0.820035    0.081422
| 21> *
| 22>
| 23>                          ****END OF INPUT****

CARTESIAN COORDINATES (ANGSTROEM)
---------------------------------
  C     -0.756198    0.073934   -0.002520
  H     -0.343604    2.171486   -0.066463
  C      0.023743    1.153783   -0.022376
  H     -2.647844   -0.452806    0.859762
  H     -2.606606   -0.553100   -0.889410
  H     -2.679983    1.029419   -0.103430
  C     -2.248786    0.030965   -0.036722
  H     -0.043702   -1.617124    1.120770
  H     -0.250301   -1.964412   -0.582053
  C      0.069948   -1.188503    0.117983
  H      1.780513   -0.916913   -1.185058
  H      2.249118   -1.218041    0.478619
  C      1.515599   -0.711239   -0.147209
  H      1.879408    1.089875    1.069321
  H      2.101884    1.357766   -0.645531
  C      1.489213    0.820035    0.081422

 Total Charge           Charge          ....    0
 Multiplicity           Mult            ....    1
 Number of Electrons    NEL             ....   46
 Basis Dimension        Dim             ....  940

ORBITAL ENERGIES
----------------

  NO   OCC          E(Eh)            E(eV)
   0   2.0000     -11.222046      -305.3674
   1   2.0000     -11.216664      -305.2209
   2   2.0000     -11.216542      -305.2176
   3   2.0000     -11.215310      -305.1841
   4   2.0000     -11.214089      -305.1509
   5   2.0000     -11.207709      -304.9773
   6   2.0000      -1.130876       -30.7727
   7   2.0000      -1.006871       -27.3984
   8   2.0000      -0.954243       -25.9663
   9   2.0000      -0.899944       -24.4887
  10   2.0000      -0.784734       -21.3537
  11   2.0000      -0.700837       -19.0708
  12   2.0000      -0.639761       -17.4088
  13   2.0000      -0.634235       -17.2584
  14   2.0000      -0.573637       -15.6094
  15   2.0000      -0.565896       -15.3988
  16   2.0000      -0.540828       -14.7167
  17   2.0000      -0.511672       -13.9233
  18   2.0000      -0.481260       -13.0958
  19   2.0000      -0.477124       -12.9832
  20   2.0000      -0.472912       -12.8686
  21   2.0000      -0.464076       -12.6282
  22   2.0000      -0.328593        -8.9415
  23   0.0000       0.027491         0.7481
  24   0.0000       0.031323         0.8523
  25   0.0000       0.032884         0.8948
  26   0.0000       0.035885         0.9765
  27   0.0000       0.046561         1.2670

MULLIKEN ATOMIC CHARGES
-----------------------
   0 C :    0.220611
   1 H :    0.304142
   2 C :   -0.522774
   3 H :    0.236865
   4 H :    0.243015
   5 H :    0.209876
   6 C :   -0.731020
   7 H :    0.232150
   8 H :    0.283315
   9 C :   -0.410919
  10 H :    0.248250
  11 H :    0.273124
  12 C :   -0.532045
  13 H :    0.244821
  14 H :    0.234453
  15 C :   -0.533866
Sum of atomic charges:   -0.0000000

LOEWDIN ATOMIC CHARGES
----------------------
   0 C :   -0.035075
   1 H :   -0.300208
   2 C :    0.403362
   3 H :   -0.286813
   4 H :   -0.288338
   5 H :   -0.305298
   6 C :    0.912690
   7 H :   -0.263892
   8 H :   -0.269411
   9 C :    0.502896
  10 H :   -0.274031
  11 H :   -0.263681
  12 C :    0.518279
  13 H :   -0.273763
  14 H :   -0.277803
  15 C :    0.501088

  Mayer bond orders larger than 0.100000
B(  0-C ,  2-C ) :   1.4766 B(  0-C ,  4-H ) :  -0.1037 B(  0-C ,  5-H ) :  -0.1289
B(  0-C ,  6-C ) :   0.5758 B(  0-C ,  9-C ) :   0.7089 B(  0-C , 15-C ) :  -0.1604
B(  1-H ,  2-C ) :   0.9759 B(  2-C , 15-C ) :   1.0034 B(  3-H ,  6-C ) :   1.0048
B(  4-H ,  6-C ) :   0.9968 B(  5-H ,  6-C ) :   1.0766 B(  7-H ,  9-C ) :   0.8819
B(  8-H ,  9-C ) :   0.9399 B(  9-C , 12-C ) :   1.0176 B( 10-H , 12-C ) :   0.8928
B( 11-H , 12-C ) :   0.9325 B( 12-C , 15-C ) :   1.0033 B( 13-H , 15-C ) :   0.8979
B( 14-H , 15-C ) :   1.0086

MP2 TOTAL ENERGY:     -234.189065966 Eh
FINAL SINGLE POINT ENERGY      -234.189065965646

DIPOLE MOMENT
-------------
                                X             Y             Z
Electronic contribution:      0.53931       1.04260      -0.02929
Nuclear contribution   :     -0.59012      -1.12935       0.05945
                        -----------------------------------------
Total Dipole Moment    :     -0.05080      -0.08675       0.03016
                        -----------------------------------------
Magnitude (a.u.)       :      0.10495
Magnitude (Debye)      :      0.26677

Rotational constants in cm-1:     0.233017     0.101272     0.074930
Rotational constants in MHz :  6985.661687  3036.043861  2246.356459

                             ****ORCA TERMINATED NORMALLY****
TOTAL RUN TIME: 0 days 0 hours 36 minutes 31 seconds 611 msec
