                         Program Version 5.0.4 -  RELEASE  -
|  1> !ri-mp2 aug-cc-pvqz aug-cc-pvqz/c tightscf
|  2> %pal nprocs 16 end
|  3>
|  4> * xyz 0 1
|  5> N      0.000000    1.151590    0.730933
|  6> N      0.000000    0.000000    1.376561
|  7> N      0.000000   -1.151590    0.730933
|  8> C      0.000000   -1.164165   -0.603698
|  9> C      0.000000    0.000000   -1.346005
| 10> C      0.000000    1.164165   -0.603698
| 11> H      0.000000   -2.145712   -1.060908
| 12> H      0.000000    0.000000   -2.426768
| 13> H      0.000000    2.145712   -1.060908
| 14> *
| 15>
| 16>                          ****END OF INPUT****

CARTESIAN COORDINATES (ANGSTROEM)
---------------------------------
  N      0.000000    1.151590    0.730933
  N      0.000000    0.000000    1.376561
  N      0.000000   -1.151590    0.730933
  C      0.000000   -1.164165   -0.603698
  C      0.000000    0.000000   -1.346005
  C      0.000000    1.164165   -0.603698
  H      0.000000   -2.145712   -1.060908
  H      0.000000    0.000000   -2.426768
  H      0.000000    2.145712   -1.060908

 Total Charge           Charge          ....    0
 Multiplicity           Mult            ....    1
 Number of Electrons    NEL             ....   42
 Basis Dimension        Dim             ....  618

ORBITAL ENERGIES
----------------

  NO   OCC          E(Eh)            E(eV)
   0   2.0000     -15.666914      -426.3184
   1   2.0000     -15.622915      -425.1211
   2   2.0000     -15.622870      -425.1199
   3   2.0000     -11.311331      -307.7970
   4   2.0000     -11.311305      -307.7962
   5   2.0000     -11.281279      -306.9792
   6   2.0000      -1.413560       -38.4649
   7   2.0000      -1.222841       -33.2752
   8   2.0000      -1.141493       -31.0616
   9   2.0000      -0.949441       -25.8356
  10   2.0000      -0.928887       -25.2763
  11   2.0000      -0.747480       -20.3400
  12   2.0000      -0.742913       -20.2157
  13   2.0000      -0.668342       -18.1865
  14   2.0000      -0.616773       -16.7832
  15   2.0000      -0.616771       -16.7832
  16   2.0000      -0.576322       -15.6825
  17   2.0000      -0.438367       -11.9286
  18   2.0000      -0.437097       -11.8940
  19   2.0000      -0.433262       -11.7896
  20   2.0000      -0.420580       -11.4446
  21   0.0000       0.016551         0.4504
  22   0.0000       0.026699         0.7265
  23   0.0000       0.037229         1.0130
  24   0.0000       0.058795         1.5999
  25   0.0000       0.063526         1.7286

MULLIKEN ATOMIC CHARGES
-----------------------
   0 N :   -0.389297
   1 N :    0.015371
   2 N :   -0.389297
   3 C :   -0.106731
   4 C :   -0.410540
   5 C :   -0.106731
   6 H :    0.469174
   7 H :    0.448877
   8 H :    0.469174
Sum of atomic charges:    0.0000000

LOEWDIN ATOMIC CHARGES
----------------------
   0 N :    0.298936
   1 N :    0.061813
   2 N :    0.298936
   3 C :    0.028607
   4 C :    0.310922
   5 C :    0.028607
   6 H :   -0.353280
   7 H :   -0.321263
   8 H :   -0.353280

  Mayer bond orders larger than 0.100000
B(  0-N ,  1-N ) :   1.1617 B(  0-N ,  5-C ) :   1.2271 B(  1-N ,  2-N ) :   1.1617
B(  1-N ,  4-C ) :   0.1142 B(  2-N ,  3-C ) :   1.2271 B(  3-C ,  4-C ) :   1.2732
B(  3-C ,  5-C ) :  -0.1340 B(  3-C ,  6-H ) :   0.8558 B(  4-C ,  5-C ) :   1.2732
B(  4-C ,  7-H ) :   0.8250 B(  5-C ,  8-H ) :   0.8558

MP2 TOTAL ENERGY:     -279.859880469 Eh
FINAL SINGLE POINT ENERGY      -279.859880469298

DIPOLE MOMENT
-------------
                                X             Y             Z
Electronic contribution:     -0.00000       0.00000       2.39088
Nuclear contribution   :      0.00000       0.00000      -4.40901
                        -----------------------------------------
Total Dipole Moment    :     -0.00000       0.00000      -2.01813
                        -----------------------------------------
Magnitude (a.u.)       :      2.01813
Magnitude (Debye)      :      5.12969

Rotational constants in cm-1:     0.213417     0.210774     0.106044
Rotational constants in MHz :  6398.067243  6318.846995  3179.105183

                             ****ORCA TERMINATED NORMALLY****
TOTAL RUN TIME: 0 days 0 hours 8 minutes 49 seconds 317 msec
