                         Program Version 5.0.4 -  RELEASE  -
|  1> !ri-mp2 aug-cc-pvqz aug-cc-pvqz/c tightscf
|  2> %pal nprocs 16 end
|  3>
|  4> * xyz 0 1
|  5> N      0.687175   -0.997210        0.000000
|  6> C     -0.670085   -0.896250        0.000000
|  7> H     -1.325913   -1.750118        0.000000
|  8> N     -1.137377    0.337628        0.000000
|  9> N      0.000000    1.069665        0.000000
| 10> H     -0.046582    2.073946        0.000000
| 11> C      1.075604    0.260484        0.000000
| 12> H      2.090800    0.620191        0.000000
| 13> *
| 14>
| 15>                          ****END OF INPUT****

CARTESIAN COORDINATES (ANGSTROEM)
---------------------------------
  N      0.687175   -0.997210    0.000000
  C     -0.670085   -0.896250    0.000000
  H     -1.325913   -1.750118    0.000000
  N     -1.137377    0.337628    0.000000
  N      0.000000    1.069665    0.000000
  H     -0.046582    2.073946    0.000000
  C      1.075604    0.260484    0.000000
  H      2.090800    0.620191    0.000000

 Total Charge           Charge          ....    0
 Multiplicity           Mult            ....    1
 Number of Electrons    NEL             ....   36
 Basis Dimension        Dim             ....  538

ORBITAL ENERGIES
----------------

  NO   OCC          E(Eh)            E(eV)
   0   2.0000     -15.656230      -426.0277
   1   2.0000     -15.598550      -424.4581
   2   2.0000     -15.560360      -423.4189
   3   2.0000     -11.322671      -308.1055
   4   2.0000     -11.289720      -307.2089
   5   2.0000      -1.419284       -38.6207
   6   2.0000      -1.202124       -32.7115
   7   2.0000      -1.119369       -30.4596
   8   2.0000      -0.870036       -23.6749
   9   2.0000      -0.836136       -22.7524
  10   2.0000      -0.774536       -21.0762
  11   2.0000      -0.642931       -17.4951
  12   2.0000      -0.640967       -17.4416
  13   2.0000      -0.597902       -16.2698
  14   2.0000      -0.510128       -13.8813
  15   2.0000      -0.453669       -12.3450
  16   2.0000      -0.422457       -11.4956
  17   2.0000      -0.379378       -10.3234
  18   0.0000       0.019055         0.5185
  19   0.0000       0.035111         0.9554
  20   0.0000       0.037490         1.0202
  21   0.0000       0.059353         1.6151
  22   0.0000       0.070504         1.9185

MULLIKEN ATOMIC CHARGES
-----------------------
   0 N :   -0.562241
   1 C :   -0.163722
   2 H :    0.571651
   3 N :   -0.390649
   4 N :   -0.268160
   5 H :    0.277059
   6 C :   -0.028297
   7 H :    0.564359
Sum of atomic charges:   -0.0000000

LOEWDIN ATOMIC CHARGES
----------------------
   0 N :    0.536781
   1 C :   -0.244568
   2 H :   -0.371061
   3 N :    0.447960
   4 N :    0.531638
   5 H :   -0.479088
   6 C :   -0.103605
   7 H :   -0.318057

  Mayer bond orders larger than 0.100000
B(  0-N ,  1-C ) :   1.3135 B(  0-N ,  6-C ) :   1.5638 B(  1-C ,  2-H ) :   0.6904
B(  1-C ,  3-N ) :   1.5941 B(  3-N ,  4-N ) :   0.6845 B(  4-N ,  5-H ) :   0.9675
B(  4-N ,  6-C ) :   1.2950 B(  6-C ,  7-H ) :   0.6929

MP2 TOTAL ENERGY:     -241.892541253 Eh
FINAL SINGLE POINT ENERGY      -241.892541252684

DIPOLE MOMENT
-------------
                                X             Y             Z
Electronic contribution:     -0.19900       0.09812       0.00000
Nuclear contribution   :      0.70057       0.92647       0.00000
                        -----------------------------------------
Total Dipole Moment    :      0.50157       1.02459       0.00000
                        -----------------------------------------
Magnitude (a.u.)       :      1.14077
Magnitude (Debye)      :      2.89962

Rotational constants in cm-1:     0.343164     0.331286     0.168560
Rotational constants in MHz : 10287.812414  9931.708280  5053.312256

                             ****ORCA TERMINATED NORMALLY****
TOTAL RUN TIME: 0 days 0 hours 4 minutes 45 seconds 697 msec
