                         Program Version 5.0.4 -  RELEASE  -
|  1> !ri-mp2 aug-cc-pvqz aug-cc-pvqz/c tightscf
|  2> %pal nprocs 16 end
|  3> %maxcore 3800
|  4>
|  5> * xyz 0 1
|  6> C     -3.718906    0.008129   -0.494379
|  7> C     -2.699428    0.209382    0.331599
|  8> C      3.687893   -0.207825   -0.120495
|  9> C     -1.396675   -0.530695    0.303389
| 10> C      2.358809    0.545407   -0.139559
| 11> C     -0.186173    0.386338    0.074430
| 12> C      1.148183   -0.358947    0.093708
| 13> H     -4.631597    0.584270   -0.421349
| 14> H     -3.677416   -0.743766   -1.273896
| 15> H     -2.790163    0.977233    1.096030
| 16> H      3.716728   -0.976298   -0.895791
| 17> H      3.846764   -0.703368    0.839542
| 18> H      4.530129    0.464536   -0.289388
| 19> H     -1.260508   -1.052629    1.257535
| 20> H     -1.428811   -1.300599   -0.471834
| 21> H      2.244636    1.058481   -1.099103
| 22> H      2.373926    1.330018    0.622906
| 23> H     -0.176694    1.167721    0.841095
| 24> H     -0.305655    0.900978   -0.883282
| 25> H      1.134469   -1.144791   -0.669046
| 26> H      1.261978   -0.872523    1.054419
| 27> *
| 28>
| 29>                          ****END OF INPUT****

CARTESIAN COORDINATES (ANGSTROEM)
---------------------------------
  C     -3.718906    0.008129   -0.494379
  C     -2.699428    0.209382    0.331599
  C      3.687893   -0.207825   -0.120495
  C     -1.396675   -0.530695    0.303389
  C      2.358809    0.545407   -0.139559
  C     -0.186173    0.386338    0.074430
  C      1.148183   -0.358947    0.093708
  H     -4.631597    0.584270   -0.421349
  H     -3.677416   -0.743766   -1.273896
  H     -2.790163    0.977233    1.096030
  H      3.716728   -0.976298   -0.895791
  H      3.846764   -0.703368    0.839542
  H      4.530129    0.464536   -0.289388
  H     -1.260508   -1.052629    1.257535
  H     -1.428811   -1.300599   -0.471834
  H      2.244636    1.058481   -1.099103
  H      2.373926    1.330018    0.622906
  H     -0.176694    1.167721    0.841095
  H     -0.305655    0.900978   -0.883282
  H      1.134469   -1.144791   -0.669046
  H      1.261978   -0.872523    1.054419

 Total Charge           Charge          ....    0
 Multiplicity           Mult            ....    1
 Number of Electrons    NEL             ....   56
 Basis Dimension        Dim             .... 1204

ORBITAL ENERGIES
----------------

  NO   OCC          E(Eh)            E(eV)
   0   2.0000     -11.228606      -305.5459
   1   2.0000     -11.221661      -305.3569
   2   2.0000     -11.217190      -305.2353
   3   2.0000     -11.215771      -305.1966
   4   2.0000     -11.214953      -305.1744
   5   2.0000     -11.214572      -305.1640
   6   2.0000     -11.209322      -305.0212
   7   2.0000      -1.094308       -29.7776
   8   2.0000      -1.057203       -28.7680
   9   2.0000      -0.997026       -27.1305
  10   2.0000      -0.918549       -24.9950
  11   2.0000      -0.830827       -22.6080
  12   2.0000      -0.788885       -21.4666
  13   2.0000      -0.754027       -20.5181
  14   2.0000      -0.655777       -17.8446
  15   2.0000      -0.630189       -17.1483
  16   2.0000      -0.602728       -16.4011
  17   2.0000      -0.587227       -15.9792
  18   2.0000      -0.566972       -15.4281
  19   2.0000      -0.556485       -15.1427
  20   2.0000      -0.524342       -14.2681
  21   2.0000      -0.509155       -13.8548
  22   2.0000      -0.492562       -13.4033
  23   2.0000      -0.477636       -12.9971
  24   2.0000      -0.464486       -12.6393
  25   2.0000      -0.462264       -12.5789
  26   2.0000      -0.452125       -12.3029
  27   2.0000      -0.357964        -9.7407
  28   0.0000       0.026568         0.7229
  29   0.0000       0.028793         0.7835
  30   0.0000       0.031989         0.8705
  31   0.0000       0.033484         0.9111
  32   0.0000       0.041346         1.1251

MULLIKEN ATOMIC CHARGES
-----------------------
   0 C :   -0.889857
   1 C :   -0.646358
   2 C :   -0.909255
   3 C :   -0.317104
   4 C :   -0.481928
   5 C :   -0.272184
   6 C :   -0.241064
   7 H :    0.362771
   8 H :    0.301151
   9 H :    0.403515
  10 H :    0.227586
  11 H :    0.224861
  12 H :    0.264536
  13 H :    0.290379
  14 H :    0.259762
  15 H :    0.224333
  16 H :    0.226713
  17 H :    0.231802
  18 H :    0.267309
  19 H :    0.254098
  20 H :    0.218935
Sum of atomic charges:   -0.0000000

LOEWDIN ATOMIC CHARGES
----------------------
   0 C :    0.798036
   1 C :    0.359464
   2 C :    0.926413
   3 C :    0.476828
   4 C :    0.508777
   5 C :    0.513585
   6 C :    0.509512
   7 H :   -0.360312
   8 H :   -0.355555
   9 H :   -0.323391
  10 H :   -0.285455
  11 H :   -0.285483
  12 H :   -0.284822
  13 H :   -0.277569
  14 H :   -0.299920
  15 H :   -0.273198
  16 H :   -0.273284
  17 H :   -0.270493
  18 H :   -0.266012
  19 H :   -0.268050
  20 H :   -0.269069

  Mayer bond orders larger than 0.100000
B(  0-C ,  1-C ) :   1.9226 B(  0-C ,  3-C ) :  -0.1862 B(  0-C ,  7-H ) :   0.9416
B(  0-C ,  8-H ) :   0.9350 B(  1-C ,  3-C ) :   1.0208 B(  1-C ,  5-C ) :  -0.2257
B(  1-C ,  9-H ) :   0.8243 B(  2-C ,  4-C ) :   1.0334 B(  2-C ,  6-C ) :  -0.1086
B(  2-C , 10-H ) :   0.9558 B(  2-C , 11-H ) :   0.9547 B(  2-C , 12-H ) :   1.0249
B(  3-C ,  5-C ) :   1.0378 B(  3-C , 13-H ) :   0.8310 B(  3-C , 14-H ) :   0.8865
B(  4-C ,  6-C ) :   0.9346 B(  4-C , 15-H ) :   0.8848 B(  4-C , 16-H ) :   0.8826
B(  5-C ,  6-C ) :   0.9944 B(  5-C , 17-H ) :   0.8542 B(  5-C , 18-H ) :   0.8431
B(  6-C , 19-H ) :   0.8469 B(  6-C , 20-H ) :   0.8913

MP2 TOTAL ENERGY:     -274.613415975 Eh
FINAL SINGLE POINT ENERGY      -274.613415974872

DIPOLE MOMENT
-------------
                                X             Y             Z
Electronic contribution:     -5.00273       0.33817       0.36009
Nuclear contribution   :      5.18184      -0.33284      -0.31294
                        -----------------------------------------
Total Dipole Moment    :      0.17911       0.00533       0.04715
                        -----------------------------------------
Magnitude (a.u.)       :      0.18529
Magnitude (Debye)      :      0.47098

Rotational constants in cm-1:     0.401717     0.025922     0.025606
Rotational constants in MHz : 12043.176971   777.132273   767.649174

                             ****ORCA TERMINATED NORMALLY****
TOTAL RUN TIME: 0 days 1 hours 4 minutes 23 seconds 854 msec
