                         Program Version 5.0.4 -  RELEASE  -
|  1> !ri-mp2 aug-cc-pvqz aug-cc-pvqz/c tightscf
|  2> %pal nprocs 16 end
|  3> %maxcore 3800
|  4>
|  5> * xyz 0 1
|  6> C     -0.002677    0.695637    2.287492
|  7> C      0.002677   -0.695637    2.287492
|  8> C     -0.005281    1.380849    1.083628
|  9> C      0.005281   -1.380849    1.083628
| 10> C      0.002677    0.706828   -0.143419
| 11> C     -0.002677   -0.706828   -0.143419
| 12> C      0.504833    2.671718   -1.602985
| 13> C     -0.504833   -2.671718   -1.602985
| 14> C     -0.027936    1.466513   -1.404857
| 15> C      0.027936   -1.466513   -1.404857
| 16> H     -0.012494    1.242389    3.220751
| 17> H      0.012494   -1.242389    3.220751
| 18> H     -0.044540    2.461435    1.086304
| 19> H      0.044540   -2.461435    1.086304
| 20> H      0.415967    3.169418   -2.558579
| 21> H      1.054385    3.194867   -0.831116
| 22> H     -0.415967   -3.169418   -2.558579
| 23> H     -1.054385   -3.194867   -0.831116
| 24> H     -0.534592    0.991304   -2.236512
| 25> H      0.534592   -0.991304   -2.236512
| 26> *
| 27>
| 28>                          ****END OF INPUT****

CARTESIAN COORDINATES (ANGSTROEM)
---------------------------------
  C     -0.002677    0.695637    2.287492
  C      0.002677   -0.695637    2.287492
  C     -0.005281    1.380849    1.083628
  C      0.005281   -1.380849    1.083628
  C      0.002677    0.706828   -0.143419
  C     -0.002677   -0.706828   -0.143419
  C      0.504833    2.671718   -1.602985
  C     -0.504833   -2.671718   -1.602985
  C     -0.027936    1.466513   -1.404857
  C      0.027936   -1.466513   -1.404857
  H     -0.012494    1.242389    3.220751
  H      0.012494   -1.242389    3.220751
  H     -0.044540    2.461435    1.086304
  H      0.044540   -2.461435    1.086304
  H      0.415967    3.169418   -2.558579
  H      1.054385    3.194867   -0.831116
  H     -0.415967   -3.169418   -2.558579
  H     -1.054385   -3.194867   -0.831116
  H     -0.534592    0.991304   -2.236512
  H      0.534592   -0.991304   -2.236512

 Total Charge           Charge          ....    0
 Multiplicity           Mult            ....    1
 Number of Electrons    NEL             ....   70
 Basis Dimension        Dim             .... 1260

ORBITAL ENERGIES
----------------

  NO   OCC          E(Eh)            E(eV)
   0   2.0000     -11.246274      -306.0267
   1   2.0000     -11.245164      -305.9965
   2   2.0000     -11.239027      -305.8295
   3   2.0000     -11.239027      -305.8295
   4   2.0000     -11.234339      -305.7019
   5   2.0000     -11.233598      -305.6817
   6   2.0000     -11.232753      -305.6588
   7   2.0000     -11.232272      -305.6457
   8   2.0000     -11.228394      -305.5401
   9   2.0000     -11.228394      -305.5401
  10   2.0000      -1.167064       -31.7574
  11   2.0000      -1.076131       -29.2830
  12   2.0000      -1.071297       -29.1515
  13   2.0000      -0.997741       -27.1499
  14   2.0000      -0.986021       -26.8310
  15   2.0000      -0.855204       -23.2713
  16   2.0000      -0.849225       -23.1086
  17   2.0000      -0.771916       -21.0049
  18   2.0000      -0.761561       -20.7231
  19   2.0000      -0.698011       -18.9939
  20   2.0000      -0.657305       -17.8862
  21   2.0000      -0.645919       -17.5764
  22   2.0000      -0.613328       -16.6895
  23   2.0000      -0.611276       -16.6337
  24   2.0000      -0.590445       -16.0668
  25   2.0000      -0.581685       -15.8284
  26   2.0000      -0.542575       -14.7642
  27   2.0000      -0.521303       -14.1854
  28   2.0000      -0.514366       -13.9966
  29   2.0000      -0.493648       -13.4328
  30   2.0000      -0.478895       -13.0314
  31   2.0000      -0.405397       -11.0314
  32   2.0000      -0.403993       -10.9932
  33   2.0000      -0.323857        -8.8126
  34   2.0000      -0.302330        -8.2268
  35   0.0000       0.025350         0.6898
  36   0.0000       0.027127         0.7382
  37   0.0000       0.027344         0.7441
  38   0.0000       0.037988         1.0337
  39   0.0000       0.039811         1.0833

MULLIKEN ATOMIC CHARGES
-----------------------
   0 C :   -0.390292
   1 C :   -0.390349
   2 C :   -0.308291
   3 C :   -0.308263
   4 C :    0.475473
   5 C :    0.475412
   6 C :   -0.916105
   7 C :   -0.916112
   8 C :   -0.493672
   9 C :   -0.493670
  10 H :    0.290986
  11 H :    0.291024
  12 H :    0.296766
  13 H :    0.296738
  14 H :    0.320554
  15 H :    0.360179
  16 H :    0.320534
  17 H :    0.360189
  18 H :    0.364450
  19 H :    0.364448
Sum of atomic charges:    0.0000000

LOEWDIN ATOMIC CHARGES
----------------------
   0 C :    0.356266
   1 C :    0.356266
   2 C :    0.328687
   3 C :    0.328687
   4 C :   -0.103836
   5 C :   -0.103836
   6 C :    0.807658
   7 C :    0.807658
   8 C :    0.328258
   9 C :    0.328258
  10 H :   -0.321184
  11 H :   -0.321184
  12 H :   -0.338056
  13 H :   -0.338056
  14 H :   -0.346215
  15 H :   -0.353451
  16 H :   -0.346215
  17 H :   -0.353451
  18 H :   -0.358128
  19 H :   -0.358128

  Mayer bond orders larger than 0.100000
B(  0-C ,  1-C ) :   1.2185 B(  0-C ,  2-C ) :   1.1617 B(  0-C ,  4-C ) :  -0.1293
B(  0-C , 10-H ) :   1.0740 B(  1-C ,  3-C ) :   1.1617 B(  1-C ,  5-C ) :  -0.1293
B(  1-C , 11-H ) :   1.0740 B(  2-C ,  3-C ) :   0.1267 B(  2-C ,  4-C ) :   1.1198
B(  2-C ,  5-C ) :  -0.1138 B(  2-C ,  8-C ) :  -0.2749 B(  2-C , 10-H ) :  -0.1465
B(  2-C , 12-H ) :   1.0136 B(  3-C ,  4-C ) :  -0.1138 B(  3-C ,  5-C ) :   1.1198
B(  3-C ,  9-C ) :  -0.2749 B(  3-C , 11-H ) :  -0.1465 B(  3-C , 13-H ) :   1.0136
B(  4-C ,  5-C ) :   0.9318 B(  4-C ,  6-C ) :  -0.2575 B(  4-C ,  8-C ) :   0.6835
B(  4-C ,  9-C ) :  -0.1248 B(  5-C ,  7-C ) :  -0.2575 B(  5-C ,  8-C ) :  -0.1248
B(  5-C ,  9-C ) :   0.6835 B(  6-C ,  8-C ) :   1.8390 B(  6-C , 14-H ) :   1.0182
B(  6-C , 15-H ) :   0.9030 B(  7-C ,  9-C ) :   1.8390 B(  7-C , 16-H ) :   1.0182
B(  7-C , 17-H ) :   0.9030 B(  8-C , 14-H ) :  -0.1198 B(  8-C , 18-H ) :   0.8744
B(  9-C , 16-H ) :  -0.1198 B(  9-C , 19-H ) :   0.8744

MP2 TOTAL ENERGY:     -386.314748100 Eh
FINAL SINGLE POINT ENERGY      -386.314748099630

DIPOLE MOMENT
-------------
                                X             Y             Z
Electronic contribution:      0.00000       0.00000       2.69077
Nuclear contribution   :      0.00000      -0.00000      -2.66414
                        -----------------------------------------
Total Dipole Moment    :      0.00000       0.00000       0.02662
                        -----------------------------------------
Magnitude (a.u.)       :      0.02662
Magnitude (Debye)      :      0.06767

Rotational constants in cm-1:     0.053300     0.046825     0.025288
Rotational constants in MHz :  1597.886808  1403.784062   758.110773

                             ****ORCA TERMINATED NORMALLY****
TOTAL RUN TIME: 0 days 1 hours 35 minutes 49 seconds 818 msec
