                         Program Version 5.0.4 -  RELEASE  -
|  1> !ri-mp2 aug-cc-pvqz aug-cc-pvqz/c tightscf
|  2> %pal nprocs 16 end
|  3>
|  4> * xyz 0 1
|  5> Cl   -1.920947    0.002248    0.086589
|  6> N    -0.262504    0.015809   -0.439109
|  7> N     0.411868   -1.174015   -0.049153
|  8> N     1.602483   -0.955892    0.169301
|  9> C     0.539461    1.153832    0.050933
| 10> C     1.913135    0.495408    0.023525
| 11> H     0.436411    1.995512   -0.626647
| 12> H     0.234666    1.446107    1.058692
| 13> H     2.588289    0.800194    0.817850
| 14> H     2.418220    0.623228   -0.935934
| 15> *
| 16>
| 17>                          ****END OF INPUT****

CARTESIAN COORDINATES (ANGSTROEM)
---------------------------------
  Cl    -1.920947    0.002248    0.086589
  N     -0.262504    0.015809   -0.439109
  N      0.411868   -1.174015   -0.049153
  N      1.602483   -0.955892    0.169301
  C      0.539461    1.153832    0.050933
  C      1.913135    0.495408    0.023525
  H      0.436411    1.995512   -0.626647
  H      0.234666    1.446107    1.058692
  H      2.588289    0.800194    0.817850
  H      2.418220    0.623228   -0.935934

 Total Charge           Charge          ....    0
 Multiplicity           Mult            ....    1
 Number of Electrons    NEL             ....   54
 Basis Dimension        Dim             ....  668

ORBITAL ENERGIES
----------------

  NO   OCC          E(Eh)            E(eV)
   0   2.0000    -104.869939     -2853.6561
   1   2.0000     -15.679169      -426.6519
   2   2.0000     -15.664282      -426.2468
   3   2.0000     -15.633650      -425.4133
   4   2.0000     -11.292673      -307.2893
   5   2.0000     -11.287743      -307.1551
   6   2.0000     -10.592346      -288.2324
   7   2.0000      -8.059517      -219.3106
   8   2.0000      -8.057242      -219.2487
   9   2.0000      -8.057049      -219.2435
  10   2.0000      -1.443628       -39.2831
  11   2.0000      -1.242914       -33.8214
  12   2.0000      -1.094240       -29.7758
  13   2.0000      -1.049407       -28.5558
  14   2.0000      -0.885106       -24.0850
  15   2.0000      -0.811345       -22.0778
  16   2.0000      -0.713552       -19.4167
  17   2.0000      -0.703163       -19.1340
  18   2.0000      -0.641095       -17.4451
  19   2.0000      -0.591480       -16.0950
  20   2.0000      -0.569490       -15.4966
  21   2.0000      -0.564479       -15.3603
  22   2.0000      -0.539155       -14.6712
  23   2.0000      -0.482411       -13.1271
  24   2.0000      -0.476470       -12.9654
  25   2.0000      -0.428538       -11.6611
  26   2.0000      -0.390992       -10.6394
  27   0.0000       0.021659         0.5894
  28   0.0000       0.032900         0.8952
  29   0.0000       0.035295         0.9604
  30   0.0000       0.047958         1.3050
  31   0.0000       0.061020         1.6605

MULLIKEN ATOMIC CHARGES
-----------------------
   0 Cl:   -0.012302
   1 N :   -0.204658
   2 N :   -0.084159
   3 N :   -0.282941
   4 C :   -0.368787
   5 C :   -0.381672
   6 H :    0.375744
   7 H :    0.311680
   8 H :    0.383015
   9 H :    0.264080
Sum of atomic charges:   -0.0000000

LOEWDIN ATOMIC CHARGES
----------------------
   0 Cl:    0.934584
   1 N :   -0.479517
   2 N :    0.047115
   3 N :    0.317309
   4 C :    0.156326
   5 C :    0.255708
   6 H :   -0.302113
   7 H :   -0.325492
   8 H :   -0.302356
   9 H :   -0.301564

  Mayer bond orders larger than 0.100000
B(  0-Cl,  1-N ) :   0.9629 B(  1-N ,  2-N ) :   0.8273 B(  1-N ,  4-C ) :   0.8356
B(  2-N ,  3-N ) :   1.6952 B(  3-N ,  5-C ) :   0.8061 B(  4-C ,  5-C ) :   1.1202
B(  4-C ,  6-H ) :   0.8252 B(  4-C ,  7-H ) :   0.8615 B(  5-C ,  8-H ) :   0.8373
B(  5-C ,  9-H ) :   0.8941

MP2 TOTAL ENERGY:     -702.133566880 Eh
FINAL SINGLE POINT ENERGY      -702.133566879516

DIPOLE MOMENT
-------------
                                X             Y             Z
Electronic contribution:     -7.53443      -3.30480      -0.07028
Nuclear contribution   :      8.10736       4.66045       0.18088
                        -----------------------------------------
Total Dipole Moment    :      0.57293       1.35565       0.11059
                        -----------------------------------------
Magnitude (a.u.)       :      1.47590
Magnitude (Debye)      :      3.75143

Rotational constants in cm-1:     0.261951     0.071282     0.058573
Rotational constants in MHz :  7853.083929  2136.982819  1755.966831

                             ****ORCA TERMINATED NORMALLY****
TOTAL RUN TIME: 0 days 0 hours 12 minutes 27 seconds 771 msec
