                         Program Version 5.0.4 -  RELEASE  -
|  1> !ri-mp2 aug-cc-pvqz aug-cc-pvqz/c tightscf
|  2> %pal nprocs 16 end
|  3>
|  4> * xyz 0 1
|  5> C      0.000000    0.000000   -2.055605
|  6> C      0.000000    1.208669   -1.369465
|  7> C      0.000000    1.195102    0.013528
|  8> C      0.000000    0.000000    0.720519
|  9> C      0.000000   -1.195102    0.013528
| 10> C      0.000000   -1.208669   -1.369465
| 11> F      0.000000   -2.344755    0.704591
| 12> F      0.000000    0.000000    2.056059
| 13> F      0.000000    2.344755    0.704591
| 14> H      0.000000    0.000000   -3.135818
| 15> H      0.000000    2.157806   -1.884800
| 16> H      0.000000   -2.157806   -1.884800
| 17> *
| 18>
| 19>                          ****END OF INPUT****

CARTESIAN COORDINATES (ANGSTROEM)
---------------------------------
  C      0.000000    0.000000   -2.055605
  C      0.000000    1.208669   -1.369465
  C      0.000000    1.195102    0.013528
  C      0.000000    0.000000    0.720519
  C      0.000000   -1.195102    0.013528
  C      0.000000   -1.208669   -1.369465
  F      0.000000   -2.344755    0.704591
  F      0.000000    0.000000    2.056059
  F      0.000000    2.344755    0.704591
  H      0.000000    0.000000   -3.135818
  H      0.000000    2.157806   -1.884800
  H      0.000000   -2.157806   -1.884800

 Total Charge           Charge          ....    0
 Multiplicity           Mult            ....    1
 Number of Electrons    NEL             ....   66
 Basis Dimension        Dim             ....  858

ORBITAL ENERGIES
----------------

  NO   OCC          E(Eh)            E(eV)
   0   2.0000     -26.330812      -716.4978
   1   2.0000     -26.329294      -716.4565
   2   2.0000     -26.329294      -716.4565
   3   2.0000     -11.356137      -309.0162
   4   2.0000     -11.355947      -309.0110
   5   2.0000     -11.352026      -308.9043
   6   2.0000     -11.271141      -306.7033
   7   2.0000     -11.264206      -306.5146
   8   2.0000     -11.264080      -306.5112
   9   2.0000      -1.659763       -45.1644
  10   2.0000      -1.648660       -44.8623
  11   2.0000      -1.639850       -44.6226
  12   2.0000      -1.194396       -32.5012
  13   2.0000      -1.054400       -28.6917
  14   2.0000      -1.054341       -28.6901
  15   2.0000      -0.895304       -24.3625
  16   2.0000      -0.888056       -24.1652
  17   2.0000      -0.793288       -21.5865
  18   2.0000      -0.778746       -21.1907
  19   2.0000      -0.768561       -20.9136
  20   2.0000      -0.737078       -20.0569
  21   2.0000      -0.712071       -19.3764
  22   2.0000      -0.707155       -19.2427
  23   2.0000      -0.698476       -19.0065
  24   2.0000      -0.685465       -18.6524
  25   2.0000      -0.674381       -18.3508
  26   2.0000      -0.669729       -18.2243
  27   2.0000      -0.601667       -16.3722
  28   2.0000      -0.561457       -15.2780
  29   2.0000      -0.561280       -15.2732
  30   2.0000      -0.527252       -14.3473
  31   2.0000      -0.366430        -9.9711
  32   2.0000      -0.365048        -9.9335
  33   0.0000       0.021086         0.5738
  34   0.0000       0.028995         0.7890
  35   0.0000       0.036340         0.9888
  36   0.0000       0.056254         1.5308
  37   0.0000       0.063702         1.7334

MULLIKEN ATOMIC CHARGES
-----------------------
   0 C :   -0.458119
   1 C :   -0.459927
   2 C :    0.806667
   3 C :    0.811664
   4 C :    0.806640
   5 C :   -0.459909
   6 F :   -0.704455
   7 F :   -0.712304
   8 F :   -0.704454
   9 H :    0.201646
  10 H :    0.436271
  11 H :    0.436280
Sum of atomic charges:   -0.0000000

LOEWDIN ATOMIC CHARGES
----------------------
   0 C :    0.318648
   1 C :    0.292724
   2 C :   -0.742186
   3 C :   -0.782917
   4 C :   -0.742186
   5 C :    0.292724
   6 F :    0.782756
   7 F :    0.780469
   8 F :    0.782756
   9 H :   -0.320447
  10 H :   -0.331170
  11 H :   -0.331170

  Mayer bond orders larger than 0.100000
B(  0-C ,  1-C ) :   1.2243 B(  0-C ,  2-C ) :  -0.1572 B(  0-C ,  3-C ) :   0.1201
B(  0-C ,  4-C ) :  -0.1572 B(  0-C ,  5-C ) :   1.2244 B(  0-C ,  9-H ) :   1.1655
B(  1-C ,  2-C ) :   1.3141 B(  1-C ,  8-F ) :   0.1795 B(  1-C , 10-H ) :   0.8145
B(  2-C ,  3-C ) :   1.4889 B(  3-C ,  4-C ) :   1.4889 B(  4-C ,  5-C ) :   1.3141
B(  5-C ,  6-F ) :   0.1795 B(  5-C , 11-H ) :   0.8145

MP2 TOTAL ENERGY:     -529.289043498 Eh
FINAL SINGLE POINT ENERGY      -529.289043498414

DIPOLE MOMENT
-------------
                                X             Y             Z
Electronic contribution:     -0.00000       0.00000       8.33888
Nuclear contribution   :      0.00000       0.00000      -9.69188
                        -----------------------------------------
Total Dipole Moment    :     -0.00000       0.00000      -1.35300
                        -----------------------------------------
Magnitude (a.u.)       :      1.35300
Magnitude (Debye)      :      3.43906

Rotational constants in cm-1:     0.077508     0.058597     0.033369
Rotational constants in MHz :  2323.635132  1756.697837  1000.390126

                             ****ORCA TERMINATED NORMALLY****
TOTAL RUN TIME: 0 days 0 hours 27 minutes 38 seconds 719 msec
