                         Program Version 5.0.4 -  RELEASE  -
|  1> !ri-mp2 aug-cc-pvqz aug-cc-pvqz/c tightscf
|  2> %pal nprocs 16 end
|  3>
|  4> * xyz 0 1
|  5> S      0.104910   -0.330209    1.416746
|  6> S      0.104910   -0.330209   -1.416746
|  7> N     -0.487995   -1.151970    0.000000
|  8> C      0.104910    1.282613    0.665107
|  9> C      0.104910    1.282613   -0.665107
| 10> H      0.150997    2.157376    1.295596
| 11> H      0.150997    2.157376   -1.295596
| 12> H     -1.502056   -1.075624    0.000000
| 13> *
| 14>
| 15>                          ****END OF INPUT****

CARTESIAN COORDINATES (ANGSTROEM)
---------------------------------
  S      0.104910   -0.330209    1.416746
  S      0.104910   -0.330209   -1.416746
  N     -0.487995   -1.151970    0.000000
  C      0.104910    1.282613    0.665107
  C      0.104910    1.282613   -0.665107
  H      0.150997    2.157376    1.295596
  H      0.150997    2.157376   -1.295596
  H     -1.502056   -1.075624    0.000000

 Total Charge           Charge          ....    0
 Multiplicity           Mult            ....    1
 Number of Electrons    NEL             ....   54
 Basis Dimension        Dim             ....  546

ORBITAL ENERGIES
----------------

  NO   OCC          E(Eh)            E(eV)
   0   2.0000     -91.997869     -2503.3893
   1   2.0000     -91.997869     -2503.3893
   2   2.0000     -15.616721      -424.9526
   3   2.0000     -11.278009      -306.8902
   4   2.0000     -11.276259      -306.8426
   5   2.0000      -8.995994      -244.7934
   6   2.0000      -8.995986      -244.7932
   7   2.0000      -6.677355      -181.7001
   8   2.0000      -6.677355      -181.7001
   9   2.0000      -6.676315      -181.6718
  10   2.0000      -6.676308      -181.6716
  11   2.0000      -6.675250      -181.6428
  12   2.0000      -6.675248      -181.6427
  13   2.0000      -1.244404       -33.8620
  14   2.0000      -1.079289       -29.3689
  15   2.0000      -0.997513       -27.1437
  16   2.0000      -0.853169       -23.2159
  17   2.0000      -0.771120       -20.9833
  18   2.0000      -0.683588       -18.6014
  19   2.0000      -0.655857       -17.8468
  20   2.0000      -0.557360       -15.1665
  21   2.0000      -0.544215       -14.8088
  22   2.0000      -0.502840       -13.6830
  23   2.0000      -0.462832       -12.5943
  24   2.0000      -0.435045       -11.8382
  25   2.0000      -0.387716       -10.5503
  26   2.0000      -0.311153        -8.4669
  27   0.0000       0.024380         0.6634
  28   0.0000       0.032826         0.8932
  29   0.0000       0.035884         0.9765
  30   0.0000       0.054436         1.4813
  31   0.0000       0.062241         1.6937

MULLIKEN ATOMIC CHARGES
-----------------------
   0 S :    0.276033
   1 S :    0.276033
   2 N :   -0.619551
   3 C :   -0.551195
   4 C :   -0.551195
   5 H :    0.466998
   6 H :    0.466998
   7 H :    0.235879
Sum of atomic charges:    0.0000000

LOEWDIN ATOMIC CHARGES
----------------------
   0 S :    1.009958
   1 S :    1.009958
   2 N :    0.015742
   3 C :   -0.193147
   4 C :   -0.193147
   5 H :   -0.428232
   6 H :   -0.428232
   7 H :   -0.792900

  Mayer bond orders larger than 0.100000
B(  0-S ,  1-S ) :   0.1195 B(  0-S ,  2-N ) :   0.8716 B(  0-S ,  3-C ) :   0.9818
B(  1-S ,  2-N ) :   0.8716 B(  1-S ,  4-C ) :   0.9818 B(  2-N ,  7-H ) :   0.9223
B(  3-C ,  4-C ) :   1.6831 B(  3-C ,  5-H ) :   0.7688 B(  4-C ,  6-H ) :   0.7688

MP2 TOTAL ENERGY:     -927.968321782 Eh
FINAL SINGLE POINT ENERGY      -927.968321781669

DIPOLE MOMENT
-------------
                                X             Y             Z
Electronic contribution:      0.77096      -2.25237      -0.00000
Nuclear contribution   :     -1.16620       3.13655       0.00000
                        -----------------------------------------
Total Dipole Moment    :     -0.39524       0.88417      -0.00000
                        -----------------------------------------
Magnitude (a.u.)       :      0.96849
Magnitude (Debye)      :      2.46172

Rotational constants in cm-1:     0.205181     0.114253     0.076614
Rotational constants in MHz :  6151.174969  3425.231720  2296.822132

                             ****ORCA TERMINATED NORMALLY****
TOTAL RUN TIME: 0 days 0 hours 5 minutes 39 seconds 776 msec
