                         Program Version 5.0.4 -  RELEASE  -
|  1> !ri-mp2 aug-cc-pvqz aug-cc-pvqz/c tightscf
|  2> %pal nprocs 16 end
|  3>
|  4> * xyz 0 1
|  5> C     -1.612388    0.682359    0.140260
|  6> C     -1.488887   -0.779323    0.122520
|  7> C     -0.420753    1.265282   -0.005680
|  8> N     -0.318061   -1.288315   -0.012961
|  9> O      1.964766    0.007831    0.533864
| 10> S      0.794812   -0.007586   -0.382382
| 11> H     -2.559721    1.190971    0.248025
| 12> H     -2.350133   -1.435001    0.211100
| 13> H     -0.166681    2.311049   -0.063797
| 14> *
| 15>
| 16>                          ****END OF INPUT****

CARTESIAN COORDINATES (ANGSTROEM)
---------------------------------
  C     -1.612388    0.682359    0.140260
  C     -1.488887   -0.779323    0.122520
  C     -0.420753    1.265282   -0.005680
  N     -0.318061   -1.288315   -0.012961
  O      1.964766    0.007831    0.533864
  S      0.794812   -0.007586   -0.382382
  H     -2.559721    1.190971    0.248025
  H     -2.350133   -1.435001    0.211100
  H     -0.166681    2.311049   -0.063797

 Total Charge           Charge          ....    0
 Multiplicity           Mult            ....    1
 Number of Electrons    NEL             ....   52
 Basis Dimension        Dim             ....  622

ORBITAL ENERGIES
----------------

  NO   OCC          E(Eh)            E(eV)
   0   2.0000     -92.105609     -2506.3210
   1   2.0000     -20.530530      -558.6641
   2   2.0000     -15.606794      -424.6825
   3   2.0000     -11.329502      -308.2914
   4   2.0000     -11.300541      -307.5034
   5   2.0000     -11.289643      -307.2068
   6   2.0000      -9.089148      -247.3283
   7   2.0000      -6.771363      -184.2582
   8   2.0000      -6.771023      -184.2489
   9   2.0000      -6.769507      -184.2076
  10   2.0000      -1.369539       -37.2671
  11   2.0000      -1.275983       -34.7213
  12   2.0000      -1.099042       -29.9065
  13   2.0000      -0.986879       -26.8544
  14   2.0000      -0.823123       -22.3983
  15   2.0000      -0.800064       -21.7708
  16   2.0000      -0.731401       -19.9024
  17   2.0000      -0.632011       -17.1979
  18   2.0000      -0.628075       -17.0908
  19   2.0000      -0.605970       -16.4893
  20   2.0000      -0.588950       -16.0262
  21   2.0000      -0.509921       -13.8757
  22   2.0000      -0.496061       -13.4985
  23   2.0000      -0.445493       -12.1225
  24   2.0000      -0.405051       -11.0220
  25   2.0000      -0.385671       -10.4946
  26   0.0000       0.015077         0.4103
  27   0.0000       0.025463         0.6929
  28   0.0000       0.029850         0.8123
  29   0.0000       0.036393         0.9903
  30   0.0000       0.057007         1.5512

MULLIKEN ATOMIC CHARGES
-----------------------
   0 C :   -0.445620
   1 C :   -0.164549
   2 C :   -0.567016
   3 N :   -0.571346
   4 O :   -1.077003
   5 S :    1.334083
   6 H :    0.513252
   7 H :    0.530625
   8 H :    0.447573
Sum of atomic charges:   -0.0000000

LOEWDIN ATOMIC CHARGES
----------------------
   0 C :    0.239408
   1 C :   -0.095071
   2 C :    0.144376
   3 N :    0.309328
   4 O :    0.036733
   5 S :    0.412819
   6 H :   -0.329174
   7 H :   -0.349096
   8 H :   -0.369325

  Mayer bond orders larger than 0.100000
B(  0-C ,  1-C ) :   1.0675 B(  0-C ,  2-C ) :   1.5864 B(  0-C ,  6-H ) :   0.7319
B(  1-C ,  3-N ) :   1.7322 B(  1-C ,  7-H ) :   0.7582 B(  2-C ,  5-S ) :   0.9969
B(  2-C ,  8-H ) :   0.8349 B(  3-N ,  5-S ) :   0.8761 B(  4-O ,  5-S ) :   1.3544

MP2 TOTAL ENERGY:     -643.396754446 Eh
FINAL SINGLE POINT ENERGY      -643.396754445927

DIPOLE MOMENT
-------------
                                X             Y             Z
Electronic contribution:      2.72457      -1.04912      -0.83900
Nuclear contribution   :     -4.89825       1.98927       0.40124
                        -----------------------------------------
Total Dipole Moment    :     -2.17368       0.94015      -0.43777
                        -----------------------------------------
Magnitude (a.u.)       :      2.40840
Magnitude (Debye)      :      6.12167

Rotational constants in cm-1:     0.227860     0.102084     0.076772
Rotational constants in MHz :  6831.075740  3060.416284  2301.554644

                             ****ORCA TERMINATED NORMALLY****
TOTAL RUN TIME: 0 days 0 hours 9 minutes 44 seconds 216 msec
