                         Program Version 5.0.4 -  RELEASE  -
|  1> !ri-mp2 aug-cc-pvqz aug-cc-pvqz/c tightscf
|  2> %pal nprocs 16 end
|  3>
|  4> * xyz 0 1
|  5> C     -0.104320   -1.183383    1.206556
|  6> C     -0.104320   -1.183383   -1.206556
|  7> C     -0.104320    0.339172    1.204675
|  8> C     -0.104320    0.339172   -1.204675
|  9> C      0.628275    2.299249    0.000000
| 10> N     -0.769930   -1.666118    0.000000
| 11> N      0.541509    0.851074    0.000000
| 12> H      0.937429   -1.532481    1.281318
| 13> H     -0.646488   -1.547447    2.080373
| 14> H     -0.646488   -1.547447   -2.080373
| 15> H      0.937429   -1.532481   -1.281318
| 16> H     -1.145389    0.697953    1.285374
| 17> H      0.442711    0.708091    2.074318
| 18> H      0.442711    0.708091   -2.074318
| 19> H     -1.145389    0.697953   -1.285374
| 20> H      1.171992    2.637024    0.883042
| 21> H     -0.360624    2.789441    0.000000
| 22> H      1.171992    2.637024   -0.883042
| 23> H     -0.826919   -2.675387    0.000000
| 24> *
| 25>
| 26>                          ****END OF INPUT****

CARTESIAN COORDINATES (ANGSTROEM)
---------------------------------
  C     -0.104320   -1.183383    1.206556
  C     -0.104320   -1.183383   -1.206556
  C     -0.104320    0.339172    1.204675
  C     -0.104320    0.339172   -1.204675
  C      0.628275    2.299249    0.000000
  N     -0.769930   -1.666118    0.000000
  N      0.541509    0.851074    0.000000
  H      0.937429   -1.532481    1.281318
  H     -0.646488   -1.547447    2.080373
  H     -0.646488   -1.547447   -2.080373
  H      0.937429   -1.532481   -1.281318
  H     -1.145389    0.697953    1.285374
  H      0.442711    0.708091    2.074318
  H      0.442711    0.708091   -2.074318
  H     -1.145389    0.697953   -1.285374
  H      1.171992    2.637024    0.883042
  H     -0.360624    2.789441    0.000000
  H      1.171992    2.637024   -0.883042
  H     -0.826919   -2.675387    0.000000

 Total Charge           Charge          ....    0
 Multiplicity           Mult            ....    1
 Number of Electrons    NEL             ....   56
 Basis Dimension        Dim             .... 1112

ORBITAL ENERGIES
----------------

  NO   OCC          E(Eh)            E(eV)
   0   2.0000     -15.539727      -422.8575
   1   2.0000     -15.536533      -422.7706
   2   2.0000     -11.241728      -305.9030
   3   2.0000     -11.241712      -305.9025
   4   2.0000     -11.240030      -305.8568
   5   2.0000     -11.240018      -305.8564
   6   2.0000     -11.237370      -305.7844
   7   2.0000      -1.243758       -33.8444
   8   2.0000      -1.182534       -32.1784
   9   2.0000      -1.021486       -27.7960
  10   2.0000      -0.962784       -26.1987
  11   2.0000      -0.858587       -23.3633
  12   2.0000      -0.856471       -23.3057
  13   2.0000      -0.755621       -20.5615
  14   2.0000      -0.688970       -18.7478
  15   2.0000      -0.632919       -17.2226
  16   2.0000      -0.625332       -17.0161
  17   2.0000      -0.606604       -16.5065
  18   2.0000      -0.603360       -16.4182
  19   2.0000      -0.578924       -15.7533
  20   2.0000      -0.543140       -14.7796
  21   2.0000      -0.527428       -14.3520
  22   2.0000      -0.512421       -13.9437
  23   2.0000      -0.489977       -13.3330
  24   2.0000      -0.467161       -12.7121
  25   2.0000      -0.459338       -12.4992
  26   2.0000      -0.368214       -10.0196
  27   2.0000      -0.350546        -9.5388
  28   0.0000       0.026340         0.7168
  29   0.0000       0.031157         0.8478
  30   0.0000       0.031992         0.8706
  31   0.0000       0.035882         0.9764
  32   0.0000       0.046751         1.2722

MULLIKEN ATOMIC CHARGES
-----------------------
   0 C :   -0.375550
   1 C :   -0.375543
   2 C :   -0.359807
   3 C :   -0.359819
   4 C :   -0.917610
   5 N :   -0.515875
   6 N :   -0.199750
   7 H :    0.191687
   8 H :    0.328516
   9 H :    0.328505
  10 H :    0.191696
  11 H :    0.233759
  12 H :    0.321188
  13 H :    0.321195
  14 H :    0.233765
  15 H :    0.287883
  16 H :    0.267428
  17 H :    0.287885
  18 H :    0.110445
Sum of atomic charges:    0.0000000

LOEWDIN ATOMIC CHARGES
----------------------
   0 C :    0.363448
   1 C :    0.363448
   2 C :    0.327816
   3 C :    0.327816
   4 C :    0.743481
   5 N :    0.908773
   6 N :    0.498110
   7 H :   -0.263532
   8 H :   -0.279369
   9 H :   -0.279369
  10 H :   -0.263532
  11 H :   -0.259313
  12 H :   -0.285226
  13 H :   -0.285226
  14 H :   -0.259313
  15 H :   -0.294878
  16 H :   -0.267343
  17 H :   -0.294878
  18 H :   -0.500912

  Mayer bond orders larger than 0.100000
B(  0-C ,  2-C ) :   1.0314 B(  0-C ,  5-N ) :   0.8493 B(  0-C ,  7-H ) :   0.9898
B(  0-C ,  8-H ) :   0.8927 B(  1-C ,  3-C ) :   1.0314 B(  1-C ,  5-N ) :   0.8493
B(  1-C ,  9-H ) :   0.8928 B(  1-C , 10-H ) :   0.9898 B(  2-C ,  6-N ) :   0.7885
B(  2-C , 11-H ) :   0.9247 B(  2-C , 12-H ) :   0.8753 B(  3-C ,  6-N ) :   0.7885
B(  3-C , 13-H ) :   0.8753 B(  3-C , 14-H ) :   0.9247 B(  4-C ,  6-N ) :   0.9078
B(  4-C , 15-H ) :   0.9593 B(  4-C , 16-H ) :   0.9633 B(  4-C , 17-H ) :   0.9593
B(  5-N , 18-H ) :   1.0176

MP2 TOTAL ENERGY:     -306.705968870 Eh
FINAL SINGLE POINT ENERGY      -306.705968869907

DIPOLE MOMENT
-------------
                                X             Y             Z
Electronic contribution:     -0.25024      -2.25814      -0.00000
Nuclear contribution   :      0.34821       2.13731      -0.00000
                        -----------------------------------------
Total Dipole Moment    :      0.09797      -0.12083      -0.00000
                        -----------------------------------------
Magnitude (a.u.)       :      0.15556
Magnitude (Debye)      :      0.39540

Rotational constants in cm-1:     0.155379     0.077887     0.056412
Rotational constants in MHz :  4658.156969  2334.994416  1691.177233

                             ****ORCA TERMINATED NORMALLY****
TOTAL RUN TIME: 0 days 0 hours 53 minutes 50 seconds 53 msec
