                         Program Version 5.0.4 -  RELEASE  -
|  1> !ri-mp2 aug-cc-pvqz aug-cc-pvqz/c tightscf
|  2> %pal nprocs 16 end
|  3>
|  4> * xyz 0 1
|  5> S     -1.169858   -1.011282    0.175331
|  6> S     -1.142550    1.044339   -0.322638
|  7> N      0.518150   -1.217936   -0.077229
|  8> N      2.527323   -0.088722   -0.233399
|  9> C      1.295329   -0.062239    0.065703
| 10> C      0.478211    1.133537    0.539987
| 11> H      0.785257   -1.791625   -0.865407
| 12> H      2.962650    0.821413   -0.123246
| 13> H      0.970963    2.062828    0.267287
| 14> H      0.320110    1.097290    1.618539
| 15> *
| 16>
| 17>                          ****END OF INPUT****

CARTESIAN COORDINATES (ANGSTROEM)
---------------------------------
  S     -1.169858   -1.011282    0.175331
  S     -1.142550    1.044339   -0.322638
  N      0.518150   -1.217936   -0.077229
  N      2.527323   -0.088722   -0.233399
  C      1.295329   -0.062239    0.065703
  C      0.478211    1.133537    0.539987
  H      0.785257   -1.791625   -0.865407
  H      2.962650    0.821413   -0.123246
  H      0.970963    2.062828    0.267287
  H      0.320110    1.097290    1.618539

 Total Charge           Charge          ....    0
 Multiplicity           Mult            ....    1
 Number of Electrons    NEL             ....   62
 Basis Dimension        Dim             ....  672

ORBITAL ENERGIES
----------------

  NO   OCC          E(Eh)            E(eV)
   0   2.0000     -92.019532     -2503.9788
   1   2.0000     -91.994435     -2503.2958
   2   2.0000     -15.607086      -424.6904
   3   2.0000     -15.547184      -423.0604
   4   2.0000     -11.341292      -308.6123
   5   2.0000     -11.296057      -307.3813
   6   2.0000      -9.015840      -245.3335
   7   2.0000      -8.994154      -244.7434
   8   2.0000      -6.696904      -182.2320
   9   2.0000      -6.695926      -182.2054
  10   2.0000      -6.694421      -182.1645
  11   2.0000      -6.675136      -181.6397
  12   2.0000      -6.674405      -181.6198
  13   2.0000      -6.673140      -181.5854
  14   2.0000      -1.296111       -35.2690
  15   2.0000      -1.182348       -32.1733
  16   2.0000      -1.076810       -29.3015
  17   2.0000      -0.972574       -26.4651
  18   2.0000      -0.849063       -23.1042
  19   2.0000      -0.802226       -21.8297
  20   2.0000      -0.699207       -19.0264
  21   2.0000      -0.664817       -18.0906
  22   2.0000      -0.615615       -16.7517
  23   2.0000      -0.590596       -16.0709
  24   2.0000      -0.562389       -15.3034
  25   2.0000      -0.518444       -14.1076
  26   2.0000      -0.464923       -12.6512
  27   2.0000      -0.459686       -12.5087
  28   2.0000      -0.421706       -11.4752
  29   2.0000      -0.384628       -10.4663
  30   2.0000      -0.338791        -9.2190
  31   0.0000       0.023920         0.6509
  32   0.0000       0.034468         0.9379
  33   0.0000       0.037228         1.0130
  34   0.0000       0.040794         1.1101
  35   0.0000       0.052343         1.4243

MULLIKEN ATOMIC CHARGES
-----------------------
   0 S :    0.141085
   1 S :   -0.122120
   2 N :   -0.569213
   3 N :   -0.800260
   4 C :    0.482967
   5 C :   -0.402719
   6 H :    0.338152
   7 H :    0.316828
   8 H :    0.333655
   9 H :    0.281626
Sum of atomic charges:   -0.0000000

LOEWDIN ATOMIC CHARGES
----------------------
   0 S :    0.682437
   1 S :    0.811679
   2 N :    0.317499
   3 N :    0.975057
   4 C :   -0.706567
   5 C :    0.009912
   6 H :   -0.637529
   7 H :   -0.690089
   8 H :   -0.391235
   9 H :   -0.371164

  Mayer bond orders larger than 0.100000
B(  0-S ,  1-S ) :   1.0930 B(  0-S ,  2-N ) :   0.8980 B(  1-S ,  5-C ) :   0.9749
B(  2-N ,  4-C ) :   1.0369 B(  2-N ,  6-H ) :   0.8649 B(  3-N ,  4-C ) :   1.6730
B(  3-N ,  7-H ) :   0.8010 B(  4-C ,  5-C ) :   0.8952 B(  5-C ,  8-H ) :   0.8553
B(  5-C ,  9-H ) :   0.8872

MP2 TOTAL ENERGY:     -983.276895188 Eh
FINAL SINGLE POINT ENERGY      -983.276895187584

DIPOLE MOMENT
-------------
                                X             Y             Z
Electronic contribution:     -5.11708      -1.46697      -0.71620
Nuclear contribution   :      4.96831       2.11321       0.87184
                        -----------------------------------------
Total Dipole Moment    :     -0.14876       0.64624       0.15563
                        -----------------------------------------
Magnitude (a.u.)       :      0.68116
Magnitude (Debye)      :      1.73136

Rotational constants in cm-1:     0.134239     0.075143     0.051742
Rotational constants in MHz :  4024.388307  2252.718280  1551.173952

                             ****ORCA TERMINATED NORMALLY****
TOTAL RUN TIME: 0 days 0 hours 10 minutes 46 seconds 364 msec
