                         Program Version 5.0.4 -  RELEASE  -
|  1> !ri-mp2 aug-cc-pvqz aug-cc-pvqz/c tightscf
|  2> %pal nprocs 16 end
|  3>
|  4> * xyz 0 1
|  5> Cl   -2.745853    0.000000   -0.458741
|  6> N    -0.811909   -0.000003    1.816306
|  7> N     2.136126    2.181527   -0.641085
|  8> N     2.136127   -2.181525   -0.641088
|  9> C    -0.235309    0.000000    0.701571
| 10> C     1.323138    0.000000    0.550801
| 11> C    -0.970811    0.000001   -0.614246
| 12> C     1.796864    1.210768   -0.129504
| 13> C     1.796865   -1.210767   -0.129506
| 14> H    -0.172445   -0.000004    2.608644
| 15> H     1.744862   -0.000001    1.558684
| 16> H    -0.689901    0.880301   -1.191176
| 17> H    -0.689901   -0.880298   -1.191179
| 18> *
| 19>
| 20>                          ****END OF INPUT****

CARTESIAN COORDINATES (ANGSTROEM)
---------------------------------
  Cl    -2.745853    0.000000   -0.458741
  N     -0.811909   -0.000003    1.816306
  N      2.136126    2.181527   -0.641085
  N      2.136127   -2.181525   -0.641088
  C     -0.235309    0.000000    0.701571
  C      1.323138    0.000000    0.550801
  C     -0.970811    0.000001   -0.614246
  C      1.796864    1.210768   -0.129504
  C      1.796865   -1.210767   -0.129506
  H     -0.172445   -0.000004    2.608644
  H      1.744862   -0.000001    1.558684
  H     -0.689901    0.880301   -1.191176
  H     -0.689901   -0.880298   -1.191179

 Total Charge           Charge          ....    0
 Multiplicity           Mult            ....    1
 Number of Electrons    NEL             ....   72
 Basis Dimension        Dim             ....  908

ORBITAL ENERGIES
----------------

  NO   OCC          E(Eh)            E(eV)
   0   2.0000    -104.844591     -2852.9664
   1   2.0000     -15.620133      -425.0454
   2   2.0000     -15.620133      -425.0454
   3   2.0000     -15.606831      -424.6835
   4   2.0000     -11.383299      -309.7553
   5   2.0000     -11.360556      -309.1365
   6   2.0000     -11.330962      -308.3312
   7   2.0000     -11.322726      -308.1070
   8   2.0000     -11.322717      -308.1068
   9   2.0000     -10.569667      -287.6153
  10   2.0000      -8.036787      -218.6921
  11   2.0000      -8.034930      -218.6416
  12   2.0000      -8.034908      -218.6410
  13   2.0000      -1.297791       -35.3147
  14   2.0000      -1.270534       -34.5730
  15   2.0000      -1.265402       -34.4333
  16   2.0000      -1.152753       -31.3680
  17   2.0000      -1.132874       -30.8271
  18   2.0000      -0.988825       -26.9073
  19   2.0000      -0.820323       -22.3221
  20   2.0000      -0.817554       -22.2468
  21   2.0000      -0.764599       -20.8058
  22   2.0000      -0.730998       -19.8915
  23   2.0000      -0.667229       -18.1562
  24   2.0000      -0.643049       -17.4983
  25   2.0000      -0.608356       -16.5542
  26   2.0000      -0.603274       -16.4159
  27   2.0000      -0.568626       -15.4731
  28   2.0000      -0.540208       -14.6998
  29   2.0000      -0.526870       -14.3369
  30   2.0000      -0.511980       -13.9317
  31   2.0000      -0.511287       -13.9128
  32   2.0000      -0.492443       -13.4000
  33   2.0000      -0.465936       -12.6788
  34   2.0000      -0.455434       -12.3930
  35   2.0000      -0.453203       -12.3323
  36   0.0000       0.012568         0.3420
  37   0.0000       0.032683         0.8894
  38   0.0000       0.035762         0.9731
  39   0.0000       0.040248         1.0952
  40   0.0000       0.055706         1.5158

MULLIKEN ATOMIC CHARGES
-----------------------
   0 Cl:   -0.337086
   1 N :   -0.843321
   2 N :   -0.659965
   3 N :   -0.659966
   4 C :    0.620681
   5 C :   -0.048553
   6 C :   -0.247137
   7 C :    0.448350
   8 C :    0.448349
   9 H :    0.289522
  10 H :    0.388700
  11 H :    0.300214
  12 H :    0.300214
Sum of atomic charges:    0.0000000

LOEWDIN ATOMIC CHARGES
----------------------
   0 Cl:    1.184095
   1 N :    0.994366
   2 N :    0.461099
   3 N :    0.461099
   4 C :   -0.417346
   5 C :   -0.064083
   6 C :   -0.210757
   7 C :   -0.286737
   8 C :   -0.286737
   9 H :   -0.643917
  10 H :   -0.362931
  11 H :   -0.414076
  12 H :   -0.414075

  Mayer bond orders larger than 0.100000
B(  0-Cl,  4-C ) :  -0.1637 B(  0-Cl,  6-C ) :   0.7887 B(  1-N ,  4-C ) :   1.4005
B(  1-N ,  9-H ) :   0.8582 B(  2-N ,  7-C ) :   2.4149 B(  3-N ,  8-C ) :   2.4149
B(  4-C ,  5-C ) :   0.8396 B(  4-C ,  6-C ) :   0.8094 B(  5-C ,  7-C ) :   1.0720
B(  5-C ,  8-C ) :   1.0720 B(  5-C , 10-H ) :   0.7760 B(  6-C , 11-H ) :   0.8553
B(  6-C , 12-H ) :   0.8553 B(  7-C ,  8-C ) :  -0.1278

MP2 TOTAL ENERGY:     -816.294021238 Eh
FINAL SINGLE POINT ENERGY      -816.294021237641

DIPOLE MOMENT
-------------
                                X             Y             Z
Electronic contribution:     -3.59355       0.00000      -1.38701
Nuclear contribution   :      3.95583      -0.00000       2.33494
                        -----------------------------------------
Total Dipole Moment    :      0.36228      -0.00000       0.94793
                        -----------------------------------------
Magnitude (a.u.)       :      1.01480
Magnitude (Debye)      :      2.57942

Rotational constants in cm-1:     0.064370     0.027605     0.024467
Rotational constants in MHz :  1929.757856   827.568463   733.510039

                             ****ORCA TERMINATED NORMALLY****
TOTAL RUN TIME: 0 days 0 hours 31 minutes 10 seconds 33 msec
