                         Program Version 5.0.4 -  RELEASE  -
|  1> !ri-mp2 aug-cc-pvqz aug-cc-pvqz/c tightscf
|  2> %pal nprocs 16 end
|  3>
|  4> * xyz 0 1
|  5> C     1.494187     0.000000    0.000000
|  6> C    -1.494187     0.000000    0.000000
|  7> C    -0.664224     1.251037    0.000000
|  8> C     0.664224     1.251037    0.000000
|  9> C    -0.664224    -1.251037    0.000000
| 10> C     0.664224    -1.251037    0.000000
| 11> H     1.198840    -2.194197    0.000000
| 12> H    -1.198840    -2.194197    0.000000
| 13> H     1.198840     2.194197    0.000000
| 14> H    -1.198840     2.194197    0.000000
| 15> H     2.167593     0.000000    0.866807
| 16> H    -2.167593     0.000000    0.866807
| 17> H     2.167593     0.000000   -0.866807
| 18> H    -2.167593     0.000000   -0.866807
| 19> *
| 20>
| 21>                          ****END OF INPUT****

CARTESIAN COORDINATES (ANGSTROEM)
---------------------------------
  C      1.494187    0.000000    0.000000
  C     -1.494187    0.000000    0.000000
  C     -0.664224    1.251037    0.000000
  C      0.664224    1.251037    0.000000
  C     -0.664224   -1.251037    0.000000
  C      0.664224   -1.251037    0.000000
  H      1.198840   -2.194197    0.000000
  H     -1.198840   -2.194197    0.000000
  H      1.198840    2.194197    0.000000
  H     -1.198840    2.194197    0.000000
  H      2.167593    0.000000    0.866807
  H     -2.167593    0.000000    0.866807
  H      2.167593    0.000000   -0.866807
  H     -2.167593    0.000000   -0.866807

 Total Charge           Charge          ....    0
 Multiplicity           Mult            ....    1
 Number of Electrons    NEL             ....   44
 Basis Dimension        Dim             ....  848

ORBITAL ENERGIES
----------------

  NO   OCC          E(Eh)            E(eV)
   0   2.0000     -11.227899      -305.5267
   1   2.0000     -11.227898      -305.5266
   2   2.0000     -11.222806      -305.3881
   3   2.0000     -11.222745      -305.3864
   4   2.0000     -11.221026      -305.3396
   5   2.0000     -11.220990      -305.3387
   6   2.0000      -1.125506       -30.6266
   7   2.0000      -1.012025       -27.5386
   8   2.0000      -1.005419       -27.3589
   9   2.0000      -0.864307       -23.5190
  10   2.0000      -0.786151       -21.3922
  11   2.0000      -0.683035       -18.5863
  12   2.0000      -0.655484       -17.8366
  13   2.0000      -0.603228       -16.4147
  14   2.0000      -0.596973       -16.2445
  15   2.0000      -0.565342       -15.3837
  16   2.0000      -0.562270       -15.3001
  17   2.0000      -0.533843       -14.5266
  18   2.0000      -0.495586       -13.4856
  19   2.0000      -0.447671       -12.1817
  20   2.0000      -0.362988        -9.8774
  21   2.0000      -0.333634        -9.0786
  22   0.0000       0.026899         0.7320
  23   0.0000       0.031253         0.8504
  24   0.0000       0.031902         0.8681
  25   0.0000       0.039625         1.0783
  26   0.0000       0.042796         1.1645

MULLIKEN ATOMIC CHARGES
-----------------------
   0 C :   -0.275886
   1 C :   -0.275886
   2 C :   -0.356434
   3 C :   -0.356434
   4 C :   -0.356434
   5 C :   -0.356434
   6 H :    0.306214
   7 H :    0.306214
   8 H :    0.306214
   9 H :    0.306214
  10 H :    0.188163
  11 H :    0.188163
  12 H :    0.188163
  13 H :    0.188163
Sum of atomic charges:    0.0000000

LOEWDIN ATOMIC CHARGES
----------------------
   0 C :    0.456886
   1 C :    0.456886
   2 C :    0.380683
   3 C :    0.380683
   4 C :    0.380683
   5 C :    0.380683
   6 H :   -0.320050
   7 H :   -0.320050
   8 H :   -0.320050
   9 H :   -0.320050
  10 H :   -0.289076
  11 H :   -0.289076
  12 H :   -0.289076
  13 H :   -0.289076

  Mayer bond orders larger than 0.100000
B(  0-C ,  3-C ) :   0.7831 B(  0-C ,  5-C ) :   0.7831 B(  0-C , 10-H ) :   0.9990
B(  0-C , 12-H ) :   0.9990 B(  1-C ,  2-C ) :   0.7831 B(  1-C ,  4-C ) :   0.7831
B(  1-C , 11-H ) :   0.9990 B(  1-C , 13-H ) :   0.9990 B(  2-C ,  3-C ) :   1.5554
B(  2-C ,  8-H ) :  -0.1173 B(  2-C ,  9-H ) :   1.0027 B(  3-C ,  8-H ) :   1.0027
B(  3-C ,  9-H ) :  -0.1173 B(  4-C ,  5-C ) :   1.5554 B(  4-C ,  6-H ) :  -0.1173
B(  4-C ,  7-H ) :   1.0027 B(  5-C ,  6-H ) :   1.0027 B(  5-C ,  7-H ) :  -0.1173

MP2 TOTAL ENERGY:     -232.967637785 Eh
FINAL SINGLE POINT ENERGY      -232.967637784811

DIPOLE MOMENT
-------------
                                X             Y             Z
Electronic contribution:     -0.00000       0.00000       0.00000
Nuclear contribution   :      0.00000       0.00000       0.00000
                        -----------------------------------------
Total Dipole Moment    :     -0.00000       0.00000       0.00000
                        -----------------------------------------
Magnitude (a.u.)       :      0.00000
Magnitude (Debye)      :      0.00000

Rotational constants in cm-1:     0.172660     0.164310     0.086818
Rotational constants in MHz :  5176.218446  4925.889006  2602.733719

                             ****ORCA TERMINATED NORMALLY****
TOTAL RUN TIME: 0 days 0 hours 25 minutes 12 seconds 470 msec
