                         Program Version 5.0.4 -  RELEASE  -
|  1> !ri-mp2 aug-cc-pvqz aug-cc-pvqz/c tightscf
|  2> %pal nprocs 16 end
|  3>
|  4> * xyz 0 1
|  5> C      0.100732   -1.751447        0.000000
|  6> C     -1.100249   -1.123375        0.000000
|  7> C      1.230486    0.248996        0.000000
|  8> C      0.000000    1.043061        0.000000
|  9> N      1.273925   -1.045277        0.000000
| 10> N     -1.140617    0.238051        0.000000
| 11> O     -0.072478    2.260456        0.000000
| 12> H      0.169795   -2.828181        0.000000
| 13> H     -2.046117   -1.644386        0.000000
| 14> H      2.160066    0.806767        0.000000
| 15> H     -2.022892    0.729333        0.000000
| 16> *
| 17>
| 18>                          ****END OF INPUT****

CARTESIAN COORDINATES (ANGSTROEM)
---------------------------------
  C      0.100732   -1.751447    0.000000
  C     -1.100249   -1.123375    0.000000
  C      1.230486    0.248996    0.000000
  C      0.000000    1.043061    0.000000
  N      1.273925   -1.045277    0.000000
  N     -1.140617    0.238051    0.000000
  O     -0.072478    2.260456    0.000000
  H      0.169795   -2.828181    0.000000
  H     -2.046117   -1.644386    0.000000
  H      2.160066    0.806767    0.000000
  H     -2.022892    0.729333    0.000000

 Total Charge           Charge          ....    0
 Multiplicity           Mult            ....    1
 Number of Electrons    NEL             ....   50
 Basis Dimension        Dim             ....  744

ORBITAL ENERGIES
----------------

  NO   OCC          E(Eh)            E(eV)
   0   2.0000     -20.531753      -558.6974
   1   2.0000     -15.640323      -425.5948
   2   2.0000     -15.604513      -424.6204
   3   2.0000     -11.371089      -309.4231
   4   2.0000     -11.314852      -307.8928
   5   2.0000     -11.293579      -307.3139
   6   2.0000     -11.272429      -306.7384
   7   2.0000      -1.401627       -38.1402
   8   2.0000      -1.311331       -35.6831
   9   2.0000      -1.246844       -33.9284
  10   2.0000      -1.054188       -28.6859
  11   2.0000      -0.934369       -25.4255
  12   2.0000      -0.894754       -24.3475
  13   2.0000      -0.777789       -21.1647
  14   2.0000      -0.739139       -20.1130
  15   2.0000      -0.682873       -18.5819
  16   2.0000      -0.650406       -17.6985
  17   2.0000      -0.631178       -17.1752
  18   2.0000      -0.630719       -17.1627
  19   2.0000      -0.582076       -15.8391
  20   2.0000      -0.512876       -13.9561
  21   2.0000      -0.489520       -13.3205
  22   2.0000      -0.481134       -13.0923
  23   2.0000      -0.421965       -11.4822
  24   2.0000      -0.330111        -8.9828
  25   0.0000       0.016064         0.4371
  26   0.0000       0.029641         0.8066
  27   0.0000       0.036081         0.9818
  28   0.0000       0.046242         1.2583
  29   0.0000       0.051147         1.3918

MULLIKEN ATOMIC CHARGES
-----------------------
   0 C :   -0.162980
   1 C :   -0.204171
   2 C :   -0.200613
   3 C :    1.000490
   4 N :   -0.604749
   5 N :   -0.510488
   6 O :   -0.810434
   7 H :    0.437089
   8 H :    0.464964
   9 H :    0.444427
  10 H :    0.146465
Sum of atomic charges:   -0.0000000

LOEWDIN ATOMIC CHARGES
----------------------
   0 C :    0.085370
   1 C :    0.207551
   2 C :    0.071188
   3 C :   -0.860980
   4 N :    0.577003
   5 N :    0.791886
   6 O :    0.661278
   7 H :   -0.372131
   8 H :   -0.307078
   9 H :   -0.368664
  10 H :   -0.485423

  Mayer bond orders larger than 0.100000
B(  0-C ,  1-C ) :   1.4586 B(  0-C ,  4-N ) :   0.9472 B(  0-C ,  7-H ) :   0.9094
B(  1-C ,  5-N ) :   0.9330 B(  1-C ,  8-H ) :   0.8545 B(  2-C ,  3-C ) :   1.1232
B(  2-C ,  4-N ) :   1.4634 B(  2-C ,  6-O ) :   0.2320 B(  2-C ,  9-H ) :   0.8360
B(  3-C ,  4-N ) :   0.1045 B(  3-C ,  5-N ) :   1.0523 B(  3-C ,  6-O ) :   1.1182
B(  5-N ,  6-O ) :   0.1906 B(  5-N , 10-H ) :   1.1246

MP2 TOTAL ENERGY:     -339.039287044 Eh
FINAL SINGLE POINT ENERGY      -339.039287043883

DIPOLE MOMENT
-------------
                                X             Y             Z
Electronic contribution:      0.54632       1.67030      -0.00000
Nuclear contribution   :     -1.69995      -2.83949       0.00000
                        -----------------------------------------
Total Dipole Moment    :     -1.15363      -1.16919      -0.00000
                        -----------------------------------------
Magnitude (a.u.)       :      1.64252
Magnitude (Debye)      :      4.17494

Rotational constants in cm-1:     0.194690     0.095836     0.064223
Rotational constants in MHz :  5836.661124  2873.089659  1925.342198

                             ****ORCA TERMINATED NORMALLY****
TOTAL RUN TIME: 0 days 0 hours 16 minutes 51 seconds 484 msec
