                         Program Version 5.0.4 -  RELEASE  -
|  1> !ri-mp2 aug-cc-pvqz aug-cc-pvqz/c tightscf
|  2> %pal nprocs 16 end
|  3>
|  4> * xyz 0 1
|  5> S    -1.960908   -0.984786   -0.704762
|  6> O    -0.911149    2.680262   -0.504844
|  7> O     3.424680   -0.179183   -0.597952
|  8> N    -0.053917    1.049338    0.982459
|  9> N     1.194387   -0.739778   -0.030324
| 10> C     0.229652   -0.361475    0.989131
| 11> C    -1.027868   -1.225362    0.844298
| 12> C    -0.515341    1.815052    0.167561
| 13> C     2.331372   -0.414621   -0.267512
| 14> H    -1.018139   -1.475813   -1.529627
| 15> H     0.662672   -0.584117    1.965684
| 16> H    -1.719705   -0.969386    1.644141
| 17> H    -0.748716   -2.271237    0.952542
| 18> *
| 19>
| 20>                          ****END OF INPUT****

CARTESIAN COORDINATES (ANGSTROEM)
---------------------------------
  S     -1.960908   -0.984786   -0.704762
  O     -0.911149    2.680262   -0.504844
  O      3.424680   -0.179183   -0.597952
  N     -0.053917    1.049338    0.982459
  N      1.194387   -0.739778   -0.030324
  C      0.229652   -0.361475    0.989131
  C     -1.027868   -1.225362    0.844298
  C     -0.515341    1.815052    0.167561
  C      2.331372   -0.414621   -0.267512
  H     -1.018139   -1.475813   -1.529627
  H      0.662672   -0.584117    1.965684
  H     -1.719705   -0.969386    1.644141
  H     -0.748716   -2.271237    0.952542

 Total Charge           Charge          ....    0
 Multiplicity           Mult            ....    1
 Number of Electrons    NEL             ....   74
 Basis Dimension        Dim             ....  908

ORBITAL ENERGIES
----------------

  NO   OCC          E(Eh)            E(eV)
   0   2.0000     -91.971833     -2502.6808
   1   2.0000     -20.627261      -561.2963
   2   2.0000     -20.619401      -561.0824
   3   2.0000     -15.603581      -424.5950
   4   2.0000     -15.597660      -424.4339
   5   2.0000     -11.420006      -310.7542
   6   2.0000     -11.415157      -310.6222
   7   2.0000     -11.378087      -309.6135
   8   2.0000     -11.292367      -307.2809
   9   2.0000      -8.974141      -244.1988
  10   2.0000      -6.655677      -181.1102
  11   2.0000      -6.654784      -181.0859
  12   2.0000      -6.653876      -181.0612
  13   2.0000      -1.481898       -40.3245
  14   2.0000      -1.474935       -40.1350
  15   2.0000      -1.325453       -36.0674
  16   2.0000      -1.263244       -34.3746
  17   2.0000      -1.101341       -29.9690
  18   2.0000      -0.999268       -27.1915
  19   2.0000      -0.879362       -23.9287
  20   2.0000      -0.822506       -22.3815
  21   2.0000      -0.746479       -20.3127
  22   2.0000      -0.736172       -20.0323
  23   2.0000      -0.719637       -19.5823
  24   2.0000      -0.687388       -18.7048
  25   2.0000      -0.661929       -18.0120
  26   2.0000      -0.655393       -17.8342
  27   2.0000      -0.639628       -17.4052
  28   2.0000      -0.623772       -16.9737
  29   2.0000      -0.612561       -16.6686
  30   2.0000      -0.547515       -14.8986
  31   2.0000      -0.508676       -13.8418
  32   2.0000      -0.481859       -13.1120
  33   2.0000      -0.461581       -12.5602
  34   2.0000      -0.447513       -12.1774
  35   2.0000      -0.436648       -11.8818
  36   2.0000      -0.382487       -10.4080
  37   0.0000       0.017563         0.4779
  38   0.0000       0.030826         0.8388
  39   0.0000       0.034861         0.9486
  40   0.0000       0.038010         1.0343
  41   0.0000       0.055683         1.5152

MULLIKEN ATOMIC CHARGES
-----------------------
   0 S :   -0.174135
   1 O :   -0.677940
   2 O :   -0.659890
   3 N :   -0.887280
   4 N :   -0.976561
   5 C :    0.571516
   6 C :   -0.700303
   7 C :    1.142831
   8 C :    1.224316
   9 H :    0.059771
  10 H :    0.396714
  11 H :    0.347480
  12 H :    0.333480
Sum of atomic charges:   -0.0000000

LOEWDIN ATOMIC CHARGES
----------------------
   0 S :    1.612998
   1 O :    0.618568
   2 O :    0.613293
   3 N :    0.479115
   4 N :    0.460749
   5 C :   -0.514107
   6 C :    0.077075
   7 C :   -0.778247
   8 C :   -0.715504
   9 H :   -0.761398
  10 H :   -0.352584
  11 H :   -0.380103
  12 H :   -0.359856

  Mayer bond orders larger than 0.100000
B(  0-S ,  5-C ) :  -0.1715 B(  0-S ,  6-C ) :   0.9506 B(  0-S ,  9-H ) :   1.0289
B(  1-O ,  3-N ) :   0.2918 B(  1-O ,  7-C ) :   1.5350 B(  2-O ,  4-N ) :   0.3354
B(  2-O ,  8-C ) :   1.5129 B(  3-N ,  5-C ) :   0.5408 B(  3-N ,  7-C ) :   2.2242
B(  4-N ,  5-C ) :   0.5493 B(  4-N ,  8-C ) :   2.2781 B(  5-C ,  6-C ) :   0.8962
B(  5-C , 10-H ) :   0.7895 B(  6-C , 11-H ) :   0.8583 B(  6-C , 12-H ) :   0.8675

MP2 TOTAL ENERGY:     -811.941630875 Eh
FINAL SINGLE POINT ENERGY      -811.941630875147

DIPOLE MOMENT
-------------
                                X             Y             Z
Electronic contribution:      2.46813       3.99996      -2.02255
Nuclear contribution   :     -2.61960      -5.04136       2.93355
                        -----------------------------------------
Total Dipole Moment    :     -0.15148      -1.04139       0.91100
                        -----------------------------------------
Magnitude (a.u.)       :      1.39189
Magnitude (Debye)      :      3.53791

Rotational constants in cm-1:     0.054405     0.033604     0.025145
Rotational constants in MHz :  1631.019781  1007.426695   753.829319

                             ****ORCA TERMINATED NORMALLY****
TOTAL RUN TIME: 0 days 0 hours 28 minutes 54 seconds 828 msec
