                         Program Version 5.0.4 -  RELEASE  -
|  1> !ri-mp2 aug-cc-pvqz aug-cc-pvqz/c tightscf
|  2> %pal nprocs 16 end
|  3>
|  4> * xyz 0 1
|  5> C     -0.690377   -1.160681        0.000000
|  6> C      1.195972   -0.095042        0.000000
|  7> N      0.670277   -1.287237        0.000000
|  8> N     -1.238357    0.028231        0.000000
|  9> S      0.000000    1.143132        0.000000
| 10> H     -1.314687   -2.042848        0.000000
| 11> H      2.257676    0.100119        0.000000
| 12> *
| 13>
| 14>                          ****END OF INPUT****

CARTESIAN COORDINATES (ANGSTROEM)
---------------------------------
  C     -0.690377   -1.160681    0.000000
  C      1.195972   -0.095042    0.000000
  N      0.670277   -1.287237    0.000000
  N     -1.238357    0.028231    0.000000
  S      0.000000    1.143132    0.000000
  H     -1.314687   -2.042848    0.000000
  H      2.257676    0.100119    0.000000

 Total Charge           Charge          ....    0
 Multiplicity           Mult            ....    1
 Number of Electrons    NEL             ....   44
 Basis Dimension        Dim             ....  496

ORBITAL ENERGIES
----------------

  NO   OCC          E(Eh)            E(eV)
   0   2.0000     -92.027028     -2504.1827
   1   2.0000     -15.599920      -424.4954
   2   2.0000     -15.587140      -424.1476
   3   2.0000     -11.334739      -308.4339
   4   2.0000     -11.320046      -308.0341
   5   2.0000      -9.026165      -245.6144
   6   2.0000      -6.707237      -182.5132
   7   2.0000      -6.706391      -182.4902
   8   2.0000      -6.705917      -182.4773
   9   2.0000      -1.343587       -36.5609
  10   2.0000      -1.184399       -32.2291
  11   2.0000      -1.042459       -28.3668
  12   2.0000      -0.845181       -22.9986
  13   2.0000      -0.807573       -21.9752
  14   2.0000      -0.704529       -19.1712
  15   2.0000      -0.626936       -17.0598
  16   2.0000      -0.601761       -16.3748
  17   2.0000      -0.541270       -14.7287
  18   2.0000      -0.483109       -13.1461
  19   2.0000      -0.450836       -12.2679
  20   2.0000      -0.426642       -11.6095
  21   2.0000      -0.384304       -10.4575
  22   0.0000       0.024005         0.6532
  23   0.0000       0.033562         0.9133
  24   0.0000       0.049394         1.3441
  25   0.0000       0.060265         1.6399
  26   0.0000       0.066611         1.8126

MULLIKEN ATOMIC CHARGES
-----------------------
   0 C :   -0.085343
   1 C :   -0.501247
   2 N :   -0.466197
   3 N :   -0.660966
   4 S :    0.552471
   5 H :    0.616060
   6 H :    0.545222
Sum of atomic charges:   -0.0000000

LOEWDIN ATOMIC CHARGES
----------------------
   0 C :   -0.418401
   1 C :   -0.371740
   2 N :    0.443564
   3 N :    0.072888
   4 S :    1.076477
   5 H :   -0.384887
   6 H :   -0.417901

  Mayer bond orders larger than 0.100000
B(  0-C ,  2-N ) :   1.2134 B(  0-C ,  3-N ) :   1.6458 B(  0-C ,  5-H ) :   0.6524
B(  1-C ,  2-N ) :   1.5205 B(  1-C ,  4-S ) :   1.2764 B(  1-C ,  6-H ) :   0.6982
B(  3-N ,  4-S ) :   1.0245

MP2 TOTAL ENERGY:     -584.357340857 Eh
FINAL SINGLE POINT ENERGY      -584.357340856846

DIPOLE MOMENT
-------------
                                X             Y             Z
Electronic contribution:     -0.29923       2.15080      -0.00000
Nuclear contribution   :      0.90172      -1.90523       0.00000
                        -----------------------------------------
Total Dipole Moment    :      0.60249       0.24557      -0.00000
                        -----------------------------------------
Magnitude (a.u.)       :      0.65061
Magnitude (Debye)      :      1.65373

Rotational constants in cm-1:     0.293269     0.196839     0.117784
Rotational constants in MHz :  8791.977653  5901.094349  3531.071626

                             ****ORCA TERMINATED NORMALLY****
TOTAL RUN TIME: 0 days 0 hours 4 minutes 23 seconds 702 msec
