                         Program Version 5.0.4 -  RELEASE  -
|  1> !ri-mp2 aug-cc-pvqz aug-cc-pvqz/c tightscf
|  2> %pal nprocs 16 end
|  3>
|  4> * xyz 0 1
|  5> C      1.485110    2.778995    0.000000
|  6> C      1.429424    1.252245    0.000000
|  7> C     -1.555601   -2.629031    0.000000
|  8> O     -1.408397   -1.225844    0.000000
|  9> C     -0.054114   -0.808031    0.000000
| 10> C      0.000000    0.708683    0.000000
| 11> H     -2.622301   -2.844448    0.000000
| 12> H      2.514453    3.139718    0.000000
| 13> H      0.988352    3.190751    0.880627
| 14> H      0.988352    3.190751   -0.880627
| 15> H      1.964404    0.869962    0.874461
| 16> H      1.964404    0.869962   -0.874461
| 17> H     -1.100454   -3.081175    0.889958
| 18> H     -1.100454   -3.081175   -0.889958
| 19> H     -0.538951    1.078011   -0.876368
| 20> H     -0.538951    1.078011    0.876368
| 21> H      0.459702   -1.210388   -0.884985
| 22> H      0.459702   -1.210388    0.884985
| 23> *
| 24>
| 25>                          ****END OF INPUT****

CARTESIAN COORDINATES (ANGSTROEM)
---------------------------------
  C      1.485110    2.778995    0.000000
  C      1.429424    1.252245    0.000000
  C     -1.555601   -2.629031    0.000000
  O     -1.408397   -1.225844    0.000000
  C     -0.054114   -0.808031    0.000000
  C      0.000000    0.708683    0.000000
  H     -2.622301   -2.844448    0.000000
  H      2.514453    3.139718    0.000000
  H      0.988352    3.190751    0.880627
  H      0.988352    3.190751   -0.880627
  H      1.964404    0.869962    0.874461
  H      1.964404    0.869962   -0.874461
  H     -1.100454   -3.081175    0.889958
  H     -1.100454   -3.081175   -0.889958
  H     -0.538951    1.078011   -0.876368
  H     -0.538951    1.078011    0.876368
  H      0.459702   -1.210388   -0.884985
  H      0.459702   -1.210388    0.884985

 Total Charge           Charge          ....    0
 Multiplicity           Mult            ....    1
 Number of Electrons    NEL             ....   50
 Basis Dimension        Dim             .... 1032

ORBITAL ENERGIES
----------------

  NO   OCC          E(Eh)            E(eV)
   0   2.0000     -20.549058      -559.1683
   1   2.0000     -11.268607      -306.6344
   2   2.0000     -11.266129      -306.5670
   3   2.0000     -11.219023      -305.2851
   4   2.0000     -11.213030      -305.1220
   5   2.0000     -11.210535      -305.0542
   6   2.0000      -1.368202       -37.2307
   7   2.0000      -1.072153       -29.1748
   8   2.0000      -0.987749       -26.8780
   9   2.0000      -0.912095       -24.8194
  10   2.0000      -0.842432       -22.9237
  11   2.0000      -0.795696       -21.6520
  12   2.0000      -0.672777       -18.3072
  13   2.0000      -0.644051       -17.5255
  14   2.0000      -0.629992       -17.1430
  15   2.0000      -0.623062       -16.9544
  16   2.0000      -0.568397       -15.4669
  17   2.0000      -0.564516       -15.3613
  18   2.0000      -0.535967       -14.5844
  19   2.0000      -0.506068       -13.7708
  20   2.0000      -0.485602       -13.2139
  21   2.0000      -0.473186       -12.8760
  22   2.0000      -0.467345       -12.7171
  23   2.0000      -0.461984       -12.5712
  24   2.0000      -0.419821       -11.4239
  25   0.0000       0.026349         0.7170
  26   0.0000       0.029932         0.8145
  27   0.0000       0.035263         0.9596
  28   0.0000       0.035337         0.9616
  29   0.0000       0.045481         1.2376

MULLIKEN ATOMIC CHARGES
-----------------------
   0 C :   -0.875911
   1 C :   -0.444203
   2 C :   -0.685917
   3 O :   -0.865933
   4 C :    0.330933
   5 C :   -0.460086
   6 H :    0.392404
   7 H :    0.247787
   8 H :    0.226767
   9 H :    0.226766
  10 H :    0.229999
  11 H :    0.230007
  12 H :    0.259013
  13 H :    0.259011
  14 H :    0.253082
  15 H :    0.253092
  16 H :    0.211594
  17 H :    0.211596
Sum of atomic charges:   -0.0000000

LOEWDIN ATOMIC CHARGES
----------------------
   0 C :    0.925615
   1 C :    0.498653
   2 C :    0.559565
   3 O :    0.878984
   4 C :    0.137259
   5 C :    0.488970
   6 H :   -0.329108
   7 H :   -0.284566
   8 H :   -0.285183
   9 H :   -0.285183
  10 H :   -0.274376
  11 H :   -0.274376
  12 H :   -0.310690
  13 H :   -0.310690
  14 H :   -0.275108
  15 H :   -0.275108
  16 H :   -0.292330
  17 H :   -0.292330

  Mayer bond orders larger than 0.100000
B(  0-C ,  1-C ) :   1.0308 B(  0-C ,  7-H ) :   1.0238 B(  0-C ,  8-H ) :   0.9550
B(  0-C ,  9-H ) :   0.9550 B(  1-C ,  5-C ) :   0.9428 B(  1-C , 10-H ) :   0.8809
B(  1-C , 11-H ) :   0.8809 B(  2-C ,  3-O ) :   0.9641 B(  2-C ,  4-C ) :  -0.1737
B(  2-C ,  6-H ) :   0.8766 B(  2-C , 12-H ) :   0.9220 B(  2-C , 13-H ) :   0.9220
B(  3-O ,  4-C ) :   0.6467 B(  3-O ,  5-C ) :   0.1376 B(  4-C ,  5-C ) :   1.1836
B(  4-C , 16-H ) :   0.8793 B(  4-C , 17-H ) :   0.8793 B(  5-C , 14-H ) :   0.8592
B(  5-C , 15-H ) :   0.8592

MP2 TOTAL ENERGY:     -272.495547996 Eh
FINAL SINGLE POINT ENERGY      -272.495547996305

DIPOLE MOMENT
-------------
                                X             Y             Z
Electronic contribution:     -3.20099      -2.38825       0.00000
Nuclear contribution   :      3.63903       2.09887       0.00000
                        -----------------------------------------
Total Dipole Moment    :      0.43803      -0.28938       0.00000
                        -----------------------------------------
Magnitude (a.u.)       :      0.52499
Magnitude (Debye)      :      1.33442

Rotational constants in cm-1:     0.552820     0.040092     0.038726
Rotational constants in MHz : 16573.112930  1201.940175  1160.976043

                             ****ORCA TERMINATED NORMALLY****
TOTAL RUN TIME: 0 days 0 hours 40 minutes 18 seconds 993 msec
