                         Program Version 5.0.4 -  RELEASE  -
|  1> !ri-mp2 aug-cc-pvqz aug-cc-pvqz/c tightscf
|  2> %pal nprocs 16 end
|  3>
|  4> * xyz 0 1
|  5> C      1.979205   -0.084993   -0.208488
|  6> C     -1.523606   -0.931315   -0.078157
|  7> C     -0.762496    1.356133    0.045941
|  8> N      0.728676   -0.487073    0.418360
|  9> N     -0.413231   -0.017131   -0.292792
| 10> H      2.801931   -0.442661    0.411618
| 11> H      2.096531    0.998915   -0.340160
| 12> H      2.053124   -0.556251   -1.187265
| 13> H     -1.223290   -1.932786   -0.375989
| 14> H     -2.371774   -0.616432   -0.686760
| 15> H     -1.848711   -0.963839    0.974835
| 16> H     -1.044241    1.465794    1.107744
| 17> H     -1.603731    1.682831   -0.565341
| 18> H      0.077866    2.017471   -0.159362
| 19> H      0.695565   -0.162564    1.385928
| 20> *
| 21>
| 22>                          ****END OF INPUT****

CARTESIAN COORDINATES (ANGSTROEM)
---------------------------------
  C      1.979205   -0.084993   -0.208488
  C     -1.523606   -0.931315   -0.078157
  C     -0.762496    1.356133    0.045941
  N      0.728676   -0.487073    0.418360
  N     -0.413231   -0.017131   -0.292792
  H      2.801931   -0.442661    0.411618
  H      2.096531    0.998915   -0.340160
  H      2.053124   -0.556251   -1.187265
  H     -1.223290   -1.932786   -0.375989
  H     -2.371774   -0.616432   -0.686760
  H     -1.848711   -0.963839    0.974835
  H     -1.044241    1.465794    1.107744
  H     -1.603731    1.682831   -0.565341
  H      0.077866    2.017471   -0.159362
  H      0.695565   -0.162564    1.385928

 Total Charge           Charge          ....    0
 Multiplicity           Mult            ....    1
 Number of Electrons    NEL             ....   42
 Basis Dimension        Dim             ....  860

ORBITAL ENERGIES
----------------

  NO   OCC          E(Eh)            E(eV)
   0   2.0000     -15.570314      -423.6898
   1   2.0000     -15.564901      -423.5425
   2   2.0000     -11.242571      -305.9259
   3   2.0000     -11.237403      -305.7853
   4   2.0000     -11.235054      -305.7214
   5   2.0000      -1.288297       -35.0563
   6   2.0000      -1.095773       -29.8175
   7   2.0000      -0.953203       -25.9380
   8   2.0000      -0.902503       -24.5584
   9   2.0000      -0.817878       -22.2556
  10   2.0000      -0.674929       -18.3657
  11   2.0000      -0.641835       -17.4652
  12   2.0000      -0.629556       -17.1311
  13   2.0000      -0.591805       -16.1038
  14   2.0000      -0.555867       -15.1259
  15   2.0000      -0.545119       -14.8335
  16   2.0000      -0.535184       -14.5631
  17   2.0000      -0.513153       -13.9636
  18   2.0000      -0.504094       -13.7171
  19   2.0000      -0.379457       -10.3256
  20   2.0000      -0.366567        -9.9748
  21   0.0000       0.026391         0.7181
  22   0.0000       0.034766         0.9460
  23   0.0000       0.036596         0.9958
  24   0.0000       0.038175         1.0388
  25   0.0000       0.050889         1.3848

MULLIKEN ATOMIC CHARGES
-----------------------
   0 C :   -0.887734
   1 C :   -0.900299
   2 C :   -0.892092
   3 N :   -0.357787
   4 N :   -0.039147
   5 H :    0.390365
   6 H :    0.275516
   7 H :    0.287615
   8 H :    0.342144
   9 H :    0.333129
  10 H :    0.284577
  11 H :    0.276063
  12 H :    0.329292
  13 H :    0.336836
  14 H :    0.221523
Sum of atomic charges:   -0.0000000

LOEWDIN ATOMIC CHARGES
----------------------
   0 C :    0.748347
   1 C :    0.717418
   2 C :    0.725261
   3 N :    0.709915
   4 N :    0.312445
   5 H :   -0.304369
   6 H :   -0.299956
   7 H :   -0.303035
   8 H :   -0.305826
   9 H :   -0.305497
  10 H :   -0.280067
  11 H :   -0.274576
  12 H :   -0.296308
  13 H :   -0.315555
  14 H :   -0.528198

  Mayer bond orders larger than 0.100000
B(  0-C ,  3-N ) :   0.9260 B(  0-C ,  5-H ) :   0.8788 B(  0-C ,  6-H ) :   0.9364
B(  0-C ,  7-H ) :   0.9336 B(  1-C ,  4-N ) :   0.8360 B(  1-C ,  8-H ) :   0.9176
B(  1-C ,  9-H ) :   0.9297 B(  1-C , 10-H ) :   0.9270 B(  2-C ,  4-N ) :   0.9134
B(  2-C , 11-H ) :   0.9090 B(  2-C , 12-H ) :   0.9292 B(  2-C , 13-H ) :   0.9176
B(  3-N ,  4-N ) :   0.5983 B(  3-N , 14-H ) :   0.9254

MP2 TOTAL ENERGY:     -229.395760672 Eh
FINAL SINGLE POINT ENERGY      -229.395760672201

DIPOLE MOMENT
-------------
                                X             Y             Z
Electronic contribution:      0.32457      -1.13375      -0.27981
Nuclear contribution   :     -0.38827       1.58288       0.60227
                        -----------------------------------------
Total Dipole Moment    :     -0.06371       0.44913       0.32246
                        -----------------------------------------
Magnitude (a.u.)       :      0.55656
Magnitude (Debye)      :      1.41466

Rotational constants in cm-1:     0.268911     0.125587     0.096439
Rotational constants in MHz :  8061.734465  3764.991662  2891.168018

                             ****ORCA TERMINATED NORMALLY****
TOTAL RUN TIME: 0 days 0 hours 18 minutes 28 seconds 278 msec
