                         Program Version 5.0.4 -  RELEASE  -
|  1> !ri-mp2 aug-cc-pvqz aug-cc-pvqz/c tightscf
|  2> %pal nprocs 16 end
|  3>
|  4> * xyz 0 1
|  5> F      0.936726   -0.752395    1.002357
|  6> F      1.646645    0.548458   -0.624816
|  7> O     -1.587352   -0.834466   -0.382371
|  8> O     -0.934596    1.174393    0.623606
|  9> C     -0.691510    0.252835   -0.394390
| 10> C      0.702183   -0.374100   -0.292984
| 11> H     -0.754108    0.816515   -1.328274
| 12> H      0.817745   -1.249022   -0.931294
| 13> H     -2.484848   -0.486276   -0.414125
| 14> H     -0.717580    0.762386    1.470180
| 15> *
| 16>
| 17>                          ****END OF INPUT****

CARTESIAN COORDINATES (ANGSTROEM)
---------------------------------
  F      0.936726   -0.752395    1.002357
  F      1.646645    0.548458   -0.624816
  O     -1.587352   -0.834466   -0.382371
  O     -0.934596    1.174393    0.623606
  C     -0.691510    0.252835   -0.394390
  C      0.702183   -0.374100   -0.292984
  H     -0.754108    0.816515   -1.328274
  H      0.817745   -1.249022   -0.931294
  H     -2.484848   -0.486276   -0.414125
  H     -0.717580    0.762386    1.470180

 Total Charge           Charge          ....    0
 Multiplicity           Mult            ....    1
 Number of Electrons    NEL             ....   50
 Basis Dimension        Dim             ....  664

ORBITAL ENERGIES
----------------

  NO   OCC          E(Eh)            E(eV)
   0   2.0000     -26.317925      -716.1471
   1   2.0000     -26.315238      -716.0740
   2   2.0000     -20.589507      -560.2690
   3   2.0000     -20.587165      -560.2052
   4   2.0000     -11.415085      -310.6203
   5   2.0000     -11.365696      -309.2763
   6   2.0000      -1.666766       -45.3550
   7   2.0000      -1.606056       -43.7030
   8   2.0000      -1.437580       -39.1185
   9   2.0000      -1.360686       -37.0262
  10   2.0000      -1.028574       -27.9889
  11   2.0000      -0.891555       -24.2604
  12   2.0000      -0.795692       -21.6519
  13   2.0000      -0.787768       -21.4363
  14   2.0000      -0.765453       -20.8290
  15   2.0000      -0.728908       -19.8346
  16   2.0000      -0.686086       -18.6693
  17   2.0000      -0.666986       -18.1496
  18   2.0000      -0.640517       -17.4293
  19   2.0000      -0.637385       -17.3441
  20   2.0000      -0.626902       -17.0589
  21   2.0000      -0.591222       -16.0880
  22   2.0000      -0.520609       -14.1665
  23   2.0000      -0.515858       -14.0372
  24   2.0000      -0.485586       -13.2135
  25   0.0000       0.024061         0.6547
  26   0.0000       0.035529         0.9668
  27   0.0000       0.039375         1.0715
  28   0.0000       0.043629         1.1872
  29   0.0000       0.075078         2.0430

MULLIKEN ATOMIC CHARGES
-----------------------
   0 F :   -0.668545
   1 F :   -0.681569
   2 O :   -0.806958
   3 O :   -0.807730
   4 C :    0.671270
   5 C :    0.829517
   6 H :    0.385984
   7 H :    0.413772
   8 H :    0.316424
   9 H :    0.347835
Sum of atomic charges:   -0.0000000

LOEWDIN ATOMIC CHARGES
----------------------
   0 F :    0.781024
   1 F :    0.775192
   2 O :    1.256351
   3 O :    1.267297
   4 C :   -0.648983
   5 C :   -1.069658
   6 H :   -0.354666
   7 H :   -0.396669
   8 H :   -0.783252
   9 H :   -0.826636

  Mayer bond orders larger than 0.100000
B(  0-F ,  5-C ) :   0.4424 B(  1-F ,  5-C ) :   0.4845 B(  2-O ,  4-C ) :   0.6579
B(  2-O ,  8-H ) :   0.9045 B(  3-O ,  4-C ) :   0.6952 B(  3-O ,  9-H ) :   0.8646
B(  4-C ,  5-C ) :   0.8918 B(  4-C ,  6-H ) :   0.8106 B(  5-C ,  7-H ) :   0.7857

MP2 TOTAL ENERGY:     -428.300378858 Eh
FINAL SINGLE POINT ENERGY      -428.300378857913

DIPOLE MOMENT
-------------
                                X             Y             Z
Electronic contribution:      4.80338      -0.27369       1.10546
Nuclear contribution   :     -5.48766       0.04824      -1.50610
                        -----------------------------------------
Total Dipole Moment    :     -0.68428      -0.22545      -0.40064
                        -----------------------------------------
Magnitude (a.u.)       :      0.82437
Magnitude (Debye)      :      2.09538

Rotational constants in cm-1:     0.171807     0.091483     0.085367
Rotational constants in MHz :  5150.632329  2742.596312  2559.240255

                             ****ORCA TERMINATED NORMALLY****
TOTAL RUN TIME: 0 days 0 hours 9 minutes 41 seconds 82 msec
