                         Program Version 5.0.4 -  RELEASE  -
|  1> !ri-mp2 aug-cc-pvqz aug-cc-pvqz/c tightscf
|  2> %pal nprocs 16 end
|  3>
|  4> * xyz 0 1
|  5> C      0.396763   -0.849410    1.557707
|  6> C     -1.307595    1.844297   -0.284042
|  7> C     -1.397054   -1.675296   -0.631754
|  8> C      2.299456    0.075180   -0.646213
|  9> C      0.083784   -0.016254    0.319117
| 10> O     -0.932476    0.864857    0.686795
| 11> O     -0.287293   -0.804780   -0.801289
| 12> O      1.175176    0.756275   -0.102867
| 13> H      1.120921   -1.627964    1.326124
| 14> H      0.801114   -0.194836    2.326325
| 15> H     -0.507613   -1.314379    1.943099
| 16> H     -0.521991    2.587274   -0.415187
| 17> H     -2.202110    2.321102    0.109521
| 18> H     -1.531943    1.383740   -1.247020
| 19> H     -1.666306   -2.024172   -1.626421
| 20> H     -2.250042   -1.156136   -0.190361
| 21> H     -1.144456   -2.540690   -0.013310
| 22> H      2.776750   -0.573021    0.093646
| 23> H      3.004868    0.850810   -0.935557
| 24> H      2.025435   -0.513636   -1.520874
| 25> *
| 26>
| 27>                          ****END OF INPUT****

CARTESIAN COORDINATES (ANGSTROEM)
---------------------------------
  C      0.396763   -0.849410    1.557707
  C     -1.307595    1.844297   -0.284042
  C     -1.397054   -1.675296   -0.631754
  C      2.299456    0.075180   -0.646213
  C      0.083784   -0.016254    0.319117
  O     -0.932476    0.864857    0.686795
  O     -0.287293   -0.804780   -0.801289
  O      1.175176    0.756275   -0.102867
  H      1.120921   -1.627964    1.326124
  H      0.801114   -0.194836    2.326325
  H     -0.507613   -1.314379    1.943099
  H     -0.521991    2.587274   -0.415187
  H     -2.202110    2.321102    0.109521
  H     -1.531943    1.383740   -1.247020
  H     -1.666306   -2.024172   -1.626421
  H     -2.250042   -1.156136   -0.190361
  H     -1.144456   -2.540690   -0.013310
  H      2.776750   -0.573021    0.093646
  H      3.004868    0.850810   -0.935557
  H      2.025435   -0.513636   -1.520874

 Total Charge           Charge          ....    0
 Multiplicity           Mult            ....    1
 Number of Electrons    NEL             ....   66
 Basis Dimension        Dim             .... 1192

ORBITAL ENERGIES
----------------

  NO   OCC          E(Eh)            E(eV)
   0   2.0000     -20.557290      -559.3923
   1   2.0000     -20.554924      -559.3279
   2   2.0000     -20.554810      -559.3248
   3   2.0000     -11.386766      -309.8497
   4   2.0000     -11.271480      -306.7126
   5   2.0000     -11.266533      -306.5780
   6   2.0000     -11.259936      -306.3984
   7   2.0000     -11.215779      -305.1969
   8   2.0000      -1.448037       -39.4031
   9   2.0000      -1.343803       -36.5667
  10   2.0000      -1.342807       -36.5396
  11   2.0000      -1.023219       -27.8432
  12   2.0000      -0.950600       -25.8671
  13   2.0000      -0.928248       -25.2589
  14   2.0000      -0.917253       -24.9597
  15   2.0000      -0.778720       -21.1900
  16   2.0000      -0.706876       -19.2351
  17   2.0000      -0.702434       -19.1142
  18   2.0000      -0.677200       -18.4276
  19   2.0000      -0.638353       -17.3705
  20   2.0000      -0.621770       -16.9192
  21   2.0000      -0.598703       -16.2915
  22   2.0000      -0.584423       -15.9030
  23   2.0000      -0.577975       -15.7275
  24   2.0000      -0.561267       -15.2728
  25   2.0000      -0.550609       -14.9828
  26   2.0000      -0.535307       -14.5665
  27   2.0000      -0.517164       -14.0728
  28   2.0000      -0.489668       -13.3246
  29   2.0000      -0.476197       -12.9580
  30   2.0000      -0.446805       -12.1582
  31   2.0000      -0.441191       -12.0054
  32   2.0000      -0.429091       -11.6762
  33   0.0000       0.026017         0.7080
  34   0.0000       0.031839         0.8664
  35   0.0000       0.033257         0.9050
  36   0.0000       0.035313         0.9609
  37   0.0000       0.047355         1.2886

MULLIKEN ATOMIC CHARGES
-----------------------
   0 C :   -1.254821
   1 C :   -0.785652
   2 C :   -0.812086
   3 C :   -0.752574
   4 C :    2.553536
   5 O :   -0.927412
   6 O :   -0.882939
   7 O :   -0.993466
   8 H :    0.231292
   9 H :    0.313045
  10 H :    0.291084
  11 H :    0.320974
  12 H :    0.413758
  13 H :    0.291117
  14 H :    0.391111
  15 H :    0.338800
  16 H :    0.292321
  17 H :    0.279583
  18 H :    0.388974
  19 H :    0.303355
Sum of atomic charges:   -0.0000000

LOEWDIN ATOMIC CHARGES
----------------------
   0 C :    0.863697
   1 C :    0.586084
   2 C :    0.573093
   3 C :    0.583670
   4 C :   -1.416374
   5 O :    0.857895
   6 O :    0.861154
   7 O :    0.857203
   8 H :   -0.299165
   9 H :   -0.281431
  10 H :   -0.304926
  11 H :   -0.320330
  12 H :   -0.325251
  13 H :   -0.320737
  14 H :   -0.318678
  15 H :   -0.315177
  16 H :   -0.313217
  17 H :   -0.317909
  18 H :   -0.323127
  19 H :   -0.326476

  Mayer bond orders larger than 0.100000
B(  0-C ,  4-C ) :   0.5223 B(  0-C ,  5-O ) :   0.1722 B(  0-C ,  7-O ) :   0.1119
B(  0-C ,  8-H ) :   1.0553 B(  0-C ,  9-H ) :   0.9397 B(  0-C , 10-H ) :   0.9581
B(  1-C ,  4-C ) :  -0.1335 B(  1-C ,  5-O ) :   0.9341 B(  1-C , 11-H ) :   0.8985
B(  1-C , 12-H ) :   0.8571 B(  1-C , 13-H ) :   0.9318 B(  2-C ,  4-C ) :  -0.1231
B(  2-C ,  6-O ) :   0.9759 B(  2-C , 14-H ) :   0.8771 B(  2-C , 15-H ) :   0.8604
B(  2-C , 16-H ) :   0.9249 B(  3-C ,  4-C ) :  -0.1633 B(  3-C ,  7-O ) :   0.9783
B(  3-C , 17-H ) :   0.9110 B(  3-C , 18-H ) :   0.8918 B(  3-C , 19-H ) :   0.8943
B(  4-C ,  5-O ) :   0.3417 B(  4-C ,  6-O ) :   0.1174 B(  4-C ,  8-H ) :  -0.1159
B(  5-O ,  7-O ) :   0.1132 B(  6-O ,  7-O ) :   0.1070

MP2 TOTAL ENERGY:     -422.783003767 Eh
FINAL SINGLE POINT ENERGY      -422.783003767499

DIPOLE MOMENT
-------------
                                X             Y             Z
Electronic contribution:      0.07540       2.33466       0.03610
Nuclear contribution   :     -0.09912      -2.87736      -0.15830
                        -----------------------------------------
Total Dipole Moment    :     -0.02372      -0.54270      -0.12220
                        -----------------------------------------
Magnitude (a.u.)       :      0.55679
Magnitude (Debye)      :      1.41526

Rotational constants in cm-1:     0.075130     0.063773     0.050533
Rotational constants in MHz :  2252.332163  1911.871430  1514.956053

                             ****ORCA TERMINATED NORMALLY****
TOTAL RUN TIME: 0 days 1 hours 8 minutes 23 seconds 925 msec
