                         Program Version 5.0.4 -  RELEASE  -
|  1> !ri-mp2 aug-cc-pvqz aug-cc-pvqz/c tightscf
|  2> %pal nprocs 16 end
|  3>
|  4> * xyz 0 1
|  5> C      0.327267   -0.588904    1.198224
|  6> N      0.327267    0.236816    0.000000
|  7> N     -0.931112    0.994972    0.000000
|  8> H     -0.869402    1.616300    0.803103
|  9> H     -0.869402    1.616300   -0.803103
| 10> H      0.334815    0.048085    2.083911
| 11> H     -0.549984   -1.250736    1.251362
| 12> H      1.234428   -1.191485    1.209716
| 13> C      0.327267   -0.588904   -1.198224
| 14> H      0.334815    0.048085   -2.083911
| 15> H     -0.549984   -1.250736   -1.251362
| 16> H      1.234428   -1.191485   -1.209716
| 17> *
| 18>
| 19>                          ****END OF INPUT****

CARTESIAN COORDINATES (ANGSTROEM)
---------------------------------
  C      0.327267   -0.588904    1.198224
  N      0.327267    0.236816    0.000000
  N     -0.931112    0.994972    0.000000
  H     -0.869402    1.616300    0.803103
  H     -0.869402    1.616300   -0.803103
  H      0.334815    0.048085    2.083911
  H     -0.549984   -1.250736    1.251362
  H      1.234428   -1.191485    1.209716
  C      0.327267   -0.588904   -1.198224
  H      0.334815    0.048085   -2.083911
  H     -0.549984   -1.250736   -1.251362
  H      1.234428   -1.191485   -1.209716

 Total Charge           Charge          ....    0
 Multiplicity           Mult            ....    1
 Number of Electrons    NEL             ....   34
 Basis Dimension        Dim             ....  688

ORBITAL ENERGIES
----------------

  NO   OCC          E(Eh)            E(eV)
   0   2.0000     -15.574788      -423.8115
   1   2.0000     -15.568574      -423.6424
   2   2.0000     -11.239959      -305.8548
   3   2.0000     -11.239944      -305.8544
   4   2.0000      -1.275581       -34.7103
   5   2.0000      -1.070711       -29.1355
   6   2.0000      -0.954118       -25.9629
   7   2.0000      -0.823943       -22.4206
   8   2.0000      -0.670188       -18.2367
   9   2.0000      -0.652568       -17.7573
  10   2.0000      -0.625898       -17.0316
  11   2.0000      -0.562260       -15.2999
  12   2.0000      -0.537049       -14.6138
  13   2.0000      -0.514611       -14.0033
  14   2.0000      -0.509484       -13.8638
  15   2.0000      -0.481233       -13.0950
  16   2.0000      -0.339293        -9.2326
  17   0.0000       0.026698         0.7265
  18   0.0000       0.035779         0.9736
  19   0.0000       0.036396         0.9904
  20   0.0000       0.044445         1.2094
  21   0.0000       0.053600         1.4585

MULLIKEN ATOMIC CHARGES
-----------------------
   0 C :   -0.761170
   1 N :   -0.186288
   2 N :   -0.588918
   3 H :    0.247805
   4 H :    0.247805
   5 H :    0.322018
   6 H :    0.275671
   7 H :    0.303280
   8 C :   -0.761170
   9 H :    0.322018
  10 H :    0.275671
  11 H :    0.303280
Sum of atomic charges:    0.0000000

LOEWDIN ATOMIC CHARGES
----------------------
   0 C :    0.700325
   1 N :    0.330118
   2 N :    1.145450
   3 H :   -0.546437
   4 H :   -0.546437
   5 H :   -0.302472
   6 H :   -0.283208
   7 H :   -0.305992
   8 C :    0.700325
   9 H :   -0.302472
  10 H :   -0.283208
  11 H :   -0.305992

  Mayer bond orders larger than 0.100000
B(  0-C ,  1-N ) :   0.9036 B(  0-C ,  5-H ) :   0.9201 B(  0-C ,  6-H ) :   0.9083
B(  0-C ,  7-H ) :   0.9259 B(  1-N ,  2-N ) :   0.8363 B(  1-N ,  8-C ) :   0.9036
B(  2-N ,  3-H ) :   0.9261 B(  2-N ,  4-H ) :   0.9261 B(  8-C ,  9-H ) :   0.9201
B(  8-C , 10-H ) :   0.9083 B(  8-C , 11-H ) :   0.9259

MP2 TOTAL ENERGY:     -190.165725335 Eh
FINAL SINGLE POINT ENERGY      -190.165725334759

DIPOLE MOMENT
-------------
                                X             Y             Z
Electronic contribution:     -0.14273       1.73210      -0.00000
Nuclear contribution   :      0.31467      -1.64517       0.00000
                        -----------------------------------------
Total Dipole Moment    :      0.17195       0.08693      -0.00000
                        -----------------------------------------
Magnitude (a.u.)       :      0.19267
Magnitude (Debye)      :      0.48973

Rotational constants in cm-1:     0.301689     0.296938     0.167889
Rotational constants in MHz :  9044.413365  8901.989191  5033.199135

                             ****ORCA TERMINATED NORMALLY****
TOTAL RUN TIME: 0 days 0 hours 9 minutes 51 seconds 62 msec
