                         Program Version 5.0.4 -  RELEASE  -
|  1> !ri-mp2 aug-cc-pvqz aug-cc-pvqz/c tightscf
|  2> %pal nprocs 16 end
|  3>
|  4> * xyz 0 1
|  5> C     -0.718665   -1.555127    0.000000
|  6> C     -2.163694    0.226359    0.000000
|  7> C      0.315607   -0.659942    0.000000
|  8> C      0.000000    0.695721    0.000000
|  9> C      2.228992    0.497352    0.000000
| 10> N     -1.985417   -1.080489    0.000000
| 11> N     -1.205174    1.183491    0.000000
| 12> O      1.668909   -0.830309    0.000000
| 13> O      1.140201    1.432865    0.000000
| 14> H     -0.576224   -2.627468    0.000000
| 15> H     -3.184942    0.584348    0.000000
| 16> H      2.824495    0.637742    0.902050
| 17> H      2.824495    0.637742   -0.902050
| 18> *
| 19>
| 20>                          ****END OF INPUT****

CARTESIAN COORDINATES (ANGSTROEM)
---------------------------------
  C     -0.718665   -1.555127    0.000000
  C     -2.163694    0.226359    0.000000
  C      0.315607   -0.659942    0.000000
  C      0.000000    0.695721    0.000000
  C      2.228992    0.497352    0.000000
  N     -1.985417   -1.080489    0.000000
  N     -1.205174    1.183491    0.000000
  O      1.668909   -0.830309    0.000000
  O      1.140201    1.432865    0.000000
  H     -0.576224   -2.627468    0.000000
  H     -3.184942    0.584348    0.000000
  H      2.824495    0.637742    0.902050
  H      2.824495    0.637742   -0.902050

 Total Charge           Charge          ....    0
 Multiplicity           Mult            ....    1
 Number of Electrons    NEL             ....   64
 Basis Dimension        Dim             ....  904

ORBITAL ENERGIES
----------------

  NO   OCC          E(Eh)            E(eV)
   0   2.0000     -20.627614      -561.3059
   1   2.0000     -20.620064      -561.1005
   2   2.0000     -15.581010      -423.9808
   3   2.0000     -15.572855      -423.7589
   4   2.0000     -11.378504      -309.6248
   5   2.0000     -11.363346      -309.2124
   6   2.0000     -11.317629      -307.9683
   7   2.0000     -11.313737      -307.8624
   8   2.0000     -11.300590      -307.5047
   9   2.0000      -1.505713       -40.9725
  10   2.0000      -1.403546       -38.1924
  11   2.0000      -1.319374       -35.9020
  12   2.0000      -1.203391       -32.7459
  13   2.0000      -1.083112       -29.4730
  14   2.0000      -0.959241       -26.1023
  15   2.0000      -0.905526       -24.6406
  16   2.0000      -0.894583       -24.3428
  17   2.0000      -0.766582       -20.8598
  18   2.0000      -0.748656       -20.3720
  19   2.0000      -0.742036       -20.1918
  20   2.0000      -0.703935       -19.1550
  21   2.0000      -0.647476       -17.6187
  22   2.0000      -0.614589       -16.7238
  23   2.0000      -0.605943       -16.4886
  24   2.0000      -0.598520       -16.2866
  25   2.0000      -0.591724       -16.1016
  26   2.0000      -0.578611       -15.7448
  27   2.0000      -0.513853       -13.9826
  28   2.0000      -0.489338       -13.3156
  29   2.0000      -0.426968       -11.6184
  30   2.0000      -0.422012       -11.4835
  31   2.0000      -0.344014        -9.3611
  32   0.0000       0.022076         0.6007
  33   0.0000       0.030340         0.8256
  34   0.0000       0.034673         0.9435
  35   0.0000       0.035109         0.9554
  36   0.0000       0.055529         1.5110

MULLIKEN ATOMIC CHARGES
-----------------------
   0 C :   -0.225788
   1 C :   -0.298531
   2 C :    0.468954
   3 C :    0.885296
   4 C :    0.159965
   5 N :   -0.557367
   6 N :   -0.618106
   7 O :   -0.775686
   8 O :   -0.763573
   9 H :    0.448692
  10 H :    0.597927
  11 H :    0.339109
  12 H :    0.339109
Sum of atomic charges:    0.0000000

LOEWDIN ATOMIC CHARGES
----------------------
   0 C :    0.093459
   1 C :   -0.192323
   2 C :   -0.539034
   3 C :   -0.816756
   4 C :   -0.094844
   5 N :    0.564780
   6 N :    0.594818
   7 O :    0.865989
   8 O :    0.876435
   9 H :   -0.339457
  10 H :   -0.386511
  11 H :   -0.313278
  12 H :   -0.313278

  Mayer bond orders larger than 0.100000
B(  0-C ,  2-C ) :   1.2528 B(  0-C ,  5-N ) :   1.1045 B(  0-C ,  7-O ) :   0.1641
B(  0-C ,  9-H ) :   0.8438 B(  1-C ,  5-N ) :   1.5241 B(  1-C ,  6-N ) :   1.3515
B(  1-C , 10-H ) :   0.6834 B(  2-C ,  3-C ) :   1.4931 B(  2-C ,  7-O ) :   0.4759
B(  2-C ,  8-O ) :   0.1860 B(  3-C ,  6-N ) :   1.1671 B(  3-C ,  7-O ) :   0.1826
B(  3-C ,  8-O ) :   0.6167 B(  4-C ,  7-O ) :   0.7874 B(  4-C ,  8-O ) :   0.7908
B(  4-C , 11-H ) :   0.8494 B(  4-C , 12-H ) :   0.8494 B(  7-O ,  8-O ) :   0.1020

MP2 TOTAL ENERGY:     -452.204844357 Eh
FINAL SINGLE POINT ENERGY      -452.204844356954

DIPOLE MOMENT
-------------
                                X             Y             Z
Electronic contribution:     -0.78242       0.48422       0.00000
Nuclear contribution   :      1.85321      -0.73371       0.00000
                        -----------------------------------------
Total Dipole Moment    :      1.07079      -0.24949       0.00000
                        -----------------------------------------
Magnitude (a.u.)       :      1.09948
Magnitude (Debye)      :      2.79464

Rotational constants in cm-1:     0.134160     0.056171     0.039901
Rotational constants in MHz :  4022.025579  1683.965400  1196.207185

                             ****ORCA TERMINATED NORMALLY****
TOTAL RUN TIME: 0 days 0 hours 38 minutes 51 seconds 651 msec
