                         Program Version 5.0.4 -  RELEASE  -
|  1> !ri-mp2 aug-cc-pvqz aug-cc-pvqz/c tightscf
|  2> %pal nprocs 16 end
|  3> %maxcore 3800
|  4>
|  5> * xyz 0 1
|  6> C     0.000000     0.000000    1.162215
|  7> C     0.000000     1.146150    0.130119
|  8> C     0.000000    -1.146150    0.130119
|  9> C     1.246419     0.777460   -0.711377
| 10> C    -1.246419     0.777460   -0.711377
| 11> C    -1.246419    -0.777460   -0.711377
| 12> C     1.246419    -0.777460   -0.711377
| 13> H    -0.887511     0.000000    1.799660
| 14> H     0.887511     0.000000    1.799660
| 15> C     0.000000     2.567261    0.662990
| 16> C     0.000000    -2.567261    0.662990
| 17> H     2.149630     1.169313   -0.239900
| 18> H    -2.149630    -1.169313   -0.239900
| 19> H     2.149630    -1.169313   -0.239900
| 20> H    -2.149630     1.169313   -0.239900
| 21> H     1.195920    -1.204338   -1.714197
| 22> H    -1.195920     1.204338   -1.714197
| 23> H     1.195920     1.204338   -1.714197
| 24> H    -1.195920    -1.204338   -1.714197
| 25> H     0.882939    -2.760591    1.276063
| 26> H     0.000000    -3.294790   -0.152370
| 27> H    -0.882939    -2.760591    1.276063
| 28> H    -0.882939     2.760591    1.276063
| 29> H     0.000000     3.294790   -0.152370
| 30> H     0.882939     2.760591    1.276063
| 31> *
| 32>
| 33>                          ****END OF INPUT****

CARTESIAN COORDINATES (ANGSTROEM)
---------------------------------
  C      0.000000    0.000000    1.162215
  C      0.000000    1.146150    0.130119
  C      0.000000   -1.146150    0.130119
  C      1.246419    0.777460   -0.711377
  C     -1.246419    0.777460   -0.711377
  C     -1.246419   -0.777460   -0.711377
  C      1.246419   -0.777460   -0.711377
  H     -0.887511    0.000000    1.799660
  H      0.887511    0.000000    1.799660
  C      0.000000    2.567261    0.662990
  C      0.000000   -2.567261    0.662990
  H      2.149630    1.169313   -0.239900
  H     -2.149630   -1.169313   -0.239900
  H      2.149630   -1.169313   -0.239900
  H     -2.149630    1.169313   -0.239900
  H      1.195920   -1.204338   -1.714197
  H     -1.195920    1.204338   -1.714197
  H      1.195920    1.204338   -1.714197
  H     -1.195920   -1.204338   -1.714197
  H      0.882939   -2.760591    1.276063
  H      0.000000   -3.294790   -0.152370
  H     -0.882939   -2.760591    1.276063
  H     -0.882939    2.760591    1.276063
  H      0.000000    3.294790   -0.152370
  H      0.882939    2.760591    1.276063

 Total Charge           Charge          ....    0
 Multiplicity           Mult            ....    1
 Number of Electrons    NEL             ....   70
 Basis Dimension        Dim             .... 1456

ORBITAL ENERGIES
----------------

  NO   OCC          E(Eh)            E(eV)
   0   2.0000     -11.221683      -305.3575
   1   2.0000     -11.221678      -305.3574
   2   2.0000     -11.209050      -305.0138
   3   2.0000     -11.209026      -305.0131
   4   2.0000     -11.208496      -304.9987
   5   2.0000     -11.208476      -304.9981
   6   2.0000     -11.205912      -304.9284
   7   2.0000     -11.205911      -304.9284
   8   2.0000     -11.205621      -304.9204
   9   2.0000      -1.166447       -31.7406
  10   2.0000      -1.035306       -28.1721
  11   2.0000      -0.995903       -27.0999
  12   2.0000      -0.960270       -26.1303
  13   2.0000      -0.924987       -25.1702
  14   2.0000      -0.874329       -23.7917
  15   2.0000      -0.824361       -22.4320
  16   2.0000      -0.739101       -20.1120
  17   2.0000      -0.703202       -19.1351
  18   2.0000      -0.643491       -17.5103
  19   2.0000      -0.628246       -17.0955
  20   2.0000      -0.624531       -16.9944
  21   2.0000      -0.576472       -15.6866
  22   2.0000      -0.560967       -15.2647
  23   2.0000      -0.553121       -15.0512
  24   2.0000      -0.546366       -14.8674
  25   2.0000      -0.543900       -14.8003
  26   2.0000      -0.516466       -14.0537
  27   2.0000      -0.496913       -13.5217
  28   2.0000      -0.474452       -12.9105
  29   2.0000      -0.463814       -12.6210
  30   2.0000      -0.459367       -12.5000
  31   2.0000      -0.446963       -12.1625
  32   2.0000      -0.434606       -11.8262
  33   2.0000      -0.413745       -11.2586
  34   2.0000      -0.407286       -11.0828
  35   0.0000       0.025694         0.6992
  36   0.0000       0.028931         0.7873
  37   0.0000       0.031511         0.8575
  38   0.0000       0.031680         0.8621
  39   0.0000       0.043768         1.1910

MULLIKEN ATOMIC CHARGES
-----------------------
   0 C :   -0.472636
   1 C :    1.086289
   2 C :    1.085780
   3 C :   -0.650069
   4 C :   -0.649895
   5 C :   -0.649961
   6 C :   -0.649693
   7 H :    0.241096
   8 H :    0.241054
   9 C :   -1.078850
  10 C :   -1.078861
  11 H :    0.177745
  12 H :    0.177813
  13 H :    0.177771
  14 H :    0.177749
  15 H :    0.212819
  16 H :    0.212584
  17 H :    0.212619
  18 H :    0.212686
  19 H :    0.171084
  20 H :    0.164829
  21 H :    0.171088
  22 H :    0.171031
  23 H :    0.164834
  24 H :    0.171094
Sum of atomic charges:    0.0000000

LOEWDIN ATOMIC CHARGES
----------------------
   0 C :    0.523262
   1 C :   -0.268442
   2 C :   -0.268442
   3 C :    0.558936
   4 C :    0.558936
   5 C :    0.558936
   6 C :    0.558936
   7 H :   -0.232270
   8 H :   -0.232270
   9 C :    0.949422
  10 C :    0.949422
  11 H :   -0.255705
  12 H :   -0.255705
  13 H :   -0.255705
  14 H :   -0.255705
  15 H :   -0.250598
  16 H :   -0.250598
  17 H :   -0.250598
  18 H :   -0.250598
  19 H :   -0.273968
  20 H :   -0.267672
  21 H :   -0.273968
  22 H :   -0.273968
  23 H :   -0.267672
  24 H :   -0.273968

  Mayer bond orders larger than 0.100000
B(  0-C ,  1-C ) :   0.7662 B(  0-C ,  2-C ) :   0.7665 B(  0-C ,  7-H ) :   0.9421
B(  0-C ,  8-H ) :   0.9422 B(  1-C ,  3-C ) :   0.6107 B(  1-C ,  4-C ) :   0.6104
B(  1-C ,  5-C ) :  -0.1197 B(  1-C ,  6-C ) :  -0.1198 B(  1-C , 22-H ) :  -0.2363
B(  1-C , 23-H ) :  -0.2060 B(  1-C , 24-H ) :  -0.2365 B(  2-C ,  3-C ) :  -0.1196
B(  2-C ,  4-C ) :  -0.1197 B(  2-C ,  5-C ) :   0.6107 B(  2-C ,  6-C ) :   0.6107
B(  2-C , 19-H ) :  -0.2363 B(  2-C , 20-H ) :  -0.2060 B(  2-C , 21-H ) :  -0.2363
B(  3-C ,  6-C ) :   1.0690 B(  3-C , 11-H ) :   1.0733 B(  3-C , 17-H ) :   1.0386
B(  4-C ,  5-C ) :   1.0691 B(  4-C , 14-H ) :   1.0733 B(  4-C , 16-H ) :   1.0387
B(  5-C , 12-H ) :   1.0732 B(  5-C , 18-H ) :   1.0386 B(  6-C , 13-H ) :   1.0733
B(  6-C , 15-H ) :   1.0385 B(  9-C , 22-H ) :   1.1608 B(  9-C , 23-H ) :   1.1745
B(  9-C , 24-H ) :   1.1608 B( 10-C , 19-H ) :   1.1608 B( 10-C , 20-H ) :   1.1745
B( 10-C , 21-H ) :   1.1607

MP2 TOTAL ENERGY:     -351.928952268 Eh
FINAL SINGLE POINT ENERGY      -351.928952267717

DIPOLE MOMENT
-------------
                                X             Y             Z
Electronic contribution:     -0.00000      -0.00000      -0.60777
Nuclear contribution   :      0.00000      -0.00000       0.61638
                        -----------------------------------------
Total Dipole Moment    :     -0.00000      -0.00000       0.00861
                        -----------------------------------------
Magnitude (a.u.)       :      0.00861
Magnitude (Debye)      :      0.02189

Rotational constants in cm-1:     0.093399     0.046877     0.043598
Rotational constants in MHz :  2800.040360  1405.329692  1307.026462

                             ****ORCA TERMINATED NORMALLY****
TOTAL RUN TIME: 0 days 3 hours 25 minutes 46 seconds 890 msec
