                         Program Version 5.0.4 -  RELEASE  -
|  1> !ri-mp2 aug-cc-pvqz aug-cc-pvqz/c tightscf
|  2> %pal nprocs 16 end
|  3>
|  4> * xyz 0 1
|  5> C     -1.755788   -1.135628    0.000000
|  6> C     -1.135780    0.259439    0.000000
|  7> C      0.373557    0.244819    0.000000
|  8> F      0.879802   -0.382880    1.085643
|  9> F      0.879802    1.498257    0.000000
| 10> F      0.879802   -0.382880   -1.085643
| 11> H     -1.459013   -1.700292    0.882744
| 12> H     -2.842020   -1.057015    0.000000
| 13> H     -1.459013   -1.700292   -0.882744
| 14> H     -1.443277    0.826675    0.878962
| 15> H     -1.443277    0.826675   -0.878962
| 16> *
| 17>
| 18>                          ****END OF INPUT****

CARTESIAN COORDINATES (ANGSTROEM)
---------------------------------
  C     -1.755788   -1.135628    0.000000
  C     -1.135780    0.259439    0.000000
  C      0.373557    0.244819    0.000000
  F      0.879802   -0.382880    1.085643
  F      0.879802    1.498257    0.000000
  F      0.879802   -0.382880   -1.085643
  H     -1.459013   -1.700292    0.882744
  H     -2.842020   -1.057015    0.000000
  H     -1.459013   -1.700292   -0.882744
  H     -1.443277    0.826675    0.878962
  H     -1.443277    0.826675   -0.878962

 Total Charge           Charge          ....    0
 Multiplicity           Mult            ....    1
 Number of Electrons    NEL             ....   50
 Basis Dimension        Dim             ....  710

ORBITAL ENERGIES
----------------

  NO   OCC          E(Eh)            E(eV)
   0   2.0000     -26.327537      -716.4087
   1   2.0000     -26.327517      -716.4082
   2   2.0000     -26.327216      -716.4000
   3   2.0000     -11.498908      -312.9012
   4   2.0000     -11.260692      -306.4190
   5   2.0000     -11.237561      -305.7896
   6   2.0000      -1.715537       -46.6821
   7   2.0000      -1.622453       -44.1492
   8   2.0000      -1.622343       -44.1462
   9   2.0000      -1.096143       -29.8276
  10   2.0000      -0.963697       -26.2235
  11   2.0000      -0.882815       -24.0226
  12   2.0000      -0.813406       -22.1339
  13   2.0000      -0.811061       -22.0701
  14   2.0000      -0.763555       -20.7774
  15   2.0000      -0.705904       -19.2086
  16   2.0000      -0.702351       -19.1119
  17   2.0000      -0.660062       -17.9612
  18   2.0000      -0.656286       -17.8584
  19   2.0000      -0.641649       -17.4602
  20   2.0000      -0.623012       -16.9530
  21   2.0000      -0.603711       -16.4278
  22   2.0000      -0.545298       -14.8383
  23   2.0000      -0.525855       -14.3093
  24   2.0000      -0.523750       -14.2520
  25   0.0000       0.023953         0.6518
  26   0.0000       0.035593         0.9685
  27   0.0000       0.036445         0.9917
  28   0.0000       0.043704         1.1892
  29   0.0000       0.056991         1.5508

MULLIKEN ATOMIC CHARGES
-----------------------
   0 C :   -0.775110
   1 C :   -0.639363
   2 C :    1.941093
   3 F :   -0.638486
   4 F :   -0.646967
   5 F :   -0.638486
   6 H :    0.251731
   7 H :    0.276668
   8 H :    0.251731
   9 H :    0.308595
  10 H :    0.308595
Sum of atomic charges:   -0.0000000

LOEWDIN ATOMIC CHARGES
----------------------
   0 C :    0.913054
   1 C :    0.393998
   2 C :   -2.105684
   3 F :    0.757230
   4 F :    0.754543
   5 F :    0.757230
   6 H :   -0.290762
   7 H :   -0.283360
   8 H :   -0.290762
   9 H :   -0.302743
  10 H :   -0.302743

  Mayer bond orders larger than 0.100000
B(  0-C ,  1-C ) :   0.9580 B(  0-C ,  6-H ) :   0.9316 B(  0-C ,  7-H ) :   0.9506
B(  0-C ,  8-H ) :   0.9316 B(  1-C ,  2-C ) :   1.0278 B(  1-C ,  9-H ) :   0.8509
B(  1-C , 10-H ) :   0.8509 B(  2-C ,  3-F ) :   0.4352 B(  2-C ,  4-F ) :   0.4229
B(  2-C ,  5-F ) :   0.4352

MP2 TOTAL ENERGY:     -416.423379666 Eh
FINAL SINGLE POINT ENERGY      -416.423379666391

DIPOLE MOMENT
-------------
                                X             Y             Z
Electronic contribution:      9.70299       3.29965      -0.00000
Nuclear contribution   :    -10.77550      -3.37789       0.00000
                        -----------------------------------------
Total Dipole Moment    :     -1.07252      -0.07824      -0.00000
                        -----------------------------------------
Magnitude (a.u.)       :      1.07537
Magnitude (Debye)      :      2.73336

Rotational constants in cm-1:     0.172708     0.090961     0.090094
Rotational constants in MHz :  5177.668099  2726.950536  2700.937707

                             ****ORCA TERMINATED NORMALLY****
TOTAL RUN TIME: 0 days 0 hours 12 minutes 19 seconds 197 msec
