                         Program Version 5.0.4 -  RELEASE  -
|  1> !ri-mp2 aug-cc-pvqz aug-cc-pvqz/c tightscf
|  2> %pal nprocs 16 end
|  3>
|  4> * xyz 0 1
|  5> S      1.790737   -0.475898   -0.000002
|  6> N      1.364374    1.134172   -0.000002
|  7> N     -3.240588   -0.146020   -0.000007
|  8> C     -0.672756    0.008613    0.000004
|  9> C      0.191251   -1.060988    0.000003
| 10> C      0.060358    1.235299    0.000002
| 11> C     -2.089661   -0.084352    0.000005
| 12> H     -0.056134   -2.109489    0.000004
| 13> H     -0.397308    2.215358    0.000003
| 14> *
| 15>
| 16>                          ****END OF INPUT****

CARTESIAN COORDINATES (ANGSTROEM)
---------------------------------
  S      1.790737   -0.475898   -0.000002
  N      1.364374    1.134172   -0.000002
  N     -3.240588   -0.146020   -0.000007
  C     -0.672756    0.008613    0.000004
  C      0.191251   -1.060988    0.000003
  C      0.060358    1.235299    0.000002
  C     -2.089661   -0.084352    0.000005
  H     -0.056134   -2.109489    0.000004
  H     -0.397308    2.215358    0.000003

 Total Charge           Charge          ....    0
 Multiplicity           Mult            ....    1
 Number of Electrons    NEL             ....   56
 Basis Dimension        Dim             ....  656

ORBITAL ENERGIES
----------------

  NO   OCC          E(Eh)            E(eV)
   0   2.0000     -92.043864     -2504.6409
   1   2.0000     -15.618939      -425.0129
   2   2.0000     -15.585985      -424.1162
   3   2.0000     -11.327239      -308.2298
   4   2.0000     -11.319314      -308.0142
   5   2.0000     -11.304405      -307.6085
   6   2.0000     -11.291489      -307.2570
   7   2.0000      -9.042361      -246.0551
   8   2.0000      -6.723482      -182.9552
   9   2.0000      -6.722569      -182.9304
  10   2.0000      -6.722155      -182.9191
  11   2.0000      -1.311151       -35.6782
  12   2.0000      -1.236653       -33.6510
  13   2.0000      -1.114580       -30.3293
  14   2.0000      -1.050421       -28.5834
  15   2.0000      -0.865866       -23.5614
  16   2.0000      -0.831206       -22.6183
  17   2.0000      -0.774298       -21.0697
  18   2.0000      -0.648657       -17.6509
  19   2.0000      -0.630291       -17.1511
  20   2.0000      -0.606325       -16.4989
  21   2.0000      -0.574757       -15.6399
  22   2.0000      -0.532468       -14.4892
  23   2.0000      -0.514764       -14.0075
  24   2.0000      -0.499396       -13.5893
  25   2.0000      -0.468776       -12.7560
  26   2.0000      -0.408046       -11.1035
  27   2.0000      -0.380316       -10.3489
  28   0.0000       0.020479         0.5573
  29   0.0000       0.030053         0.8178
  30   0.0000       0.045469         1.2373
  31   0.0000       0.046610         1.2683
  32   0.0000       0.052846         1.4380

MULLIKEN ATOMIC CHARGES
-----------------------
   0 S :    0.526948
   1 N :   -0.729402
   2 N :   -0.690781
   3 C :   -0.001328
   4 C :   -0.699638
   5 C :   -0.021256
   6 C :    0.687913
   7 H :    0.415158
   8 H :    0.512385
Sum of atomic charges:   -0.0000000

LOEWDIN ATOMIC CHARGES
----------------------
   0 S :    1.142377
   1 N :    0.127616
   2 N :    0.405236
   3 C :   -0.376781
   4 C :   -0.100924
   5 C :   -0.143857
   6 C :   -0.332243
   7 H :   -0.378652
   8 H :   -0.342773

  Mayer bond orders larger than 0.100000
B(  0-S ,  1-N ) :   0.9981 B(  0-S ,  3-C ) :  -0.2054 B(  0-S ,  4-C ) :   1.3672
B(  0-S ,  5-C ) :   0.1087 B(  1-N ,  4-C ) :   0.1075 B(  1-N ,  5-C ) :   1.5654
B(  2-N ,  6-C ) :   2.4116 B(  3-C ,  4-C ) :   1.1239 B(  3-C ,  5-C ) :   1.0627
B(  3-C ,  6-C ) :   1.2681 B(  4-C ,  6-C ) :  -0.1113 B(  4-C ,  7-H ) :   0.8644
B(  5-C ,  6-C ) :  -0.1261 B(  5-C ,  8-H ) :   0.7677

MP2 TOTAL ENERGY:     -660.420019543 Eh
FINAL SINGLE POINT ENERGY      -660.420019542914

DIPOLE MOMENT
-------------
                                X             Y             Z
Electronic contribution:      1.48236      -0.65633       0.00000
Nuclear contribution   :     -0.49630       0.12066       0.00001
                        -----------------------------------------
Total Dipole Moment    :      0.98606      -0.53567       0.00001
                        -----------------------------------------
Magnitude (a.u.)       :      1.12217
Magnitude (Debye)      :      2.85233

Rotational constants in cm-1:     0.251819     0.050396     0.041992
Rotational constants in MHz :  7549.356261  1510.828435  1258.890684

                             ****ORCA TERMINATED NORMALLY****
TOTAL RUN TIME: 0 days 0 hours 11 minutes 28 seconds 340 msec
