                         Program Version 5.0.4 -  RELEASE  -
|  1> !ri-mp2 aug-cc-pvqz aug-cc-pvqz/c tightscf
|  2> %pal nprocs 16 end
|  3> %maxcore 3800
|  4>
|  5> * xyz 0 1
|  6> C      2.945747   -1.326432   -0.272137
|  7> C     -3.205462   -0.965279   -0.174465
|  8> C      0.235796    2.251178   -0.163046
|  9> C      2.118990   -0.257690    0.413385
| 10> C     -1.783395   -0.782436    0.311995
| 11> C     -0.023554    0.819576    0.264379
| 12> O      0.911871   -0.083840   -0.314715
| 13> O     -1.302450    0.472628   -0.168283
| 14> H      3.881046   -1.483282    0.266831
| 15> H      2.403192   -2.271186   -0.304900
| 16> H      3.182130   -1.032240   -1.294481
| 17> H     -3.603189   -1.917908    0.177985
| 18> H     -3.848536   -0.165468    0.192996
| 19> H     -3.241225   -0.960448   -1.263778
| 20> H      0.138687    2.326594   -1.245260
| 21> H      1.239390    2.563008    0.124892
| 22> H     -0.483643    2.921348    0.306118
| 23> H      2.680904    0.683225    0.457447
| 24> H      1.890021   -0.550298    1.446690
| 25> H     -1.139904   -1.586590   -0.051523
| 26> H     -1.743586   -0.787738    1.409110
| 27> H      0.040618    0.717179    1.361201
| 28> *
| 29>
| 30>                          ****END OF INPUT****

CARTESIAN COORDINATES (ANGSTROEM)
---------------------------------
  C      2.945747   -1.326432   -0.272137
  C     -3.205462   -0.965279   -0.174465
  C      0.235796    2.251178   -0.163046
  C      2.118990   -0.257690    0.413385
  C     -1.783395   -0.782436    0.311995
  C     -0.023554    0.819576    0.264379
  O      0.911871   -0.083840   -0.314715
  O     -1.302450    0.472628   -0.168283
  H      3.881046   -1.483282    0.266831
  H      2.403192   -2.271186   -0.304900
  H      3.182130   -1.032240   -1.294481
  H     -3.603189   -1.917908    0.177985
  H     -3.848536   -0.165468    0.192996
  H     -3.241225   -0.960448   -1.263778
  H      0.138687    2.326594   -1.245260
  H      1.239390    2.563008    0.124892
  H     -0.483643    2.921348    0.306118
  H      2.680904    0.683225    0.457447
  H      1.890021   -0.550298    1.446690
  H     -1.139904   -1.586590   -0.051523
  H     -1.743586   -0.787738    1.409110
  H      0.040618    0.717179    1.361201

 Total Charge           Charge          ....    0
 Multiplicity           Mult            ....    1
 Number of Electrons    NEL             ....   66
 Basis Dimension        Dim             .... 1284

ORBITAL ENERGIES
----------------

  NO   OCC          E(Eh)            E(eV)
   0   2.0000     -20.550327      -559.2028
   1   2.0000     -20.548806      -559.1614
   2   2.0000     -11.327660      -308.2413
   3   2.0000     -11.276446      -306.8477
   4   2.0000     -11.268182      -306.6228
   5   2.0000     -11.214254      -305.1554
   6   2.0000     -11.209882      -305.0364
   7   2.0000     -11.209276      -305.0199
   8   2.0000      -1.407650       -38.3041
   9   2.0000      -1.338751       -36.4293
  10   2.0000      -1.047566       -28.5057
  11   2.0000      -1.009580       -27.4721
  12   2.0000      -0.977396       -26.5963
  13   2.0000      -0.854395       -23.2493
  14   2.0000      -0.835058       -22.7231
  15   2.0000      -0.813564       -22.1382
  16   2.0000      -0.694718       -18.9042
  17   2.0000      -0.683555       -18.6005
  18   2.0000      -0.661445       -17.9988
  19   2.0000      -0.623600       -16.9690
  20   2.0000      -0.609125       -16.5751
  21   2.0000      -0.565472       -15.3873
  22   2.0000      -0.560601       -15.2547
  23   2.0000      -0.548239       -14.9183
  24   2.0000      -0.536942       -14.6109
  25   2.0000      -0.525255       -14.2929
  26   2.0000      -0.518873       -14.1193
  27   2.0000      -0.513642       -13.9769
  28   2.0000      -0.495805       -13.4915
  29   2.0000      -0.477667       -12.9980
  30   2.0000      -0.470641       -12.8068
  31   2.0000      -0.431256       -11.7351
  32   2.0000      -0.419798       -11.4233
  33   0.0000       0.025514         0.6943
  34   0.0000       0.029937         0.8146
  35   0.0000       0.031960         0.8697
  36   0.0000       0.033336         0.9071
  37   0.0000       0.043831         1.1927

MULLIKEN ATOMIC CHARGES
-----------------------
   0 C :   -0.878039
   1 C :   -0.878675
   2 C :   -1.018801
   3 C :   -0.091055
   4 C :    0.024477
   5 C :    1.201976
   6 O :   -0.885039
   7 O :   -1.006097
   8 H :    0.270844
   9 H :    0.240415
  10 H :    0.237297
  11 H :    0.276164
  12 H :    0.227257
  13 H :    0.236387
  14 H :    0.276027
  15 H :    0.257929
  16 H :    0.269015
  17 H :    0.289991
  18 H :    0.271254
  19 H :    0.260502
  20 H :    0.250425
  21 H :    0.167747
Sum of atomic charges:   -0.0000000

LOEWDIN ATOMIC CHARGES
----------------------
   0 C :    0.909546
   1 C :    0.909167
   2 C :    0.901439
   3 C :    0.139040
   4 C :    0.158924
   5 C :   -0.634620
   6 O :    0.893835
   7 O :    0.892915
   8 H :   -0.291537
   9 H :   -0.291728
  10 H :   -0.290107
  11 H :   -0.293124
  12 H :   -0.292333
  13 H :   -0.291502
  14 H :   -0.289789
  15 H :   -0.301575
  16 H :   -0.286644
  17 H :   -0.300851
  18 H :   -0.297487
  19 H :   -0.308253
  20 H :   -0.297102
  21 H :   -0.338213

  Mayer bond orders larger than 0.100000
B(  0-C ,  3-C ) :   0.8968 B(  0-C ,  8-H ) :   0.9944 B(  0-C ,  9-H ) :   0.9440
B(  0-C , 10-H ) :   0.9506 B(  1-C ,  4-C ) :   0.8434 B(  1-C , 11-H ) :   0.9981
B(  1-C , 12-H ) :   0.9765 B(  1-C , 13-H ) :   0.9553 B(  2-C ,  5-C ) :   0.5698
B(  2-C ,  7-O ) :   0.1217 B(  2-C , 14-H ) :   0.9285 B(  2-C , 15-H ) :   1.0278
B(  2-C , 16-H ) :   0.9814 B(  3-C ,  6-O ) :   0.9722 B(  3-C , 17-H ) :   0.8475
B(  3-C , 18-H ) :   0.8708 B(  4-C ,  7-O ) :   0.9432 B(  4-C , 19-H ) :   0.8260
B(  4-C , 20-H ) :   0.8738 B(  5-C ,  6-O ) :   0.3942 B(  5-C ,  7-O ) :   0.5378
B(  5-C , 15-H ) :  -0.1154 B(  5-C , 21-H ) :   0.9660

MP2 TOTAL ENERGY:     -386.881974760 Eh
FINAL SINGLE POINT ENERGY      -386.881974759586

DIPOLE MOMENT
-------------
                                X             Y             Z
Electronic contribution:     -1.07815       1.48813      -0.94302
Nuclear contribution   :      1.45768      -1.61284       1.65274
                        -----------------------------------------
Total Dipole Moment    :      0.37953      -0.12471       0.70972
                        -----------------------------------------
Magnitude (a.u.)       :      0.81443
Magnitude (Debye)      :      2.07012

Rotational constants in cm-1:     0.098925     0.036115     0.028139
Rotational constants in MHz :  2965.703251  1082.688585   843.582892

                             ****ORCA TERMINATED NORMALLY****
TOTAL RUN TIME: 0 days 1 hours 14 minutes 35 seconds 520 msec
