                         Program Version 5.0.4 -  RELEASE  -
|  1> !ri-mp2 aug-cc-pvqz aug-cc-pvqz/c tightscf
|  2> %pal nprocs 16 end
|  3>
|  4> * xyz 0 1
|  5> C     -1.857174    0.019065   -0.276434
|  6> C     -0.721381   -0.297100    0.333323
|  7> C      1.726840   -0.243467   -0.291830
|  8> C      0.536972    0.517277    0.306749
|  9> H     -2.729067   -0.618792   -0.220189
| 10> H     -1.956005    0.931088   -0.853592
| 11> H     -0.671041   -1.224905    0.898141
| 12> H      2.633033    0.362779   -0.261767
| 13> H      1.534052   -0.514731   -1.330436
| 14> H      1.923869   -1.164107    0.260591
| 15> H      0.363340    1.438791   -0.253243
| 16> H      0.790277    0.815231    1.329652
| 17> *
| 18>
| 19>                          ****END OF INPUT****

CARTESIAN COORDINATES (ANGSTROEM)
---------------------------------
  C     -1.857174    0.019065   -0.276434
  C     -0.721381   -0.297100    0.333323
  C      1.726840   -0.243467   -0.291830
  C      0.536972    0.517277    0.306749
  H     -2.729067   -0.618792   -0.220189
  H     -1.956005    0.931088   -0.853592
  H     -0.671041   -1.224905    0.898141
  H      2.633033    0.362779   -0.261767
  H      1.534052   -0.514731   -1.330436
  H      1.923869   -1.164107    0.260591
  H      0.363340    1.438791   -0.253243
  H      0.790277    0.815231    1.329652

 Total Charge           Charge          ....    0
 Multiplicity           Mult            ....    1
 Number of Electrons    NEL             ....   32
 Basis Dimension        Dim             ....  688

ORBITAL ENERGIES
----------------

  NO   OCC          E(Eh)            E(eV)
   0   2.0000     -11.229272      -305.5640
   1   2.0000     -11.224735      -305.4406
   2   2.0000     -11.215712      -305.1950
   3   2.0000     -11.214579      -305.1642
   4   2.0000      -1.079841       -29.3840
   5   2.0000      -0.989120       -26.9153
   6   2.0000      -0.856519       -23.3071
   7   2.0000      -0.754861       -20.5408
   8   2.0000      -0.642619       -17.4865
   9   2.0000      -0.606759       -16.5108
  10   2.0000      -0.585416       -15.9300
  11   2.0000      -0.535476       -14.5710
  12   2.0000      -0.517500       -14.0819
  13   2.0000      -0.487062       -13.2536
  14   2.0000      -0.475153       -12.9296
  15   2.0000      -0.359770        -9.7898
  16   0.0000       0.028085         0.7642
  17   0.0000       0.032534         0.8853
  18   0.0000       0.035181         0.9573
  19   0.0000       0.038353         1.0436
  20   0.0000       0.049150         1.3374

MULLIKEN ATOMIC CHARGES
-----------------------
   0 C :   -0.897898
   1 C :   -0.414864
   2 C :   -0.846728
   3 C :   -0.276317
   4 H :    0.358904
   5 H :    0.330808
   6 H :    0.423870
   7 H :    0.283100
   8 H :    0.265842
   9 H :    0.232515
  10 H :    0.271381
  11 H :    0.269387
Sum of atomic charges:    0.0000000

LOEWDIN ATOMIC CHARGES
----------------------
   0 C :    0.792626
   1 C :    0.342707
   2 C :    0.914099
   3 C :    0.456644
   4 H :   -0.360852
   5 H :   -0.356875
   6 H :   -0.327519
   7 H :   -0.287101
   8 H :   -0.286671
   9 H :   -0.290829
  10 H :   -0.309845
  11 H :   -0.286383

  Mayer bond orders larger than 0.100000
B(  0-C ,  1-C ) :   1.8513 B(  0-C ,  4-H ) :   0.9499 B(  0-C ,  5-H ) :   0.9038
B(  1-C ,  3-C ) :   0.8073 B(  1-C ,  6-H ) :   0.7963 B(  2-C ,  3-C ) :   1.0322
B(  2-C ,  7-H ) :   0.9454 B(  2-C ,  8-H ) :   0.9281 B(  2-C ,  9-H ) :   0.9311
B(  3-C , 10-H ) :   0.9074 B(  3-C , 11-H ) :   0.8625

MP2 TOTAL ENERGY:     -156.904384729 Eh
FINAL SINGLE POINT ENERGY      -156.904384729390

DIPOLE MOMENT
-------------
                                X             Y             Z
Electronic contribution:     -1.86194      -0.00227       0.50127
Nuclear contribution   :      2.02276       0.02716      -0.46149
                        -----------------------------------------
Total Dipole Moment    :      0.16082       0.02489       0.03979
                        -----------------------------------------
Magnitude (a.u.)       :      0.16753
Magnitude (Debye)      :      0.42582

Rotational constants in cm-1:     0.764516     0.138033     0.134798
Rotational constants in MHz : 22919.607201  4138.114896  4041.146910

                             ****ORCA TERMINATED NORMALLY****
TOTAL RUN TIME: 0 days 0 hours 11 minutes 32 seconds 680 msec
