                         Program Version 5.0.4 -  RELEASE  -
|  1> !ri-mp2 aug-cc-pvqz aug-cc-pvqz/c tightscf
|  2> %pal nprocs 16 end
|  3>
|  4> * xyz 0 1
|  5> O     2.804747    0.017257   -0.101685
|  6> N    -0.501813   -1.172528    0.046451
|  7> N    -0.518237    1.148566    0.064488
|  8> N    -1.829526   -0.691292   -0.149633
|  9> C     0.336696    0.001975    0.169153
| 10> C    -1.784183    0.580024   -0.127805
| 11> C     1.635206    0.015429   -0.087720
| 12> H    -0.507329   -1.788898    0.852503
| 13> H    -0.455507    1.869545    0.772931
| 14> H    -2.654421    1.203511   -0.262863
| 15> *
| 16>
| 17>                          ****END OF INPUT****

CARTESIAN COORDINATES (ANGSTROEM)
---------------------------------
  O      2.804747    0.017257   -0.101685
  N     -0.501813   -1.172528    0.046451
  N     -0.518237    1.148566    0.064488
  N     -1.829526   -0.691292   -0.149633
  C      0.336696    0.001975    0.169153
  C     -1.784183    0.580024   -0.127805
  C      1.635206    0.015429   -0.087720
  H     -0.507329   -1.788898    0.852503
  H     -0.455507    1.869545    0.772931
  H     -2.654421    1.203511   -0.262863

 Total Charge           Charge          ....    0
 Multiplicity           Mult            ....    1
 Number of Electrons    NEL             ....   50
 Basis Dimension        Dim             ....  698

ORBITAL ENERGIES
----------------

  NO   OCC          E(Eh)            E(eV)
   0   2.0000     -20.625708      -561.2541
   1   2.0000     -15.612507      -424.8379
   2   2.0000     -15.611391      -424.8076
   3   2.0000     -15.600575      -424.5132
   4   2.0000     -11.372083      -309.4501
   5   2.0000     -11.323475      -308.1274
   6   2.0000     -11.318171      -307.9831
   7   2.0000      -1.464361       -39.8473
   8   2.0000      -1.379721       -37.5441
   9   2.0000      -1.217848       -33.1393
  10   2.0000      -1.133437       -30.8424
  11   2.0000      -0.984939       -26.8016
  12   2.0000      -0.835178       -22.7263
  13   2.0000      -0.807302       -21.9678
  14   2.0000      -0.736882       -20.0516
  15   2.0000      -0.690308       -18.7842
  16   2.0000      -0.668803       -18.1991
  17   2.0000      -0.652153       -17.7460
  18   2.0000      -0.629012       -17.1163
  19   2.0000      -0.591104       -16.0848
  20   2.0000      -0.581723       -15.8295
  21   2.0000      -0.477825       -13.0023
  22   2.0000      -0.470001       -12.7894
  23   2.0000      -0.428683       -11.6650
  24   2.0000      -0.302807        -8.2398
  25   0.0000       0.017498         0.4761
  26   0.0000       0.033335         0.9071
  27   0.0000       0.035290         0.9603
  28   0.0000       0.047605         1.2954
  29   0.0000       0.067322         1.8319

MULLIKEN ATOMIC CHARGES
-----------------------
   0 O :   -0.705193
   1 N :   -0.300901
   2 N :   -0.528050
   3 N :   -0.519099
   4 C :   -0.142298
   5 C :   -0.070794
   6 C :    1.043482
   7 H :    0.303786
   8 H :    0.323409
   9 H :    0.595658
Sum of atomic charges:   -0.0000000

LOEWDIN ATOMIC CHARGES
----------------------
   0 O :    0.604092
   1 N :    0.581444
   2 N :    0.782852
   3 N :    0.449730
   4 C :   -0.509086
   5 C :   -0.096686
   6 C :   -0.417294
   7 H :   -0.562412
   8 H :   -0.498076
   9 H :   -0.334565

  Mayer bond orders larger than 0.100000
B(  0-O ,  4-C ) :   0.2982 B(  0-O ,  6-C ) :   1.4950 B(  1-N ,  3-N ) :   0.6801
B(  1-N ,  4-C ) :   0.9051 B(  1-N ,  7-H ) :   0.8669 B(  2-N ,  4-C ) :   0.8762
B(  2-N ,  5-C ) :   1.1976 B(  2-N ,  8-H ) :   0.8514 B(  3-N ,  5-C ) :   1.7905
B(  4-C ,  6-C ) :   1.9700 B(  5-C ,  9-H ) :   0.6588

MP2 TOTAL ENERGY:     -354.979419791 Eh
FINAL SINGLE POINT ENERGY      -354.979419791001

DIPOLE MOMENT
-------------
                                X             Y             Z
Electronic contribution:      2.87905      -0.31715      -0.45381
Nuclear contribution   :     -3.47242       1.23838       1.31626
                        -----------------------------------------
Total Dipole Moment    :     -0.59337       0.92123       0.86245
                        -----------------------------------------
Magnitude (a.u.)       :      1.39448
Magnitude (Debye)      :      3.54448

Rotational constants in cm-1:     0.284730     0.064388     0.053371
Rotational constants in MHz :  8535.980253  1930.292405  1600.034666

                             ****ORCA TERMINATED NORMALLY****
TOTAL RUN TIME: 0 days 0 hours 12 minutes 14 seconds 891 msec
