                         Program Version 5.0.4 -  RELEASE  -
|  1> !ri-mp2 aug-cc-pvqz aug-cc-pvqz/c tightscf
|  2> %pal nprocs 16 end
|  3>
|  4> * xyz 0 1
|  5> C     0.000000     0.000000    0.156756
|  6> C     0.000000     1.260347   -0.704215
|  7> C     0.000000    -1.260347   -0.704215
|  8> H     0.877590     0.000000    0.806673
|  9> H    -0.877590     0.000000    0.806673
| 10> S     0.000000     2.743925    0.388305
| 11> S     0.000000    -2.743925    0.388305
| 12> H     0.000000     3.667139   -0.589694
| 13> H     0.000000    -3.667139   -0.589694
| 14> H     0.885217     1.290973   -1.337416
| 15> H    -0.885217     1.290973   -1.337416
| 16> H    -0.885217    -1.290973   -1.337416
| 17> H     0.885217    -1.290973   -1.337416
| 18> *
| 19>
| 20>                          ****END OF INPUT****

CARTESIAN COORDINATES (ANGSTROEM)
---------------------------------
  C      0.000000    0.000000    0.156756
  C      0.000000    1.260347   -0.704215
  C      0.000000   -1.260347   -0.704215
  H      0.877590    0.000000    0.806673
  H     -0.877590    0.000000    0.806673
  S      0.000000    2.743925    0.388305
  S      0.000000   -2.743925    0.388305
  H      0.000000    3.667139   -0.589694
  H      0.000000   -3.667139   -0.589694
  H      0.885217    1.290973   -1.337416
  H     -0.885217    1.290973   -1.337416
  H     -0.885217   -1.290973   -1.337416
  H      0.885217   -1.290973   -1.337416

 Total Charge           Charge          ....    0
 Multiplicity           Mult            ....    1
 Number of Electrons    NEL             ....   58
 Basis Dimension        Dim             ....  776

ORBITAL ENERGIES
----------------

  NO   OCC          E(Eh)            E(eV)
   0   2.0000     -91.953787     -2502.1897
   1   2.0000     -91.953787     -2502.1897
   2   2.0000     -11.269337      -306.6542
   3   2.0000     -11.269337      -306.6542
   4   2.0000     -11.244758      -305.9854
   5   2.0000      -8.955901      -243.7024
   6   2.0000      -8.955900      -243.7024
   7   2.0000      -6.637470      -180.6148
   8   2.0000      -6.637470      -180.6148
   9   2.0000      -6.636568      -180.5902
  10   2.0000      -6.636567      -180.5902
  11   2.0000      -6.635618      -180.5643
  12   2.0000      -6.635618      -180.5643
  13   2.0000      -1.107788       -30.1444
  14   2.0000      -1.031972       -28.0814
  15   2.0000      -0.944388       -25.6981
  16   2.0000      -0.851295       -23.1649
  17   2.0000      -0.813112       -22.1259
  18   2.0000      -0.669181       -18.2093
  19   2.0000      -0.614455       -16.7202
  20   2.0000      -0.588247       -16.0070
  21   2.0000      -0.579251       -15.7622
  22   2.0000      -0.538633       -14.6570
  23   2.0000      -0.506559       -13.7842
  24   2.0000      -0.488483       -13.2923
  25   2.0000      -0.457648       -12.4532
  26   2.0000      -0.450099       -12.2478
  27   2.0000      -0.363781        -9.8990
  28   2.0000      -0.358679        -9.7602
  29   0.0000       0.023272         0.6333
  30   0.0000       0.029043         0.7903
  31   0.0000       0.035416         0.9637
  32   0.0000       0.039110         1.0642
  33   0.0000       0.046389         1.2623

MULLIKEN ATOMIC CHARGES
-----------------------
   0 C :   -0.200429
   1 C :   -0.456735
   2 C :   -0.456735
   3 H :    0.298740
   4 H :    0.298740
   5 S :   -0.242927
   6 S :   -0.242927
   7 H :    0.008718
   8 H :    0.008718
   9 H :    0.246209
  10 H :    0.246209
  11 H :    0.246209
  12 H :    0.246209
Sum of atomic charges:    0.0000000

LOEWDIN ATOMIC CHARGES
----------------------
   0 C :    0.280080
   1 C :    0.103456
   2 C :    0.103456
   3 H :   -0.317059
   4 H :   -0.317059
   5 S :    1.576601
   6 S :    1.576601
   7 H :   -0.787272
   8 H :   -0.787272
   9 H :   -0.357883
  10 H :   -0.357883
  11 H :   -0.357883
  12 H :   -0.357883

  Mayer bond orders larger than 0.100000
B(  0-C ,  1-C ) :   0.8733 B(  0-C ,  2-C ) :   0.8733 B(  0-C ,  3-H ) :   0.8554
B(  0-C ,  4-H ) :   0.8554 B(  0-C ,  5-S ) :  -0.1854 B(  0-C ,  6-S ) :  -0.1854
B(  1-C ,  5-S ) :   0.9210 B(  1-C ,  9-H ) :   0.9145 B(  1-C , 10-H ) :   0.9145
B(  2-C ,  6-S ) :   0.9210 B(  2-C , 11-H ) :   0.9145 B(  2-C , 12-H ) :   0.9145
B(  5-S ,  7-H ) :   1.0822 B(  6-S ,  8-H ) :   1.0822

MP2 TOTAL ENERGY:     -914.365417191 Eh
FINAL SINGLE POINT ENERGY      -914.365417191194

DIPOLE MOMENT
-------------
                                X             Y             Z
Electronic contribution:     -0.00000       0.00000       3.83597
Nuclear contribution   :      0.00000       0.00000      -4.97214
                        -----------------------------------------
Total Dipole Moment    :     -0.00000       0.00000      -1.13617
                        -----------------------------------------
Magnitude (a.u.)       :      1.13617
Magnitude (Debye)      :      2.88791

Rotational constants in cm-1:     0.473656     0.030132     0.028785
Rotational constants in MHz : 14199.849654   903.320356   862.960020

                             ****ORCA TERMINATED NORMALLY****
TOTAL RUN TIME: 0 days 0 hours 17 minutes 27 seconds 53 msec
