                         Program Version 5.0.4 -  RELEASE  -
|  1> !ri-mp2 aug-cc-pvqz aug-cc-pvqz/c tightscf
|  2> %pal nprocs 16 end
|  3>
|  4> * xyz 0 1
|  5> O      1.086627   -0.768894   -0.000019
|  6> O     -1.086627   -0.768894   -0.000018
|  7> N      3.344570    0.172429    0.000005
|  8> N     -3.344570    0.172429    0.000011
|  9> C      0.000000    0.087074   -0.000001
| 10> C      2.270510   -0.244533   -0.000005
| 11> C     -2.270510   -0.244533   -0.000002
| 12> C      0.000000    1.401601    0.000027
| 13> H     -0.931172    1.945319    0.000038
| 14> H      0.931172    1.945319    0.000038
| 15> *
| 16>
| 17>                          ****END OF INPUT****

CARTESIAN COORDINATES (ANGSTROEM)
---------------------------------
  O      1.086627   -0.768894   -0.000019
  O     -1.086627   -0.768894   -0.000018
  N      3.344570    0.172429    0.000005
  N     -3.344570    0.172429    0.000011
  C      0.000000    0.087074   -0.000001
  C      2.270510   -0.244533   -0.000005
  C     -2.270510   -0.244533   -0.000002
  C      0.000000    1.401601    0.000027
  H     -0.931172    1.945319    0.000038
  H      0.931172    1.945319    0.000038

 Total Charge           Charge          ....    0
 Multiplicity           Mult            ....    1
 Number of Electrons    NEL             ....   56
 Basis Dimension        Dim             ....  732

ORBITAL ENERGIES
----------------

  NO   OCC          E(Eh)            E(eV)
   0   2.0000     -20.720579      -563.8356
   1   2.0000     -20.720565      -563.8352
   2   2.0000     -15.604674      -424.6248
   3   2.0000     -15.604674      -424.6248
   4   2.0000     -11.448845      -311.5389
   5   2.0000     -11.370829      -309.4160
   6   2.0000     -11.370828      -309.4160
   7   2.0000     -11.285824      -307.1029
   8   2.0000      -1.586277       -43.1648
   9   2.0000      -1.526585       -41.5405
  10   2.0000      -1.258117       -34.2351
  11   2.0000      -1.251732       -34.0614
  12   2.0000      -1.122351       -30.5407
  13   2.0000      -1.007770       -27.4228
  14   2.0000      -0.866410       -23.5762
  15   2.0000      -0.790199       -21.5024
  16   2.0000      -0.767127       -20.8746
  17   2.0000      -0.766316       -20.8525
  18   2.0000      -0.702272       -19.1098
  19   2.0000      -0.682494       -18.5716
  20   2.0000      -0.631178       -17.1752
  21   2.0000      -0.598849       -16.2955
  22   2.0000      -0.595852       -16.2140
  23   2.0000      -0.512232       -13.9385
  24   2.0000      -0.502919       -13.6851
  25   2.0000      -0.499744       -13.5987
  26   2.0000      -0.481985       -13.1155
  27   2.0000      -0.424008       -11.5379
  28   0.0000       0.020019         0.5448
  29   0.0000       0.038716         1.0535
  30   0.0000       0.041358         1.1254
  31   0.0000       0.049108         1.3363
  32   0.0000       0.053852         1.4654

MULLIKEN ATOMIC CHARGES
-----------------------
   0 O :   -0.659304
   1 O :   -0.659304
   2 N :   -0.625953
   3 N :   -0.625953
   4 C :    0.950752
   5 C :    0.822903
   6 C :    0.822903
   7 C :   -0.833032
   8 H :    0.403494
   9 H :    0.403494
Sum of atomic charges:    0.0000000

LOEWDIN ATOMIC CHARGES
----------------------
   0 O :    0.759720
   1 O :    0.759720
   2 N :    0.378865
   3 N :    0.378865
   4 C :   -0.789040
   5 C :   -0.759316
   6 C :   -0.759316
   7 C :    0.769100
   8 H :   -0.369299
   9 H :   -0.369299

  Mayer bond orders larger than 0.100000
B(  0-O ,  4-C ) :   0.6758 B(  0-O ,  5-C ) :   1.1862 B(  1-O ,  4-C ) :   0.6758
B(  1-O ,  6-C ) :   1.1862 B(  2-N ,  5-C ) :   2.6461 B(  3-N ,  6-C ) :   2.6461
B(  4-C ,  7-C ) :   1.7426 B(  7-C ,  8-H ) :   0.8522 B(  7-C ,  9-H ) :   0.8522

MP2 TOTAL ENERGY:     -412.878572049 Eh
FINAL SINGLE POINT ENERGY      -412.878572048634

DIPOLE MOMENT
-------------
                                X             Y             Z
Electronic contribution:      0.00000      -3.55526      -0.00007
Nuclear contribution   :      0.00000       3.69622       0.00007
                        -----------------------------------------
Total Dipole Moment    :      0.00000       0.14096      -0.00000
                        -----------------------------------------
Magnitude (a.u.)       :      0.14096
Magnitude (Debye)      :      0.35829

Rotational constants in cm-1:     0.321909     0.035360     0.031861
Rotational constants in MHz :  9650.579710  1060.079603   955.159007

                             ****ORCA TERMINATED NORMALLY****
TOTAL RUN TIME: 0 days 0 hours 14 minutes 27 seconds 838 msec
