                         Program Version 5.0.4 -  RELEASE  -
|  1> !ri-mp2 aug-cc-pvqz aug-cc-pvqz/c tightscf
|  2> %pal nprocs 16 end
|  3>
|  4> * xyz 0 1
|  5> O     -0.194628    1.442226   -0.211553
|  6> O      0.194628   -1.442226   -0.211553
|  7> N      0.795033    3.647186   -0.572454
|  8> N     -0.795033   -3.647186   -0.572454
|  9> C      0.339745    0.667888    0.903873
| 10> C     -0.339745   -0.667888    0.903873
| 11> C      0.339745    2.601889   -0.389104
| 12> C     -0.339745   -2.601889   -0.389104
| 13> H      1.417300    0.568273    0.779108
| 14> H      0.119945    1.195921    1.831875
| 15> H     -1.417300   -0.568273    0.779108
| 16> H     -0.119945   -1.195921    1.831875
| 17> *
| 18>
| 19>                          ****END OF INPUT****

CARTESIAN COORDINATES (ANGSTROEM)
---------------------------------
  O     -0.194628    1.442226   -0.211553
  O      0.194628   -1.442226   -0.211553
  N      0.795033    3.647186   -0.572454
  N     -0.795033   -3.647186   -0.572454
  C      0.339745    0.667888    0.903873
  C     -0.339745   -0.667888    0.903873
  C      0.339745    2.601889   -0.389104
  C     -0.339745   -2.601889   -0.389104
  H      1.417300    0.568273    0.779108
  H      0.119945    1.195921    1.831875
  H     -1.417300   -0.568273    0.779108
  H     -0.119945   -1.195921    1.831875

 Total Charge           Charge          ....    0
 Multiplicity           Mult            ....    1
 Number of Electrons    NEL             ....   58
 Basis Dimension        Dim             ....  824

ORBITAL ENERGIES
----------------

  NO   OCC          E(Eh)            E(eV)
   0   2.0000     -20.679827      -562.7267
   1   2.0000     -20.679825      -562.7267
   2   2.0000     -15.580696      -423.9723
   3   2.0000     -15.580696      -423.9723
   4   2.0000     -11.367247      -309.3185
   5   2.0000     -11.366533      -309.2991
   6   2.0000     -11.347712      -308.7869
   7   2.0000     -11.347712      -308.7869
   8   2.0000      -1.513669       -41.1890
   9   2.0000      -1.501600       -40.8606
  10   2.0000      -1.233011       -33.5519
  11   2.0000      -1.229855       -33.4661
  12   2.0000      -1.118785       -30.4437
  13   2.0000      -0.952896       -25.9296
  14   2.0000      -0.841824       -22.9072
  15   2.0000      -0.833113       -22.6702
  16   2.0000      -0.735076       -20.0024
  17   2.0000      -0.732655       -19.9366
  18   2.0000      -0.721536       -19.6340
  19   2.0000      -0.668522       -18.1914
  20   2.0000      -0.608409       -16.5557
  21   2.0000      -0.604551       -16.4507
  22   2.0000      -0.587283       -15.9808
  23   2.0000      -0.576041       -15.6749
  24   2.0000      -0.572762       -15.5857
  25   2.0000      -0.475758       -12.9460
  26   2.0000      -0.474594       -12.9144
  27   2.0000      -0.459582       -12.5059
  28   2.0000      -0.455146       -12.3852
  29   0.0000       0.010323         0.2809
  30   0.0000       0.025072         0.6822
  31   0.0000       0.033013         0.8983
  32   0.0000       0.033537         0.9126
  33   0.0000       0.055690         1.5154

MULLIKEN ATOMIC CHARGES
-----------------------
   0 O :   -0.698183
   1 O :   -0.698183
   2 N :   -0.667193
   3 N :   -0.667193
   4 C :   -0.052945
   5 C :   -0.052945
   6 C :    0.851930
   7 C :    0.851930
   8 H :    0.282399
   9 H :    0.283992
  10 H :    0.282399
  11 H :    0.283992
Sum of atomic charges:   -0.0000000

LOEWDIN ATOMIC CHARGES
----------------------
   0 O :    0.782794
   1 O :    0.782794
   2 N :    0.341435
   3 N :    0.341435
   4 C :    0.204630
   5 C :    0.204630
   6 C :   -0.756761
   7 C :   -0.756761
   8 H :   -0.289371
   9 H :   -0.282727
  10 H :   -0.289371
  11 H :   -0.282727

  Mayer bond orders larger than 0.100000
B(  0-O ,  4-C ) :   0.6496 B(  0-O ,  6-C ) :   1.2210 B(  1-O ,  5-C ) :   0.6496
B(  1-O ,  7-C ) :   1.2210 B(  2-N ,  6-C ) :   2.6151 B(  3-N ,  7-C ) :   2.6151
B(  4-C ,  5-C ) :   1.0995 B(  4-C ,  8-H ) :   0.8508 B(  4-C ,  9-H ) :   0.9284
B(  5-C , 10-H ) :   0.8508 B(  5-C , 11-H ) :   0.9284

MP2 TOTAL ENERGY:     -414.105903478 Eh
FINAL SINGLE POINT ENERGY      -414.105903478297

DIPOLE MOMENT
-------------
                                X             Y             Z
Electronic contribution:      0.00000       0.00000      -3.31267
Nuclear contribution   :      0.00000       0.00000       5.06175
                        -----------------------------------------
Total Dipole Moment    :      0.00000       0.00000       1.74907
                        -----------------------------------------
Magnitude (a.u.)       :      1.74907
Magnitude (Debye)      :      4.44579

Rotational constants in cm-1:     0.316041     0.026151     0.024992
Rotational constants in MHz :  9474.668717   784.001268   749.237244

                             ****ORCA TERMINATED NORMALLY****
TOTAL RUN TIME: 0 days 0 hours 17 minutes 4 seconds 700 msec
