                         Program Version 5.0.4 -  RELEASE  -
|  1> !ri-mp2 aug-cc-pvqz aug-cc-pvqz/c tightscf
|  2> %pal nprocs 16 end
|  3>
|  4> * xyz 0 1
|  5> F     -0.068610    1.517102   -0.198375
|  6> F     -2.172960   -0.385347    0.136936
|  7> N      2.539942   -0.590490   -0.068123
|  8> C      0.095496    0.250121    0.339624
|  9> C     -0.898581   -0.714336   -0.288536
| 10> C      1.473579   -0.202694    0.110068
| 11> H     -0.088862    0.322052    1.413853
| 12> H     -0.677638   -1.735688    0.024438
| 13> H     -0.861929   -0.637279   -1.375414
| 14> *
| 15>
| 16>                          ****END OF INPUT****

CARTESIAN COORDINATES (ANGSTROEM)
---------------------------------
  F     -0.068610    1.517102   -0.198375
  F     -2.172960   -0.385347    0.136936
  N      2.539942   -0.590490   -0.068123
  C      0.095496    0.250121    0.339624
  C     -0.898581   -0.714336   -0.288536
  C      1.473579   -0.202694    0.110068
  H     -0.088862    0.322052    1.413853
  H     -0.677638   -1.735688    0.024438
  H     -0.861929   -0.637279   -1.375414

 Total Charge           Charge          ....    0
 Multiplicity           Mult            ....    1
 Number of Electrons    NEL             ....   46
 Basis Dimension        Dim             ....  618

ORBITAL ENERGIES
----------------

  NO   OCC          E(Eh)            E(eV)
   0   2.0000     -26.326912      -716.3917
   1   2.0000     -26.313581      -716.0289
   2   2.0000     -15.606903      -424.6854
   3   2.0000     -11.396220      -310.1069
   4   2.0000     -11.357667      -309.0578
   5   2.0000     -11.302108      -307.5460
   6   2.0000      -1.642407       -44.6922
   7   2.0000      -1.623928       -44.1893
   8   2.0000      -1.256047       -34.1788
   9   2.0000      -1.106224       -30.1019
  10   2.0000      -0.944712       -25.7069
  11   2.0000      -0.805845       -21.9282
  12   2.0000      -0.776529       -21.1304
  13   2.0000      -0.748286       -20.3619
  14   2.0000      -0.718416       -19.5491
  15   2.0000      -0.712298       -19.3826
  16   2.0000      -0.668040       -18.1783
  17   2.0000      -0.629346       -17.1254
  18   2.0000      -0.586083       -15.9481
  19   2.0000      -0.570061       -15.5122
  20   2.0000      -0.566050       -15.4030
  21   2.0000      -0.506689       -13.7877
  22   2.0000      -0.493758       -13.4358
  23   0.0000       0.022980         0.6253
  24   0.0000       0.030915         0.8412
  25   0.0000       0.039153         1.0654
  26   0.0000       0.052191         1.4202
  27   0.0000       0.072676         1.9776

MULLIKEN ATOMIC CHARGES
-----------------------
   0 F :   -0.678929
   1 F :   -0.681342
   2 N :   -0.566968
   3 C :    0.579212
   4 C :    0.063078
   5 C :    0.245654
   6 H :    0.405260
   7 H :    0.317534
   8 H :    0.316502
Sum of atomic charges:   -0.0000000

LOEWDIN ATOMIC CHARGES
----------------------
   0 F :    0.784888
   1 F :    0.784767
   2 N :    0.422591
   3 C :   -0.569574
   4 C :   -0.080442
   5 C :   -0.307252
   6 H :   -0.366146
   7 H :   -0.334528
   8 H :   -0.334304

  Mayer bond orders larger than 0.100000
B(  0-F ,  3-C ) :   0.3065 B(  0-F ,  5-C ) :   0.1444 B(  1-F ,  4-C ) :   0.4889
B(  2-N ,  5-C ) :   2.6175 B(  3-C ,  4-C ) :   0.9906 B(  3-C ,  5-C ) :   0.9453
B(  3-C ,  6-H ) :   0.7793 B(  4-C ,  7-H ) :   0.8690 B(  4-C ,  8-H ) :   0.8592

MP2 TOTAL ENERGY:     -370.080377431 Eh
FINAL SINGLE POINT ENERGY      -370.080377431209

DIPOLE MOMENT
-------------
                                X             Y             Z
Electronic contribution:     -1.15774       2.54919       0.12963
Nuclear contribution   :      0.56946      -3.00946       0.11684
                        -----------------------------------------
Total Dipole Moment    :     -0.58828      -0.46027       0.24647
                        -----------------------------------------
Magnitude (a.u.)       :      0.78655
Magnitude (Debye)      :      1.99926

Rotational constants in cm-1:     0.241326     0.074976     0.060300
Rotational constants in MHz :  7234.764696  2247.725309  1807.739104

                             ****ORCA TERMINATED NORMALLY****
TOTAL RUN TIME: 0 days 0 hours 6 minutes 59 seconds 727 msec
