                         Program Version 5.0.4 -  RELEASE  -
|  1> !ri-mp2 aug-cc-pvqz aug-cc-pvqz/c tightscf
|  2> %pal nprocs 16 end
|  3>
|  4> * xyz 0 1
|  5> O      2.708104   -0.570601   -0.088239
|  6> O     -2.779924    0.006037   -0.197353
|  7> N     -0.704809   -0.238358    0.294109
|  8> N      0.460380   -0.985720    0.109260
|  9> N     -1.836329   -0.763921   -0.182698
| 10> C     -0.379980    1.203560    0.320132
| 11> C      1.049525    1.244702   -0.232188
| 12> C      1.565924   -0.183314   -0.071158
| 13> H     -0.441868    1.572185    1.343414
| 14> H     -1.126052    1.719833   -0.277729
| 15> H      1.701720    1.927919    0.304039
| 16> H      1.078298    1.509182   -1.289948
| 17> H      0.514950   -1.886298    0.559549
| 18> *
| 19>
| 20>                          ****END OF INPUT****

CARTESIAN COORDINATES (ANGSTROEM)
---------------------------------
  O      2.708104   -0.570601   -0.088239
  O     -2.779924    0.006037   -0.197353
  N     -0.704809   -0.238358    0.294109
  N      0.460380   -0.985720    0.109260
  N     -1.836329   -0.763921   -0.182698
  C     -0.379980    1.203560    0.320132
  C      1.049525    1.244702   -0.232188
  C      1.565924   -0.183314   -0.071158
  H     -0.441868    1.572185    1.343414
  H     -1.126052    1.719833   -0.277729
  H      1.701720    1.927919    0.304039
  H      1.078298    1.509182   -1.289948
  H      0.514950   -1.886298    0.559549

 Total Charge           Charge          ....    0
 Multiplicity           Mult            ....    1
 Number of Electrons    NEL             ....   60
 Basis Dimension        Dim             ....  870

ORBITAL ENERGIES
----------------

  NO   OCC          E(Eh)            E(eV)
   0   2.0000     -20.602590      -560.6250
   1   2.0000     -20.550552      -559.2089
   2   2.0000     -15.747870      -428.5213
   3   2.0000     -15.681307      -426.7101
   4   2.0000     -15.645483      -425.7352
   5   2.0000     -11.382846      -309.7430
   6   2.0000     -11.308640      -307.7237
   7   2.0000     -11.274084      -306.7834
   8   2.0000      -1.538152       -41.8552
   9   2.0000      -1.425184       -38.7812
  10   2.0000      -1.368797       -37.2469
  11   2.0000      -1.174201       -31.9516
  12   2.0000      -1.108979       -30.1769
  13   2.0000      -0.968274       -26.3481
  14   2.0000      -0.860384       -23.4122
  15   2.0000      -0.845997       -23.0208
  16   2.0000      -0.764166       -20.7940
  17   2.0000      -0.730754       -19.8848
  18   2.0000      -0.695385       -18.9224
  19   2.0000      -0.671923       -18.2840
  20   2.0000      -0.641805       -17.4644
  21   2.0000      -0.627332       -17.0706
  22   2.0000      -0.616057       -16.7638
  23   2.0000      -0.597822       -16.2676
  24   2.0000      -0.581277       -15.8174
  25   2.0000      -0.552380       -15.0310
  26   2.0000      -0.491762       -13.3815
  27   2.0000      -0.449737       -12.2380
  28   2.0000      -0.438555       -11.9337
  29   2.0000      -0.382338       -10.4039
  30   0.0000       0.020315         0.5528
  31   0.0000       0.029711         0.8085
  32   0.0000       0.033285         0.9057
  33   0.0000       0.039309         1.0696
  34   0.0000       0.050969         1.3869

MULLIKEN ATOMIC CHARGES
-----------------------
   0 O :   -0.820898
   1 O :   -0.553213
   2 N :    0.099214
   3 N :   -0.457156
   4 N :    0.173646
   5 C :   -0.351388
   6 C :   -0.575008
   7 C :    0.944041
   8 H :    0.336161
   9 H :    0.348601
  10 H :    0.286771
  11 H :    0.288005
  12 H :    0.281225
Sum of atomic charges:    0.0000000

LOEWDIN ATOMIC CHARGES
----------------------
   0 O :    0.686057
   1 O :    0.382337
   2 N :    0.007338
   3 N :    0.668364
   4 N :   -0.146834
   5 C :    0.362253
   6 C :    0.514103
   7 C :   -0.841357
   8 H :   -0.266009
   9 H :   -0.326630
  10 H :   -0.281820
  11 H :   -0.268515
  12 H :   -0.489286

  Mayer bond orders larger than 0.100000
B(  0-O ,  3-N ) :   0.1882 B(  0-O ,  6-C ) :   0.1406 B(  0-O ,  7-C ) :   1.2601
B(  1-O ,  4-N ) :   1.5052 B(  2-N ,  3-N ) :   0.7017 B(  2-N ,  4-N ) :   0.9805
B(  2-N ,  5-C ) :   0.7322 B(  3-N ,  7-C ) :   1.1888 B(  3-N , 12-H ) :   0.9680
B(  5-C ,  6-C ) :   1.1099 B(  5-C ,  7-C ) :  -0.1169 B(  5-C ,  8-H ) :   0.8370
B(  5-C ,  9-H ) :   0.8709 B(  6-C ,  7-C ) :   1.0752 B(  6-C , 10-H ) :   0.8936
B(  6-C , 11-H ) :   0.8531

MP2 TOTAL ENERGY:     -431.330715414 Eh
FINAL SINGLE POINT ENERGY      -431.330715414161

DIPOLE MOMENT
-------------
                                X             Y             Z
Electronic contribution:     -1.60788      -3.91207      -0.20308
Nuclear contribution   :      1.67785       4.72137       0.62281
                        -----------------------------------------
Total Dipole Moment    :      0.06997       0.80931       0.41973
                        -----------------------------------------
Magnitude (a.u.)       :      0.91436
Magnitude (Debye)      :      2.32411

Rotational constants in cm-1:     0.192424     0.047237     0.039436
Rotational constants in MHz :  5768.738917  1416.143948  1182.253738

                             ****ORCA TERMINATED NORMALLY****
TOTAL RUN TIME: 0 days 0 hours 29 minutes 48 seconds 397 msec
