                         Program Version 5.0.4 -  RELEASE  -
|  1> !ri-mp2 aug-cc-pvqz aug-cc-pvqz/c tightscf
|  2> %pal nprocs 16 end
|  3>
|  4> * xyz 0 1
|  5> C      0.666782    1.690821   -0.460286
|  6> C     -0.725969    0.098901    0.986609
|  7> C      0.649984    0.536037    0.521680
|  8> Cl    -1.857919   -0.342878   -0.351048
|  9> Cl     1.569886   -0.883973   -0.164823
| 10> H      0.168266    1.420936   -1.388454
| 11> H      0.146881    2.547529   -0.025224
| 12> H      1.689864    1.985265   -0.683868
| 13> H     -0.661903   -0.769025    1.634334
| 14> H     -1.198048    0.919690    1.523433
| 15> H      1.206722    0.797530    1.421558
| 16> *
| 17>
| 18>                          ****END OF INPUT****

CARTESIAN COORDINATES (ANGSTROEM)
---------------------------------
  C      0.666782    1.690821   -0.460286
  C     -0.725969    0.098901    0.986609
  C      0.649984    0.536037    0.521680
  Cl    -1.857919   -0.342878   -0.351048
  Cl     1.569886   -0.883973   -0.164823
  H      0.168266    1.420936   -1.388454
  H      0.146881    2.547529   -0.025224
  H      1.689864    1.985265   -0.683868
  H     -0.661903   -0.769025    1.634334
  H     -1.198048    0.919690    1.523433
  H      1.206722    0.797530    1.421558

 Total Charge           Charge          ....    0
 Multiplicity           Mult            ....    1
 Number of Electrons    NEL             ....   58
 Basis Dimension        Dim             ....  684

ORBITAL ENERGIES
----------------

  NO   OCC          E(Eh)            E(eV)
   0   2.0000    -104.828751     -2852.5353
   1   2.0000    -104.823839     -2852.4017
   2   2.0000     -11.318679      -307.9969
   3   2.0000     -11.310215      -307.7666
   4   2.0000     -11.237745      -305.7946
   5   2.0000     -10.554140      -287.1927
   6   2.0000     -10.549410      -287.0641
   7   2.0000      -8.021188      -218.2676
   8   2.0000      -8.019544      -218.2229
   9   2.0000      -8.019496      -218.2216
  10   2.0000      -8.016387      -218.1370
  11   2.0000      -8.014807      -218.0940
  12   2.0000      -8.014772      -218.0930
  13   2.0000      -1.173924       -31.9441
  14   2.0000      -1.107891       -30.1472
  15   2.0000      -1.016680       -27.6653
  16   2.0000      -0.945113       -25.7178
  17   2.0000      -0.801330       -21.8053
  18   2.0000      -0.669384       -18.2149
  19   2.0000      -0.655998       -17.8506
  20   2.0000      -0.611668       -16.6443
  21   2.0000      -0.566226       -15.4078
  22   2.0000      -0.543446       -14.7879
  23   2.0000      -0.527575       -14.3560
  24   2.0000      -0.505369       -13.7518
  25   2.0000      -0.450007       -12.2453
  26   2.0000      -0.443798       -12.0764
  27   2.0000      -0.436252       -11.8710
  28   2.0000      -0.434329       -11.8187
  29   0.0000       0.021748         0.5918
  30   0.0000       0.032093         0.8733
  31   0.0000       0.036366         0.9896
  32   0.0000       0.041227         1.1218
  33   0.0000       0.053875         1.4660

MULLIKEN ATOMIC CHARGES
-----------------------
   0 C :   -0.817753
   1 C :   -0.376116
   2 C :    0.145297
   3 Cl:   -0.338844
   4 Cl:   -0.407720
   5 H :    0.278584
   6 H :    0.247911
   7 H :    0.300436
   8 H :    0.350099
   9 H :    0.266960
  10 H :    0.351145
Sum of atomic charges:    0.0000000

LOEWDIN ATOMIC CHARGES
----------------------
   0 C :    0.771455
   1 C :   -0.237566
   2 C :   -0.634915
   3 Cl:    1.131835
   4 Cl:    1.139132
   5 H :   -0.342054
   6 H :   -0.287685
   7 H :   -0.307529
   8 H :   -0.425912
   9 H :   -0.400899
  10 H :   -0.405863

  Mayer bond orders larger than 0.100000
B(  0-C ,  2-C ) :   0.8682 B(  0-C ,  5-H ) :   0.9278 B(  0-C ,  6-H ) :   0.9367
B(  0-C ,  7-H ) :   0.9508 B(  1-C ,  2-C ) :   0.9172 B(  1-C ,  3-Cl) :   0.8273
B(  1-C ,  8-H ) :   0.8746 B(  1-C ,  9-H ) :   0.8862 B(  2-C ,  3-Cl) :  -0.1138
B(  2-C ,  4-Cl) :   0.6732 B(  2-C , 10-H ) :   0.7833

MP2 TOTAL ENERGY:    -1037.181122232 Eh
FINAL SINGLE POINT ENERGY     -1037.181122231807

DIPOLE MOMENT
-------------
                                X             Y             Z
Electronic contribution:     -1.60748      -7.41863      -2.28546
Nuclear contribution   :      1.70050       8.34614       3.10415
                        -----------------------------------------
Total Dipole Moment    :      0.09301       0.92751       0.81869
                        -----------------------------------------
Magnitude (a.u.)       :      1.24063
Magnitude (Debye)      :      3.15344

Rotational constants in cm-1:     0.145645     0.063594     0.053234
Rotational constants in MHz :  4366.323771  1906.490088  1595.912347

                             ****ORCA TERMINATED NORMALLY****
TOTAL RUN TIME: 0 days 0 hours 10 minutes 49 seconds 596 msec
