                         Program Version 5.0.4 -  RELEASE  -
|  1> !ri-mp2 aug-cc-pvqz aug-cc-pvqz/c tightscf
|  2> %pal nprocs 16 end
|  3>
|  4> * xyz 0 1
|  5> Cl     1.206649    1.711643   -0.227494
|  6> S     -3.019563   -0.139639   -0.082460
|  7> N     -0.291654   -0.495146    0.196818
|  8> C      0.951475    0.047369    0.568780
|  9> C      2.117266   -0.819228    0.224719
| 10> C      2.032356   -1.986494   -0.395802
| 11> C     -1.463636   -0.293893    0.095615
| 12> H      0.943371    0.294738    1.629473
| 13> H      3.072452   -0.416382    0.534896
| 14> H      2.918954   -2.568416   -0.603567
| 15> H      1.082018   -2.394155   -0.711641
| 16> *
| 17>
| 18>                          ****END OF INPUT****

CARTESIAN COORDINATES (ANGSTROEM)
---------------------------------
  Cl     1.206649    1.711643   -0.227494
  S     -3.019563   -0.139639   -0.082460
  N     -0.291654   -0.495146    0.196818
  C      0.951475    0.047369    0.568780
  C      2.117266   -0.819228    0.224719
  C      2.032356   -1.986494   -0.395802
  C     -1.463636   -0.293893    0.095615
  H      0.943371    0.294738    1.629473
  H      3.072452   -0.416382    0.534896
  H      2.918954   -2.568416   -0.603567
  H      1.082018   -2.394155   -0.711641

 Total Charge           Charge          ....    0
 Multiplicity           Mult            ....    1
 Number of Electrons    NEL             ....   68
 Basis Dimension        Dim             ....  752

ORBITAL ENERGIES
----------------

  NO   OCC          E(Eh)            E(eV)
   0   2.0000    -104.838423     -2852.7985
   1   2.0000     -91.963017     -2502.4409
   2   2.0000     -15.619317      -425.0232
   3   2.0000     -11.392896      -310.0165
   4   2.0000     -11.384315      -309.7830
   5   2.0000     -11.264032      -306.5099
   6   2.0000     -11.252665      -306.2006
   7   2.0000     -10.563664      -287.4519
   8   2.0000      -8.967137      -244.0082
   9   2.0000      -8.030537      -218.5220
  10   2.0000      -8.028882      -218.4770
  11   2.0000      -8.028817      -218.4752
  12   2.0000      -6.648906      -180.9259
  13   2.0000      -6.646623      -180.8638
  14   2.0000      -6.646401      -180.8578
  15   2.0000      -1.321021       -35.9468
  16   2.0000      -1.154093       -31.4045
  17   2.0000      -1.073264       -29.2050
  18   2.0000      -1.050722       -28.5916
  19   2.0000      -0.963342       -26.2139
  20   2.0000      -0.834750       -22.7147
  21   2.0000      -0.741667       -20.1818
  22   2.0000      -0.686874       -18.6908
  23   2.0000      -0.643729       -17.5167
  24   2.0000      -0.623470       -16.9655
  25   2.0000      -0.606664       -16.5082
  26   2.0000      -0.562193       -15.2980
  27   2.0000      -0.546250       -14.8642
  28   2.0000      -0.526016       -14.3136
  29   2.0000      -0.466320       -12.6892
  30   2.0000      -0.455671       -12.3995
  31   2.0000      -0.396196       -10.7810
  32   2.0000      -0.381198       -10.3729
  33   2.0000      -0.371706       -10.1146
  34   0.0000       0.022269         0.6060
  35   0.0000       0.030355         0.8260
  36   0.0000       0.034141         0.9290
  37   0.0000       0.046780         1.2730
  38   0.0000       0.052376         1.4252

MULLIKEN ATOMIC CHARGES
-----------------------
   0 Cl:   -0.359867
   1 S :    0.057729
   2 N :   -0.491916
   3 C :    0.323182
   4 C :   -0.448955
   5 C :   -0.840091
   6 C :    0.207707
   7 H :    0.353298
   8 H :    0.442472
   9 H :    0.345137
  10 H :    0.411304
Sum of atomic charges:    0.0000000

LOEWDIN ATOMIC CHARGES
----------------------
   0 Cl:    1.082084
   1 S :    0.983091
   2 N :    0.266708
   3 C :   -0.794141
   4 C :    0.209635
   5 C :    0.785392
   6 C :   -1.026646
   7 H :   -0.434772
   8 H :   -0.360470
   9 H :   -0.343913
  10 H :   -0.366968

  Mayer bond orders larger than 0.100000
B(  0-Cl,  3-C ) :   0.8623 B(  0-Cl,  4-C ) :  -0.1340 B(  1-S ,  6-C ) :   1.5661
B(  2-N ,  3-C ) :   0.6756 B(  2-N ,  6-C ) :   2.1790 B(  3-C ,  4-C ) :   0.8937
B(  3-C ,  7-H ) :   0.7774 B(  4-C ,  5-C ) :   1.8021 B(  4-C ,  8-H ) :   0.7892
B(  5-C ,  9-H ) :   0.9714 B(  5-C , 10-H ) :   0.8197

MP2 TOTAL ENERGY:    -1066.655023510 Eh
FINAL SINGLE POINT ENERGY     -1066.655023510132

DIPOLE MOMENT
-------------
                                X             Y             Z
Electronic contribution:     -5.28462       6.58721      -0.66388
Nuclear contribution   :      6.10073      -7.19970       1.12640
                        -----------------------------------------
Total Dipole Moment    :      0.81611      -0.61249       0.46252
                        -----------------------------------------
Magnitude (a.u.)       :      1.12031
Magnitude (Debye)      :      2.84761

Rotational constants in cm-1:     0.089192     0.032512     0.024722
Rotational constants in MHz :  2673.908245   974.685251   741.153979

                             ****ORCA TERMINATED NORMALLY****
TOTAL RUN TIME: 0 days 0 hours 17 minutes 6 seconds 56 msec
