                         Program Version 5.0.4 -  RELEASE  -
|  1> !ri-mp2 aug-cc-pvqz aug-cc-pvqz/c tightscf
|  2> %pal nprocs 16 end
|  3>
|  4> * xyz 0 1
|  5> Cl     1.969671   -1.392624   -0.227155
|  6> Cl    -2.726372   -0.166639   -0.549480
|  7> O      1.299667    1.497740    1.060977
|  8> O      1.142038    1.750743   -1.088218
|  9> N      1.039851    1.108331   -0.061878
| 10> C      0.528061   -0.332445   -0.214217
| 11> C     -0.425033   -0.704823    0.900645
| 12> C     -1.706486    0.113665    0.924971
| 13> H      0.086211   -0.366790   -1.201970
| 14> H     -0.662786   -1.761718    0.786146
| 15> H      0.086276   -0.577124    1.855350
| 16> H     -2.317628   -0.174091    1.774333
| 17> H     -1.520016    1.182620    0.971618
| 18> *
| 19>
| 20>                          ****END OF INPUT****

CARTESIAN COORDINATES (ANGSTROEM)
---------------------------------
  Cl     1.969671   -1.392624   -0.227155
  Cl    -2.726372   -0.166639   -0.549480
  O      1.299667    1.497740    1.060977
  O      1.142038    1.750743   -1.088218
  N      1.039851    1.108331   -0.061878
  C      0.528061   -0.332445   -0.214217
  C     -0.425033   -0.704823    0.900645
  C     -1.706486    0.113665    0.924971
  H      0.086211   -0.366790   -1.201970
  H     -0.662786   -1.761718    0.786146
  H      0.086276   -0.577124    1.855350
  H     -2.317628   -0.174091    1.774333
  H     -1.520016    1.182620    0.971618

 Total Charge           Charge          ....    0
 Multiplicity           Mult            ....    1
 Number of Electrons    NEL             ....   80
 Basis Dimension        Dim             ....  878

ORBITAL ENERGIES
----------------

  NO   OCC          E(Eh)            E(eV)
   0   2.0000    -104.871241     -2853.6915
   1   2.0000    -104.844559     -2852.9655
   2   2.0000     -20.624631      -561.2247
   3   2.0000     -20.621240      -561.1325
   4   2.0000     -15.866486      -431.7490
   5   2.0000     -11.388872      -309.9070
   6   2.0000     -11.324870      -308.1654
   7   2.0000     -11.286058      -307.1092
   8   2.0000     -10.596429      -288.3435
   9   2.0000     -10.569976      -287.6237
  10   2.0000      -8.063482      -219.4185
  11   2.0000      -8.061619      -219.3678
  12   2.0000      -8.061521      -219.3651
  13   2.0000      -8.036997      -218.6978
  14   2.0000      -8.035379      -218.6538
  15   2.0000      -8.035336      -218.6526
  16   2.0000      -1.629009       -44.3276
  17   2.0000      -1.425270       -38.7836
  18   2.0000      -1.212471       -32.9930
  19   2.0000      -1.155796       -31.4508
  20   2.0000      -1.070068       -29.1180
  21   2.0000      -1.013131       -27.5687
  22   2.0000      -0.903743       -24.5921
  23   2.0000      -0.840099       -22.8603
  24   2.0000      -0.776688       -21.1348
  25   2.0000      -0.748823       -20.3765
  26   2.0000      -0.742223       -20.1969
  27   2.0000      -0.682883       -18.5822
  28   2.0000      -0.659781       -17.9535
  29   2.0000      -0.620785       -16.8924
  30   2.0000      -0.589633       -16.0447
  31   2.0000      -0.570730       -15.5304
  32   2.0000      -0.533548       -14.5186
  33   2.0000      -0.521740       -14.1973
  34   2.0000      -0.515819       -14.0361
  35   2.0000      -0.488362       -13.2890
  36   2.0000      -0.476183       -12.9576
  37   2.0000      -0.470311       -12.7978
  38   2.0000      -0.457300       -12.4438
  39   2.0000      -0.455457       -12.3936
  40   0.0000       0.021862         0.5949
  41   0.0000       0.032173         0.8755
  42   0.0000       0.037438         1.0187
  43   0.0000       0.041023         1.1163
  44   0.0000       0.049755         1.3539

MULLIKEN ATOMIC CHARGES
-----------------------
   0 Cl:   -0.344156
   1 Cl:   -0.365355
   2 O :   -0.612518
   3 O :   -0.624508
   4 N :    0.927506
   5 C :    0.153248
   6 C :   -0.374976
   7 C :   -0.390186
   8 H :    0.387665
   9 H :    0.348737
  10 H :    0.302828
  11 H :    0.332784
  12 H :    0.258929
Sum of atomic charges:   -0.0000000

LOEWDIN ATOMIC CHARGES
----------------------
   0 Cl:    1.234025
   1 Cl:    1.147287
   2 O :    0.538158
   3 O :    0.546329
   4 N :   -0.929866
   5 C :   -0.772597
   6 C :    0.262210
   7 C :   -0.104556
   8 H :   -0.475879
   9 H :   -0.330138
  10 H :   -0.331461
  11 H :   -0.383923
  12 H :   -0.399588

  Mayer bond orders larger than 0.100000
B(  0-Cl,  5-C ) :   0.6148 B(  1-Cl,  7-C ) :   0.8026 B(  2-O ,  3-O ) :   0.1405
B(  2-O ,  4-N ) :   1.2478 B(  3-O ,  4-N ) :   1.2404 B(  4-N ,  5-C ) :   0.7614
B(  5-C ,  6-C ) :   0.8361 B(  5-C ,  8-H ) :   0.8055 B(  6-C ,  7-C ) :   0.9681
B(  6-C ,  9-H ) :   0.8456 B(  6-C , 10-H ) :   0.8296 B(  7-C , 11-H ) :   0.8813
B(  7-C , 12-H ) :   0.9024

MP2 TOTAL ENERGY:    -1241.464633091 Eh
FINAL SINGLE POINT ENERGY     -1241.464633090911

DIPOLE MOMENT
-------------
                                X             Y             Z
Electronic contribution:      2.41147      -1.54207      -4.35803
Nuclear contribution   :     -3.04399       0.56241       5.03639
                        -----------------------------------------
Total Dipole Moment    :     -0.63252      -0.97965       0.67836
                        -----------------------------------------
Magnitude (a.u.)       :      1.34906
Magnitude (Debye)      :      3.42905

Rotational constants in cm-1:     0.063899     0.028459     0.024177
Rotational constants in MHz :  1915.657937   853.179509   724.800223

                             ****ORCA TERMINATED NORMALLY****
TOTAL RUN TIME: 0 days 0 hours 26 minutes 16 seconds 526 msec
