                         Program Version 5.0.4 -  RELEASE  -
|  1> !ri-mp2 aug-cc-pvqz aug-cc-pvqz/c tightscf
|  2> %pal nprocs 16 end
|  3> %maxcore 3800
|  4>
|  5> * xyz 0 1
|  6> C      0.001554    0.695598    2.566237
|  7> C     -0.001554   -0.695598    2.566237
|  8> C      0.001554    1.377725    1.359666
|  9> C     -0.001554   -1.377725    1.359666
| 10> C     -0.000611    0.700261    0.137630
| 11> C      0.000611   -0.700261    0.137630
| 12> C     -0.033424    1.492200   -1.154152
| 13> C      0.033424   -1.492200   -1.154152
| 14> C      0.363799    0.671723   -2.381520
| 15> C     -0.363799   -0.671723   -2.381520
| 16> H      0.004381    1.242851    3.499649
| 17> H     -0.004381   -1.242851    3.499649
| 18> H      0.004118    2.461556    1.357812
| 19> H     -0.004118   -2.461556    1.357812
| 20> H     -1.048027    1.879885   -1.300277
| 21> H      0.609583    2.369836   -1.057795
| 22> H      1.048027   -1.879885   -1.300277
| 23> H     -0.609583   -2.369836   -1.057795
| 24> H      0.142317    1.233423   -3.290989
| 25> H      1.444186    0.496649   -2.375566
| 26> H     -0.142317   -1.233423   -3.290989
| 27> H     -1.444186   -0.496649   -2.375566
| 28> *
| 29>
| 30>                          ****END OF INPUT****

CARTESIAN COORDINATES (ANGSTROEM)
---------------------------------
  C      0.001554    0.695598    2.566237
  C     -0.001554   -0.695598    2.566237
  C      0.001554    1.377725    1.359666
  C     -0.001554   -1.377725    1.359666
  C     -0.000611    0.700261    0.137630
  C      0.000611   -0.700261    0.137630
  C     -0.033424    1.492200   -1.154152
  C      0.033424   -1.492200   -1.154152
  C      0.363799    0.671723   -2.381520
  C     -0.363799   -0.671723   -2.381520
  H      0.004381    1.242851    3.499649
  H     -0.004381   -1.242851    3.499649
  H      0.004118    2.461556    1.357812
  H     -0.004118   -2.461556    1.357812
  H     -1.048027    1.879885   -1.300277
  H      0.609583    2.369836   -1.057795
  H      1.048027   -1.879885   -1.300277
  H     -0.609583   -2.369836   -1.057795
  H      0.142317    1.233423   -3.290989
  H      1.444186    0.496649   -2.375566
  H     -0.142317   -1.233423   -3.290989
  H     -1.444186   -0.496649   -2.375566

 Total Charge           Charge          ....    0
 Multiplicity           Mult            ....    1
 Number of Electrons    NEL             ....   72
 Basis Dimension        Dim             .... 1352

ORBITAL ENERGIES
----------------

  NO   OCC          E(Eh)            E(eV)
   0   2.0000     -11.231133      -305.6147
   1   2.0000     -11.229947      -305.5824
   2   2.0000     -11.224544      -305.4354
   3   2.0000     -11.223562      -305.4086
   4   2.0000     -11.222668      -305.3843
   5   2.0000     -11.222665      -305.3842
   6   2.0000     -11.222456      -305.3786
   7   2.0000     -11.222214      -305.3720
   8   2.0000     -11.218767      -305.2782
   9   2.0000     -11.218150      -305.2614
  10   2.0000      -1.159531       -31.5524
  11   2.0000      -1.091331       -29.6966
  12   2.0000      -1.037233       -28.2246
  13   2.0000      -1.001611       -27.2552
  14   2.0000      -0.969984       -26.3946
  15   2.0000      -0.863177       -23.4882
  16   2.0000      -0.827359       -22.5136
  17   2.0000      -0.811853       -22.0916
  18   2.0000      -0.748781       -20.3754
  19   2.0000      -0.679841       -18.4994
  20   2.0000      -0.644157       -17.5284
  21   2.0000      -0.639331       -17.3971
  22   2.0000      -0.607155       -16.5215
  23   2.0000      -0.588616       -16.0171
  24   2.0000      -0.587442       -15.9851
  25   2.0000      -0.561259       -15.2726
  26   2.0000      -0.538397       -14.6505
  27   2.0000      -0.534813       -14.5530
  28   2.0000      -0.519994       -14.1498
  29   2.0000      -0.494198       -13.4478
  30   2.0000      -0.472083       -12.8460
  31   2.0000      -0.470886       -12.8135
  32   2.0000      -0.448842       -12.2136
  33   2.0000      -0.444044       -12.0830
  34   2.0000      -0.324785        -8.8379
  35   2.0000      -0.316049        -8.6001
  36   0.0000       0.025767         0.7012
  37   0.0000       0.027711         0.7540
  38   0.0000       0.027729         0.7546
  39   0.0000       0.035193         0.9577
  40   0.0000       0.039377         1.0715

MULLIKEN ATOMIC CHARGES
-----------------------
   0 C :   -0.363548
   1 C :   -0.363333
   2 C :   -0.704914
   3 C :   -0.704951
   4 C :    0.649040
   5 C :    0.649051
   6 C :   -0.396398
   7 C :   -0.396211
   8 C :   -0.534778
   9 C :   -0.534819
  10 H :    0.272519
  11 H :    0.272668
  12 H :    0.228482
  13 H :    0.228440
  14 H :    0.178037
  15 H :    0.253077
  16 H :    0.177958
  17 H :    0.253096
  18 H :    0.257014
  19 H :    0.161301
  20 H :    0.256971
  21 H :    0.161296
Sum of atomic charges:   -0.0000000

LOEWDIN ATOMIC CHARGES
----------------------
   0 C :    0.345252
   1 C :    0.345252
   2 C :    0.350097
   3 C :    0.350097
   4 C :   -0.038551
   5 C :   -0.038551
   6 C :    0.515804
   7 C :    0.515804
   8 C :    0.531017
   9 C :    0.531017
  10 H :   -0.324545
  11 H :   -0.324545
  12 H :   -0.316703
  13 H :   -0.316703
  14 H :   -0.264380
  15 H :   -0.278009
  16 H :   -0.264380
  17 H :   -0.278009
  18 H :   -0.259251
  19 H :   -0.260730
  20 H :   -0.259251
  21 H :   -0.260730

  Mayer bond orders larger than 0.100000
B(  0-C ,  1-C ) :   1.1760 B(  0-C ,  2-C ) :   1.3038 B(  0-C ,  4-C ) :  -0.3064
B(  0-C , 10-H ) :   1.1112 B(  1-C ,  3-C ) :   1.3039 B(  1-C ,  5-C ) :  -0.3063
B(  1-C , 11-H ) :   1.1110 B(  2-C ,  3-C ) :   0.1826 B(  2-C ,  4-C ) :   0.8702
B(  2-C ,  5-C ) :  -0.1985 B(  2-C ,  6-C ) :  -0.1556 B(  2-C , 10-H ) :  -0.1708
B(  2-C , 12-H ) :   1.0518 B(  3-C ,  4-C ) :  -0.1984 B(  3-C ,  5-C ) :   0.8700
B(  3-C ,  7-C ) :  -0.1556 B(  3-C , 11-H ) :  -0.1708 B(  3-C , 13-H ) :   1.0518
B(  4-C ,  5-C ) :   1.2599 B(  4-C ,  6-C ) :   0.4184 B(  4-C ,  8-C ) :  -0.1516
B(  4-C , 15-H ) :  -0.1074 B(  5-C ,  7-C ) :   0.4184 B(  5-C ,  9-C ) :  -0.1516
B(  5-C , 17-H ) :  -0.1073 B(  6-C ,  8-C ) :   1.0287 B(  6-C , 14-H ) :   1.0013
B(  6-C , 15-H ) :   1.0246 B(  7-C ,  9-C ) :   1.0287 B(  7-C , 16-H ) :   1.0014
B(  7-C , 17-H ) :   1.0246 B(  8-C ,  9-C ) :   0.9401 B(  8-C , 18-H ) :   0.9562
B(  8-C , 19-H ) :   0.9905 B(  9-C , 20-H ) :   0.9562 B(  9-C , 21-H ) :   0.9905

MP2 TOTAL ENERGY:     -387.573600552 Eh
FINAL SINGLE POINT ENERGY      -387.573600551935

DIPOLE MOMENT
-------------
                                X             Y             Z
Electronic contribution:     -0.00000       0.00000       6.17099
Nuclear contribution   :      0.00000      -0.00000      -6.47880
                        -----------------------------------------
Total Dipole Moment    :     -0.00000       0.00000      -0.30781
                        -----------------------------------------
Magnitude (a.u.)       :      0.30781
Magnitude (Debye)      :      0.78238

Rotational constants in cm-1:     0.093093     0.037585     0.027674
Rotational constants in MHz :  2790.870361  1126.782182   829.651414

                             ****ORCA TERMINATED NORMALLY****
TOTAL RUN TIME: 0 days 2 hours 40 minutes 26 seconds 417 msec
