                         Program Version 5.0.4 -  RELEASE  -
|  1> !ri-mp2 aug-cc-pvqz aug-cc-pvqz/c tightscf
|  2> %pal nprocs 16 end
|  3>
|  4> * xyz 0 1
|  5> C      3.289623   -0.683161    0.151762
|  6> C      2.227943    0.295481   -0.346814
|  7> C      0.848628    0.047344    0.264611
|  8> C     -0.212368    1.027510   -0.233040
|  9> C     -1.589905    0.838545    0.373045
| 10> Cl    -2.363950   -0.734686   -0.125608
| 11> H      3.018596   -1.713424   -0.086887
| 12> H      3.409472   -0.616939    1.235067
| 13> H      4.260930   -0.481964   -0.301814
| 14> H      2.544221    1.319704   -0.126280
| 15> H      2.154297    0.228978   -1.436338
| 16> H      0.918418    0.115557    1.355563
| 17> H      0.530695   -0.973458    0.040898
| 18> H     -0.289842    0.977813   -1.321766
| 19> H      0.095882    2.051249    0.008963
| 20> H     -1.558172    0.815998    1.459589
| 21> H     -2.280876    1.611830    0.050962
| 22> *
| 23>
| 24>                          ****END OF INPUT****

CARTESIAN COORDINATES (ANGSTROEM)
---------------------------------
  C      3.289623   -0.683161    0.151762
  C      2.227943    0.295481   -0.346814
  C      0.848628    0.047344    0.264611
  C     -0.212368    1.027510   -0.233040
  C     -1.589905    0.838545    0.373045
  Cl    -2.363950   -0.734686   -0.125608
  H      3.018596   -1.713424   -0.086887
  H      3.409472   -0.616939    1.235067
  H      4.260930   -0.481964   -0.301814
  H      2.544221    1.319704   -0.126280
  H      2.154297    0.228978   -1.436338
  H      0.918418    0.115557    1.355563
  H      0.530695   -0.973458    0.040898
  H     -0.289842    0.977813   -1.321766
  H      0.095882    2.051249    0.008963
  H     -1.558172    0.815998    1.459589
  H     -2.280876    1.611830    0.050962

 Total Charge           Charge          ....    0
 Multiplicity           Mult            ....    1
 Number of Electrons    NEL             ....   58
 Basis Dimension        Dim             ....  990

ORBITAL ENERGIES
----------------

  NO   OCC          E(Eh)            E(eV)
   0   2.0000    -104.814731     -2852.1538
   1   2.0000     -11.291836      -307.2665
   2   2.0000     -11.234872      -305.7164
   3   2.0000     -11.221392      -305.3496
   4   2.0000     -11.220716      -305.3312
   5   2.0000     -11.212507      -305.1078
   6   2.0000     -10.540186      -286.8130
   7   2.0000      -8.007198      -217.8869
   8   2.0000      -8.005657      -217.8450
   9   2.0000      -8.005628      -217.8442
  10   2.0000      -1.132819       -30.8256
  11   2.0000      -1.073480       -29.2109
  12   2.0000      -1.005865       -27.3710
  13   2.0000      -0.917150       -24.9569
  14   2.0000      -0.825613       -22.4661
  15   2.0000      -0.794248       -21.6126
  16   2.0000      -0.657426       -17.8895
  17   2.0000      -0.634349       -17.2615
  18   2.0000      -0.603892       -16.4327
  19   2.0000      -0.580523       -15.7968
  20   2.0000      -0.572287       -15.5727
  21   2.0000      -0.536423       -14.5968
  22   2.0000      -0.515818       -14.0361
  23   2.0000      -0.489728       -13.3262
  24   2.0000      -0.475609       -12.9420
  25   2.0000      -0.472722       -12.8634
  26   2.0000      -0.468850       -12.7581
  27   2.0000      -0.428383       -11.6569
  28   2.0000      -0.426030       -11.5929
  29   0.0000       0.024691         0.6719
  30   0.0000       0.028228         0.7681
  31   0.0000       0.032482         0.8839
  32   0.0000       0.037568         1.0223
  33   0.0000       0.046648         1.2693

MULLIKEN ATOMIC CHARGES
-----------------------
   0 C :   -0.893641
   1 C :   -0.441096
   2 C :   -0.210306
   3 C :   -0.365549
   4 C :   -0.448170
   5 Cl:   -0.411401
   6 H :    0.226657
   7 H :    0.224190
   8 H :    0.260407
   9 H :    0.229921
  10 H :    0.233726
  11 H :    0.233501
  12 H :    0.281254
  13 H :    0.282695
  14 H :    0.235428
  15 H :    0.254795
  16 H :    0.307588
Sum of atomic charges:   -0.0000000

LOEWDIN ATOMIC CHARGES
----------------------
   0 C :    0.928454
   1 C :    0.506380
   2 C :    0.472057
   3 C :    0.405424
   4 C :   -0.090097
   5 Cl:    1.110652
   6 H :   -0.284135
   7 H :   -0.284696
   8 H :   -0.284021
   9 H :   -0.273406
  10 H :   -0.272753
  11 H :   -0.271619
  12 H :   -0.303799
  13 H :   -0.294597
  14 H :   -0.278420
  15 H :   -0.391301
  16 H :   -0.394122

  Mayer bond orders larger than 0.100000
B(  0-C ,  1-C ) :   0.9888 B(  0-C ,  6-H ) :   0.9546 B(  0-C ,  7-H ) :   0.9573
B(  0-C ,  8-H ) :   1.0245 B(  1-C ,  2-C ) :   0.9181 B(  1-C ,  9-H ) :   0.8826
B(  1-C , 10-H ) :   0.8834 B(  2-C ,  3-C ) :   0.8978 B(  2-C ,  4-C ) :  -0.1224
B(  2-C , 11-H ) :   0.8992 B(  2-C , 12-H ) :   0.8553 B(  3-C ,  4-C ) :   1.0434
B(  3-C ,  5-Cl) :  -0.1507 B(  3-C , 13-H ) :   0.8351 B(  3-C , 14-H ) :   0.8655
B(  4-C ,  5-Cl) :   0.8064 B(  4-C , 15-H ) :   0.9095 B(  4-C , 16-H ) :   0.9351

MP2 TOTAL ENERGY:     -656.510622631 Eh
FINAL SINGLE POINT ENERGY      -656.510622630637

DIPOLE MOMENT
-------------
                                X             Y             Z
Electronic contribution:    -16.00794      -3.72451      -0.88855
Nuclear contribution   :     16.53975       4.48240       1.08080
                        -----------------------------------------
Total Dipole Moment    :      0.53181       0.75789       0.19225
                        -----------------------------------------
Magnitude (a.u.)       :      0.94561
Magnitude (Debye)      :      2.40355

Rotational constants in cm-1:     0.221340     0.033751     0.030886
Rotational constants in MHz :  6635.612852  1011.841360   925.929488

                             ****ORCA TERMINATED NORMALLY****
TOTAL RUN TIME: 0 days 0 hours 39 minutes 16 seconds 354 msec
