                         Program Version 5.0.4 -  RELEASE  -
|  1> !ri-mp2 aug-cc-pvqz aug-cc-pvqz/c tightscf
|  2> %pal nprocs 16 end
|  3>
|  4> * xyz 0 1
|  5> N      0.000000    1.067552        0.000000
|  6> N     -1.127818    0.334603        0.000000
|  7> N     -0.769838   -0.912161        0.000000
|  8> C      0.589795   -0.989098        0.000000
|  9> C      1.100389    0.282255        0.000000
| 10> H     -0.062722    2.071574        0.000000
| 11> H      1.103956   -1.933077        0.000000
| 12> H      2.101258    0.672603        0.000000
| 13> *
| 14>
| 15>                          ****END OF INPUT****

CARTESIAN COORDINATES (ANGSTROEM)
---------------------------------
  N      0.000000    1.067552    0.000000
  N     -1.127818    0.334603    0.000000
  N     -0.769838   -0.912161    0.000000
  C      0.589795   -0.989098    0.000000
  C      1.100389    0.282255    0.000000
  H     -0.062722    2.071574    0.000000
  H      1.103956   -1.933077    0.000000
  H      2.101258    0.672603    0.000000

 Total Charge           Charge          ....    0
 Multiplicity           Mult            ....    1
 Number of Electrons    NEL             ....   36
 Basis Dimension        Dim             ....  538

ORBITAL ENERGIES
----------------

  NO   OCC          E(Eh)            E(eV)
   0   2.0000     -15.662238      -426.1912
   1   2.0000     -15.643637      -425.6850
   2   2.0000     -15.598591      -424.4592
   3   2.0000     -11.290542      -307.2313
   4   2.0000     -11.258184      -306.3508
   5   2.0000      -1.442981       -39.2655
   6   2.0000      -1.206499       -32.8305
   7   2.0000      -1.087597       -29.5950
   8   2.0000      -0.874117       -23.7859
   9   2.0000      -0.840037       -22.8586
  10   2.0000      -0.770096       -20.9554
  11   2.0000      -0.644748       -17.5445
  12   2.0000      -0.637712       -17.3530
  13   2.0000      -0.622096       -16.9281
  14   2.0000      -0.518521       -14.1097
  15   2.0000      -0.444633       -12.0991
  16   2.0000      -0.424487       -11.5509
  17   2.0000      -0.365123        -9.9355
  18   0.0000       0.017079         0.4647
  19   0.0000       0.031184         0.8486
  20   0.0000       0.037761         1.0275
  21   0.0000       0.064738         1.7616
  22   0.0000       0.077213         2.1011

MULLIKEN ATOMIC CHARGES
-----------------------
   0 N :   -0.217635
   1 N :   -0.078300
   2 N :   -0.482561
   3 C :   -0.188305
   4 C :   -0.339591
   5 H :    0.275295
   6 H :    0.528842
   7 H :    0.502254
Sum of atomic charges:   -0.0000000

LOEWDIN ATOMIC CHARGES
----------------------
   0 N :    0.521279
   1 N :    0.203142
   2 N :    0.266623
   3 C :    0.011609
   4 C :    0.151542
   5 H :   -0.480754
   6 H :   -0.362041
   7 H :   -0.311399

  Mayer bond orders larger than 0.100000
B(  0-N ,  1-N ) :   1.0645 B(  0-N ,  4-C ) :   1.0956 B(  0-N ,  5-H ) :   0.9752
B(  1-N ,  2-N ) :   1.3671 B(  2-N ,  3-C ) :   1.1817 B(  2-N ,  4-C ) :   0.1089
B(  3-C ,  4-C ) :   1.5527 B(  3-C ,  6-H ) :   0.7221 B(  4-C ,  7-H ) :   0.7635

MP2 TOTAL ENERGY:     -241.866953119 Eh
FINAL SINGLE POINT ENERGY      -241.866953119171

DIPOLE MOMENT
-------------
                                X             Y             Z
Electronic contribution:     -1.59569       0.22102       0.00000
Nuclear contribution   :      3.06532       0.79681       0.00000
                        -----------------------------------------
Total Dipole Moment    :      1.46963       1.01783       0.00000
                        -----------------------------------------
Magnitude (a.u.)       :      1.78768
Magnitude (Debye)      :      4.54392

Rotational constants in cm-1:     0.336974     0.331922     0.167214
Rotational constants in MHz : 10102.218102  9950.761505  5012.958920

                             ****ORCA TERMINATED NORMALLY****
TOTAL RUN TIME: 0 days 0 hours 5 minutes 47 seconds 197 msec
