                         Program Version 5.0.4 -  RELEASE  -
|  1> !ri-mp2 aug-cc-pvqz aug-cc-pvqz/c tightscf
|  2> %pal nprocs 16 end
|  3>
|  4> * xyz 0 1
|  5> C      0.000000    0.150318    0.000000
|  6> C      0.002169   -1.056593    0.000000
|  7> C     -0.002595    1.513662    0.000000
|  8> C      0.004244   -2.507221    0.000000
|  9> C     -0.005012    2.718859    0.000000
| 10> H     -0.007164    3.779665    0.000000
| 11> H      0.514494   -2.897262    0.882841
| 12> H      0.514494   -2.897262   -0.882841
| 13> H     -1.014660   -2.899289    0.000000
| 14> *
| 15>
| 16>                          ****END OF INPUT****

CARTESIAN COORDINATES (ANGSTROEM)
---------------------------------
  C      0.000000    0.150318    0.000000
  C      0.002169   -1.056593    0.000000
  C     -0.002595    1.513662    0.000000
  C      0.004244   -2.507221    0.000000
  C     -0.005012    2.718859    0.000000
  H     -0.007164    3.779665    0.000000
  H      0.514494   -2.897262    0.882841
  H      0.514494   -2.897262   -0.882841
  H     -1.014660   -2.899289    0.000000

 Total Charge           Charge          ....    0
 Multiplicity           Mult            ....    1
 Number of Electrons    NEL             ....   34
 Basis Dimension        Dim             ....  584

ORBITAL ENERGIES
----------------

  NO   OCC          E(Eh)            E(eV)
   0   2.0000     -11.258566      -306.3612
   1   2.0000     -11.254830      -306.2595
   2   2.0000     -11.254462      -306.2495
   3   2.0000     -11.243324      -305.9464
   4   2.0000     -11.242999      -305.9376
   5   2.0000      -1.092699       -29.7338
   6   2.0000      -1.043008       -28.3817
   7   2.0000      -0.970761       -26.4158
   8   2.0000      -0.824333       -22.4312
   9   2.0000      -0.708650       -19.2834
  10   2.0000      -0.643740       -17.5171
  11   2.0000      -0.602563       -16.3966
  12   2.0000      -0.602554       -16.3963
  13   2.0000      -0.476213       -12.9584
  14   2.0000      -0.476213       -12.9584
  15   2.0000      -0.351766        -9.5720
  16   2.0000      -0.351765        -9.5720
  17   0.0000       0.022775         0.6197
  18   0.0000       0.027217         0.7406
  19   0.0000       0.042350         1.1524
  20   0.0000       0.042350         1.1524
  21   0.0000       0.056853         1.5471

MULLIKEN ATOMIC CHARGES
-----------------------
   0 C :   -0.695186
   1 C :   -0.129443
   2 C :    0.078649
   3 C :   -0.596636
   4 C :    0.132821
   5 H :    0.514978
   6 H :    0.231567
   7 H :    0.231567
   8 H :    0.231683
Sum of atomic charges:    0.0000000

LOEWDIN ATOMIC CHARGES
----------------------
   0 C :   -0.018781
   1 C :    0.132215
   2 C :   -0.080302
   3 C :    0.842125
   4 C :    0.531264
   5 H :   -0.460622
   6 H :   -0.315294
   7 H :   -0.315294
   8 H :   -0.315312

  Mayer bond orders larger than 0.100000
B(  0-C ,  1-C ) :   3.3616 B(  0-C ,  2-C ) :   0.4086 B(  0-C ,  4-C ) :  -0.8896
B(  1-C ,  3-C ) :   0.6918 B(  1-C ,  6-H ) :  -0.1061 B(  1-C ,  7-H ) :  -0.1061
B(  1-C ,  8-H ) :  -0.1060 B(  2-C ,  4-C ) :   2.8512 B(  3-C ,  6-H ) :   1.0127
B(  3-C ,  7-H ) :   1.0127 B(  3-C ,  8-H ) :   1.0125 B(  4-C ,  5-H ) :   0.8070

MP2 TOTAL ENERGY:     -192.449342256 Eh
FINAL SINGLE POINT ENERGY      -192.449342256217

DIPOLE MOMENT
-------------
                                X             Y             Z
Electronic contribution:     -0.00663       4.41061      -0.00000
Nuclear contribution   :      0.00714      -4.89632       0.00000
                        -----------------------------------------
Total Dipole Moment    :      0.00050      -0.48571      -0.00000
                        -----------------------------------------
Magnitude (a.u.)       :      0.48571
Magnitude (Debye)      :      1.23459

Rotational constants in cm-1:     5.364169     0.068392     0.068392
Rotational constants in MHz : 160813.745745  2050.337403  2050.336865

                             ****ORCA TERMINATED NORMALLY****
TOTAL RUN TIME: 0 days 0 hours 5 minutes 48 seconds 546 msec
