                         Program Version 5.0.4 -  RELEASE  -
|  1> !ri-mp2 aug-cc-pvqz aug-cc-pvqz/c tightscf
|  2> %pal nprocs 16 end
|  3>
|  4> * xyz 0 1
|  5> S      1.653853   -1.466360   -0.041522
|  6> S     -1.653853    1.466359   -0.041519
|  7> N      1.962540    2.243904    0.036069
|  8> N     -1.962540   -2.243904    0.036069
|  9> C      0.678815    0.016108    0.014810
| 10> C     -0.678816   -0.016108    0.014811
| 11> C      1.374141    1.251705    0.022854
| 12> C     -1.374142   -1.251705    0.022855
| 13> H      2.827783   -0.852149    0.185852
| 14> H     -2.827783    0.852148    0.185851
| 15> *
| 16>
| 17>                          ****END OF INPUT****

CARTESIAN COORDINATES (ANGSTROEM)
---------------------------------
  S      1.653853   -1.466360   -0.041522
  S     -1.653853    1.466359   -0.041519
  N      1.962540    2.243904    0.036069
  N     -1.962540   -2.243904    0.036069
  C      0.678815    0.016108    0.014810
  C     -0.678816   -0.016108    0.014811
  C      1.374141    1.251705    0.022854
  C     -1.374142   -1.251705    0.022855
  H      2.827783   -0.852149    0.185852
  H     -2.827783    0.852148    0.185851

 Total Charge           Charge          ....    0
 Multiplicity           Mult            ....    1
 Number of Electrons    NEL             ....   72
 Basis Dimension        Dim             ....  740

ORBITAL ENERGIES
----------------

  NO   OCC          E(Eh)            E(eV)
   0   2.0000     -92.017904     -2503.9345
   1   2.0000     -92.017904     -2503.9345
   2   2.0000     -15.612920      -424.8491
   3   2.0000     -15.612919      -424.8491
   4   2.0000     -11.364486      -309.2434
   5   2.0000     -11.362986      -309.2026
   6   2.0000     -11.312214      -307.8210
   7   2.0000     -11.312212      -307.8209
   8   2.0000      -9.019616      -245.4362
   9   2.0000      -9.019614      -245.4362
  10   2.0000      -6.700994      -182.3433
  11   2.0000      -6.700993      -182.3433
  12   2.0000      -6.700108      -182.3192
  13   2.0000      -6.700108      -182.3192
  14   2.0000      -6.699017      -182.2895
  15   2.0000      -6.699016      -182.2895
  16   2.0000      -1.269450       -34.5435
  17   2.0000      -1.258948       -34.2577
  18   2.0000      -1.186490       -32.2860
  19   2.0000      -1.077151       -29.3108
  20   2.0000      -0.976474       -26.5712
  21   2.0000      -0.940083       -25.5810
  22   2.0000      -0.777297       -21.1513
  23   2.0000      -0.701495       -19.0886
  24   2.0000      -0.611681       -16.6447
  25   2.0000      -0.604257       -16.4427
  26   2.0000      -0.600649       -16.3445
  27   2.0000      -0.591489       -16.0952
  28   2.0000      -0.556980       -15.1562
  29   2.0000      -0.552324       -15.0295
  30   2.0000      -0.531260       -14.4563
  31   2.0000      -0.505297       -13.7498
  32   2.0000      -0.479756       -13.0548
  33   2.0000      -0.466820       -12.7028
  34   2.0000      -0.445979       -12.1357
  35   2.0000      -0.350829        -9.5465
  36   0.0000       0.014839         0.4038
  37   0.0000       0.023751         0.6463
  38   0.0000       0.026791         0.7290
  39   0.0000       0.050021         1.3611
  40   0.0000       0.051853         1.4110

MULLIKEN ATOMIC CHARGES
-----------------------
   0 S :    0.028987
   1 S :    0.028991
   2 N :   -0.632540
   3 N :   -0.632543
   4 C :   -0.032801
   5 C :   -0.032808
   6 C :    0.568880
   7 C :    0.568887
   8 H :    0.067474
   9 H :    0.067473
Sum of atomic charges:    0.0000000

LOEWDIN ATOMIC CHARGES
----------------------
   0 S :    1.622615
   1 S :    1.622616
   2 N :    0.434223
   3 N :    0.434224
   4 C :   -0.783473
   5 C :   -0.783474
   6 C :   -0.510978
   7 C :   -0.510978
   8 H :   -0.762387
   9 H :   -0.762388

  Mayer bond orders larger than 0.100000
B(  0-S ,  4-C ) :   0.6733 B(  0-S ,  8-H ) :   1.0550 B(  1-S ,  5-C ) :   0.6733
B(  1-S ,  9-H ) :   1.0550 B(  2-N ,  6-C ) :   2.4567 B(  3-N ,  7-C ) :   2.4567
B(  4-C ,  5-C ) :   1.1211 B(  4-C ,  6-C ) :   1.3314 B(  4-C ,  7-C ) :  -0.1893
B(  5-C ,  6-C ) :  -0.1893 B(  5-C ,  7-C ) :   1.3314

MP2 TOTAL ENERGY:    -1058.124646245 Eh
FINAL SINGLE POINT ENERGY     -1058.124646244599

DIPOLE MOMENT
-------------
                                X             Y             Z
Electronic contribution:     -0.00000       0.00000      -0.26816
Nuclear contribution   :      0.00000      -0.00000       0.35632
                        -----------------------------------------
Total Dipole Moment    :     -0.00000      -0.00000       0.08816
                        -----------------------------------------
Magnitude (a.u.)       :      0.08816
Magnitude (Debye)      :      0.22408

Rotational constants in cm-1:     0.053059     0.047272     0.025016
Rotational constants in MHz :  1590.663811  1417.164891   749.974515

                             ****ORCA TERMINATED NORMALLY****
TOTAL RUN TIME: 0 days 0 hours 13 minutes 22 seconds 507 msec
