                         Program Version 5.0.4 -  RELEASE  -
|  1> !ri-mp2 aug-cc-pvqz aug-cc-pvqz/c tightscf
|  2> %pal nprocs 16 end
|  3>
|  4> * xyz 0 1
|  5> C     0.599705     1.744134       0.000000
|  6> C    -0.599705    -1.744134       0.000000
|  7> C     0.599705     0.409791       0.000000
|  8> C    -0.599705    -0.409791       0.000000
|  9> H     1.519840     2.311174       0.000000
| 10> H    -0.324442     2.309081       0.000000
| 11> H    -1.519840    -2.311174       0.000000
| 12> H     0.324442    -2.309081       0.000000
| 13> H     1.546374    -0.121919       0.000000
| 14> H    -1.546374     0.121919       0.000000
| 15> *
| 16>
| 17>                          ****END OF INPUT****

CARTESIAN COORDINATES (ANGSTROEM)
---------------------------------
  C      0.599705    1.744134    0.000000
  C     -0.599705   -1.744134    0.000000
  C      0.599705    0.409791    0.000000
  C     -0.599705   -0.409791    0.000000
  H      1.519840    2.311174    0.000000
  H     -0.324442    2.309081    0.000000
  H     -1.519840   -2.311174    0.000000
  H      0.324442   -2.309081    0.000000
  H      1.546374   -0.121919    0.000000
  H     -1.546374    0.121919    0.000000

 Total Charge           Charge          ....    0
 Multiplicity           Mult            ....    1
 Number of Electrons    NEL             ....   30
 Basis Dimension        Dim             ....  596

ORBITAL ENERGIES
----------------

  NO   OCC          E(Eh)            E(eV)
   0   2.0000     -11.238484      -305.8147
   1   2.0000     -11.237630      -305.7915
   2   2.0000     -11.228371      -305.5395
   3   2.0000     -11.228364      -305.5393
   4   2.0000      -1.094034       -29.7702
   5   2.0000      -1.002354       -27.2754
   6   2.0000      -0.828748       -22.5514
   7   2.0000      -0.755528       -20.5590
   8   2.0000      -0.646721       -17.5982
   9   2.0000      -0.637108       -17.3366
  10   2.0000      -0.560306       -15.2467
  11   2.0000      -0.545383       -14.8406
  12   2.0000      -0.494550       -13.4574
  13   2.0000      -0.446243       -12.1429
  14   2.0000      -0.325262        -8.8508
  15   0.0000       0.028033         0.7628
  16   0.0000       0.030372         0.8265
  17   0.0000       0.034030         0.9260
  18   0.0000       0.047942         1.3046
  19   0.0000       0.050628         1.3777

MULLIKEN ATOMIC CHARGES
-----------------------
   0 C :   -0.708174
   1 C :   -0.708174
   2 C :   -0.444168
   3 C :   -0.444168
   4 H :    0.304371
   5 H :    0.390290
   6 H :    0.304371
   7 H :    0.390290
   8 H :    0.457681
   9 H :    0.457681
Sum of atomic charges:    0.0000000

LOEWDIN ATOMIC CHARGES
----------------------
   0 C :    0.781826
   1 C :    0.781826
   2 C :    0.292347
   3 C :    0.292347
   4 H :   -0.357812
   5 H :   -0.359509
   6 H :   -0.357812
   7 H :   -0.359509
   8 H :   -0.356854
   9 H :   -0.356854

  Mayer bond orders larger than 0.100000
B(  0-C ,  2-C ) :   1.7472 B(  0-C ,  3-C ) :  -0.1489 B(  0-C ,  4-H ) :   1.0121
B(  0-C ,  5-H ) :   0.8290 B(  1-C ,  2-C ) :  -0.1489 B(  1-C ,  3-C ) :   1.7472
B(  1-C ,  6-H ) :   1.0121 B(  1-C ,  7-H ) :   0.8290 B(  2-C ,  3-C ) :   0.8507
B(  2-C ,  4-H ) :  -0.1016 B(  2-C ,  8-H ) :   0.7550 B(  3-C ,  6-H ) :  -0.1016
B(  3-C ,  9-H ) :   0.7550

MP2 TOTAL ENERGY:     -155.682962126 Eh
FINAL SINGLE POINT ENERGY      -155.682962126184

DIPOLE MOMENT
-------------
                                X             Y             Z
Electronic contribution:      0.00000      -0.00000       0.00000
Nuclear contribution   :      0.00000       0.00000       0.00000
                        -----------------------------------------
Total Dipole Moment    :      0.00000      -0.00000       0.00000
                        -----------------------------------------
Magnitude (a.u.)       :      0.00000
Magnitude (Debye)      :      0.00000

Rotational constants in cm-1:     1.422050     0.148172     0.134190
Rotational constants in MHz : 42632.001405  4442.089577  4022.917175

                             ****ORCA TERMINATED NORMALLY****
TOTAL RUN TIME: 0 days 0 hours 7 minutes 3 seconds 191 msec
