                         Program Version 5.0.4 -  RELEASE  -
|  1> !ri-mp2 aug-cc-pvqz aug-cc-pvqz/c tightscf
|  2> %pal nprocs 16 end
|  3>
|  4> * xyz 0 1
|  5> S      1.186410   -0.064006    0.045138
|  6> O     -0.061150   -1.221903   -0.137878
|  7> N      0.175744    1.267799   -0.042280
|  8> C     -1.314499   -0.572652    0.090963
|  9> C     -1.045628    0.909737   -0.039631
| 10> H     -2.026854   -0.942923   -0.648855
| 11> H     -1.699331   -0.803961    1.095565
| 12> H     -1.836625    1.649104   -0.077924
| 13> *
| 14>
| 15>                          ****END OF INPUT****

CARTESIAN COORDINATES (ANGSTROEM)
---------------------------------
  S      1.186410   -0.064006    0.045138
  O     -0.061150   -1.221903   -0.137878
  N      0.175744    1.267799   -0.042280
  C     -1.314499   -0.572652    0.090963
  C     -1.045628    0.909737   -0.039631
  H     -2.026854   -0.942923   -0.648855
  H     -1.699331   -0.803961    1.095565
  H     -1.836625    1.649104   -0.077924

 Total Charge           Charge          ....    0
 Multiplicity           Mult            ....    1
 Number of Electrons    NEL             ....   46
 Basis Dimension        Dim             ....  542

ORBITAL ENERGIES
----------------

  NO   OCC          E(Eh)            E(eV)
   0   2.0000     -92.030092     -2504.2661
   1   2.0000     -20.595418      -560.4298
   2   2.0000     -15.610247      -424.7764
   3   2.0000     -11.314206      -307.8752
   4   2.0000     -11.306305      -307.6602
   5   2.0000      -9.023970      -245.5547
   6   2.0000      -6.705237      -182.4588
   7   2.0000      -6.703750      -182.4183
   8   2.0000      -6.702247      -182.3774
   9   2.0000      -1.403101       -38.1803
  10   2.0000      -1.253571       -34.1114
  11   2.0000      -1.031264       -28.0621
  12   2.0000      -0.889025       -24.1916
  13   2.0000      -0.805617       -21.9219
  14   2.0000      -0.702786       -19.1238
  15   2.0000      -0.681184       -18.5360
  16   2.0000      -0.625063       -17.0088
  17   2.0000      -0.567309       -15.4373
  18   2.0000      -0.530281       -14.4297
  19   2.0000      -0.512646       -13.9498
  20   2.0000      -0.500332       -13.6147
  21   2.0000      -0.460911       -12.5420
  22   2.0000      -0.329224        -8.9586
  23   0.0000       0.022065         0.6004
  24   0.0000       0.035533         0.9669
  25   0.0000       0.036723         0.9993
  26   0.0000       0.052146         1.4190
  27   0.0000       0.068087         1.8527

MULLIKEN ATOMIC CHARGES
-----------------------
   0 S :    0.597335
   1 O :   -0.752287
   2 N :   -0.656544
   3 C :   -0.116154
   4 C :   -0.227236
   5 H :    0.290165
   6 H :    0.288021
   7 H :    0.576701
Sum of atomic charges:   -0.0000000

LOEWDIN ATOMIC CHARGES
----------------------
   0 S :    0.728227
   1 O :    0.353648
   2 N :    0.054306
   3 C :   -0.033897
   4 C :   -0.101132
   5 H :   -0.332977
   6 H :   -0.317928
   7 H :   -0.350249

  Mayer bond orders larger than 0.100000
B(  0-S ,  1-O ) :   0.7681 B(  0-S ,  2-N ) :   0.9552 B(  1-O ,  3-C ) :   0.7665
B(  2-N ,  4-C ) :   1.7310 B(  3-C ,  4-C ) :   1.1041 B(  3-C ,  5-H ) :   0.8872
B(  3-C ,  6-H ) :   0.8438 B(  4-C ,  7-H ) :   0.6362

MP2 TOTAL ENERGY:     -605.370408433 Eh
FINAL SINGLE POINT ENERGY      -605.370408432554

DIPOLE MOMENT
-------------
                                X             Y             Z
Electronic contribution:      4.28559       0.16889      -0.22202
Nuclear contribution   :     -5.42840      -0.10434       0.35383
                        -----------------------------------------
Total Dipole Moment    :     -1.14280       0.06455       0.13181
                        -----------------------------------------
Magnitude (a.u.)       :      1.15219
Magnitude (Debye)      :      2.92863

Rotational constants in cm-1:     0.252181     0.183712     0.109242
Rotational constants in MHz :  7560.193220  5507.540371  3274.994059

                             ****ORCA TERMINATED NORMALLY****
TOTAL RUN TIME: 0 days 0 hours 6 minutes 24 seconds 940 msec
