                         Program Version 5.0.4 -  RELEASE  -
|  1> !ri-mp2 aug-cc-pvqz aug-cc-pvqz/c tightscf
|  2> %pal nprocs 16 end
|  3>
|  4> * xyz 0 1
|  5> C      0.000000    0.000000    1.747016
|  6> C      0.000000    0.000000    0.425505
|  7> H      0.000000    0.930182    2.293878
|  8> H      0.000000   -0.930182    2.293878
|  9> Cl     0.000000    1.459069   -0.518320
| 10> Cl     0.000000   -1.459069   -0.518320
| 11> *
| 12>
| 13>                          ****END OF INPUT****

CARTESIAN COORDINATES (ANGSTROEM)
---------------------------------
  C      0.000000    0.000000    1.747016
  C      0.000000    0.000000    0.425505
  H      0.000000    0.930182    2.293878
  H      0.000000   -0.930182    2.293878
  Cl     0.000000    1.459069   -0.518320
  Cl     0.000000   -1.459069   -0.518320

 Total Charge           Charge          ....    0
 Multiplicity           Mult            ....    1
 Number of Electrons    NEL             ....   48
 Basis Dimension        Dim             ....  420

ORBITAL ENERGIES
----------------

  NO   OCC          E(Eh)            E(eV)
   0   2.0000    -104.860262     -2853.3928
   1   2.0000    -104.860262     -2853.3928
   2   2.0000     -11.367856      -309.3351
   3   2.0000     -11.259948      -306.3988
   4   2.0000     -10.585351      -288.0420
   5   2.0000     -10.585340      -288.0417
   6   2.0000      -8.052462      -219.1186
   7   2.0000      -8.052459      -219.1186
   8   2.0000      -8.050581      -219.0674
   9   2.0000      -8.050580      -219.0674
  10   2.0000      -8.050517      -219.0657
  11   2.0000      -8.050516      -219.0657
  12   2.0000      -1.212632       -32.9974
  13   2.0000      -1.109763       -30.1982
  14   2.0000      -1.022919       -27.8351
  15   2.0000      -0.770198       -20.9581
  16   2.0000      -0.664362       -18.0782
  17   2.0000      -0.642905       -17.4943
  18   2.0000      -0.563940       -15.3456
  19   2.0000      -0.548348       -14.9213
  20   2.0000      -0.491730       -13.3807
  21   2.0000      -0.477834       -13.0025
  22   2.0000      -0.456267       -12.4157
  23   2.0000      -0.376449       -10.2437
  24   0.0000       0.026863         0.7310
  25   0.0000       0.039413         1.0725
  26   0.0000       0.053161         1.4466
  27   0.0000       0.064524         1.7558
  28   0.0000       0.067134         1.8268

MULLIKEN ATOMIC CHARGES
-----------------------
   0 C :   -0.653954
   1 C :   -0.040602
   2 H :    0.422283
   3 H :    0.422283
   4 Cl:   -0.075005
   5 Cl:   -0.075005
Sum of atomic charges:   -0.0000000

LOEWDIN ATOMIC CHARGES
----------------------
   0 C :    0.454402
   1 C :   -1.682292
   2 H :   -0.412652
   3 H :   -0.412652
   4 Cl:    1.026597
   5 Cl:    1.026597

  Mayer bond orders larger than 0.100000
B(  0-C ,  1-C ) :   1.7143 B(  0-C ,  2-H ) :   0.8299 B(  0-C ,  3-H ) :   0.8299
B(  1-C ,  4-Cl) :   0.8861 B(  1-C ,  5-Cl) :   0.8861

MP2 TOTAL ENERGY:     -996.709241571 Eh
FINAL SINGLE POINT ENERGY      -996.709241570643

DIPOLE MOMENT
-------------
                                X             Y             Z
Electronic contribution:     -0.00000       0.00000      -4.99496
Nuclear contribution   :      0.00000       0.00000       5.64522
                        -----------------------------------------
Total Dipole Moment    :     -0.00000       0.00000       0.65026
                        -----------------------------------------
Magnitude (a.u.)       :      0.65026
Magnitude (Debye)      :      1.65283

Rotational constants in cm-1:     0.247489     0.110401     0.076345
Rotational constants in MHz :  7419.531549  3309.734880  2288.756881

                             ****ORCA TERMINATED NORMALLY****
TOTAL RUN TIME: 0 days 0 hours 3 minutes 7 seconds 7 msec
