                         Program Version 5.0.4 -  RELEASE  -
|  1> !ri-mp2 aug-cc-pvqz aug-cc-pvqz/c tightscf
|  2> %pal nprocs 16 end
|  3>
|  4> * xyz 0 1
|  5> C     -3.174894    0.221356    0.015832
|  6> C     -1.854161   -0.545307   -0.021865
|  7> C     -0.626182    0.365737    0.013037
|  8> C      0.699506   -0.395753   -0.027955
|  9> C      1.913737    0.523470    0.013334
| 10> O      3.154194   -0.175719   -0.081422
| 11> H     -3.256954    0.821962    0.924087
| 12> H     -3.261939    0.899200   -0.835780
| 13> H     -4.029566   -0.455825   -0.011540
| 14> H     -1.816621   -1.163702   -0.923412
| 15> H     -1.810925   -1.238981    0.823068
| 16> H     -0.670781    1.059963   -0.832589
| 17> H     -0.664660    0.985038    0.915426
| 18> H      0.754149   -1.005560   -0.933536
| 19> H      0.747184   -1.089540    0.819209
| 20> H      1.890619    1.140743    0.919619
| 21> H      1.902039    1.201994   -0.840618
| 22> H      3.235868   -0.766559    0.673146
| 23> *
| 24>
| 25>                          ****END OF INPUT****

CARTESIAN COORDINATES (ANGSTROEM)
---------------------------------
  C     -3.174894    0.221356    0.015832
  C     -1.854161   -0.545307   -0.021865
  C     -0.626182    0.365737    0.013037
  C      0.699506   -0.395753   -0.027955
  C      1.913737    0.523470    0.013334
  O      3.154194   -0.175719   -0.081422
  H     -3.256954    0.821962    0.924087
  H     -3.261939    0.899200   -0.835780
  H     -4.029566   -0.455825   -0.011540
  H     -1.816621   -1.163702   -0.923412
  H     -1.810925   -1.238981    0.823068
  H     -0.670781    1.059963   -0.832589
  H     -0.664660    0.985038    0.915426
  H      0.754149   -1.005560   -0.933536
  H      0.747184   -1.089540    0.819209
  H      1.890619    1.140743    0.919619
  H      1.902039    1.201994   -0.840618
  H      3.235868   -0.766559    0.673146

 Total Charge           Charge          ....    0
 Multiplicity           Mult            ....    1
 Number of Electrons    NEL             ....   50
 Basis Dimension        Dim             .... 1032

ORBITAL ENERGIES
----------------

  NO   OCC          E(Eh)            E(eV)
   0   2.0000     -20.551171      -559.2258
   1   2.0000     -11.270590      -306.6884
   2   2.0000     -11.220930      -305.3370
   3   2.0000     -11.219818      -305.3068
   4   2.0000     -11.219169      -305.2891
   5   2.0000     -11.212267      -305.1013
   6   2.0000      -1.352554       -36.8049
   7   2.0000      -1.083393       -29.4806
   8   2.0000      -1.012579       -27.5537
   9   2.0000      -0.914149       -24.8753
  10   2.0000      -0.829265       -22.5655
  11   2.0000      -0.795231       -21.6393
  12   2.0000      -0.688703       -18.7406
  13   2.0000      -0.646684       -17.5972
  14   2.0000      -0.611837       -16.6489
  15   2.0000      -0.604627       -16.4527
  16   2.0000      -0.576893       -15.6981
  17   2.0000      -0.560659       -15.2563
  18   2.0000      -0.527820       -14.3627
  19   2.0000      -0.510597       -13.8941
  20   2.0000      -0.490764       -13.3544
  21   2.0000      -0.472608       -12.8603
  22   2.0000      -0.469739       -12.7822
  23   2.0000      -0.465371       -12.6634
  24   2.0000      -0.431553       -11.7431
  25   0.0000       0.025236         0.6867
  26   0.0000       0.029559         0.8043
  27   0.0000       0.032201         0.8762
  28   0.0000       0.035193         0.9576
  29   0.0000       0.046688         1.2704

MULLIKEN ATOMIC CHARGES
-----------------------
   0 C :   -0.893250
   1 C :   -0.453415
   2 C :   -0.249371
   3 C :   -0.563468
   4 C :    0.045186
   5 O :   -0.894964
   6 H :    0.223924
   7 H :    0.225685
   8 H :    0.263263
   9 H :    0.228153
  10 H :    0.232165
  11 H :    0.248902
  12 H :    0.232939
  13 H :    0.275404
  14 H :    0.237830
  15 H :    0.196785
  16 H :    0.297808
  17 H :    0.346422
Sum of atomic charges:   -0.0000000

LOEWDIN ATOMIC CHARGES
----------------------
   0 C :    0.927106
   1 C :    0.507547
   2 C :    0.500906
   3 C :    0.502619
   4 C :    0.190456
   5 O :    1.268181
   6 H :   -0.285171
   7 H :   -0.285024
   8 H :   -0.284385
   9 H :   -0.273214
  10 H :   -0.273786
  11 H :   -0.269165
  12 H :   -0.269755
  13 H :   -0.274159
  14 H :   -0.275839
  15 H :   -0.292172
  16 H :   -0.314953
  17 H :   -0.799191

  Mayer bond orders larger than 0.100000
B(  0-C ,  1-C ) :   0.9982 B(  0-C ,  6-H ) :   0.9583 B(  0-C ,  7-H ) :   0.9577
B(  0-C ,  8-H ) :   1.0253 B(  1-C ,  2-C ) :   0.9146 B(  1-C ,  9-H ) :   0.8852
B(  1-C , 10-H ) :   0.8890 B(  2-C ,  3-C ) :   0.9171 B(  2-C , 11-H ) :   0.8574
B(  2-C , 12-H ) :   0.8884 B(  3-C ,  4-C ) :   1.2081 B(  3-C , 13-H ) :   0.8378
B(  3-C , 14-H ) :   0.8626 B(  4-C ,  5-O ) :   0.6277 B(  4-C , 15-H ) :   0.9472
B(  4-C , 16-H ) :   0.8523 B(  5-O , 17-H ) :   0.8616

MP2 TOTAL ENERGY:     -272.511646019 Eh
FINAL SINGLE POINT ENERGY      -272.511646019158

DIPOLE MOMENT
-------------
                                X             Y             Z
Electronic contribution:      6.80366      -0.50752      -0.27227
Nuclear contribution   :     -7.38431       0.41116       0.74121
                        -----------------------------------------
Total Dipole Moment    :     -0.58066      -0.09636       0.46894
                        -----------------------------------------
Magnitude (a.u.)       :      0.75256
Magnitude (Debye)      :      1.91287

Rotational constants in cm-1:     0.525550     0.037614     0.036364
Rotational constants in MHz : 15755.594698  1127.643160  1090.158324

                             ****ORCA TERMINATED NORMALLY****
TOTAL RUN TIME: 0 days 0 hours 41 minutes 19 seconds 723 msec
