                         Program Version 5.0.4 -  RELEASE  -
|  1> !ri-mp2 aug-cc-pvqz aug-cc-pvqz/c tightscf
|  2> %pal nprocs 16 end
|  3>
|  4> * xyz 0 1
|  5> F     -1.669344    0.483858   -0.453523
|  6> F     -0.788373   -1.103319    0.767200
|  7> O      0.629635    1.223624    0.727671
|  8> N     -0.619879   -0.472984   -0.472184
|  9> C      0.621002    0.357868   -0.363789
| 10> C      1.814672   -0.567909   -0.285540
| 11> H     -0.126057    1.819060    0.668820
| 12> H      0.599329    0.897393   -1.316545
| 13> H      2.723091    0.026037   -0.362124
| 14> H      1.817974   -1.095028    0.666070
| 15> H      1.793148   -1.290166   -1.099425
| 16> *
| 17>
| 18>                          ****END OF INPUT****

CARTESIAN COORDINATES (ANGSTROEM)
---------------------------------
  F     -1.669344    0.483858   -0.453523
  F     -0.788373   -1.103319    0.767200
  O      0.629635    1.223624    0.727671
  N     -0.619879   -0.472984   -0.472184
  C      0.621002    0.357868   -0.363789
  C      1.814672   -0.567909   -0.285540
  H     -0.126057    1.819060    0.668820
  H      0.599329    0.897393   -1.316545
  H      2.723091    0.026037   -0.362124
  H      1.817974   -1.095028    0.666070
  H      1.793148   -1.290166   -1.099425

 Total Charge           Charge          ....    0
 Multiplicity           Mult            ....    1
 Number of Electrons    NEL             ....   50
 Basis Dimension        Dim             ....  710

ORBITAL ENERGIES
----------------

  NO   OCC          E(Eh)            E(eV)
   0   2.0000     -26.335485      -716.6250
   1   2.0000     -26.334240      -716.5911
   2   2.0000     -20.589516      -560.2692
   3   2.0000     -15.770307      -429.1319
   4   2.0000     -11.352300      -308.9118
   5   2.0000     -11.240162      -305.8604
   6   2.0000      -1.680124       -45.7185
   7   2.0000      -1.596518       -43.4435
   8   2.0000      -1.406922       -38.2843
   9   2.0000      -1.159561       -31.5533
  10   2.0000      -1.014645       -27.6099
  11   2.0000      -0.866233       -23.5714
  12   2.0000      -0.776119       -21.1193
  13   2.0000      -0.772239       -21.0137
  14   2.0000      -0.756790       -20.5933
  15   2.0000      -0.720015       -19.5926
  16   2.0000      -0.677875       -18.4459
  17   2.0000      -0.644888       -17.5483
  18   2.0000      -0.634606       -17.2685
  19   2.0000      -0.612483       -16.6665
  20   2.0000      -0.568354       -15.4657
  21   2.0000      -0.559075       -15.2132
  22   2.0000      -0.548595       -14.9280
  23   2.0000      -0.507240       -13.8027
  24   2.0000      -0.478681       -13.0256
  25   0.0000       0.024374         0.6633
  26   0.0000       0.033464         0.9106
  27   0.0000       0.037725         1.0266
  28   0.0000       0.043555         1.1852
  29   0.0000       0.056184         1.5288

MULLIKEN ATOMIC CHARGES
-----------------------
   0 F :   -0.460333
   1 F :   -0.434986
   2 O :   -0.816137
   3 N :    0.429044
   4 C :    0.692768
   5 C :   -0.909459
   6 H :    0.330062
   7 H :    0.359664
   8 H :    0.279895
   9 H :    0.270403
  10 H :    0.259079
Sum of atomic charges:   -0.0000000

LOEWDIN ATOMIC CHARGES
----------------------
   0 F :    0.477646
   1 F :    0.485116
   2 O :    1.273841
   3 N :   -0.507369
   4 C :   -0.555823
   5 C :    0.871510
   6 H :   -0.813290
   7 H :   -0.350253
   8 H :   -0.286687
   9 H :   -0.303312
  10 H :   -0.291379

  Mayer bond orders larger than 0.100000
B(  0-F ,  3-N ) :   0.6954 B(  1-F ,  3-N ) :   0.7068 B(  2-O ,  4-C ) :   0.6086
B(  2-O ,  6-H ) :   0.8986 B(  3-N ,  4-C ) :   0.7979 B(  4-C ,  5-C ) :   0.8392
B(  4-C ,  7-H ) :   0.8052 B(  5-C ,  8-H ) :   0.9667 B(  5-C ,  9-H ) :   0.8980
B(  5-C , 10-H ) :   0.9741

MP2 TOTAL ENERGY:     -408.287183954 Eh
FINAL SINGLE POINT ENERGY      -408.287183954074

DIPOLE MOMENT
-------------
                                X             Y             Z
Electronic contribution:     -8.26563      -0.57251       1.12472
Nuclear contribution   :      8.94011       0.95349      -1.68750
                        -----------------------------------------
Total Dipole Moment    :      0.67448       0.38098      -0.56278
                        -----------------------------------------
Magnitude (a.u.)       :      0.95749
Magnitude (Debye)      :      2.43374

Rotational constants in cm-1:     0.168545     0.100615     0.083661
Rotational constants in MHz :  5052.851817  3016.370018  2508.079102

                             ****ORCA TERMINATED NORMALLY****
TOTAL RUN TIME: 0 days 0 hours 10 minutes 3 seconds 611 msec
