                         Program Version 5.0.4 -  RELEASE  -
|  1> !ri-mp2 aug-cc-pvqz aug-cc-pvqz/c tightscf
|  2> %pal nprocs 16 end
|  3>
|  4> * xyz 0 1
|  5> S      0.000000    0.000000    3.335105
|  6> C      0.000000    0.000000    1.696705
|  7> S      0.000000    1.461876    0.723589
|  8> C      0.000039    0.699784   -0.860302
|  9> C      0.000068    1.401474   -2.063160
| 10> C      0.000035    0.696981   -3.258264
| 11> C     -0.000035   -0.696981   -3.258264
| 12> C     -0.000068   -1.401474   -2.063160
| 13> C     -0.000039   -0.699784   -0.860302
| 14> S      0.000000   -1.461876    0.723589
| 15> H      0.000110    2.482729   -2.063133
| 16> H      0.000064    1.236910   -4.194881
| 17> H     -0.000064   -1.236910   -4.194881
| 18> H     -0.000110   -2.482729   -2.063133
| 19> *
| 20>
| 21>                          ****END OF INPUT****

CARTESIAN COORDINATES (ANGSTROEM)
---------------------------------
  S      0.000000    0.000000    3.335105
  C      0.000000    0.000000    1.696705
  S      0.000000    1.461876    0.723589
  C      0.000039    0.699784   -0.860302
  C      0.000068    1.401474   -2.063160
  C      0.000035    0.696981   -3.258264
  C     -0.000035   -0.696981   -3.258264
  C     -0.000068   -1.401474   -2.063160
  C     -0.000039   -0.699784   -0.860302
  S      0.000000   -1.461876    0.723589
  H      0.000110    2.482729   -2.063133
  H      0.000064    1.236910   -4.194881
  H     -0.000064   -1.236910   -4.194881
  H     -0.000110   -2.482729   -2.063133

 Total Charge           Charge          ....    0
 Multiplicity           Mult            ....    1
 Number of Electrons    NEL             ....   94
 Basis Dimension        Dim             ....  996

ORBITAL ENERGIES
----------------

  NO   OCC          E(Eh)            E(eV)
   0   2.0000     -92.012398     -2503.7846
   1   2.0000     -92.012398     -2503.7846
   2   2.0000     -91.930674     -2501.5608
   3   2.0000     -11.382191      -309.7252
   4   2.0000     -11.302467      -307.5558
   5   2.0000     -11.301276      -307.5234
   6   2.0000     -11.269440      -306.6571
   7   2.0000     -11.269430      -306.6568
   8   2.0000     -11.262951      -306.4805
   9   2.0000     -11.261736      -306.4474
  10   2.0000      -9.013937      -245.2817
  11   2.0000      -9.013926      -245.2814
  12   2.0000      -8.934092      -243.1090
  13   2.0000      -6.695100      -182.1829
  14   2.0000      -6.695097      -182.1829
  15   2.0000      -6.694274      -182.1604
  16   2.0000      -6.694271      -182.1604
  17   2.0000      -6.693507      -182.1396
  18   2.0000      -6.693506      -182.1396
  19   2.0000      -6.615455      -180.0157
  20   2.0000      -6.614181      -179.9810
  21   2.0000      -6.613194      -179.9542
  22   2.0000      -1.219089       -33.1731
  23   2.0000      -1.148341       -31.2480
  24   2.0000      -1.077014       -29.3070
  25   2.0000      -1.053809       -28.6756
  26   2.0000      -0.998519       -27.1711
  27   2.0000      -0.951401       -25.8890
  28   2.0000      -0.852063       -23.1858
  29   2.0000      -0.830875       -22.6093
  30   2.0000      -0.753798       -20.5119
  31   2.0000      -0.695344       -18.9213
  32   2.0000      -0.667662       -18.1680
  33   2.0000      -0.656596       -17.8669
  34   2.0000      -0.627719       -17.0811
  35   2.0000      -0.582385       -15.8475
  36   2.0000      -0.576443       -15.6858
  37   2.0000      -0.548549       -14.9268
  38   2.0000      -0.532051       -14.4778
  39   2.0000      -0.509291       -13.8585
  40   2.0000      -0.503894       -13.7117
  41   2.0000      -0.478163       -13.0115
  42   2.0000      -0.439648       -11.9634
  43   2.0000      -0.398828       -10.8527
  44   2.0000      -0.350033        -9.5249
  45   2.0000      -0.343128        -9.3370
  46   2.0000      -0.308035        -8.3821
  47   0.0000       0.018575         0.5054
  48   0.0000       0.024117         0.6562
  49   0.0000       0.031727         0.8633
  50   0.0000       0.039443         1.0733
  51   0.0000       0.043018         1.1706

MULLIKEN ATOMIC CHARGES
-----------------------
   0 S :   -0.052803
   1 C :   -0.745701
   2 S :    0.318694
   3 C :   -0.087637
   4 C :   -0.250706
   5 C :   -0.237895
   6 C :   -0.237949
   7 C :   -0.250711
   8 C :   -0.087557
   9 S :    0.318708
  10 H :    0.387166
  11 H :    0.269611
  12 H :    0.269637
  13 H :    0.387142
Sum of atomic charges:    0.0000000

LOEWDIN ATOMIC CHARGES
----------------------
   0 S :    0.832556
   1 C :   -1.785722
   2 S :    1.175845
   3 C :   -0.631671
   4 C :    0.251121
   5 C :    0.337568
   6 C :    0.337568
   7 C :    0.251121
   8 C :   -0.631671
   9 S :    1.175845
  10 H :   -0.334936
  11 H :   -0.321345
  12 H :   -0.321345
  13 H :   -0.334936

  Mayer bond orders larger than 0.100000
B(  0-S ,  1-C ) :   1.4657 B(  1-C ,  2-S ) :   1.1236 B(  1-C ,  3-C ) :  -0.1273
B(  1-C ,  8-C ) :  -0.1274 B(  1-C ,  9-S ) :   1.1237 B(  2-S ,  3-C ) :   0.9365
B(  2-S ,  8-C ) :  -0.2709 B(  3-C ,  4-C ) :   1.0933 B(  3-C ,  5-C ) :  -0.1782
B(  3-C ,  8-C ) :   0.8145 B(  3-C ,  9-S ) :  -0.2709 B(  4-C ,  5-C ) :   1.2257
B(  4-C , 10-H ) :   0.8763 B(  4-C , 11-H ) :  -0.1223 B(  5-C ,  6-C ) :   1.1357
B(  5-C , 11-H ) :   1.0806 B(  6-C ,  7-C ) :   1.2257 B(  6-C ,  8-C ) :  -0.1782
B(  6-C , 12-H ) :   1.0806 B(  7-C ,  8-C ) :   1.0932 B(  7-C , 12-H ) :  -0.1223
B(  7-C , 13-H ) :   0.8763 B(  8-C ,  9-S ) :   0.9366

MP2 TOTAL ENERGY:    -1461.887659333 Eh
FINAL SINGLE POINT ENERGY     -1461.887659332840

DIPOLE MOMENT
-------------
                                X             Y             Z
Electronic contribution:      0.00000       0.00000      10.01197
Nuclear contribution   :      0.00000       0.00000     -12.13104
                        -----------------------------------------
Total Dipole Moment    :      0.00000       0.00000      -2.11907
                        -----------------------------------------
Magnitude (a.u.)       :      2.11907
Magnitude (Debye)      :      5.38624

Rotational constants in cm-1:     0.075542     0.019997     0.015812
Rotational constants in MHz :  2264.693010   599.498394   474.018538

                             ****ORCA TERMINATED NORMALLY****
TOTAL RUN TIME: 0 days 1 hours 4 minutes 24 seconds 76 msec
