                         Program Version 5.0.4 -  RELEASE  -
|  1> !ri-mp2 aug-cc-pvqz aug-cc-pvqz/c tightscf
|  2> %pal nprocs 16 end
|  3> %maxcore 3800
|  4>
|  5> * xyz 0 1
|  6> C    -0.156412     0.744515    1.198880
|  7> C     0.156412    -0.744515    1.198880
|  8> C    -0.156412     0.744515   -1.198880
|  9> C     0.156412    -0.744515   -1.198880
| 10> C     0.156412     2.817089    0.000000
| 11> C    -0.156412    -2.817089    0.000000
| 12> N     0.372203     1.382577    0.000000
| 13> N    -0.372203    -1.382577    0.000000
| 14> H    -1.249175     0.882535    1.278396
| 15> H     0.300386     1.211676    2.073396
| 16> H     1.249175    -0.882535    1.278396
| 17> H    -0.300386    -1.211676    2.073396
| 18> H     0.300386     1.211676   -2.073396
| 19> H    -1.249175     0.882535   -1.278396
| 20> H    -0.300386    -1.211676   -2.073396
| 21> H     1.249175    -0.882535   -1.278396
| 22> H     0.618271     3.260208    0.882966
| 23> H    -0.912825     3.090807    0.000000
| 24> H     0.618271     3.260208   -0.882966
| 25> H     0.912825    -3.090807    0.000000
| 26> H    -0.618271    -3.260208   -0.882966
| 27> H    -0.618271    -3.260208    0.882966
| 28> *
| 29>
| 30>                          ****END OF INPUT****

CARTESIAN COORDINATES (ANGSTROEM)
---------------------------------
  C     -0.156412    0.744515    1.198880
  C      0.156412   -0.744515    1.198880
  C     -0.156412    0.744515   -1.198880
  C      0.156412   -0.744515   -1.198880
  C      0.156412    2.817089    0.000000
  C     -0.156412   -2.817089    0.000000
  N      0.372203    1.382577    0.000000
  N     -0.372203   -1.382577    0.000000
  H     -1.249175    0.882535    1.278396
  H      0.300386    1.211676    2.073396
  H      1.249175   -0.882535    1.278396
  H     -0.300386   -1.211676    2.073396
  H      0.300386    1.211676   -2.073396
  H     -1.249175    0.882535   -1.278396
  H     -0.300386   -1.211676   -2.073396
  H      1.249175   -0.882535   -1.278396
  H      0.618271    3.260208    0.882966
  H     -0.912825    3.090807    0.000000
  H      0.618271    3.260208   -0.882966
  H      0.912825   -3.090807    0.000000
  H     -0.618271   -3.260208   -0.882966
  H     -0.618271   -3.260208    0.882966

 Total Charge           Charge          ....    0
 Multiplicity           Mult            ....    1
 Number of Electrons    NEL             ....   64
 Basis Dimension        Dim             .... 1284

ORBITAL ENERGIES
----------------

  NO   OCC          E(Eh)            E(eV)
   0   2.0000     -15.540612      -422.8816
   1   2.0000     -15.540609      -422.8815
   2   2.0000     -11.241675      -305.9015
   3   2.0000     -11.241657      -305.9010
   4   2.0000     -11.241032      -305.8840
   5   2.0000     -11.241022      -305.8838
   6   2.0000     -11.238345      -305.8109
   7   2.0000     -11.238345      -305.8109
   8   2.0000      -1.251787       -34.0629
   9   2.0000      -1.201446       -32.6930
  10   2.0000      -1.023020       -27.8378
  11   2.0000      -0.989845       -26.9351
  12   2.0000      -0.909289       -24.7430
  13   2.0000      -0.864683       -23.5292
  14   2.0000      -0.834525       -22.7086
  15   2.0000      -0.753214       -20.4960
  16   2.0000      -0.663794       -18.0628
  17   2.0000      -0.635934       -17.3047
  18   2.0000      -0.629607       -17.1325
  19   2.0000      -0.624844       -17.0029
  20   2.0000      -0.620231       -16.8774
  21   2.0000      -0.580171       -15.7873
  22   2.0000      -0.549133       -14.9427
  23   2.0000      -0.544505       -14.8167
  24   2.0000      -0.541629       -14.7385
  25   2.0000      -0.516377       -14.0513
  26   2.0000      -0.496607       -13.5134
  27   2.0000      -0.490648       -13.3512
  28   2.0000      -0.465370       -12.6634
  29   2.0000      -0.458132       -12.4664
  30   2.0000      -0.354796        -9.6545
  31   2.0000      -0.350262        -9.5311
  32   0.0000       0.026700         0.7266
  33   0.0000       0.030246         0.8230
  34   0.0000       0.031724         0.8633
  35   0.0000       0.035368         0.9624
  36   0.0000       0.044712         1.2167

MULLIKEN ATOMIC CHARGES
-----------------------
   0 C :   -0.325963
   1 C :   -0.325935
   2 C :   -0.325978
   3 C :   -0.325958
   4 C :   -0.945328
   5 C :   -0.945303
   6 N :   -0.216870
   7 N :   -0.216896
   8 H :    0.212686
   9 H :    0.292480
  10 H :    0.212681
  11 H :    0.292460
  12 H :    0.292506
  13 H :    0.212679
  14 H :    0.292446
  15 H :    0.212658
  16 H :    0.268155
  17 H :    0.267518
  18 H :    0.268148
  19 H :    0.267517
  20 H :    0.268167
  21 H :    0.268129
Sum of atomic charges:    0.0000000

LOEWDIN ATOMIC CHARGES
----------------------
   0 C :    0.340865
   1 C :    0.340865
   2 C :    0.340865
   3 C :    0.340865
   4 C :    0.746373
   5 C :    0.746373
   6 N :    0.502607
   7 N :    0.502607
   8 H :   -0.255620
   9 H :   -0.281960
  10 H :   -0.255620
  11 H :   -0.281960
  12 H :   -0.281960
  13 H :   -0.255620
  14 H :   -0.281960
  15 H :   -0.255620
  16 H :   -0.294182
  17 H :   -0.267185
  18 H :   -0.294182
  19 H :   -0.267185
  20 H :   -0.294182
  21 H :   -0.294182

  Mayer bond orders larger than 0.100000
B(  0-C ,  1-C ) :   1.0053 B(  0-C ,  6-N ) :   0.7287 B(  0-C ,  8-H ) :   0.9630
B(  0-C ,  9-H ) :   0.9021 B(  1-C ,  7-N ) :   0.7287 B(  1-C , 10-H ) :   0.9630
B(  1-C , 11-H ) :   0.9021 B(  2-C ,  3-C ) :   1.0054 B(  2-C ,  6-N ) :   0.7287
B(  2-C , 12-H ) :   0.9021 B(  2-C , 13-H ) :   0.9629 B(  3-C ,  7-N ) :   0.7287
B(  3-C , 14-H ) :   0.9021 B(  3-C , 15-H ) :   0.9630 B(  4-C ,  6-N ) :   0.8946
B(  4-C , 16-H ) :   0.9822 B(  4-C , 17-H ) :   0.9693 B(  4-C , 18-H ) :   0.9823
B(  5-C ,  7-N ) :   0.8946 B(  5-C , 19-H ) :   0.9693 B(  5-C , 20-H ) :   0.9822
B(  5-C , 21-H ) :   0.9823

MP2 TOTAL ENERGY:     -345.937769440 Eh
FINAL SINGLE POINT ENERGY      -345.937769439724

DIPOLE MOMENT
-------------
                                X             Y             Z
Electronic contribution:     -0.00000       0.00000      -0.00000
Nuclear contribution   :      0.00000      -0.00000       0.00000
                        -----------------------------------------
Total Dipole Moment    :     -0.00000       0.00000      -0.00000
                        -----------------------------------------
Magnitude (a.u.)       :      0.00000
Magnitude (Debye)      :      0.00000

Rotational constants in cm-1:     0.152483     0.047152     0.038383
Rotational constants in MHz :  4571.316845  1413.592912  1150.679134

                             ****ORCA TERMINATED NORMALLY****
TOTAL RUN TIME: 0 days 1 hours 16 minutes 48 seconds 578 msec
