                         Program Version 5.0.4 -  RELEASE  -
|  1> !ri-mp2 aug-cc-pvqz aug-cc-pvqz/c tightscf
|  2> %pal nprocs 16 end
|  3>
|  4> * xyz 0 1
|  5> C     -1.932966    1.927138        0.000000
|  6> C      0.000000    0.897330        0.000000
|  7> C     -1.047973    0.007447        0.000000
|  8> C      1.374607    0.492230        0.000000
|  9> C      0.451293   -1.869624        0.000000
| 10> N     -2.246899    0.640758        0.000000
| 11> N     -0.597110    2.140003        0.000000
| 12> N     -0.830130   -1.346171        0.000000
| 13> N      1.466665   -0.911751        0.000000
| 14> O      2.362098    1.204052        0.000000
| 15> O      0.680205   -3.060162        0.000000
| 16> H     -2.646470    2.733790        0.000000
| 17> H     -0.115294    3.023307        0.000000
| 18> H     -1.595394   -2.001005        0.000000
| 19> H      2.401286   -1.294218        0.000000
| 20> *
| 21>
| 22>                          ****END OF INPUT****

CARTESIAN COORDINATES (ANGSTROEM)
---------------------------------
  C     -1.932966    1.927138    0.000000
  C      0.000000    0.897330    0.000000
  C     -1.047973    0.007447    0.000000
  C      1.374607    0.492230    0.000000
  C      0.451293   -1.869624    0.000000
  N     -2.246899    0.640758    0.000000
  N     -0.597110    2.140003    0.000000
  N     -0.830130   -1.346171    0.000000
  N      1.466665   -0.911751    0.000000
  O      2.362098    1.204052    0.000000
  O      0.680205   -3.060162    0.000000
  H     -2.646470    2.733790    0.000000
  H     -0.115294    3.023307    0.000000
  H     -1.595394   -2.001005    0.000000
  H      2.401286   -1.294218    0.000000

 Total Charge           Charge          ....    0
 Multiplicity           Mult            ....    1
 Number of Electrons    NEL             ....   78
 Basis Dimension        Dim             .... 1064

ORBITAL ENERGIES
----------------

  NO   OCC          E(Eh)            E(eV)
   0   2.0000     -20.544604      -559.0471
   1   2.0000     -20.539037      -558.8956
   2   2.0000     -15.657721      -426.0683
   3   2.0000     -15.632156      -425.3726
   4   2.0000     -15.624695      -425.1696
   5   2.0000     -15.586189      -424.1218
   6   2.0000     -11.415634      -310.6352
   7   2.0000     -11.389111      -309.9135
   8   2.0000     -11.351699      -308.8954
   9   2.0000     -11.343384      -308.6692
  10   2.0000     -11.281608      -306.9882
  11   2.0000      -1.434246       -39.0278
  12   2.0000      -1.404807       -38.2267
  13   2.0000      -1.388705       -37.7886
  14   2.0000      -1.299841       -35.3705
  15   2.0000      -1.246330       -33.9144
  16   2.0000      -1.204442       -32.7745
  17   2.0000      -1.066973       -29.0338
  18   2.0000      -0.925679       -25.1890
  19   2.0000      -0.906336       -24.6627
  20   2.0000      -0.868620       -23.6364
  21   2.0000      -0.836920       -22.7738
  22   2.0000      -0.782089       -21.2817
  23   2.0000      -0.730031       -19.8652
  24   2.0000      -0.694910       -18.9095
  25   2.0000      -0.683833       -18.6080
  26   2.0000      -0.679732       -18.4964
  27   2.0000      -0.645025       -17.5520
  28   2.0000      -0.637034       -17.3346
  29   2.0000      -0.625922       -17.0322
  30   2.0000      -0.623613       -16.9694
  31   2.0000      -0.579271       -15.7628
  32   2.0000      -0.506379       -13.7793
  33   2.0000      -0.499190       -13.5836
  34   2.0000      -0.481285       -13.0964
  35   2.0000      -0.450016       -12.2456
  36   2.0000      -0.439525       -11.9601
  37   2.0000      -0.427917       -11.6442
  38   2.0000      -0.337778        -9.1914
  39   0.0000       0.013538         0.3684
  40   0.0000       0.031449         0.8558
  41   0.0000       0.033332         0.9070
  42   0.0000       0.043501         1.1837
  43   0.0000       0.046840         1.2746

MULLIKEN ATOMIC CHARGES
-----------------------
   0 C :   -0.168903
   1 C :   -0.334843
   2 C :    1.255545
   3 C :    1.451544
   4 C :    1.277995
   5 N :   -0.808555
   6 N :   -0.474606
   7 N :   -0.762609
   8 N :   -0.754267
   9 O :   -0.825506
  10 O :   -0.803392
  11 H :    0.596141
  12 H :    0.150148
  13 H :    0.157950
  14 H :    0.043358
Sum of atomic charges:   -0.0000000

LOEWDIN ATOMIC CHARGES
----------------------
   0 C :   -0.014496
   1 C :   -0.322925
   2 C :   -0.562380
   3 C :   -0.831114
   4 C :   -0.976826
   5 N :    0.628809
   6 N :    0.835724
   7 N :    0.827189
   8 N :    0.790324
   9 O :    0.679185
  10 O :    0.687731
  11 H :   -0.303225
  12 H :   -0.424613
  13 H :   -0.486883
  14 H :   -0.526498

  Mayer bond orders larger than 0.100000
B(  0-C ,  5-N ) :   1.6751 B(  0-C ,  6-N ) :   1.3355 B(  0-C , 11-H ) :   0.6553
B(  1-C ,  2-C ) :   1.3509 B(  1-C ,  3-C ) :   1.3972 B(  1-C ,  5-N ) :   0.1449
B(  1-C ,  6-N ) :   0.6849 B(  1-C ,  7-N ) :   0.1048 B(  1-C ,  9-O ) :   0.6011
B(  1-C , 12-H ) :  -0.1055 B(  2-C ,  3-C ) :  -0.1949 B(  2-C ,  5-N ) :   0.5691
B(  2-C ,  7-N ) :   0.8769 B(  2-C ,  8-N ) :  -0.1191 B(  3-C ,  6-N ) :  -0.1017
B(  3-C ,  8-N ) :   0.9105 B(  3-C ,  9-O ) :   0.6866 B(  3-C , 14-H ) :  -0.1118
B(  4-C ,  7-N ) :   1.2678 B(  4-C ,  8-N ) :   1.1114 B(  4-C , 10-O ) :   1.1114
B(  6-N , 12-H ) :   1.1369 B(  7-N , 10-O ) :   0.1781 B(  7-N , 13-H ) :   1.0784
B(  8-N ,  9-O ) :   0.2743 B(  8-N , 10-O ) :   0.2236 B(  8-N , 14-H ) :   1.2369

MP2 TOTAL ENERGY:     -561.664467619 Eh
FINAL SINGLE POINT ENERGY      -561.664467618923

DIPOLE MOMENT
-------------
                                X             Y             Z
Electronic contribution:      0.69953      -0.78199       0.00000
Nuclear contribution   :     -1.84986       2.34564       0.00000
                        -----------------------------------------
Total Dipole Moment    :     -1.15033       1.56365       0.00000
                        -----------------------------------------
Magnitude (a.u.)       :      1.94120
Magnitude (Debye)      :      4.93414

Rotational constants in cm-1:     0.064513     0.037375     0.023665
Rotational constants in MHz :  1934.061651  1120.468307   709.456058

                             ****ORCA TERMINATED NORMALLY****
TOTAL RUN TIME: 0 days 0 hours 50 minutes 56 seconds 929 msec
