                         Program Version 5.0.4 -  RELEASE  -
|  1> !ri-mp2 aug-cc-pvqz aug-cc-pvqz/c tightscf
|  2> %pal nprocs 16 end
|  3>
|  4> * xyz 0 1
|  5> O      0.000000    0.000000    1.125015
|  6> N      0.000000    1.129079    0.352670
|  7> C      0.000000    0.709443   -0.877819
|  8> C      0.000000   -0.709443   -0.877819
|  9> N      0.000000   -1.129079    0.352670
| 10> H      0.000000    1.401671   -1.701840
| 11> H      0.000000   -1.401671   -1.701840
| 12> *
| 13>
| 14>                          ****END OF INPUT****

CARTESIAN COORDINATES (ANGSTROEM)
---------------------------------
  O      0.000000    0.000000    1.125015
  N      0.000000    1.129079    0.352670
  C      0.000000    0.709443   -0.877819
  C      0.000000   -0.709443   -0.877819
  N      0.000000   -1.129079    0.352670
  H      0.000000    1.401671   -1.701840
  H      0.000000   -1.401671   -1.701840

 Total Charge           Charge          ....    0
 Multiplicity           Mult            ....    1
 Number of Electrons    NEL             ....   36
 Basis Dimension        Dim             ....  492

ORBITAL ENERGIES
----------------

  NO   OCC          E(Eh)            E(eV)
   0   2.0000     -20.686572      -562.9102
   1   2.0000     -15.663732      -426.2318
   2   2.0000     -15.663678      -426.2303
   3   2.0000     -11.302208      -307.5487
   4   2.0000     -11.301156      -307.5201
   5   2.0000      -1.551469       -42.2176
   6   2.0000      -1.220762       -33.2186
   7   2.0000      -1.184265       -32.2255
   8   2.0000      -0.874301       -23.7909
   9   2.0000      -0.868279       -23.6271
  10   2.0000      -0.752786       -20.4844
  11   2.0000      -0.694741       -18.9049
  12   2.0000      -0.660225       -17.9656
  13   2.0000      -0.590301       -16.0629
  14   2.0000      -0.536300       -14.5935
  15   2.0000      -0.499935       -13.6039
  16   2.0000      -0.451792       -12.2939
  17   2.0000      -0.436180       -11.8690
  18   0.0000       0.019661         0.5350
  19   0.0000       0.030263         0.8235
  20   0.0000       0.058132         1.5819
  21   0.0000       0.061011         1.6602
  22   0.0000       0.080539         2.1916

MULLIKEN ATOMIC CHARGES
-----------------------
   0 O :   -0.330191
   1 N :   -0.226651
   2 C :   -0.174782
   3 C :   -0.174782
   4 N :   -0.226651
   5 H :    0.566529
   6 H :    0.566529
Sum of atomic charges:    0.0000000

LOEWDIN ATOMIC CHARGES
----------------------
   0 O :    0.324254
   1 N :    0.225425
   2 C :   -0.027451
   3 C :   -0.027451
   4 N :    0.225425
   5 H :   -0.360101
   6 H :   -0.360101

  Mayer bond orders larger than 0.100000
B(  0-O ,  1-N ) :   0.8370 B(  0-O ,  4-N ) :   0.8370 B(  1-N ,  2-C ) :   1.5453
B(  2-C ,  3-C ) :   1.1618 B(  2-C ,  5-H ) :   0.6867 B(  3-C ,  4-N ) :   1.5453
B(  3-C ,  6-H ) :   0.6867

MP2 TOTAL ENERGY:     -261.684253307 Eh
FINAL SINGLE POINT ENERGY      -261.684253306752

DIPOLE MOMENT
-------------
                                X             Y             Z
Electronic contribution:     -0.00000      -0.00000       1.73987
Nuclear contribution   :      0.00000       0.00000      -3.26399
                        -----------------------------------------
Total Dipole Moment    :     -0.00000      -0.00000      -1.52412
                        -----------------------------------------
Magnitude (a.u.)       :      1.52412
Magnitude (Debye)      :      3.87401

Rotational constants in cm-1:     0.351775     0.325663     0.169108
Rotational constants in MHz : 10545.943320  9763.129566  5069.724827

                             ****ORCA TERMINATED NORMALLY****
TOTAL RUN TIME: 0 days 0 hours 4 minutes 8 seconds 203 msec
