                         Program Version 5.0.4 -  RELEASE  -
|  1> !ri-mp2 aug-cc-pvqz aug-cc-pvqz/c tightscf
|  2> %pal nprocs 16 end
|  3>
|  4> * xyz 0 1
|  5> C      0.000000    0.862132    0.000000
|  6> F     -1.305149    0.683741    0.000000
|  7> F      0.270153    2.162974    0.000000
|  8> C      0.934721   -0.068353    0.000000
|  9> H      1.955306    0.288216    0.000000
| 10> C      0.754530   -1.551413    0.000000
| 11> F     -0.579844   -1.931007    0.000000
| 12> H      1.221377   -1.991895    0.885372
| 13> H      1.221377   -1.991895   -0.885372
| 14> *
| 15>
| 16>                          ****END OF INPUT****

CARTESIAN COORDINATES (ANGSTROEM)
---------------------------------
  C      0.000000    0.862132    0.000000
  F     -1.305149    0.683741    0.000000
  F      0.270153    2.162974    0.000000
  C      0.934721   -0.068353    0.000000
  H      1.955306    0.288216    0.000000
  C      0.754530   -1.551413    0.000000
  F     -0.579844   -1.931007    0.000000
  H      1.221377   -1.991895    0.885372
  H      1.221377   -1.991895   -0.885372

 Total Charge           Charge          ....    0
 Multiplicity           Mult            ....    1
 Number of Electrons    NEL             ....   48
 Basis Dimension        Dim             ....  618

ORBITAL ENERGIES
----------------

  NO   OCC          E(Eh)            E(eV)
   0   2.0000     -26.343295      -716.8375
   1   2.0000     -26.343169      -716.8341
   2   2.0000     -26.287896      -715.3300
   3   2.0000     -11.429970      -311.0253
   4   2.0000     -11.336396      -308.4790
   5   2.0000     -11.258550      -306.3607
   6   2.0000      -1.701462       -46.2991
   7   2.0000      -1.636538       -44.5325
   8   2.0000      -1.599746       -43.5313
   9   2.0000      -1.105312       -30.0771
  10   2.0000      -0.970854       -26.4183
  11   2.0000      -0.872183       -23.7333
  12   2.0000      -0.802816       -21.8457
  13   2.0000      -0.763765       -20.7831
  14   2.0000      -0.750893       -20.4328
  15   2.0000      -0.714149       -19.4330
  16   2.0000      -0.708541       -19.2804
  17   2.0000      -0.688806       -18.7434
  18   2.0000      -0.683517       -18.5994
  19   2.0000      -0.661409       -17.9978
  20   2.0000      -0.616575       -16.7778
  21   2.0000      -0.558370       -15.1940
  22   2.0000      -0.550584       -14.9821
  23   2.0000      -0.388685       -10.5767
  24   0.0000       0.022272         0.6060
  25   0.0000       0.036086         0.9820
  26   0.0000       0.037176         1.0116
  27   0.0000       0.051040         1.3889
  28   0.0000       0.078355         2.1322

MULLIKEN ATOMIC CHARGES
-----------------------
   0 C :    1.360497
   1 F :   -0.605434
   2 F :   -0.619794
   3 C :   -0.731097
   4 H :    0.414622
   5 C :    0.273930
   6 F :   -0.647422
   7 H :    0.277349
   8 H :    0.277349
Sum of atomic charges:    0.0000000

LOEWDIN ATOMIC CHARGES
----------------------
   0 C :   -1.295919
   1 F :    0.749373
   2 F :    0.732526
   3 C :    0.224054
   4 H :   -0.381649
   5 C :   -0.091572
   6 F :    0.761667
   7 H :   -0.349239
   8 H :   -0.349239

  Mayer bond orders larger than 0.100000
B(  0-C ,  1-F ) :   0.4580 B(  0-C ,  2-F ) :   0.5441 B(  0-C ,  3-C ) :   1.8503
B(  0-C ,  5-C ) :  -0.1058 B(  3-C ,  4-H ) :   0.7939 B(  3-C ,  5-C ) :   0.8884
B(  3-C ,  6-F ) :   0.1111 B(  5-C ,  6-F ) :   0.4687 B(  5-C ,  7-H ) :   0.9149
B(  5-C ,  8-H ) :   0.9149

MP2 TOTAL ENERGY:     -415.155816570 Eh
FINAL SINGLE POINT ENERGY      -415.155816569762

DIPOLE MOMENT
-------------
                                X             Y             Z
Electronic contribution:     -4.48894       4.02723       0.00000
Nuclear contribution   :      5.62453      -4.31720       0.00000
                        -----------------------------------------
Total Dipole Moment    :      1.13559      -0.28997       0.00000
                        -----------------------------------------
Magnitude (a.u.)       :      1.17203
Magnitude (Debye)      :      2.97905

Rotational constants in cm-1:     0.257525     0.078037     0.060569
Rotational constants in MHz :  7720.412477  2339.504460  1815.825362

                             ****ORCA TERMINATED NORMALLY****
TOTAL RUN TIME: 0 days 0 hours 7 minutes 19 seconds 471 msec
