                         Program Version 5.0.4 -  RELEASE  -
|  1> !ri-mp2 aug-cc-pvqz aug-cc-pvqz/c tightscf
|  2> %pal nprocs 16 end
|  3> %maxcore 3800
|  4>
|  5> * xyz 0 1
|  6> C      3.923243   -0.294842    0.000054
|  7> C      2.698256    0.617692   -0.000087
|  8> C      1.382566   -0.165828    0.000024
|  9> C      0.168891    0.759188   -0.000133
| 10> S     -1.375513   -0.194329    0.000033
| 11> C     -2.659703    1.068823   -0.000208
| 12> O     -1.466231   -0.923301   -1.262796
| 13> O     -1.466246   -0.922837    1.263128
| 14> H      3.934055   -0.938927    0.881033
| 15> H      3.934060   -0.939189   -0.880734
| 16> H      4.846873    0.284744   -0.000030
| 17> H      2.730480    1.272993   -0.875356
| 18> H      2.730472    1.273253    0.874988
| 19> H      1.338291   -0.814008    0.877013
| 20> H      1.338307   -0.814284   -0.876761
| 21> H      0.138588    1.388271   -0.890317
| 22> H      0.138590    1.388574    0.889838
| 23> H     -3.601690    0.525093   -0.000121
| 24> H     -2.569767    1.670989    0.899941
| 25> H     -2.569747    1.670664   -0.900573
| 26> *
| 27>
| 28>                          ****END OF INPUT****

CARTESIAN COORDINATES (ANGSTROEM)
---------------------------------
  C      3.923243   -0.294842    0.000054
  C      2.698256    0.617692   -0.000087
  C      1.382566   -0.165828    0.000024
  C      0.168891    0.759188   -0.000133
  S     -1.375513   -0.194329    0.000033
  C     -2.659703    1.068823   -0.000208
  O     -1.466231   -0.923301   -1.262796
  O     -1.466246   -0.922837    1.263128
  H      3.934055   -0.938927    0.881033
  H      3.934060   -0.939189   -0.880734
  H      4.846873    0.284744   -0.000030
  H      2.730480    1.272993   -0.875356
  H      2.730472    1.273253    0.874988
  H      1.338291   -0.814008    0.877013
  H      1.338307   -0.814284   -0.876761
  H      0.138588    1.388271   -0.890317
  H      0.138590    1.388574    0.889838
  H     -3.601690    0.525093   -0.000121
  H     -2.569767    1.670989    0.899941
  H     -2.569747    1.670664   -0.900573

 Total Charge           Charge          ....    0
 Multiplicity           Mult            ....    1
 Number of Electrons    NEL             ....   74
 Basis Dimension        Dim             .... 1196

ORBITAL ENERGIES
----------------

  NO   OCC          E(Eh)            E(eV)
   0   2.0000     -92.167160     -2507.9959
   1   2.0000     -20.535822      -558.8081
   2   2.0000     -20.535802      -558.8076
   3   2.0000     -11.276522      -306.8498
   4   2.0000     -11.274898      -306.8056
   5   2.0000     -11.239928      -305.8540
   6   2.0000     -11.234626      -305.7097
   7   2.0000     -11.220178      -305.3166
   8   2.0000      -9.137193      -248.6357
   9   2.0000      -6.822458      -185.6485
  10   2.0000      -6.821805      -185.6308
  11   2.0000      -6.821423      -185.6204
  12   2.0000      -1.434650       -39.0388
  13   2.0000      -1.323903       -36.0252
  14   2.0000      -1.106340       -30.1050
  15   2.0000      -1.050905       -28.5966
  16   2.0000      -1.009873       -27.4801
  17   2.0000      -0.908023       -24.7086
  18   2.0000      -0.818880       -22.2829
  19   2.0000      -0.798584       -21.7306
  20   2.0000      -0.681188       -18.5361
  21   2.0000      -0.678812       -18.4714
  22   2.0000      -0.656942       -17.8763
  23   2.0000      -0.646166       -17.5831
  24   2.0000      -0.608963       -16.5707
  25   2.0000      -0.606593       -16.5062
  26   2.0000      -0.593788       -16.1578
  27   2.0000      -0.589654       -16.0453
  28   2.0000      -0.556785       -15.1509
  29   2.0000      -0.526791       -14.3347
  30   2.0000      -0.504261       -13.7216
  31   2.0000      -0.496635       -13.5141
  32   2.0000      -0.491976       -13.3873
  33   2.0000      -0.481376       -13.0989
  34   2.0000      -0.479414       -13.0455
  35   2.0000      -0.461694       -12.5633
  36   2.0000      -0.427614       -11.6360
  37   0.0000       0.019093         0.5195
  38   0.0000       0.024783         0.6744
  39   0.0000       0.031162         0.8479
  40   0.0000       0.034462         0.9378
  41   0.0000       0.042385         1.1533

MULLIKEN ATOMIC CHARGES
-----------------------
   0 C :   -0.884908
   1 C :   -0.513779
   2 C :   -0.168399
   3 C :   -0.547186
   4 S :    2.379567
   5 C :   -1.083707
   6 O :   -1.307627
   7 O :   -1.307640
   8 H :    0.228920
   9 H :    0.228915
  10 H :    0.270719
  11 H :    0.231457
  12 H :    0.231435
  13 H :    0.270840
  14 H :    0.271014
  15 H :    0.315387
  16 H :    0.315450
  17 H :    0.390448
  18 H :    0.339543
  19 H :    0.339551
Sum of atomic charges:   -0.0000000

LOEWDIN ATOMIC CHARGES
----------------------
   0 C :    0.933758
   1 C :    0.511540
   2 C :    0.468222
   3 C :    0.416344
   4 S :   -0.196426
   5 C :    0.835098
   6 O :    0.301895
   7 O :    0.301894
   8 H :   -0.282045
   9 H :   -0.282045
  10 H :   -0.282230
  11 H :   -0.272424
  12 H :   -0.272423
  13 H :   -0.282652
  14 H :   -0.282652
  15 H :   -0.313139
  16 H :   -0.313138
  17 H :   -0.334855
  18 H :   -0.327361
  19 H :   -0.327361

  Mayer bond orders larger than 0.100000
B(  0-C ,  1-C ) :   1.0289 B(  0-C ,  2-C ) :  -0.1055 B(  0-C ,  8-H ) :   0.9527
B(  0-C ,  9-H ) :   0.9527 B(  0-C , 10-H ) :   1.0142 B(  1-C ,  2-C ) :   0.9558
B(  1-C , 11-H ) :   0.8814 B(  1-C , 12-H ) :   0.8814 B(  2-C ,  3-C ) :   0.9024
B(  2-C ,  4-S ) :  -0.1148 B(  2-C , 13-H ) :   0.8469 B(  2-C , 14-H ) :   0.8468
B(  3-C ,  4-S ) :   0.9150 B(  3-C , 15-H ) :   0.8440 B(  3-C , 16-H ) :   0.8440
B(  4-S ,  5-C ) :   1.0163 B(  4-S ,  6-O ) :   0.8738 B(  4-S ,  7-O ) :   0.8737
B(  5-C , 17-H ) :   0.8658 B(  5-C , 18-H ) :   0.8816 B(  5-C , 19-H ) :   0.8816

MP2 TOTAL ENERGY:     -745.398432737 Eh
FINAL SINGLE POINT ENERGY      -745.398432737332

DIPOLE MOMENT
-------------
                                X             Y             Z
Electronic contribution:    -12.14895      -4.10607       0.00074
Nuclear contribution   :     12.63644       6.06590      -0.00110
                        -----------------------------------------
Total Dipole Moment    :      0.48749       1.95982      -0.00036
                        -----------------------------------------
Magnitude (a.u.)       :      2.01954
Magnitude (Debye)      :      5.13327

Rotational constants in cm-1:     0.129883     0.025235     0.024793
Rotational constants in MHz :  3893.779682   756.539382   743.261212

                             ****ORCA TERMINATED NORMALLY****
TOTAL RUN TIME: 0 days 1 hours 21 minutes 20 seconds 81 msec
