                         Program Version 5.0.4 -  RELEASE  -
|  1> !ri-mp2 aug-cc-pvqz aug-cc-pvqz/c tightscf
|  2> %pal nprocs 16 end
|  3>
|  4> * xyz 0 1
|  5> C      3.803979   -0.333546   -0.007335
|  6> C      2.523952    0.499934    0.021358
|  7> C      1.251148   -0.346744   -0.014028
|  8> C     -0.035517    0.479205    0.013309
|  9> C     -1.306448   -0.371112   -0.025050
| 10> C     -2.580107    0.464187    0.009234
| 11> O     -3.770500   -0.317449   -0.083397
| 12> H      4.692588    0.298478    0.020787
| 13> H      3.852231   -1.011503    0.847324
| 14> H      3.858181   -0.941543   -0.912719
| 15> H      2.519811    1.190707   -0.827105
| 16> H      2.515487    1.124471    0.919783
| 17> H      1.255049   -1.037842    0.835498
| 18> H      1.259420   -0.972533   -0.912499
| 19> H     -0.037623    1.169441   -0.836563
| 20> H     -0.042076    1.104927    0.911889
| 21> H     -1.308490   -1.061289    0.826320
| 22> H     -1.317911   -0.988628   -0.926931
| 23> H     -2.600079    1.086487    0.912165
| 24> H     -2.612653    1.137348   -0.848433
| 25> H     -3.811971   -0.910475    0.672738
| 26> *
| 27>
| 28>                          ****END OF INPUT****

CARTESIAN COORDINATES (ANGSTROEM)
---------------------------------
  C      3.803979   -0.333546   -0.007335
  C      2.523952    0.499934    0.021358
  C      1.251148   -0.346744   -0.014028
  C     -0.035517    0.479205    0.013309
  C     -1.306448   -0.371112   -0.025050
  C     -2.580107    0.464187    0.009234
  O     -3.770500   -0.317449   -0.083397
  H      4.692588    0.298478    0.020787
  H      3.852231   -1.011503    0.847324
  H      3.858181   -0.941543   -0.912719
  H      2.519811    1.190707   -0.827105
  H      2.515487    1.124471    0.919783
  H      1.255049   -1.037842    0.835498
  H      1.259420   -0.972533   -0.912499
  H     -0.037623    1.169441   -0.836563
  H     -0.042076    1.104927    0.911889
  H     -1.308490   -1.061289    0.826320
  H     -1.317911   -0.988628   -0.926931
  H     -2.600079    1.086487    0.912165
  H     -2.612653    1.137348   -0.848433
  H     -3.811971   -0.910475    0.672738

 Total Charge           Charge          ....    0
 Multiplicity           Mult            ....    1
 Number of Electrons    NEL             ....   58
 Basis Dimension        Dim             .... 1204

ORBITAL ENERGIES
----------------

  NO   OCC          E(Eh)            E(eV)
   0   2.0000     -20.551034      -559.2221
   1   2.0000     -11.270401      -306.6832
   2   2.0000     -11.220664      -305.3298
   3   2.0000     -11.219023      -305.2851
   4   2.0000     -11.217913      -305.2549
   5   2.0000     -11.217185      -305.2351
   6   2.0000     -11.210979      -305.0663
   7   2.0000      -1.352410       -36.8009
   8   2.0000      -1.089035       -29.6341
   9   2.0000      -1.036438       -28.2029
  10   2.0000      -0.957253       -26.0482
  11   2.0000      -0.870713       -23.6933
  12   2.0000      -0.810679       -22.0597
  13   2.0000      -0.791609       -21.5408
  14   2.0000      -0.688704       -18.7406
  15   2.0000      -0.651852       -17.7378
  16   2.0000      -0.619768       -16.8647
  17   2.0000      -0.603160       -16.4128
  18   2.0000      -0.589125       -16.0309
  19   2.0000      -0.572135       -15.5686
  20   2.0000      -0.547968       -14.9110
  21   2.0000      -0.531528       -14.4636
  22   2.0000      -0.501882       -13.6569
  23   2.0000      -0.494205       -13.4480
  24   2.0000      -0.479579       -13.0500
  25   2.0000      -0.466981       -12.7072
  26   2.0000      -0.464649       -12.6438
  27   2.0000      -0.461631       -12.5616
  28   2.0000      -0.429013       -11.6740
  29   0.0000       0.025128         0.6838
  30   0.0000       0.028230         0.7682
  31   0.0000       0.031271         0.8509
  32   0.0000       0.033735         0.9180
  33   0.0000       0.042862         1.1663

MULLIKEN ATOMIC CHARGES
-----------------------
   0 C :   -0.904685
   1 C :   -0.491658
   2 C :   -0.287347
   3 C :   -0.298021
   4 C :   -0.636229
   5 C :    0.054275
   6 O :   -0.904229
   7 H :    0.264656
   8 H :    0.224729
   9 H :    0.225652
  10 H :    0.227033
  11 H :    0.227368
  12 H :    0.238659
  13 H :    0.229862
  14 H :    0.253698
  15 H :    0.246816
  16 H :    0.228827
  17 H :    0.268540
  18 H :    0.191785
  19 H :    0.293779
  20 H :    0.346491
Sum of atomic charges:   -0.0000000

LOEWDIN ATOMIC CHARGES
----------------------
   0 C :    0.926887
   1 C :    0.509099
   2 C :    0.511627
   3 C :    0.513618
   4 C :    0.505850
   5 C :    0.190999
   6 O :    1.268233
   7 H :   -0.284586
   8 H :   -0.285404
   9 H :   -0.285215
  10 H :   -0.273143
  11 H :   -0.273226
  12 H :   -0.268509
  13 H :   -0.267867
  14 H :   -0.266463
  15 H :   -0.267086
  16 H :   -0.275184
  17 H :   -0.273378
  18 H :   -0.292115
  19 H :   -0.314865
  20 H :   -0.799270

  Mayer bond orders larger than 0.100000
B(  0-C ,  1-C ) :   1.0460 B(  0-C ,  2-C ) :  -0.1176 B(  0-C ,  7-H ) :   1.0262
B(  0-C ,  8-H ) :   0.9563 B(  0-C ,  9-H ) :   0.9550 B(  1-C ,  2-C ) :   0.9631
B(  1-C ,  7-H ) :  -0.1011 B(  1-C , 10-H ) :   0.8833 B(  1-C , 11-H ) :   0.8829
B(  2-C ,  3-C ) :   1.0268 B(  2-C , 12-H ) :   0.8686 B(  2-C , 13-H ) :   0.8713
B(  3-C ,  4-C ) :   0.9912 B(  3-C ,  5-C ) :  -0.1098 B(  3-C , 14-H ) :   0.8389
B(  3-C , 15-H ) :   0.8585 B(  4-C ,  5-C ) :   1.2676 B(  4-C , 16-H ) :   0.8623
B(  4-C , 17-H ) :   0.8369 B(  5-C ,  6-O ) :   0.6257 B(  5-C , 18-H ) :   0.9537
B(  5-C , 19-H ) :   0.8499 B(  6-O , 20-H ) :   0.8594

MP2 TOTAL ENERGY:     -311.747925676 Eh
FINAL SINGLE POINT ENERGY      -311.747925676252

DIPOLE MOMENT
-------------
                                X             Y             Z
Electronic contribution:     -8.10939      -0.21974      -0.25648
Nuclear contribution   :      8.70185       0.19514       0.72593
                        -----------------------------------------
Total Dipole Moment    :      0.59246      -0.02460       0.46945
                        -----------------------------------------
Magnitude (a.u.)       :      0.75631
Magnitude (Debye)      :      1.92238

Rotational constants in cm-1:     0.431295     0.023870     0.023233
Rotational constants in MHz : 12929.912275   715.592409   696.521987

                             ****ORCA TERMINATED NORMALLY****
TOTAL RUN TIME: 0 days 1 hours 7 minutes 10 seconds 731 msec
