                         Program Version 5.0.4 -  RELEASE  -
|  1> !ri-mp2 aug-cc-pvqz aug-cc-pvqz/c tightscf
|  2> %pal nprocs 16 end
|  3> %maxcore 3800
|  4>
|  5> * xyz 0 1
|  6> C     -0.072264    1.827345   -0.349034
|  7> C      0.072264   -1.827345    0.349034
|  8> C     -1.374617    2.108960   -0.034074
|  9> C      1.374617   -2.108960    0.034074
| 10> C      1.779072    0.182743   -0.544682
| 11> C     -1.779072   -0.182743    0.544682
| 12> C      0.438570    0.512106   -0.228855
| 13> C     -0.438570   -0.512106    0.228855
| 14> C     -2.259063    1.098577    0.422509
| 15> C      2.259063   -1.098577   -0.422509
| 16> C     -3.684425    1.447260    0.756865
| 17> C      3.684425   -1.447260   -0.756865
| 18> H      0.585539    2.614560   -0.696015
| 19> H     -0.585539   -2.614560    0.696015
| 20> H     -1.742638    3.122803   -0.134031
| 21> H      1.742638   -3.122803    0.134031
| 22> H      2.435555    0.972293   -0.891642
| 23> H     -2.435555   -0.972293    0.891642
| 24> H     -4.237087    0.574737    1.102510
| 25> H     -3.731712    2.207391    1.539862
| 26> H     -4.206005    1.852269   -0.113324
| 27> H      4.206005   -1.852269    0.113324
| 28> H      3.731712   -2.207391   -1.539862
| 29> H      4.237087   -0.574737   -1.102510
| 30> *
| 31>
| 32>                          ****END OF INPUT****

CARTESIAN COORDINATES (ANGSTROEM)
---------------------------------
  C     -0.072264    1.827345   -0.349034
  C      0.072264   -1.827345    0.349034
  C     -1.374617    2.108960   -0.034074
  C      1.374617   -2.108960    0.034074
  C      1.779072    0.182743   -0.544682
  C     -1.779072   -0.182743    0.544682
  C      0.438570    0.512106   -0.228855
  C     -0.438570   -0.512106    0.228855
  C     -2.259063    1.098577    0.422509
  C      2.259063   -1.098577   -0.422509
  C     -3.684425    1.447260    0.756865
  C      3.684425   -1.447260   -0.756865
  H      0.585539    2.614560   -0.696015
  H     -0.585539   -2.614560    0.696015
  H     -1.742638    3.122803   -0.134031
  H      1.742638   -3.122803    0.134031
  H      2.435555    0.972293   -0.891642
  H     -2.435555   -0.972293    0.891642
  H     -4.237087    0.574737    1.102510
  H     -3.731712    2.207391    1.539862
  H     -4.206005    1.852269   -0.113324
  H      4.206005   -1.852269    0.113324
  H      3.731712   -2.207391   -1.539862
  H      4.237087   -0.574737   -1.102510

 Total Charge           Charge          ....    0
 Multiplicity           Mult            ....    1
 Number of Electrons    NEL             ....   84
 Basis Dimension        Dim             .... 1512

ORBITAL ENERGIES
----------------

  NO   OCC          E(Eh)            E(eV)
   0   2.0000     -11.237668      -305.7925
   1   2.0000     -11.237668      -305.7925
   2   2.0000     -11.236045      -305.7483
   3   2.0000     -11.235002      -305.7200
   4   2.0000     -11.231284      -305.6188
   5   2.0000     -11.231260      -305.6181
   6   2.0000     -11.227889      -305.5264
   7   2.0000     -11.227889      -305.5264
   8   2.0000     -11.225569      -305.4633
   9   2.0000     -11.225561      -305.4631
  10   2.0000     -11.221643      -305.3564
  11   2.0000     -11.221643      -305.3564
  12   2.0000      -1.175291       -31.9813
  13   2.0000      -1.119609       -30.4661
  14   2.0000      -1.049972       -28.5712
  15   2.0000      -1.044471       -28.4215
  16   2.0000      -0.984987       -26.8029
  17   2.0000      -0.964441       -26.2438
  18   2.0000      -0.905383       -24.6367
  19   2.0000      -0.846686       -23.0395
  20   2.0000      -0.809554       -22.0291
  21   2.0000      -0.796811       -21.6823
  22   2.0000      -0.694590       -18.9007
  23   2.0000      -0.686398       -18.6778
  24   2.0000      -0.660785       -17.9809
  25   2.0000      -0.618273       -16.8241
  26   2.0000      -0.597914       -16.2701
  27   2.0000      -0.596841       -16.2409
  28   2.0000      -0.578370       -15.7382
  29   2.0000      -0.576645       -15.6913
  30   2.0000      -0.573712       -15.6115
  31   2.0000      -0.550284       -14.9740
  32   2.0000      -0.537114       -14.6156
  33   2.0000      -0.530426       -14.4336
  34   2.0000      -0.517007       -14.0685
  35   2.0000      -0.505333       -13.7508
  36   2.0000      -0.479866       -13.0578
  37   2.0000      -0.468743       -12.7551
  38   2.0000      -0.430397       -11.7117
  39   2.0000      -0.379737       -10.3332
  40   2.0000      -0.307491        -8.3673
  41   2.0000      -0.282746        -7.6939
  42   0.0000       0.024772         0.6741
  43   0.0000       0.025188         0.6854
  44   0.0000       0.027069         0.7366
  45   0.0000       0.035792         0.9739
  46   0.0000       0.038475         1.0470

MULLIKEN ATOMIC CHARGES
-----------------------
   0 C :   -0.620925
   1 C :   -0.620416
   2 C :   -0.351462
   3 C :   -0.351992
   4 C :   -0.354373
   5 C :   -0.354903
   6 C :    0.794586
   7 C :    0.793830
   8 C :    0.247135
   9 C :    0.247095
  10 C :   -0.893362
  11 C :   -0.893466
  12 H :    0.101241
  13 H :    0.101488
  14 H :    0.278645
  15 H :    0.278481
  16 H :    0.122692
  17 H :    0.122494
  18 H :    0.220332
  19 H :    0.226581
  20 H :    0.229725
  21 H :    0.229729
  22 H :    0.226602
  23 H :    0.220245
Sum of atomic charges:    0.0000000

LOEWDIN ATOMIC CHARGES
----------------------
   0 C :    0.369283
   1 C :    0.369283
   2 C :    0.358715
   3 C :    0.358715
   4 C :    0.363624
   5 C :    0.363623
   6 C :   -0.099169
   7 C :   -0.099169
   8 C :   -0.061573
   9 C :   -0.061573
  10 C :    0.904633
  11 C :    0.904633
  12 H :   -0.318879
  13 H :   -0.318879
  14 H :   -0.317593
  15 H :   -0.317593
  16 H :   -0.322419
  17 H :   -0.322420
  18 H :   -0.308767
  19 H :   -0.284199
  20 H :   -0.283655
  21 H :   -0.283655
  22 H :   -0.284199
  23 H :   -0.308767

  Mayer bond orders larger than 0.100000
B(  0-C ,  2-C ) :   1.3551 B(  0-C ,  4-C ) :  -0.4207 B(  0-C ,  5-C ) :   0.2359
B(  0-C ,  6-C ) :   0.8950 B(  0-C ,  7-C ) :  -0.2065 B(  0-C , 12-H ) :   1.2419
B(  0-C , 14-H ) :  -0.1181 B(  1-C ,  3-C ) :   1.3547 B(  1-C ,  4-C ) :   0.2360
B(  1-C ,  5-C ) :  -0.4211 B(  1-C ,  6-C ) :  -0.2061 B(  1-C ,  7-C ) :   0.8947
B(  1-C , 13-H ) :   1.2416 B(  1-C , 15-H ) :  -0.1182 B(  2-C ,  6-C ) :  -0.3217
B(  2-C ,  8-C ) :   0.9234 B(  2-C , 12-H ) :  -0.2134 B(  2-C , 14-H ) :   1.0191
B(  3-C ,  7-C ) :  -0.3212 B(  3-C ,  9-C ) :   0.9235 B(  3-C , 13-H ) :  -0.2134
B(  3-C , 15-H ) :   1.0193 B(  4-C ,  6-C ) :   0.5520 B(  4-C ,  7-C ) :  -0.3641
B(  4-C ,  9-C ) :   1.0747 B(  4-C , 11-C ) :  -0.1441 B(  4-C , 16-H ) :   1.1347
B(  5-C ,  6-C ) :  -0.3646 B(  5-C ,  7-C ) :   0.5528 B(  5-C ,  8-C ) :   1.0750
B(  5-C , 10-C ) :  -0.1439 B(  5-C , 17-H ) :   1.1350 B(  6-C ,  7-C ) :   1.0796
B(  6-C ,  8-C ) :   0.1055 B(  6-C ,  9-C ) :  -0.5850 B(  6-C , 12-H ) :  -0.1330
B(  6-C , 16-H ) :  -0.2426 B(  7-C ,  8-C ) :  -0.5849 B(  7-C ,  9-C ) :   0.1055
B(  7-C , 13-H ) :  -0.1331 B(  7-C , 17-H ) :  -0.2425 B(  8-C , 10-C ) :   0.7556
B(  8-C , 19-H ) :  -0.1285 B(  8-C , 20-H ) :  -0.1288 B(  9-C , 11-C ) :   0.7554
B(  9-C , 21-H ) :  -0.1289 B(  9-C , 22-H ) :  -0.1286 B( 10-C , 18-H ) :   1.0467
B( 10-C , 19-H ) :   1.0514 B( 10-C , 20-H ) :   1.0473 B( 11-C , 21-H ) :   1.0473
B( 11-C , 22-H ) :   1.0514 B( 11-C , 23-H ) :   1.0468

MP2 TOTAL ENERGY:     -463.659278757 Eh
FINAL SINGLE POINT ENERGY      -463.659278756523

DIPOLE MOMENT
-------------
                                X             Y             Z
Electronic contribution:      0.00000      -0.00000       0.00000
Nuclear contribution   :      0.00000       0.00000       0.00000
                        -----------------------------------------
Total Dipole Moment    :      0.00000      -0.00000       0.00000
                        -----------------------------------------
Magnitude (a.u.)       :      0.00000
Magnitude (Debye)      :      0.00000

Rotational constants in cm-1:     0.089865     0.019276     0.015965
Rotational constants in MHz :  2694.070583   577.865424   478.608726

                             ****ORCA TERMINATED NORMALLY****
TOTAL RUN TIME: 0 days 2 hours 58 minutes 1 seconds 401 msec
