                         Program Version 5.0.4 -  RELEASE  -
|  1> !ri-mp2 aug-cc-pvqz aug-cc-pvqz/c tightscf
|  2> %pal nprocs 16 end
|  3> %maxcore 3800
|  4>
|  5> * xyz 0 1
|  6> C     -3.078529   -1.367977    1.210348
|  7> C     -2.305286   -0.296520    1.197245
|  8> S     -1.653876    0.347458   -0.339227
|  9> O     -2.103694   -0.521011   -1.422004
| 10> O     -1.949843    1.776690   -0.353711
| 11> C      0.119813    0.156743   -0.166060
| 12> C      0.875233    1.211605    0.329411
| 13> C      2.250170    1.058628    0.455227
| 14> C      2.880484   -0.132464    0.093069
| 15> C      4.367008   -0.302232    0.252868
| 16> C      2.095867   -1.173407   -0.412746
| 17> C      0.722573   -1.038461   -0.544117
| 18> H     -3.301679   -1.900515    0.295654
| 19> H     -3.514621   -1.728332    2.132549
| 20> H     -2.049479    0.296576    2.064631
| 21> H      0.392477    2.143116    0.587644
| 22> H      2.842356    1.882699    0.831571
| 23> H      4.794103   -0.860951   -0.579957
| 24> H      4.597393   -0.855973    1.166365
| 25> H      4.873811    0.659644    0.314839
| 26> H      2.568975   -2.098441   -0.716657
| 27> H      0.122971   -1.838083   -0.954756
| 28> *
| 29>
| 30>                          ****END OF INPUT****

CARTESIAN COORDINATES (ANGSTROEM)
---------------------------------
  C     -3.078529   -1.367977    1.210348
  C     -2.305286   -0.296520    1.197245
  S     -1.653876    0.347458   -0.339227
  O     -2.103694   -0.521011   -1.422004
  O     -1.949843    1.776690   -0.353711
  C      0.119813    0.156743   -0.166060
  C      0.875233    1.211605    0.329411
  C      2.250170    1.058628    0.455227
  C      2.880484   -0.132464    0.093069
  C      4.367008   -0.302232    0.252868
  C      2.095867   -1.173407   -0.412746
  C      0.722573   -1.038461   -0.544117
  H     -3.301679   -1.900515    0.295654
  H     -3.514621   -1.728332    2.132549
  H     -2.049479    0.296576    2.064631
  H      0.392477    2.143116    0.587644
  H      2.842356    1.882699    0.831571
  H      4.794103   -0.860951   -0.579957
  H      4.597393   -0.855973    1.166365
  H      4.873811    0.659644    0.314839
  H      2.568975   -2.098441   -0.716657
  H      0.122971   -1.838083   -0.954756

 Total Charge           Charge          ....    0
 Multiplicity           Mult            ....    1
 Number of Electrons    NEL             ....   96
 Basis Dimension        Dim             .... 1424

ORBITAL ENERGIES
----------------

  NO   OCC          E(Eh)            E(eV)
   0   2.0000     -92.173571     -2508.1704
   1   2.0000     -20.539179      -558.8995
   2   2.0000     -20.537150      -558.8443
   3   2.0000     -11.275104      -306.8112
   4   2.0000     -11.271488      -306.7128
   5   2.0000     -11.268343      -306.6272
   6   2.0000     -11.268263      -306.6250
   7   2.0000     -11.262323      -306.4634
   8   2.0000     -11.262085      -306.4569
   9   2.0000     -11.248607      -306.0901
  10   2.0000     -11.248338      -306.0829
  11   2.0000     -11.239627      -305.8458
  12   2.0000      -9.142200      -248.7719
  13   2.0000      -6.827557      -185.7873
  14   2.0000      -6.827222      -185.7782
  15   2.0000      -6.826704      -185.7641
  16   2.0000      -1.437849       -39.1259
  17   2.0000      -1.328356       -36.1464
  18   2.0000      -1.183661       -32.2091
  19   2.0000      -1.094960       -29.7954
  20   2.0000      -1.074663       -29.2431
  21   2.0000      -1.039647       -28.2902
  22   2.0000      -0.974126       -26.5073
  23   2.0000      -0.907016       -24.6812
  24   2.0000      -0.854947       -23.2643
  25   2.0000      -0.827238       -22.5103
  26   2.0000      -0.780250       -21.2317
  27   2.0000      -0.725645       -19.7458
  28   2.0000      -0.689184       -18.7537
  29   2.0000      -0.670483       -18.2448
  30   2.0000      -0.655281       -17.8311
  31   2.0000      -0.652544       -17.7566
  32   2.0000      -0.626556       -17.0494
  33   2.0000      -0.617236       -16.7959
  34   2.0000      -0.610379       -16.6093
  35   2.0000      -0.594839       -16.1864
  36   2.0000      -0.572239       -15.5714
  37   2.0000      -0.559942       -15.2368
  38   2.0000      -0.531449       -14.4615
  39   2.0000      -0.520319       -14.1586
  40   2.0000      -0.511612       -13.9217
  41   2.0000      -0.495254       -13.4765
  42   2.0000      -0.490597       -13.3498
  43   2.0000      -0.469886       -12.7863
  44   2.0000      -0.438940       -11.9442
  45   2.0000      -0.420653       -11.4465
  46   2.0000      -0.359198        -9.7743
  47   2.0000      -0.353345        -9.6150
  48   0.0000       0.018805         0.5117
  49   0.0000       0.023330         0.6348
  50   0.0000       0.026684         0.7261
  51   0.0000       0.034363         0.9351
  52   0.0000       0.035290         0.9603

MULLIKEN ATOMIC CHARGES
-----------------------
   0 C :   -0.792404
   1 C :   -0.770013
   2 S :    3.219784
   3 O :   -1.359175
   4 O :   -1.360437
   5 C :   -0.388406
   6 C :   -0.341517
   7 C :   -0.249107
   8 C :    0.368634
   9 C :   -0.842684
  10 C :   -0.202105
  11 C :   -0.326105
  12 H :    0.457001
  13 H :    0.376530
  14 H :    0.448378
  15 H :    0.292925
  16 H :    0.196399
  17 H :    0.235068
  18 H :    0.276564
  19 H :    0.237735
  20 H :    0.238164
  21 H :    0.284772
Sum of atomic charges:    0.0000000

LOEWDIN ATOMIC CHARGES
----------------------
   0 C :    0.744112
   1 C :    0.228873
   2 S :   -0.245616
   3 O :    0.314423
   4 O :    0.303137
   5 C :   -0.236966
   6 C :    0.295430
   7 C :    0.364864
   8 C :   -0.062862
   9 C :    0.916884
  10 C :    0.362760
  11 C :    0.297028
  12 H :   -0.382263
  13 H :   -0.340038
  14 H :   -0.377490
  15 H :   -0.345240
  16 H :   -0.318504
  17 H :   -0.291115
  18 H :   -0.275166
  19 H :   -0.300988
  20 H :   -0.314889
  21 H :   -0.336371

  Mayer bond orders larger than 0.100000
B(  0-C ,  1-C ) :   1.6540 B(  0-C ,  3-O ) :   0.1122 B(  0-C , 12-H ) :   0.7712
B(  0-C , 13-H ) :   0.9941 B(  1-C ,  2-S ) :   0.7007 B(  1-C ,  3-O ) :  -0.1393
B(  1-C , 13-H ) :  -0.1008 B(  1-C , 14-H ) :   0.8434 B(  2-S ,  3-O ) :   0.8705
B(  2-S ,  4-O ) :   0.6662 B(  2-S ,  5-C ) :   0.9340 B(  2-S , 11-C ) :  -0.1495
B(  5-C ,  6-C ) :   0.9826 B(  5-C ,  7-C ) :  -0.2657 B(  5-C ,  8-C ) :  -0.1013
B(  5-C , 10-C ) :  -0.2762 B(  5-C , 11-C ) :   0.8828 B(  5-C , 15-H ) :  -0.1101
B(  6-C ,  7-C ) :   1.3390 B(  6-C , 10-C ) :   0.1626 B(  6-C , 15-H ) :   0.9798
B(  6-C , 16-H ) :  -0.1564 B(  7-C ,  8-C ) :   1.0083 B(  7-C , 10-C ) :  -0.1321
B(  7-C , 11-C ) :   0.1652 B(  7-C , 16-H ) :   1.1171 B(  8-C ,  9-C ) :   0.7131
B(  8-C , 10-C ) :   0.9635 B(  8-C , 16-H ) :  -0.1119 B(  8-C , 17-H ) :  -0.1172
B(  8-C , 19-H ) :  -0.1163 B(  8-C , 20-H ) :  -0.1197 B(  9-C , 17-H ) :   1.0356
B(  9-C , 18-H ) :   0.9496 B(  9-C , 19-H ) :   1.0360 B( 10-C , 11-C ) :   1.3292
B( 10-C , 20-H ) :   1.0685 B( 11-C , 20-H ) :  -0.1544 B( 11-C , 21-H ) :   0.9757

MP2 TOTAL ENERGY:     -896.322240758 Eh
FINAL SINGLE POINT ENERGY      -896.322240758129

DIPOLE MOMENT
-------------
                                X             Y             Z
Electronic contribution:     -9.71211       3.21115      -3.55029
Nuclear contribution   :     11.19288      -4.24546       5.06975
                        -----------------------------------------
Total Dipole Moment    :      1.48077      -1.03430       1.51946
                        -----------------------------------------
Magnitude (a.u.)       :      2.36035
Magnitude (Debye)      :      5.99953

Rotational constants in cm-1:     0.063497     0.015875     0.014860
Rotational constants in MHz :  1903.584436   475.934403   445.483236

                             ****ORCA TERMINATED NORMALLY****
TOTAL RUN TIME: 0 days 2 hours 24 minutes 6 seconds 582 msec
