                         Program Version 5.0.4 -  RELEASE  -
|  1> !ri-mp2 aug-cc-pvqz aug-cc-pvqz/c tightscf
|  2> %pal nprocs 16 end
|  3>
|  4> * xyz 0 1
|  5> O     1.527751   -0.041787   -0.537922
|  6> O     2.903656   -0.081519   -0.081598
|  7> O    -2.550243   -0.648905   -0.302870
|  8> N    -0.622833    0.129378    0.252599
|  9> N    -1.430434   -0.925890    0.075880
| 10> C     0.715920   -0.171147    0.638713
| 11> C    -1.072890    1.482292   -0.050054
| 12> H     1.075986    0.533849    1.388665
| 13> H     0.743524   -1.191858    1.019263
| 14> H    -0.254370    2.165555    0.153369
| 15> H    -1.938584    1.731739    0.562219
| 16> H    -1.363685    1.558623   -1.097009
| 17> H     3.202517   -0.911507   -0.478692
| 18> *
| 19>
| 20>                          ****END OF INPUT****

CARTESIAN COORDINATES (ANGSTROEM)
---------------------------------
  O      1.527751   -0.041787   -0.537922
  O      2.903656   -0.081519   -0.081598
  O     -2.550243   -0.648905   -0.302870
  N     -0.622833    0.129378    0.252599
  N     -1.430434   -0.925890    0.075880
  C      0.715920   -0.171147    0.638713
  C     -1.072890    1.482292   -0.050054
  H      1.075986    0.533849    1.388665
  H      0.743524   -1.191858    1.019263
  H     -0.254370    2.165555    0.153369
  H     -1.938584    1.731739    0.562219
  H     -1.363685    1.558623   -1.097009
  H      3.202517   -0.911507   -0.478692

 Total Charge           Charge          ....    0
 Multiplicity           Mult            ....    1
 Number of Electrons    NEL             ....   56
 Basis Dimension        Dim             ....  836

ORBITAL ENERGIES
----------------

  NO   OCC          E(Eh)            E(eV)
   0   2.0000     -20.640443      -561.6550
   1   2.0000     -20.640128      -561.6464
   2   2.0000     -20.590265      -560.2896
   3   2.0000     -15.732949      -428.1153
   4   2.0000     -15.637643      -425.5219
   5   2.0000     -11.343008      -308.6589
   6   2.0000     -11.275854      -306.8316
   7   2.0000      -1.523971       -41.4694
   8   2.0000      -1.491710       -40.5915
   9   2.0000      -1.306778       -35.5592
  10   2.0000      -1.225439       -33.3459
  11   2.0000      -1.020734       -27.7756
  12   2.0000      -0.973594       -26.4928
  13   2.0000      -0.816871       -22.2282
  14   2.0000      -0.749996       -20.4084
  15   2.0000      -0.741625       -20.1806
  16   2.0000      -0.710045       -19.3213
  17   2.0000      -0.693637       -18.8748
  18   2.0000      -0.642324       -17.4785
  19   2.0000      -0.635942       -17.3049
  20   2.0000      -0.610459       -16.6114
  21   2.0000      -0.582909       -15.8618
  22   2.0000      -0.573138       -15.5959
  23   2.0000      -0.562679       -15.3113
  24   2.0000      -0.517196       -14.0736
  25   2.0000      -0.476673       -12.9709
  26   2.0000      -0.423317       -11.5190
  27   2.0000      -0.410549       -11.1716
  28   0.0000       0.022854         0.6219
  29   0.0000       0.029768         0.8100
  30   0.0000       0.036823         1.0020
  31   0.0000       0.041217         1.1216
  32   0.0000       0.050179         1.3654

MULLIKEN ATOMIC CHARGES
-----------------------
   0 O :   -0.410006
   1 O :   -0.475196
   2 O :   -0.573864
   3 N :   -0.141904
   4 N :    0.215558
   5 C :    0.124522
   6 C :   -0.855492
   7 H :    0.326982
   8 H :    0.413892
   9 H :    0.369161
  10 H :    0.347607
  11 H :    0.305792
  12 H :    0.352949
Sum of atomic charges:   -0.0000000

LOEWDIN ATOMIC CHARGES
----------------------
   0 O :    0.546097
   1 O :    0.929761
   2 O :    0.400133
   3 N :    0.101806
   4 N :   -0.133980
   5 C :   -0.100766
   6 C :    0.734991
   7 H :   -0.334123
   8 H :   -0.352229
   9 H :   -0.306502
  10 H :   -0.300266
  11 H :   -0.296425
  12 H :   -0.888499

  Mayer bond orders larger than 0.100000
B(  0-O ,  1-O ) :   0.8563 B(  0-O ,  5-C ) :   0.6704 B(  1-O , 12-H ) :   0.8965
B(  2-O ,  4-N ) :   1.4876 B(  3-N ,  4-N ) :   1.0648 B(  3-N ,  5-C ) :   0.9570
B(  3-N ,  6-C ) :   0.7176 B(  4-N ,  5-C ) :  -0.1005 B(  5-C ,  7-H ) :   0.8696
B(  5-C ,  8-H ) :   0.8121 B(  6-C ,  9-H ) :   0.8602 B(  6-C , 10-H ) :   0.9145
B(  6-C , 11-H ) :   0.9478

MP2 TOTAL ENERGY:     -414.283044311 Eh
FINAL SINGLE POINT ENERGY      -414.283044311427

DIPOLE MOMENT
-------------
                                X             Y             Z
Electronic contribution:     -0.51663      -3.53198      -0.99811
Nuclear contribution   :      1.47028       3.83640       1.52205
                        -----------------------------------------
Total Dipole Moment    :      0.95365       0.30442       0.52394
                        -----------------------------------------
Magnitude (a.u.)       :      1.12989
Magnitude (Debye)      :      2.87194

Rotational constants in cm-1:     0.224636     0.046150     0.041459
Rotational constants in MHz :  6734.408349  1383.545306  1242.905248

                             ****ORCA TERMINATED NORMALLY****
TOTAL RUN TIME: 0 days 0 hours 20 minutes 39 seconds 220 msec
