                         Program Version 5.0.4 -  RELEASE  -
|  1> !ri-mp2 aug-cc-pvqz aug-cc-pvqz/c tightscf
|  2> %pal nprocs 16 end
|  3>
|  4> * xyz 0 1
|  5> N      0.000000    1.188502    0.658697
|  6> N      0.000000    1.188502   -0.658697
|  7> C      0.000000    0.000000   -1.262286
|  8> N      0.000000   -1.188502   -0.658697
|  9> N      0.000000   -1.188502    0.658697
| 10> C      0.000000    0.000000    1.262286
| 11> H      0.000000    0.000000   -2.343802
| 12> H      0.000000    0.000000    2.343802
| 13> *
| 14>
| 15>                          ****END OF INPUT****

CARTESIAN COORDINATES (ANGSTROEM)
---------------------------------
  N      0.000000    1.188502    0.658697
  N      0.000000    1.188502   -0.658697
  C      0.000000    0.000000   -1.262286
  N      0.000000   -1.188502   -0.658697
  N      0.000000   -1.188502    0.658697
  C      0.000000    0.000000    1.262286
  H      0.000000    0.000000   -2.343802
  H      0.000000    0.000000    2.343802

 Total Charge           Charge          ....    0
 Multiplicity           Mult            ....    1
 Number of Electrons    NEL             ....   42
 Basis Dimension        Dim             ....  572

ORBITAL ENERGIES
----------------

  NO   OCC          E(Eh)            E(eV)
   0   2.0000     -15.660219      -426.1362
   1   2.0000     -15.660181      -426.1352
   2   2.0000     -15.659307      -426.1114
   3   2.0000     -15.659303      -426.1113
   4   2.0000     -11.338539      -308.5373
   5   2.0000     -11.338507      -308.5365
   6   2.0000      -1.444163       -39.2977
   7   2.0000      -1.339271       -36.4434
   8   2.0000      -1.192730       -32.4558
   9   2.0000      -1.026552       -27.9339
  10   2.0000      -0.962658       -26.1953
  11   2.0000      -0.794812       -21.6279
  12   2.0000      -0.753543       -20.5050
  13   2.0000      -0.700390       -19.0586
  14   2.0000      -0.650487       -17.7007
  15   2.0000      -0.566907       -15.4263
  16   2.0000      -0.533125       -14.5071
  17   2.0000      -0.529613       -14.4115
  18   2.0000      -0.499613       -13.5952
  19   2.0000      -0.435222       -11.8430
  20   2.0000      -0.418569       -11.3898
  21   0.0000       0.025500         0.6939
  22   0.0000       0.026041         0.7086
  23   0.0000       0.030602         0.8327
  24   0.0000       0.053639         1.4596
  25   0.0000       0.063742         1.7345

MULLIKEN ATOMIC CHARGES
-----------------------
   0 N :   -0.289433
   1 N :   -0.289433
   2 C :   -0.020006
   3 N :   -0.289433
   4 N :   -0.289433
   5 C :   -0.020006
   6 H :    0.598872
   7 H :    0.598872
Sum of atomic charges:    0.0000000

LOEWDIN ATOMIC CHARGES
----------------------
   0 N :    0.318528
   1 N :    0.318528
   2 C :   -0.239680
   3 N :    0.318528
   4 N :    0.318528
   5 C :   -0.239680
   6 H :   -0.397376
   7 H :   -0.397376

  Mayer bond orders larger than 0.100000
B(  0-N ,  1-N ) :   1.0042 B(  0-N ,  5-C ) :   1.2987 B(  1-N ,  2-C ) :   1.2987
B(  2-C ,  3-N ) :   1.2987 B(  2-C ,  6-H ) :   0.6928 B(  3-N ,  4-N ) :   1.0042
B(  4-N ,  5-C ) :   1.2987 B(  5-C ,  7-H ) :   0.6928

MP2 TOTAL ENERGY:     -295.887043962 Eh
FINAL SINGLE POINT ENERGY      -295.887043961527

DIPOLE MOMENT
-------------
                                X             Y             Z
Electronic contribution:     -0.00000       0.00000      -0.00000
Nuclear contribution   :      0.00000       0.00000      -0.00000
                        -----------------------------------------
Total Dipole Moment    :     -0.00000       0.00000      -0.00000
                        -----------------------------------------
Magnitude (a.u.)       :      0.00000
Magnitude (Debye)      :      0.00000

Rotational constants in cm-1:     0.228857     0.213006     0.110324
Rotational constants in MHz :  6860.969039  6385.760853  3307.420613

                             ****ORCA TERMINATED NORMALLY****
TOTAL RUN TIME: 0 days 0 hours 6 minutes 31 seconds 629 msec
