                         Program Version 5.0.4 -  RELEASE  -
|  1> !ri-mp2 aug-cc-pvqz aug-cc-pvqz/c tightscf
|  2> %pal nprocs 16 end
|  3>
|  4> * xyz 0 1
|  5> C      0.680732    0.592289   -0.291181
|  6> C     -0.721940    0.567772    0.287742
|  7> O      1.404236   -0.594510    0.050668
|  8> O     -1.459811   -0.557597   -0.160898
|  9> H      1.214042    1.489687    0.038901
| 10> H      0.632713    0.600665   -1.379775
| 11> H     -1.271483    1.455526   -0.029664
| 12> H     -0.669565    0.583184    1.385698
| 13> H      1.668590   -0.545996    0.974636
| 14> H     -0.882437   -1.326578   -0.087321
| 15> *
| 16>
| 17>                          ****END OF INPUT****

CARTESIAN COORDINATES (ANGSTROEM)
---------------------------------
  C      0.680732    0.592289   -0.291181
  C     -0.721940    0.567772    0.287742
  O      1.404236   -0.594510    0.050668
  O     -1.459811   -0.557597   -0.160898
  H      1.214042    1.489687    0.038901
  H      0.632713    0.600665   -1.379775
  H     -1.271483    1.455526   -0.029664
  H     -0.669565    0.583184    1.385698
  H      1.668590   -0.545996    0.974636
  H     -0.882437   -1.326578   -0.087321

 Total Charge           Charge          ....    0
 Multiplicity           Mult            ....    1
 Number of Electrons    NEL             ....   34
 Basis Dimension        Dim             ....  596

ORBITAL ENERGIES
----------------

  NO   OCC          E(Eh)            E(eV)
   0   2.0000     -20.569855      -559.7342
   1   2.0000     -20.552819      -559.2706
   2   2.0000     -11.283715      -307.0455
   3   2.0000     -11.278567      -306.9054
   4   2.0000      -1.377902       -37.4946
   5   2.0000      -1.350003       -36.7354
   6   2.0000      -1.003794       -27.3146
   7   2.0000      -0.853367       -23.2213
   8   2.0000      -0.708722       -19.2853
   9   2.0000      -0.688920       -18.7465
  10   2.0000      -0.645150       -17.5554
  11   2.0000      -0.616486       -16.7754
  12   2.0000      -0.574676       -15.6377
  13   2.0000      -0.527282       -14.3481
  14   2.0000      -0.509093       -13.8531
  15   2.0000      -0.472519       -12.8579
  16   2.0000      -0.437478       -11.9044
  17   0.0000       0.022910         0.6234
  18   0.0000       0.033401         0.9089
  19   0.0000       0.038231         1.0403
  20   0.0000       0.039669         1.0794
  21   0.0000       0.056619         1.5407

MULLIKEN ATOMIC CHARGES
-----------------------
   0 C :   -0.158753
   1 C :   -0.064097
   2 O :   -0.787488
   3 O :   -0.809492
   4 H :    0.282364
   5 H :    0.309431
   6 H :    0.314064
   7 H :    0.221838
   8 H :    0.340803
   9 H :    0.351329
Sum of atomic charges:    0.0000000

LOEWDIN ATOMIC CHARGES
----------------------
   0 C :    0.178594
   1 C :    0.160318
   2 O :    1.262157
   3 O :    1.262396
   4 H :   -0.296385
   5 H :   -0.321354
   6 H :   -0.319343
   7 H :   -0.304168
   8 H :   -0.788703
   9 H :   -0.833512

  Mayer bond orders larger than 0.100000
B(  0-C ,  1-C ) :   1.0480 B(  0-C ,  2-O ) :   0.7209 B(  0-C ,  4-H ) :   0.8875
B(  0-C ,  5-H ) :   0.8543 B(  1-C ,  3-O ) :   0.6819 B(  1-C ,  6-H ) :   0.8655
B(  1-C ,  7-H ) :   0.9132 B(  2-O ,  8-H ) :   0.8782 B(  3-O ,  9-H ) :   0.8551

MP2 TOTAL ENERGY:     -229.948613172 Eh
FINAL SINGLE POINT ENERGY      -229.948613172091

DIPOLE MOMENT
-------------
                                X             Y             Z
Electronic contribution:     -0.15557      -1.74121      -0.30538
Nuclear contribution   :      0.71087       2.30275       0.92666
                        -----------------------------------------
Total Dipole Moment    :      0.55530       0.56154       0.62128
                        -----------------------------------------
Magnitude (a.u.)       :      1.00483
Magnitude (Debye)      :      2.55407

Rotational constants in cm-1:     0.509841     0.182653     0.152118
Rotational constants in MHz : 15284.648671  5475.796065  4560.389886

                             ****ORCA TERMINATED NORMALLY****
TOTAL RUN TIME: 0 days 0 hours 7 minutes 26 seconds 782 msec
