                         Program Version 5.0.4 -  RELEASE  -
|  1> !ri-mp2 aug-cc-pvqz aug-cc-pvqz/c tightscf
|  2> %pal nprocs 16 end
|  3>
|  4> * xyz 0 1
|  5> O      0.000000    0.687878    0.000070
|  6> N     -0.688992   -1.412640   -0.000142
|  7> N      0.688992   -1.412640   -0.000140
|  8> C     -1.060811   -0.167259   -0.000017
|  9> C      1.060811   -0.167259   -0.000015
| 10> C     -2.366481    0.358061    0.000033
| 11> C      2.366481    0.358061    0.000038
| 12> C     -3.480741    0.800640    0.000075
| 13> C      3.480741    0.800640    0.000084
| 14> H     -4.469667    1.188310    0.000112
| 15> H      4.469667    1.188310    0.000122
| 16> *
| 17>
| 18>                          ****END OF INPUT****

CARTESIAN COORDINATES (ANGSTROEM)
---------------------------------
  O      0.000000    0.687878    0.000070
  N     -0.688992   -1.412640   -0.000142
  N      0.688992   -1.412640   -0.000140
  C     -1.060811   -0.167259   -0.000017
  C      1.060811   -0.167259   -0.000015
  C     -2.366481    0.358061    0.000033
  C      2.366481    0.358061    0.000038
  C     -3.480741    0.800640    0.000075
  C      3.480741    0.800640    0.000084
  H     -4.469667    1.188310    0.000112
  H      4.469667    1.188310    0.000122

 Total Charge           Charge          ....    0
 Multiplicity           Mult            ....    1
 Number of Electrons    NEL             ....   60
 Basis Dimension        Dim             ....  812

ORBITAL ENERGIES
----------------

  NO   OCC          E(Eh)            E(eV)
   0   2.0000     -20.677621      -562.6667
   1   2.0000     -15.622783      -425.1175
   2   2.0000     -15.622123      -425.0996
   3   2.0000     -11.382472      -309.7328
   4   2.0000     -11.382430      -309.7317
   5   2.0000     -11.277073      -306.8647
   6   2.0000     -11.277072      -306.8647
   7   2.0000     -11.271987      -306.7264
   8   2.0000     -11.271986      -306.7263
   9   2.0000      -1.542551       -41.9749
  10   2.0000      -1.330788       -36.2126
  11   2.0000      -1.175098       -31.9760
  12   2.0000      -1.081936       -29.4410
  13   2.0000      -1.055230       -28.7143
  14   2.0000      -0.926463       -25.2103
  15   2.0000      -0.918134       -24.9837
  16   2.0000      -0.809700       -22.0331
  17   2.0000      -0.773777       -21.0555
  18   2.0000      -0.740093       -20.1390
  19   2.0000      -0.713901       -19.4262
  20   2.0000      -0.708939       -19.2912
  21   2.0000      -0.659098       -17.9350
  22   2.0000      -0.527834       -14.3631
  23   2.0000      -0.512538       -13.9469
  24   2.0000      -0.505255       -13.7487
  25   2.0000      -0.482878       -13.1398
  26   2.0000      -0.445711       -12.1284
  27   2.0000      -0.444070       -12.0838
  28   2.0000      -0.437133       -11.8950
  29   2.0000      -0.358771        -9.7627
  30   0.0000       0.020806         0.5662
  31   0.0000       0.021120         0.5747
  32   0.0000       0.049099         1.3360
  33   0.0000       0.054253         1.4763
  34   0.0000       0.059393         1.6162

MULLIKEN ATOMIC CHARGES
-----------------------
   0 O :   -0.620212
   1 N :   -0.346381
   2 N :   -0.346366
   3 C :    0.797753
   4 C :    0.797854
   5 C :   -0.004534
   6 C :   -0.004433
   7 C :   -0.562447
   8 C :   -0.562612
   9 H :    0.425691
  10 H :    0.425687
Sum of atomic charges:    0.0000000

LOEWDIN ATOMIC CHARGES
----------------------
   0 O :    0.820296
   1 N :    0.305907
   2 N :    0.305907
   3 C :   -0.889091
   4 C :   -0.889091
   5 C :    0.037068
   6 C :    0.037069
   7 C :    0.575633
   8 C :    0.575633
   9 H :   -0.439667
  10 H :   -0.439667

  Mayer bond orders larger than 0.100000
B(  0-O ,  3-C ) :   0.9073 B(  0-O ,  4-C ) :   0.9072 B(  1-N ,  2-N ) :   0.5301
B(  1-N ,  3-C ) :   1.4705 B(  1-N ,  5-C ) :  -0.1582 B(  2-N ,  4-C ) :   1.4705
B(  2-N ,  6-C ) :  -0.1582 B(  3-C ,  5-C ) :   0.7667 B(  3-C ,  7-C ) :  -0.1066
B(  4-C ,  6-C ) :   0.7666 B(  4-C ,  8-C ) :  -0.1066 B(  5-C ,  7-C ) :   2.5457
B(  5-C ,  9-H ) :  -0.2032 B(  6-C ,  8-C ) :   2.5456 B(  6-C , 10-H ) :  -0.2032
B(  7-C ,  9-H ) :   1.0337 B(  8-C , 10-H ) :   1.0338

MP2 TOTAL ENERGY:     -413.750504032 Eh
FINAL SINGLE POINT ENERGY      -413.750504032446

DIPOLE MOMENT
-------------
                                X             Y             Z
Electronic contribution:      0.00000      -0.88315      -0.00009
Nuclear contribution   :      0.00000       2.26226       0.00022
                        -----------------------------------------
Total Dipole Moment    :      0.00000       1.37910       0.00014
                        -----------------------------------------
Magnitude (a.u.)       :      1.37910
Magnitude (Debye)      :      3.50540

Rotational constants in cm-1:     0.197341     0.033304     0.028495
Rotational constants in MHz :  5916.130120   998.428038   854.259962

                             ****ORCA TERMINATED NORMALLY****
TOTAL RUN TIME: 0 days 0 hours 18 minutes 5 seconds 26 msec
