                         Program Version 5.0.4 -  RELEASE  -
|  1> !ri-mp2 aug-cc-pvqz aug-cc-pvqz/c tightscf
|  2> %pal nprocs 16 end
|  3>
|  4> * xyz 0 1
|  5> O      1.238707   -1.255661    0.004628
|  6> S      0.503569   -0.000001    0.014979
|  7> O      1.238698    1.255665    0.004692
|  8> C     -0.961544    0.000030   -1.129930
|  9> C     -1.794509   -0.000009    0.132105
| 10> C     -0.911283   -0.000031    1.127195
| 11> H     -1.013806   -0.899488   -1.740062
| 12> H     -1.013804    0.899596   -1.739990
| 13> H     -2.873692   -0.000011    0.186098
| 14> H     -0.971028   -0.000045    2.203515
| 15> *
| 16>
| 17>                          ****END OF INPUT****

CARTESIAN COORDINATES (ANGSTROEM)
---------------------------------
  O      1.238707   -1.255661    0.004628
  S      0.503569   -0.000001    0.014979
  O      1.238698    1.255665    0.004692
  C     -0.961544    0.000030   -1.129930
  C     -1.794509   -0.000009    0.132105
  C     -0.911283   -0.000031    1.127195
  H     -1.013806   -0.899488   -1.740062
  H     -1.013804    0.899596   -1.739990
  H     -2.873692   -0.000011    0.186098
  H     -0.971028   -0.000045    2.203515

 Total Charge           Charge          ....    0
 Multiplicity           Mult            ....    1
 Number of Electrons    NEL             ....   54
 Basis Dimension        Dim             ....  668

ORBITAL ENERGIES
----------------

  NO   OCC          E(Eh)            E(eV)
   0   2.0000     -92.181036     -2508.3735
   1   2.0000     -20.551064      -559.2229
   2   2.0000     -20.551042      -559.2223
   3   2.0000     -11.302896      -307.5674
   4   2.0000     -11.297776      -307.4281
   5   2.0000     -11.293537      -307.3128
   6   2.0000      -9.149600      -248.9733
   7   2.0000      -6.834890      -185.9868
   8   2.0000      -6.834049      -185.9639
   9   2.0000      -6.833651      -185.9531
  10   2.0000      -1.447824       -39.3973
  11   2.0000      -1.336480       -36.3675
  12   2.0000      -1.186518       -32.2868
  13   2.0000      -0.973166       -26.4812
  14   2.0000      -0.896094       -24.3840
  15   2.0000      -0.767848       -20.8942
  16   2.0000      -0.722689       -19.6654
  17   2.0000      -0.674589       -18.3565
  18   2.0000      -0.667759       -18.1706
  19   2.0000      -0.625233       -17.0135
  20   2.0000      -0.616688       -16.7809
  21   2.0000      -0.582986       -15.8639
  22   2.0000      -0.506783       -13.7903
  23   2.0000      -0.486135       -13.2284
  24   2.0000      -0.481881       -13.1127
  25   2.0000      -0.441395       -12.0110
  26   2.0000      -0.422075       -11.4852
  27   0.0000       0.015586         0.4241
  28   0.0000       0.027843         0.7576
  29   0.0000       0.034236         0.9316
  30   0.0000       0.036251         0.9864
  31   0.0000       0.067282         1.8308

MULLIKEN ATOMIC CHARGES
-----------------------
   0 O :   -1.170932
   1 S :    2.337847
   2 O :   -1.170930
   3 C :   -0.549154
   4 C :   -0.501217
   5 C :   -0.728597
   6 H :    0.351396
   7 H :    0.351392
   8 H :    0.554817
   9 H :    0.525379
Sum of atomic charges:    0.0000000

LOEWDIN ATOMIC CHARGES
----------------------
   0 O :    0.243626
   1 S :   -0.221678
   2 O :    0.243627
   3 C :    0.437641
   4 C :    0.260745
   5 C :    0.301331
   6 H :   -0.314698
   7 H :   -0.314703
   8 H :   -0.298615
   9 H :   -0.337276

  Mayer bond orders larger than 0.100000
B(  0-O ,  1-S ) :   1.0463 B(  1-S ,  2-O ) :   1.0464 B(  1-S ,  3-C ) :   0.9593
B(  1-S ,  5-C ) :   0.9952 B(  3-C ,  4-C ) :   1.0215 B(  3-C ,  5-C ) :  -0.1726
B(  3-C ,  6-H ) :   0.8359 B(  3-C ,  7-H ) :   0.8359 B(  4-C ,  5-C ) :   1.7743
B(  4-C ,  8-H ) :   0.6235 B(  5-C ,  9-H ) :   0.6993

MP2 TOTAL ENERGY:     -664.468280684 Eh
FINAL SINGLE POINT ENERGY      -664.468280684297

DIPOLE MOMENT
-------------
                                X             Y             Z
Electronic contribution:      3.39813      -0.00005       0.97841
Nuclear contribution   :     -5.69675       0.00005      -1.06240
                        -----------------------------------------
Total Dipole Moment    :     -2.29862       0.00000      -0.08399
                        -----------------------------------------
Magnitude (a.u.)       :      2.30016
Magnitude (Debye)      :      5.84654

Rotational constants in cm-1:     0.179513     0.099255     0.093602
Rotational constants in MHz :  5381.665071  2975.583609  2806.121697

                             ****ORCA TERMINATED NORMALLY****
TOTAL RUN TIME: 0 days 0 hours 13 minutes 8 seconds 655 msec
