                         Program Version 5.0.4 -  RELEASE  -
|  1> !ri-mp2 aug-cc-pvqz aug-cc-pvqz/c tightscf
|  2> %pal nprocs 16 end
|  3>
|  4> * xyz 0 1
|  5> C     0.000000    1.278542    0.000000
|  6> C     1.107250   -0.639271    0.000000
|  7> C    -1.107250   -0.639271    0.000000
|  8> N     0.000000   -1.366438    0.000000
|  9> N    -1.183370    0.683219    0.000000
| 10> N     1.183370    0.683219    0.000000
| 11> Cl    0.000000    3.006062    0.000000
| 12> Cl    2.603326   -1.503031    0.000000
| 13> Cl   -2.603326   -1.503031    0.000000
| 14> *
| 15>
| 16>                          ****END OF INPUT****

CARTESIAN COORDINATES (ANGSTROEM)
---------------------------------
  C      0.000000    1.278542    0.000000
  C      1.107250   -0.639271    0.000000
  C     -1.107250   -0.639271    0.000000
  N      0.000000   -1.366438    0.000000
  N     -1.183370    0.683219    0.000000
  N      1.183370    0.683219    0.000000
  Cl     0.000000    3.006062    0.000000
  Cl     2.603326   -1.503031    0.000000
  Cl    -2.603326   -1.503031    0.000000

 Total Charge           Charge          ....    0
 Multiplicity           Mult            ....    1
 Number of Electrons    NEL             ....   90
 Basis Dimension        Dim             ....  732

ORBITAL ENERGIES
----------------

  NO   OCC          E(Eh)            E(eV)
   0   2.0000    -104.880144     -2853.9338
   1   2.0000    -104.880144     -2853.9338
   2   2.0000    -104.880144     -2853.9338
   3   2.0000     -15.621520      -425.0832
   4   2.0000     -15.621519      -425.0831
   5   2.0000     -15.621477      -425.0820
   6   2.0000     -11.434433      -311.1467
   7   2.0000     -11.434432      -311.1467
   8   2.0000     -11.434431      -311.1467
   9   2.0000     -10.605575      -288.5924
  10   2.0000     -10.605575      -288.5924
  11   2.0000     -10.605574      -288.5923
  12   2.0000      -8.072651      -219.6680
  13   2.0000      -8.072651      -219.6680
  14   2.0000      -8.072651      -219.6680
  15   2.0000      -8.070748      -219.6162
  16   2.0000      -8.070748      -219.6162
  17   2.0000      -8.070748      -219.6162
  18   2.0000      -8.070626      -219.6129
  19   2.0000      -8.070626      -219.6129
  20   2.0000      -8.070626      -219.6129
  21   2.0000      -1.428451       -38.8701
  22   2.0000      -1.287476       -35.0340
  23   2.0000      -1.287476       -35.0340
  24   2.0000      -1.159948       -31.5638
  25   2.0000      -1.159948       -31.5638
  26   2.0000      -1.151065       -31.3221
  27   2.0000      -0.923277       -25.1236
  28   2.0000      -0.923277       -25.1236
  29   2.0000      -0.818481       -22.2720
  30   2.0000      -0.727233       -19.7890
  31   2.0000      -0.686127       -18.6705
  32   2.0000      -0.629790       -17.1375
  33   2.0000      -0.629790       -17.1374
  34   2.0000      -0.610871       -16.6226
  35   2.0000      -0.560067       -15.2402
  36   2.0000      -0.560067       -15.2402
  37   2.0000      -0.503815       -13.7095
  38   2.0000      -0.503815       -13.7095
  39   2.0000      -0.490095       -13.3362
  40   2.0000      -0.488316       -13.2878
  41   2.0000      -0.480761       -13.0822
  42   2.0000      -0.480760       -13.0822
  43   2.0000      -0.446012       -12.1366
  44   2.0000      -0.446012       -12.1366
  45   0.0000       0.037799         1.0286
  46   0.0000       0.049681         1.3519
  47   0.0000       0.049681         1.3519
  48   0.0000       0.051877         1.4117
  49   0.0000       0.051877         1.4117

MULLIKEN ATOMIC CHARGES
-----------------------
   0 C :    0.367722
   1 C :    0.367715
   2 C :    0.367725
   3 N :   -0.277026
   4 N :   -0.277006
   5 N :   -0.276998
   6 Cl:   -0.090710
   7 Cl:   -0.090711
   8 Cl:   -0.090711
Sum of atomic charges:    0.0000000

LOEWDIN ATOMIC CHARGES
----------------------
   0 C :   -1.482534
   1 C :   -1.482533
   2 C :   -1.482533
   3 N :    0.301434
   4 N :    0.301433
   5 N :    0.301433
   6 Cl:    1.181100
   7 Cl:    1.181100
   8 Cl:    1.181100

  Mayer bond orders larger than 0.100000
B(  0-C ,  4-N ) :   1.2000 B(  0-C ,  5-N ) :   1.2000 B(  0-C ,  6-Cl) :   0.9840
B(  1-C ,  3-N ) :   1.2000 B(  1-C ,  5-N ) :   1.2000 B(  1-C ,  7-Cl) :   0.9840
B(  2-C ,  3-N ) :   1.2000 B(  2-C ,  4-N ) :   1.2000 B(  2-C ,  8-Cl) :   0.9840

MP2 TOTAL ENERGY:    -1657.356038069 Eh
FINAL SINGLE POINT ENERGY     -1657.356038069218

DIPOLE MOMENT
-------------
                                X             Y             Z
Electronic contribution:      0.00000      -0.00000       0.00000
Nuclear contribution   :      0.00000       0.00000       0.00000
                        -----------------------------------------
Total Dipole Moment    :      0.00000      -0.00000       0.00000
                        -----------------------------------------
Magnitude (a.u.)       :      0.00000
Magnitude (Debye)      :      0.00001

Rotational constants in cm-1:     0.030693     0.030693     0.015347
Rotational constants in MHz :   920.155777   920.155752   460.077882

                             ****ORCA TERMINATED NORMALLY****
TOTAL RUN TIME: 0 days 0 hours 15 minutes 30 seconds 450 msec
