                         Program Version 5.0.4 -  RELEASE  -
|  1> !ri-mp2 aug-cc-pvqz aug-cc-pvqz/c tightscf
|  2> %pal nprocs 16 end
|  3>
|  4> * xyz 0 1
|  5> S     -0.180530   -1.510125    0.096697
|  6> S     -0.180530    1.510125   -0.096698
|  7> F      1.690299   -0.019073   -1.077617
|  8> F      1.690298    0.019073    1.077618
|  9> C      0.856748    0.000000    0.000000
| 10> C     -1.750263   -0.681445   -0.334640
| 11> C     -1.750262    0.681445    0.334641
| 12> H     -2.551770   -1.315256    0.043945
| 13> H     -1.841107   -0.594140   -1.415457
| 14> H     -2.551770    1.315257   -0.043944
| 15> H     -1.841105    0.594141    1.415458
| 16> *
| 17>
| 18>                          ****END OF INPUT****

CARTESIAN COORDINATES (ANGSTROEM)
---------------------------------
  S     -0.180530   -1.510125    0.096697
  S     -0.180530    1.510125   -0.096698
  F      1.690299   -0.019073   -1.077617
  F      1.690298    0.019073    1.077618
  C      0.856748    0.000000    0.000000
  C     -1.750263   -0.681445   -0.334640
  C     -1.750262    0.681445    0.334641
  H     -2.551770   -1.315256    0.043945
  H     -1.841107   -0.594140   -1.415457
  H     -2.551770    1.315257   -0.043944
  H     -1.841105    0.594141    1.415458

 Total Charge           Charge          ....    0
 Multiplicity           Mult            ....    1
 Number of Electrons    NEL             ....   72
 Basis Dimension        Dim             ....  752

ORBITAL ENERGIES
----------------

  NO   OCC          E(Eh)            E(eV)
   0   2.0000     -91.981114     -2502.9334
   1   2.0000     -91.981113     -2502.9333
   2   2.0000     -26.318654      -716.1670
   3   2.0000     -26.318633      -716.1664
   4   2.0000     -11.471145      -312.1457
   5   2.0000     -11.292664      -307.2890
   6   2.0000     -11.292026      -307.2717
   7   2.0000      -8.983348      -244.4493
   8   2.0000      -8.983339      -244.4491
   9   2.0000      -6.664561      -181.3519
  10   2.0000      -6.664559      -181.3519
  11   2.0000      -6.663762      -181.3302
  12   2.0000      -6.663761      -181.3302
  13   2.0000      -6.662785      -181.3036
  14   2.0000      -6.662784      -181.3036
  15   2.0000      -1.674028       -45.5526
  16   2.0000      -1.607016       -43.7291
  17   2.0000      -1.149313       -31.2744
  18   2.0000      -1.011456       -27.5231
  19   2.0000      -1.009183       -27.4613
  20   2.0000      -0.856003       -23.2930
  21   2.0000      -0.846540       -23.0355
  22   2.0000      -0.768642       -20.9158
  23   2.0000      -0.734930       -19.9985
  24   2.0000      -0.728811       -19.8319
  25   2.0000      -0.675397       -18.3785
  26   2.0000      -0.662114       -18.0170
  27   2.0000      -0.644630       -17.5413
  28   2.0000      -0.636993       -17.3335
  29   2.0000      -0.581023       -15.8104
  30   2.0000      -0.569536       -15.4979
  31   2.0000      -0.497675       -13.5424
  32   2.0000      -0.497306       -13.5324
  33   2.0000      -0.445800       -12.1308
  34   2.0000      -0.394214       -10.7271
  35   2.0000      -0.375154       -10.2084
  36   0.0000       0.020027         0.5450
  37   0.0000       0.033793         0.9196
  38   0.0000       0.034201         0.9307
  39   0.0000       0.045140         1.2283
  40   0.0000       0.054759         1.4901

MULLIKEN ATOMIC CHARGES
-----------------------
   0 S :   -0.031560
   1 S :   -0.031559
   2 F :   -0.622229
   3 F :   -0.622228
   4 C :    1.134113
   5 C :   -0.545841
   6 C :   -0.545840
   7 H :    0.387704
   8 H :    0.244868
   9 H :    0.387703
  10 H :    0.244868
Sum of atomic charges:    0.0000000

LOEWDIN ATOMIC CHARGES
----------------------
   0 S :    1.209001
   1 S :    1.209001
   2 F :    0.613243
   3 F :    0.613243
   4 C :   -2.269929
   5 C :    0.046390
   6 C :    0.046389
   7 H :   -0.366300
   8 H :   -0.367370
   9 H :   -0.366298
  10 H :   -0.367370

  Mayer bond orders larger than 0.100000
B(  0-S ,  4-C ) :   0.9530 B(  0-S ,  5-C ) :   0.9332 B(  1-S ,  4-C ) :   0.9530
B(  1-S ,  6-C ) :   0.9332 B(  2-F ,  4-C ) :   0.4365 B(  3-F ,  4-C ) :   0.4365
B(  5-C ,  6-C ) :   0.9892 B(  5-C ,  7-H ) :   0.7924 B(  5-C ,  8-H ) :   0.9184
B(  6-C ,  9-H ) :   0.7924 B(  6-C , 10-H ) :   0.9184

MP2 TOTAL ENERGY:    -1111.507261938 Eh
FINAL SINGLE POINT ENERGY     -1111.507261938434

DIPOLE MOMENT
-------------
                                X             Y             Z
Electronic contribution:      9.85115      -0.00000      -0.00000
Nuclear contribution   :    -11.52031       0.00000       0.00000
                        -----------------------------------------
Total Dipole Moment    :     -1.66916       0.00000       0.00000
                        -----------------------------------------
Magnitude (a.u.)       :      1.66916
Magnitude (Debye)      :      4.24268

Rotational constants in cm-1:     0.079126     0.063993     0.045121
Rotational constants in MHz :  2372.138585  1918.455364  1352.696157

                             ****ORCA TERMINATED NORMALLY****
TOTAL RUN TIME: 0 days 0 hours 18 minutes 50 seconds 151 msec
