                         Program Version 5.0.4 -  RELEASE  -
|  1> !ri-mp2 aug-cc-pvqz aug-cc-pvqz/c tightscf
|  2> %pal nprocs 16 end
|  3>
|  4> * xyz 0 1
|  5> S      1.989323   -0.009549   -0.145290
|  6> O      0.854042   -1.274861    0.212013
|  7> O      0.929171    1.296398    0.203214
|  8> O     -1.541919   -1.139480   -0.026054
|  9> C     -0.315704   -0.615131   -0.021948
| 10> C     -0.319252    0.726214   -0.022953
| 11> C     -1.682955    1.131606   -0.022667
| 12> C     -2.386914   -0.036529   -0.038427
| 13> H     -2.098136    2.123419   -0.033853
| 14> H     -3.432428   -0.264049   -0.118917
| 15> *
| 16>
| 17>                          ****END OF INPUT****

CARTESIAN COORDINATES (ANGSTROEM)
---------------------------------
  S      1.989323   -0.009549   -0.145290
  O      0.854042   -1.274861    0.212013
  O      0.929171    1.296398    0.203214
  O     -1.541919   -1.139480   -0.026054
  C     -0.315704   -0.615131   -0.021948
  C     -0.319252    0.726214   -0.022953
  C     -1.682955    1.131606   -0.022667
  C     -2.386914   -0.036529   -0.038427
  H     -2.098136    2.123419   -0.033853
  H     -3.432428   -0.264049   -0.118917

 Total Charge           Charge          ....    0
 Multiplicity           Mult            ....    1
 Number of Electrons    NEL             ....   66
 Basis Dimension        Dim             ....  736

ORBITAL ENERGIES
----------------

  NO   OCC          E(Eh)            E(eV)
   0   2.0000     -92.080902     -2505.6487
   1   2.0000     -20.650930      -561.9404
   2   2.0000     -20.641986      -561.6970
   3   2.0000     -20.631957      -561.4241
   4   2.0000     -11.358538      -309.0815
   5   2.0000     -11.308613      -307.7230
   6   2.0000     -11.296812      -307.4019
   7   2.0000     -11.262476      -306.4676
   8   2.0000      -9.070711      -246.8266
   9   2.0000      -6.751342      -183.7133
  10   2.0000      -6.750344      -183.6862
  11   2.0000      -6.748018      -183.6229
  12   2.0000      -1.506050       -40.9817
  13   2.0000      -1.451256       -39.4907
  14   2.0000      -1.392590       -37.8943
  15   2.0000      -1.110577       -30.2203
  16   2.0000      -1.018910       -27.7259
  17   2.0000      -0.936430       -25.4816
  18   2.0000      -0.849474       -23.1154
  19   2.0000      -0.809024       -22.0147
  20   2.0000      -0.745898       -20.2969
  21   2.0000      -0.704403       -19.1678
  22   2.0000      -0.679617       -18.4933
  23   2.0000      -0.639918       -17.4131
  24   2.0000      -0.632229       -17.2038
  25   2.0000      -0.611462       -16.6387
  26   2.0000      -0.599035       -16.3006
  27   2.0000      -0.583675       -15.8826
  28   2.0000      -0.569910       -15.5080
  29   2.0000      -0.527116       -14.3436
  30   2.0000      -0.420181       -11.4337
  31   2.0000      -0.384243       -10.4558
  32   2.0000      -0.309127        -8.4118
  33   0.0000       0.024315         0.6617
  34   0.0000       0.032074         0.8728
  35   0.0000       0.043089         1.1725
  36   0.0000       0.049805         1.3553
  37   0.0000       0.061047         1.6612

MULLIKEN ATOMIC CHARGES
-----------------------
   0 S :    0.671011
   1 O :   -0.782586
   2 O :   -0.759187
   3 O :   -0.612504
   4 C :    0.988565
   5 C :    0.274262
   6 C :   -0.551570
   7 C :   -0.266195
   8 H :    0.460006
   9 H :    0.578197
Sum of atomic charges:   -0.0000000

LOEWDIN ATOMIC CHARGES
----------------------
   0 S :    0.689519
   1 O :    0.390145
   2 O :    0.354018
   3 O :    0.845384
   4 C :   -1.174696
   5 C :   -0.769267
   6 C :    0.318634
   7 C :    0.015799
   8 H :   -0.329683
   9 H :   -0.339855

  Mayer bond orders larger than 0.100000
B(  0-S ,  1-O ) :   0.7984 B(  0-S ,  2-O ) :   0.8217 B(  1-O ,  4-C ) :   0.6559
B(  1-O ,  5-C ) :   0.1931 B(  2-O ,  4-C ) :   0.1361 B(  2-O ,  5-C ) :   0.5028
B(  3-O ,  4-C ) :   0.8456 B(  3-O ,  7-C ) :   0.8182 B(  4-C ,  5-C ) :   1.7510
B(  4-C ,  6-C ) :  -0.1663 B(  5-C ,  6-C ) :   1.1382 B(  5-C ,  7-C ) :  -0.2092
B(  6-C ,  7-C ) :   1.6997 B(  6-C ,  8-H ) :   0.8134 B(  7-C ,  9-H ) :   0.6944

MP2 TOTAL ENERGY:     -776.400697874 Eh
FINAL SINGLE POINT ENERGY      -776.400697873724

DIPOLE MOMENT
-------------
                                X             Y             Z
Electronic contribution:      4.88094      -1.36612      -0.03629
Nuclear contribution   :     -5.32341       1.75478      -0.13542
                        -----------------------------------------
Total Dipole Moment    :     -0.44247       0.38866      -0.17171
                        -----------------------------------------
Magnitude (a.u.)       :      0.61345
Magnitude (Debye)      :      1.55926

Rotational constants in cm-1:     0.158156     0.053768     0.040535
Rotational constants in MHz :  4741.383214  1611.938591  1215.216762

                             ****ORCA TERMINATED NORMALLY****
TOTAL RUN TIME: 0 days 0 hours 21 minutes 57 seconds 536 msec
