                         Program Version 5.0.4 -  RELEASE  -
|  1> !ri-mp2 aug-cc-pvqz aug-cc-pvqz/c tightscf
|  2> %pal nprocs 16 end
|  3>
|  4> * xyz 0 1
|  5> N      1.184590    0.251105    0.000000
|  6> C      0.000000    0.875562    0.000000
|  7> C     -1.202367    0.166726    0.000000
|  8> C     -1.174475   -1.220655    0.000000
|  9> C      0.054155   -1.864985    0.000000
| 10> C      1.201261   -1.080306    0.000000
| 11> C      0.032915    2.378142    0.000000
| 12> H     -2.143876    0.698947    0.000000
| 13> H     -2.096226   -1.787364    0.000000
| 14> H      0.127330   -2.943410    0.000000
| 15> H      2.181582   -1.544032    0.000000
| 16> H     -0.968801    2.804749    0.000000
| 17> H      0.569466    2.743239    0.876757
| 18> H      0.569466    2.743239   -0.876757
| 19> *
| 20>
| 21>                          ****END OF INPUT****

CARTESIAN COORDINATES (ANGSTROEM)
---------------------------------
  N      1.184590    0.251105    0.000000
  C      0.000000    0.875562    0.000000
  C     -1.202367    0.166726    0.000000
  C     -1.174475   -1.220655    0.000000
  C      0.054155   -1.864985    0.000000
  C      1.201261   -1.080306    0.000000
  C      0.032915    2.378142    0.000000
  H     -2.143876    0.698947    0.000000
  H     -2.096226   -1.787364    0.000000
  H      0.127330   -2.943410    0.000000
  H      2.181582   -1.544032    0.000000
  H     -0.968801    2.804749    0.000000
  H      0.569466    2.743239    0.876757
  H      0.569466    2.743239   -0.876757

 Total Charge           Charge          ....    0
 Multiplicity           Mult            ....    1
 Number of Electrons    NEL             ....   50
 Basis Dimension        Dim             ....  882

ORBITAL ENERGIES
----------------

  NO   OCC          E(Eh)            E(eV)
   0   2.0000     -15.554654      -423.2636
   1   2.0000     -11.278232      -306.8963
   2   2.0000     -11.270396      -306.6831
   3   2.0000     -11.254606      -306.2534
   4   2.0000     -11.233223      -305.6715
   5   2.0000     -11.233079      -305.6676
   6   2.0000     -11.220654      -305.3295
   7   2.0000      -1.257477       -34.2177
   8   2.0000      -1.085756       -29.5449
   9   2.0000      -1.056360       -28.7450
  10   2.0000      -0.952521       -25.9194
  11   2.0000      -0.856874       -23.3167
  12   2.0000      -0.823642       -22.4124
  13   2.0000      -0.701470       -19.0880
  14   2.0000      -0.668190       -18.1824
  15   2.0000      -0.639396       -17.3988
  16   2.0000      -0.585989       -15.9456
  17   2.0000      -0.585134       -15.9223
  18   2.0000      -0.570548       -15.5254
  19   2.0000      -0.538863       -14.6632
  20   2.0000      -0.517839       -14.0911
  21   2.0000      -0.510898       -13.9022
  22   2.0000      -0.411321       -11.1926
  23   2.0000      -0.380553       -10.3554
  24   2.0000      -0.336979        -9.1697
  25   0.0000       0.024015         0.6535
  26   0.0000       0.028249         0.7687
  27   0.0000       0.031917         0.8685
  28   0.0000       0.041942         1.1413
  29   0.0000       0.045084         1.2268

MULLIKEN ATOMIC CHARGES
-----------------------
   0 N :   -0.558404
   1 C :    0.454358
   2 C :   -0.400421
   3 C :   -0.191725
   4 C :   -0.322321
   5 C :   -0.343445
   6 C :   -0.757716
   7 H :    0.324575
   8 H :    0.263274
   9 H :    0.330019
  10 H :    0.470216
  11 H :    0.190591
  12 H :    0.270499
  13 H :    0.270499
Sum of atomic charges:    0.0000000

LOEWDIN ATOMIC CHARGES
----------------------
   0 N :    0.604221
   1 C :   -0.345093
   2 C :    0.335593
   3 C :    0.331963
   4 C :    0.329842
   5 C :    0.077255
   6 C :    0.889030
   7 H :   -0.328750
   8 H :   -0.313099
   9 H :   -0.331835
  10 H :   -0.351888
  11 H :   -0.312998
  12 H :   -0.292120
  13 H :   -0.292120

  Mayer bond orders larger than 0.100000
B(  0-N ,  1-C ) :   1.0456 B(  0-N ,  2-C ) :   0.1230 B(  0-N ,  5-C ) :   1.2759
B(  1-C ,  2-C ) :   1.0290 B(  1-C ,  3-C ) :  -0.2488 B(  1-C ,  6-C ) :   0.6773
B(  1-C , 11-H ) :  -0.1136 B(  2-C ,  3-C ) :   1.2575 B(  2-C ,  5-C ) :   0.1544
B(  2-C ,  7-H ) :   0.9387 B(  3-C ,  4-C ) :   1.2087 B(  3-C ,  5-C ) :  -0.1001
B(  3-C ,  8-H ) :   1.0794 B(  4-C ,  5-C ) :   1.2383 B(  4-C ,  9-H ) :   0.9741
B(  5-C , 10-H ) :   0.8836 B(  6-C , 11-H ) :   1.1005 B(  6-C , 12-H ) :   0.9679
B(  6-C , 13-H ) :   0.9679

MP2 TOTAL ENERGY:     -287.089774887 Eh
FINAL SINGLE POINT ENERGY      -287.089774886679

DIPOLE MOMENT
-------------
                                X             Y             Z
Electronic contribution:      1.06383      -3.01443      -0.00000
Nuclear contribution   :     -1.76870       2.73944       0.00000
                        -----------------------------------------
Total Dipole Moment    :     -0.70487      -0.27499      -0.00000
                        -----------------------------------------
Magnitude (a.u.)       :      0.75661
Magnitude (Debye)      :      1.92314

Rotational constants in cm-1:     0.191740     0.088027     0.061006
Rotational constants in MHz :  5748.219969  2638.970957  1828.923768

                             ****ORCA TERMINATED NORMALLY****
TOTAL RUN TIME: 0 days 0 hours 25 minutes 52 seconds 594 msec
