                         Program Version 5.0.4 -  RELEASE  -
|  1> !ri-mp2 aug-cc-pvqz aug-cc-pvqz/c tightscf
|  2> %pal nprocs 16 end
|  3>
|  4> * xyz 0 1
|  5> O     3.181131   -0.527751   -0.000030
|  6> N    -0.504861   -0.979797    0.000012
|  7> N    -1.316186    1.134512    0.000007
|  8> N    -1.860177   -0.974625    0.000024
|  9> C    -0.220224    0.316198    0.000000
| 10> C    -2.321692    0.286099    0.000022
| 11> C     1.127446    0.850818   -0.000016
| 12> C     2.212545    0.104559   -0.000024
| 13> H    -2.366760   -1.842693    0.000036
| 14> H    -3.369334    0.536264    0.000030
| 15> H     1.267161    1.921766   -0.000023
| 16> *
| 17>
| 18>                          ****END OF INPUT****

CARTESIAN COORDINATES (ANGSTROEM)
---------------------------------
  O      3.181131   -0.527751   -0.000030
  N     -0.504861   -0.979797    0.000012
  N     -1.316186    1.134512    0.000007
  N     -1.860177   -0.974625    0.000024
  C     -0.220224    0.316198    0.000000
  C     -2.321692    0.286099    0.000022
  C      1.127446    0.850818   -0.000016
  C      2.212545    0.104559   -0.000024
  H     -2.366760   -1.842693    0.000036
  H     -3.369334    0.536264    0.000030
  H      1.267161    1.921766   -0.000023

 Total Charge           Charge          ....    0
 Multiplicity           Mult            ....    1
 Number of Electrons    NEL             ....   56
 Basis Dimension        Dim             ....  778

ORBITAL ENERGIES
----------------

  NO   OCC          E(Eh)            E(eV)
   0   2.0000     -20.637707      -561.5806
   1   2.0000     -15.657216      -426.0545
   2   2.0000     -15.593047      -424.3084
   3   2.0000     -15.562506      -423.4773
   4   2.0000     -11.391839      -309.9877
   5   2.0000     -11.327682      -308.2419
   6   2.0000     -11.315376      -307.9070
   7   2.0000     -11.249707      -306.1201
   8   2.0000      -1.485144       -40.4128
   9   2.0000      -1.420453       -38.6525
  10   2.0000      -1.207606       -32.8606
  11   2.0000      -1.143215       -31.1085
  12   2.0000      -1.057941       -28.7880
  13   2.0000      -0.881194       -23.9785
  14   2.0000      -0.841869       -22.9084
  15   2.0000      -0.778731       -21.1904
  16   2.0000      -0.753973       -20.5167
  17   2.0000      -0.696153       -18.9433
  18   2.0000      -0.658409       -17.9162
  19   2.0000      -0.645176       -17.5561
  20   2.0000      -0.642064       -17.4714
  21   2.0000      -0.618578       -16.8324
  22   2.0000      -0.570544       -15.5253
  23   2.0000      -0.515525       -14.0281
  24   2.0000      -0.455338       -12.3904
  25   2.0000      -0.453429       -12.3384
  26   2.0000      -0.411420       -11.1953
  27   2.0000      -0.327555        -8.9132
  28   0.0000       0.017320         0.4713
  29   0.0000       0.030638         0.8337
  30   0.0000       0.034470         0.9380
  31   0.0000       0.056077         1.5259
  32   0.0000       0.058614         1.5950

MULLIKEN ATOMIC CHARGES
-----------------------
   0 O :   -0.698073
   1 N :   -0.350980
   2 N :   -0.609370
   3 N :   -0.362111
   4 C :    0.464792
   5 C :   -0.118497
   6 C :   -0.746936
   7 C :    1.088308
   8 H :    0.291816
   9 H :    0.586124
  10 H :    0.454928
Sum of atomic charges:    0.0000000

LOEWDIN ATOMIC CHARGES
----------------------
   0 O :    0.658349
   1 N :    0.459984
   2 N :    0.559564
   3 N :    0.550949
   4 C :   -0.769260
   5 C :   -0.080704
   6 C :    0.234351
   7 C :   -0.423143
   8 H :   -0.475832
   9 H :   -0.312741
  10 H :   -0.401516

  Mayer bond orders larger than 0.100000
B(  0-O ,  6-C ) :   0.2487 B(  0-O ,  7-C ) :   1.4918 B(  1-N ,  3-N ) :   0.6495
B(  1-N ,  4-C ) :   1.3166 B(  2-N ,  4-C ) :   1.1081 B(  2-N ,  5-C ) :   1.6475
B(  3-N ,  5-C ) :   1.3850 B(  3-N ,  8-H ) :   0.9616 B(  4-C ,  6-C ) :   0.8697
B(  4-C ,  7-C ) :  -0.2409 B(  5-C ,  9-H ) :   0.6652 B(  6-C ,  7-C ) :   2.0245
B(  6-C , 10-H ) :   0.7642

MP2 TOTAL ENERGY:     -393.092290478 Eh
FINAL SINGLE POINT ENERGY      -393.092290478367

DIPOLE MOMENT
-------------
                                X             Y             Z
Electronic contribution:      2.95708      -0.76398      -0.00003
Nuclear contribution   :     -4.28100       0.58059       0.00004
                        -----------------------------------------
Total Dipole Moment    :     -1.32392      -0.18339       0.00001
                        -----------------------------------------
Magnitude (a.u.)       :      1.33656
Magnitude (Debye)      :      3.39726

Rotational constants in cm-1:     0.249354     0.042548     0.036346
Rotational constants in MHz :  7475.459801  1275.566514  1089.637473

                             ****ORCA TERMINATED NORMALLY****
TOTAL RUN TIME: 0 days 0 hours 16 minutes 51 seconds 632 msec
