                         Program Version 5.0.4 -  RELEASE  -
|  1> !ri-mp2 aug-cc-pvqz aug-cc-pvqz/c tightscf
|  2> %pal nprocs 16 end
|  3>
|  4> * xyz 0 1
|  5> O      0.000000    0.000000    0.648088
|  6> O      0.000000    3.317523   -0.078152
|  7> O      0.000000   -3.317523   -0.078152
|  8> C     -0.698728    0.939522   -0.114391
|  9> C      0.698728   -0.939522   -0.114391
| 10> C     -0.313392    2.199290   -0.102139
| 11> C      0.313392   -2.199290   -0.102139
| 12> H     -1.576390    0.640518   -0.667959
| 13> H      1.576390   -0.640518   -0.667959
| 14> *
| 15>
| 16>                          ****END OF INPUT****

CARTESIAN COORDINATES (ANGSTROEM)
---------------------------------
  O      0.000000    0.000000    0.648088
  O      0.000000    3.317523   -0.078152
  O      0.000000   -3.317523   -0.078152
  C     -0.698728    0.939522   -0.114391
  C      0.698728   -0.939522   -0.114391
  C     -0.313392    2.199290   -0.102139
  C      0.313392   -2.199290   -0.102139
  H     -1.576390    0.640518   -0.667959
  H      1.576390   -0.640518   -0.667959

 Total Charge           Charge          ....    0
 Multiplicity           Mult            ....    1
 Number of Electrons    NEL             ....   50
 Basis Dimension        Dim             ....  652

ORBITAL ENERGIES
----------------

  NO   OCC          E(Eh)            E(eV)
   0   2.0000     -20.642613      -561.7141
   1   2.0000     -20.642613      -561.7141
   2   2.0000     -20.624619      -561.2244
   3   2.0000     -11.391163      -309.9693
   4   2.0000     -11.391163      -309.9693
   5   2.0000     -11.309327      -307.7424
   6   2.0000     -11.309310      -307.7420
   7   2.0000      -1.486849       -40.4592
   8   2.0000      -1.486090       -40.4386
   9   2.0000      -1.432426       -38.9783
  10   2.0000      -1.086151       -29.5557
  11   2.0000      -1.017344       -27.6833
  12   2.0000      -0.798649       -21.7324
  13   2.0000      -0.768872       -20.9221
  14   2.0000      -0.737399       -20.0657
  15   2.0000      -0.727280       -19.7903
  16   2.0000      -0.717328       -19.5195
  17   2.0000      -0.666696       -18.1417
  18   2.0000      -0.658076       -17.9072
  19   2.0000      -0.632218       -17.2035
  20   2.0000      -0.596906       -16.2426
  21   2.0000      -0.588640       -16.0177
  22   2.0000      -0.528389       -14.3782
  23   2.0000      -0.375547       -10.2192
  24   2.0000      -0.360500        -9.8097
  25   0.0000       0.021289         0.5793
  26   0.0000       0.031493         0.8570
  27   0.0000       0.042871         1.1666
  28   0.0000       0.054948         1.4952
  29   0.0000       0.061629         1.6770

MULLIKEN ATOMIC CHARGES
-----------------------
   0 O :   -0.633741
   1 O :   -0.644478
   2 O :   -0.644478
   3 C :   -0.336581
   4 C :   -0.336581
   5 C :    0.830491
   6 C :    0.830491
   7 H :    0.467439
   8 H :    0.467439
Sum of atomic charges:   -0.0000000

LOEWDIN ATOMIC CHARGES
----------------------
   0 O :    0.681625
   1 O :    0.624221
   2 O :    0.624221
   3 C :   -0.111656
   4 C :   -0.111656
   5 C :   -0.446733
   6 C :   -0.446733
   7 H :   -0.406644
   8 H :   -0.406644

  Mayer bond orders larger than 0.100000
B(  0-O ,  3-C ) :   0.8665 B(  0-O ,  4-C ) :   0.8665 B(  1-O ,  3-C ) :   0.2039
B(  1-O ,  5-C ) :   1.6603 B(  2-O ,  4-C ) :   0.2039 B(  2-O ,  6-C ) :   1.6603
B(  3-C ,  5-C ) :   1.9358 B(  3-C ,  7-H ) :   0.7704 B(  4-C ,  6-C ) :   1.9358
B(  4-C ,  8-H ) :   0.7704

MP2 TOTAL ENERGY:     -378.655878384 Eh
FINAL SINGLE POINT ENERGY      -378.655878383789

DIPOLE MOMENT
-------------
                                X             Y             Z
Electronic contribution:      0.00000       0.00000       0.72341
Nuclear contribution   :      0.00000       0.00000      -1.27191
                        -----------------------------------------
Total Dipole Moment    :      0.00000       0.00000      -0.54850
                        -----------------------------------------
Magnitude (a.u.)       :      0.54850
Magnitude (Debye)      :      1.39418

Rotational constants in cm-1:     0.675200     0.033632     0.033087
Rotational constants in MHz : 20241.984144  1008.247207   991.934836

                             ****ORCA TERMINATED NORMALLY****
TOTAL RUN TIME: 0 days 0 hours 11 minutes 2 seconds 331 msec
