                         Program Version 5.0.4 -  RELEASE  -
|  1> !ri-mp2 aug-cc-pvqz aug-cc-pvqz/c tightscf
|  2> %pal nprocs 16 end
|  3>
|  4> * xyz 0 1
|  5> C     1.327665    1.176379    0.000000
|  6> C    -1.327665   -1.176379    0.000000
|  7> C     2.119092    0.047739    0.000000
|  8> C    -2.119092   -0.047739    0.000000
|  9> C    -0.008256    0.695795    0.000000
| 10> C     0.008256   -0.695795    0.000000
| 11> N     1.327665   -1.085752    0.000000
| 12> N    -1.327665    1.085752    0.000000
| 13> H     1.685808    2.190986    0.000000
| 14> H    -1.685808   -2.190986    0.000000
| 15> H     3.191771   -0.033733    0.000000
| 16> H    -3.191771    0.033733    0.000000
| 17> H     1.673163   -2.026299    0.000000
| 18> H    -1.673163    2.026299    0.000000
| 19> *
| 20>
| 21>                          ****END OF INPUT****

CARTESIAN COORDINATES (ANGSTROEM)
---------------------------------
  C      1.327665    1.176379    0.000000
  C     -1.327665   -1.176379    0.000000
  C      2.119092    0.047739    0.000000
  C     -2.119092   -0.047739    0.000000
  C     -0.008256    0.695795    0.000000
  C      0.008256   -0.695795    0.000000
  N      1.327665   -1.085752    0.000000
  N     -1.327665    1.085752    0.000000
  H      1.685808    2.190986    0.000000
  H     -1.685808   -2.190986    0.000000
  H      3.191771   -0.033733    0.000000
  H     -3.191771    0.033733    0.000000
  H      1.673163   -2.026299    0.000000
  H     -1.673163    2.026299    0.000000

 Total Charge           Charge          ....    0
 Multiplicity           Mult            ....    1
 Number of Electrons    NEL             ....   56
 Basis Dimension        Dim             ....  916

ORBITAL ENERGIES
----------------

  NO   OCC          E(Eh)            E(eV)
   0   2.0000     -15.592885      -424.3040
   1   2.0000     -15.592881      -424.3039
   2   2.0000     -11.254471      -306.2497
   3   2.0000     -11.254469      -306.2497
   4   2.0000     -11.235005      -305.7200
   5   2.0000     -11.233712      -305.6849
   6   2.0000     -11.212783      -305.1153
   7   2.0000     -11.212780      -305.1152
   8   2.0000      -1.300145       -35.3787
   9   2.0000      -1.252827       -34.0912
  10   2.0000      -1.039952       -28.2985
  11   2.0000      -1.026590       -27.9349
  12   2.0000      -0.946312       -25.7505
  13   2.0000      -0.804351       -21.8875
  14   2.0000      -0.796010       -21.6605
  15   2.0000      -0.775675       -21.1072
  16   2.0000      -0.715996       -19.4833
  17   2.0000      -0.633431       -17.2365
  18   2.0000      -0.620099       -16.8738
  19   2.0000      -0.594853       -16.1868
  20   2.0000      -0.583636       -15.8815
  21   2.0000      -0.570867       -15.5341
  22   2.0000      -0.538638       -14.6571
  23   2.0000      -0.515128       -14.0173
  24   2.0000      -0.504001       -13.7146
  25   2.0000      -0.372604       -10.1391
  26   2.0000      -0.305873        -8.3232
  27   2.0000      -0.256062        -6.9678
  28   0.0000       0.024512         0.6670
  29   0.0000       0.025518         0.6944
  30   0.0000       0.029267         0.7964
  31   0.0000       0.039531         1.0757
  32   0.0000       0.044751         1.2177

MULLIKEN ATOMIC CHARGES
-----------------------
   0 C :   -0.238472
   1 C :   -0.238451
   2 C :   -0.544914
   3 C :   -0.544936
   4 C :    0.446889
   5 C :    0.446852
   6 N :   -0.581803
   7 N :   -0.581812
   8 H :    0.374599
   9 H :    0.374586
  10 H :    0.419521
  11 H :    0.419520
  12 H :    0.124209
  13 H :    0.124212
Sum of atomic charges:   -0.0000000

LOEWDIN ATOMIC CHARGES
----------------------
   0 C :    0.374024
   1 C :    0.374024
   2 C :    0.206003
   3 C :    0.206003
   4 C :   -0.310724
   5 C :   -0.310724
   6 N :    0.834414
   7 N :    0.834414
   8 H :   -0.335482
   9 H :   -0.335482
  10 H :   -0.312874
  11 H :   -0.312874
  12 H :   -0.455362
  13 H :   -0.455362

  Mayer bond orders larger than 0.100000
B(  0-C ,  2-C ) :   1.5801 B(  0-C ,  4-C ) :   1.1002 B(  0-C ,  5-C ) :  -0.2442
B(  0-C ,  7-N ) :  -0.1412 B(  0-C ,  8-H ) :   0.9257 B(  1-C ,  3-C ) :   1.5801
B(  1-C ,  4-C ) :  -0.2443 B(  1-C ,  5-C ) :   1.1003 B(  1-C ,  6-N ) :  -0.1412
B(  1-C ,  9-H ) :   0.9257 B(  2-C ,  6-N ) :   1.0598 B(  2-C , 10-H ) :   0.8988
B(  3-C ,  7-N ) :   1.0598 B(  3-C , 11-H ) :   0.8988 B(  4-C ,  5-C ) :   1.0148
B(  4-C ,  7-N ) :   0.9615 B(  4-C , 13-H ) :  -0.1009 B(  5-C ,  6-N ) :   0.9615
B(  5-C , 12-H ) :  -0.1009 B(  6-N , 12-H ) :   1.1752 B(  7-N , 13-H ) :   1.1752

MP2 TOTAL ENERGY:     -341.154036637 Eh
FINAL SINGLE POINT ENERGY      -341.154036636686

DIPOLE MOMENT
-------------
                                X             Y             Z
Electronic contribution:      0.00000      -0.00000       0.00000
Nuclear contribution   :      0.00000       0.00000       0.00000
                        -----------------------------------------
Total Dipole Moment    :      0.00000      -0.00000       0.00000
                        -----------------------------------------
Magnitude (a.u.)       :      0.00000
Magnitude (Debye)      :      0.00000

Rotational constants in cm-1:     0.175766     0.072817     0.051487
Rotational constants in MHz :  5269.337686  2182.985885  1543.530643

                             ****ORCA TERMINATED NORMALLY****
TOTAL RUN TIME: 0 days 0 hours 31 minutes 35 seconds 795 msec
