                         Program Version 5.0.4 -  RELEASE  -
|  1> !ri-mp2 aug-cc-pvqz aug-cc-pvqz/c tightscf
|  2> %pal nprocs 16 end
|  3>
|  4> * xyz 0 1
|  5> S     -0.392972   -1.265072    0.210669
|  6> C      0.940796    0.017803    0.413655
|  7> C      0.214759    1.365119    0.480256
|  8> C     -1.100528    1.217508   -0.232047
|  9> C     -1.506870   -0.035217   -0.406130
| 10> O      1.821436    0.051740   -0.690597
| 11> H      1.477232   -0.222620    1.331943
| 12> H      0.856678    2.126104    0.033990
| 13> H     -1.678395    2.075102   -0.546595
| 14> H     -2.430535   -0.355577   -0.862849
| 15> H      0.048224    1.648671    1.524486
| 16> H      2.153911   -0.835724   -0.861306
| 17> *
| 18>
| 19>                          ****END OF INPUT****

CARTESIAN COORDINATES (ANGSTROEM)
---------------------------------
  S     -0.392972   -1.265072    0.210669
  C      0.940796    0.017803    0.413655
  C      0.214759    1.365119    0.480256
  C     -1.100528    1.217508   -0.232047
  C     -1.506870   -0.035217   -0.406130
  O      1.821436    0.051740   -0.690597
  H      1.477232   -0.222620    1.331943
  H      0.856678    2.126104    0.033990
  H     -1.678395    2.075102   -0.546595
  H     -2.430535   -0.355577   -0.862849
  H      0.048224    1.648671    1.524486
  H      2.153911   -0.835724   -0.861306

 Total Charge           Charge          ....    0
 Multiplicity           Mult            ....    1
 Number of Electrons    NEL             ....   54
 Basis Dimension        Dim             ....  760

ORBITAL ENERGIES
----------------

  NO   OCC          E(Eh)            E(eV)
   0   2.0000     -91.954224     -2502.2016
   1   2.0000     -20.569409      -559.7221
   2   2.0000     -11.324126      -308.1451
   3   2.0000     -11.259076      -306.3750
   4   2.0000     -11.240499      -305.8695
   5   2.0000     -11.236069      -305.7490
   6   2.0000      -8.956553      -243.7202
   7   2.0000      -6.637936      -180.6274
   8   2.0000      -6.637154      -180.6061
   9   2.0000      -6.636342      -180.5841
  10   2.0000      -1.378921       -37.5224
  11   2.0000      -1.133809       -30.8525
  12   2.0000      -0.986453       -26.8427
  13   2.0000      -0.967822       -26.3358
  14   2.0000      -0.805256       -21.9121
  15   2.0000      -0.753510       -20.5041
  16   2.0000      -0.711905       -19.3719
  17   2.0000      -0.675697       -18.3866
  18   2.0000      -0.602553       -16.3963
  19   2.0000      -0.576400       -15.6846
  20   2.0000      -0.567581       -15.4447
  21   2.0000      -0.544405       -14.8140
  22   2.0000      -0.492079       -13.3901
  23   2.0000      -0.471162       -12.8210
  24   2.0000      -0.435962       -11.8631
  25   2.0000      -0.428101       -11.6492
  26   2.0000      -0.314630        -8.5615
  27   0.0000       0.026535         0.7220
  28   0.0000       0.030997         0.8435
  29   0.0000       0.034709         0.9445
  30   0.0000       0.038737         1.0541
  31   0.0000       0.048365         1.3161

MULLIKEN ATOMIC CHARGES
-----------------------
   0 S :   -0.065098
   1 C :    0.364520
   2 C :   -0.452296
   3 C :   -0.368421
   4 C :   -0.659866
   5 O :   -0.803681
   6 H :    0.306269
   7 H :    0.246761
   8 H :    0.423695
   9 H :    0.424875
  10 H :    0.249396
  11 H :    0.333847
Sum of atomic charges:    0.0000000

LOEWDIN ATOMIC CHARGES
----------------------
   0 S :    1.289082
   1 C :   -0.572682
   2 C :    0.367799
   3 C :    0.256204
   4 C :   -0.063465
   5 O :    1.229471
   6 H :   -0.374857
   7 H :   -0.301642
   8 H :   -0.319289
   9 H :   -0.410646
  10 H :   -0.285804
  11 H :   -0.814170

  Mayer bond orders larger than 0.100000
B(  0-S ,  1-C ) :   0.8219 B(  0-S ,  4-C ) :   1.0014 B(  1-C ,  2-C ) :   0.9351
B(  1-C ,  3-C ) :  -0.1035 B(  1-C ,  4-C ) :  -0.1023 B(  1-C ,  5-O ) :   0.5374
B(  1-C ,  6-H ) :   0.8753 B(  2-C ,  3-C ) :   0.8247 B(  2-C ,  7-H ) :   0.9510
B(  2-C , 10-H ) :   0.9038 B(  3-C ,  4-C ) :   1.7075 B(  3-C ,  8-H ) :   0.8392
B(  4-C ,  9-H ) :   0.8282 B(  5-O , 11-H ) :   0.9032

MP2 TOTAL ENERGY:     -628.603699689 Eh
FINAL SINGLE POINT ENERGY      -628.603699688914

DIPOLE MOMENT
-------------
                                X             Y             Z
Electronic contribution:     -0.45709      -4.22622      -0.34437
Nuclear contribution   :      0.46459       4.44360       0.59795
                        -----------------------------------------
Total Dipole Moment    :      0.00750       0.21738       0.25358
                        -----------------------------------------
Magnitude (a.u.)       :      0.33409
Magnitude (Debye)      :      0.84918

Rotational constants in cm-1:     0.133927     0.112255     0.072826
Rotational constants in MHz :  4015.034863  3365.319562  2183.257452

                             ****ORCA TERMINATED NORMALLY****
TOTAL RUN TIME: 0 days 0 hours 22 minutes 11 seconds 244 msec
