                         Program Version 5.0.4 -  RELEASE  -
|  1> !ri-mp2 aug-cc-pvqz aug-cc-pvqz/c tightscf
|  2> %pal nprocs 16 end
|  3>
|  4> * xyz 0 1
|  5> C     0.000000     1.456520   -0.815071
|  6> C     1.261383    -0.728260   -0.815071
|  7> C    -1.261383    -0.728260   -0.815071
|  8> C     0.000000     0.000000   -0.370596
|  9> Cl    0.000000     0.000000    1.489306
| 10> H    -0.883600     1.977898   -0.450456
| 11> H     0.883600     1.977898   -0.450456
| 12> H     0.000000     1.501962   -1.906872
| 13> H     2.154710    -0.223729   -0.450456
| 14> H     1.271110    -1.754169   -0.450456
| 15> H     1.300737    -0.750981   -1.906872
| 16> H    -2.154710    -0.223729   -0.450456
| 17> H    -1.271110    -1.754169   -0.450456
| 18> H    -1.300737    -0.750981   -1.906872
| 19> *
| 20>
| 21>                          ****END OF INPUT****

CARTESIAN COORDINATES (ANGSTROEM)
---------------------------------
  C      0.000000    1.456520   -0.815071
  C      1.261383   -0.728260   -0.815071
  C     -1.261383   -0.728260   -0.815071
  C      0.000000    0.000000   -0.370596
  Cl     0.000000    0.000000    1.489306
  H     -0.883600    1.977898   -0.450456
  H      0.883600    1.977898   -0.450456
  H      0.000000    1.501962   -1.906872
  H      2.154710   -0.223729   -0.450456
  H      1.271110   -1.754169   -0.450456
  H      1.300737   -0.750981   -1.906872
  H     -2.154710   -0.223729   -0.450456
  H     -1.271110   -1.754169   -0.450456
  H     -1.300737   -0.750981   -1.906872

 Total Charge           Charge          ....    0
 Multiplicity           Mult            ....    1
 Number of Electrons    NEL             ....   50
 Basis Dimension        Dim             ....  818

ORBITAL ENERGIES
----------------

  NO   OCC          E(Eh)            E(eV)
   0   2.0000    -104.805191     -2851.8942
   1   2.0000     -11.307732      -307.6990
   2   2.0000     -11.227716      -305.5217
   3   2.0000     -11.227716      -305.5217
   4   2.0000     -11.227694      -305.5211
   5   2.0000     -10.531076      -286.5651
   6   2.0000      -7.997956      -217.6355
   7   2.0000      -7.996524      -217.5965
   8   2.0000      -7.996524      -217.5965
   9   2.0000      -1.149520       -31.2800
  10   2.0000      -1.022517       -27.8241
  11   2.0000      -0.953426       -25.9440
  12   2.0000      -0.953426       -25.9440
  13   2.0000      -0.753391       -20.5008
  14   2.0000      -0.632506       -17.2114
  15   2.0000      -0.621744       -16.9185
  16   2.0000      -0.621744       -16.9185
  17   2.0000      -0.561169       -15.2702
  18   2.0000      -0.561169       -15.2702
  19   2.0000      -0.530765       -14.4429
  20   2.0000      -0.500110       -13.6087
  21   2.0000      -0.500110       -13.6087
  22   2.0000      -0.471628       -12.8336
  23   2.0000      -0.423858       -11.5338
  24   2.0000      -0.423858       -11.5338
  25   0.0000       0.024661         0.6711
  26   0.0000       0.033250         0.9048
  27   0.0000       0.033250         0.9048
  28   0.0000       0.040444         1.1005
  29   0.0000       0.053709         1.4615

MULLIKEN ATOMIC CHARGES
-----------------------
   0 C :   -0.977751
   1 C :   -0.977734
   2 C :   -0.977732
   3 C :    1.027362
   4 Cl:   -0.561437
   5 H :    0.283684
   6 H :    0.283686
   7 H :    0.255057
   8 H :    0.283690
   9 H :    0.283677
  10 H :    0.255066
  11 H :    0.283691
  12 H :    0.283674
  13 H :    0.255066
Sum of atomic charges:    0.0000000

LOEWDIN ATOMIC CHARGES
----------------------
   0 C :    0.796371
   1 C :    0.796371
   2 C :    0.796371
   3 C :   -0.895510
   4 Cl:    1.156910
   5 H :   -0.302017
   6 H :   -0.302017
   7 H :   -0.279471
   8 H :   -0.302017
   9 H :   -0.302017
  10 H :   -0.279471
  11 H :   -0.302017
  12 H :   -0.302017
  13 H :   -0.279471

  Mayer bond orders larger than 0.100000
B(  0-C ,  3-C ) :   0.6644 B(  0-C ,  5-H ) :   0.9835 B(  0-C ,  6-H ) :   0.9835
B(  0-C ,  7-H ) :   0.9259 B(  1-C ,  3-C ) :   0.6645 B(  1-C ,  8-H ) :   0.9834
B(  1-C ,  9-H ) :   0.9835 B(  1-C , 10-H ) :   0.9259 B(  2-C ,  3-C ) :   0.6645
B(  2-C , 11-H ) :   0.9834 B(  2-C , 12-H ) :   0.9835 B(  2-C , 13-H ) :   0.9259
B(  3-C ,  4-Cl) :   0.3641

MP2 TOTAL ENERGY:     -617.285473909 Eh
FINAL SINGLE POINT ENERGY      -617.285473909142

DIPOLE MOMENT
-------------
                                X             Y             Z
Electronic contribution:      0.00000      -0.00000       9.67141
Nuclear contribution   :     -0.00000       0.00000     -10.70620
                        -----------------------------------------
Total Dipole Moment    :      0.00000      -0.00000      -1.03479
                        -----------------------------------------
Magnitude (a.u.)       :      1.03479
Magnitude (Debye)      :      2.63024

Rotational constants in cm-1:     0.150992     0.098536     0.098536
Rotational constants in MHz :  4526.614019  2954.031600  2954.031267

                             ****ORCA TERMINATED NORMALLY****
TOTAL RUN TIME: 0 days 0 hours 23 minutes 30 seconds 586 msec
