                         Program Version 5.0.4 -  RELEASE  -
|  1> !ri-mp2 aug-cc-pvqz aug-cc-pvqz/c tightscf
|  2> %pal nprocs 16 end
|  3>
|  4> * xyz 0 1
|  5> F     -2.349093   -0.439318        0.000000
|  6> F      2.398437   -0.465192        0.000000
|  7> O     -0.734830    1.107764        0.000000
|  8> C     -1.057992   -0.187509        0.000000
|  9> C      1.115249   -0.099449        0.000000
| 10> C      0.013570   -1.010677        0.000000
| 11> C      0.647558    1.167846        0.000000
| 12> H      0.028831   -2.084299        0.000001
| 13> H      1.095398    2.141517        0.000000
| 14> *
| 15>
| 16>                          ****END OF INPUT****

CARTESIAN COORDINATES (ANGSTROEM)
---------------------------------
  F     -2.349093   -0.439318    0.000000
  F      2.398437   -0.465192    0.000000
  O     -0.734830    1.107764    0.000000
  C     -1.057992   -0.187509    0.000000
  C      1.115249   -0.099449    0.000000
  C      0.013570   -1.010677    0.000000
  C      0.647558    1.167846    0.000000
  H      0.028831   -2.084299    0.000001
  H      1.095398    2.141517    0.000000

 Total Charge           Charge          ....    0
 Multiplicity           Mult            ....    1
 Number of Electrons    NEL             ....   52
 Basis Dimension        Dim             ....  652

ORBITAL ENERGIES
----------------

  NO   OCC          E(Eh)            E(eV)
   0   2.0000     -26.353027      -717.1023
   1   2.0000     -26.329208      -716.4542
   2   2.0000     -20.654312      -562.0324
   3   2.0000     -11.408555      -310.4426
   4   2.0000     -11.343997      -308.6858
   5   2.0000     -11.301178      -307.5207
   6   2.0000     -11.255084      -306.2664
   7   2.0000      -1.681897       -45.7668
   8   2.0000      -1.647859       -44.8405
   9   2.0000      -1.492837       -40.6222
  10   2.0000      -1.123953       -30.5843
  11   2.0000      -1.032327       -28.0911
  12   2.0000      -0.868407       -23.6305
  13   2.0000      -0.854569       -23.2540
  14   2.0000      -0.805040       -21.9062
  15   2.0000      -0.752340       -20.4722
  16   2.0000      -0.738921       -20.1071
  17   2.0000      -0.717890       -19.5348
  18   2.0000      -0.715409       -19.4673
  19   2.0000      -0.676186       -18.3999
  20   2.0000      -0.651739       -17.7347
  21   2.0000      -0.646339       -17.5878
  22   2.0000      -0.608469       -16.5573
  23   2.0000      -0.563480       -15.3331
  24   2.0000      -0.425486       -11.5781
  25   2.0000      -0.341614        -9.2958
  26   0.0000       0.025965         0.7066
  27   0.0000       0.029995         0.8162
  28   0.0000       0.049136         1.3371
  29   0.0000       0.063814         1.7365
  30   0.0000       0.064175         1.7463

MULLIKEN ATOMIC CHARGES
-----------------------
   0 F :   -0.687269
   1 F :   -0.714130
   2 O :   -0.574832
   3 C :    1.130026
   4 C :    0.773462
   5 C :   -0.720125
   6 C :   -0.271389
   7 H :    0.496994
   8 H :    0.567264
Sum of atomic charges:    0.0000000

LOEWDIN ATOMIC CHARGES
----------------------
   0 F :    0.782371
   1 F :    0.759049
   2 O :    0.797805
   3 C :   -1.106524
   4 C :   -0.777539
   5 C :    0.258282
   6 C :   -0.026003
   7 H :   -0.341068
   8 H :   -0.346373

  Mayer bond orders larger than 0.100000
B(  0-F ,  3-C ) :   0.4815 B(  1-F ,  4-C ) :   0.2810 B(  1-F ,  6-C ) :   0.1120
B(  2-O ,  3-C ) :   0.9329 B(  2-O ,  5-C ) :   0.1637 B(  2-O ,  6-C ) :   0.7979
B(  3-C ,  4-C ) :  -0.3384 B(  3-C ,  5-C ) :   1.7217 B(  4-C ,  5-C ) :   1.2365
B(  4-C ,  6-C ) :   1.7620 B(  5-C ,  7-H ) :   0.6825 B(  6-C ,  8-H ) :   0.6510

MP2 TOTAL ENERGY:     -427.970265096 Eh
FINAL SINGLE POINT ENERGY      -427.970265096015

DIPOLE MOMENT
-------------
                                X             Y             Z
Electronic contribution:     -0.89988      -0.93538      -0.00000
Nuclear contribution   :      0.99853       0.90847       0.00000
                        -----------------------------------------
Total Dipole Moment    :      0.09865      -0.02691       0.00000
                        -----------------------------------------
Magnitude (a.u.)       :      0.10225
Magnitude (Debye)      :      0.25990

Rotational constants in cm-1:     0.257108     0.065489     0.052194
Rotational constants in MHz :  7707.910538  1963.315306  1564.750838

                             ****ORCA TERMINATED NORMALLY****
TOTAL RUN TIME: 0 days 0 hours 12 minutes 5 seconds 880 msec
