                         Program Version 5.0.4 -  RELEASE  -
|  1> !ri-mp2 aug-cc-pvqz aug-cc-pvqz/c tightscf
|  2> %pal nprocs 16 end
|  3> %maxcore 3800
|  4>
|  5> * xyz 0 1
|  6> C      2.531827    0.838284    0.000719
|  7> C     -2.531828    0.838284    0.000727
|  8> C      2.945670   -0.478119    0.001541
|  9> C     -2.945670   -0.478119    0.001498
| 10> C      1.115603    0.798316   -0.000163
| 11> C     -1.115604    0.798316   -0.000047
| 12> C      0.708404   -0.539305    0.000275
| 13> C     -0.708404   -0.539305    0.000396
| 14> N      1.844970   -1.314880    0.000405
| 15> N     -1.844969   -1.314880    0.000310
| 16> N      0.000000    1.623424   -0.012899
| 17> H      3.182514    1.695453    0.001317
| 18> H     -3.182515    1.695453    0.001272
| 19> H      3.941593   -0.883817    0.003112
| 20> H     -3.941593   -0.883818    0.003098
| 21> H      1.888002   -2.315552   -0.003863
| 22> H     -1.887996   -2.315553   -0.003452
| 23> H      0.000005    2.622059    0.054138
| 24> *
| 25>
| 26>                          ****END OF INPUT****

CARTESIAN COORDINATES (ANGSTROEM)
---------------------------------
  C      2.531827    0.838284    0.000719
  C     -2.531828    0.838284    0.000727
  C      2.945670   -0.478119    0.001541
  C     -2.945670   -0.478119    0.001498
  C      1.115603    0.798316   -0.000163
  C     -1.115604    0.798316   -0.000047
  C      0.708404   -0.539305    0.000275
  C     -0.708404   -0.539305    0.000396
  N      1.844970   -1.314880    0.000405
  N     -1.844969   -1.314880    0.000310
  N      0.000000    1.623424   -0.012899
  H      3.182514    1.695453    0.001317
  H     -3.182515    1.695453    0.001272
  H      3.941593   -0.883817    0.003112
  H     -3.941593   -0.883818    0.003098
  H      1.888002   -2.315552   -0.003863
  H     -1.887996   -2.315553   -0.003452
  H      0.000005    2.622059    0.054138

 Total Charge           Charge          ....    0
 Multiplicity           Mult            ....    1
 Number of Electrons    NEL             ....   76
 Basis Dimension        Dim             .... 1202

ORBITAL ENERGIES
----------------

  NO   OCC          E(Eh)            E(eV)
   0   2.0000     -15.596408      -424.3998
   1   2.0000     -15.596407      -424.3998
   2   2.0000     -15.579426      -423.9377
   3   2.0000     -11.253064      -306.2114
   4   2.0000     -11.253063      -306.2114
   5   2.0000     -11.242823      -305.9328
   6   2.0000     -11.241846      -305.9062
   7   2.0000     -11.237918      -305.7993
   8   2.0000     -11.237907      -305.7990
   9   2.0000     -11.211664      -305.0849
  10   2.0000     -11.211664      -305.0849
  11   2.0000      -1.305666       -35.5290
  12   2.0000      -1.274258       -34.6743
  13   2.0000      -1.237554       -33.6756
  14   2.0000      -1.040518       -28.3139
  15   2.0000      -1.021847       -27.8059
  16   2.0000      -1.018854       -27.7244
  17   2.0000      -0.929897       -25.3038
  18   2.0000      -0.817399       -22.2426
  19   2.0000      -0.795450       -21.6453
  20   2.0000      -0.769090       -20.9280
  21   2.0000      -0.760148       -20.6847
  22   2.0000      -0.756841       -20.5947
  23   2.0000      -0.651974       -17.7411
  24   2.0000      -0.641211       -17.4482
  25   2.0000      -0.608681       -16.5631
  26   2.0000      -0.603053       -16.4099
  27   2.0000      -0.582363       -15.8469
  28   2.0000      -0.575804       -15.6684
  29   2.0000      -0.557548       -15.1717
  30   2.0000      -0.549804       -14.9609
  31   2.0000      -0.515072       -14.0158
  32   2.0000      -0.507658       -13.8141
  33   2.0000      -0.500454       -13.6181
  34   2.0000      -0.352833        -9.6011
  35   2.0000      -0.350788        -9.5454
  36   2.0000      -0.285589        -7.7713
  37   2.0000      -0.230213        -6.2644
  38   0.0000       0.019754         0.5375
  39   0.0000       0.026260         0.7146
  40   0.0000       0.028208         0.7676
  41   0.0000       0.037043         1.0080
  42   0.0000       0.038702         1.0531

MULLIKEN ATOMIC CHARGES
-----------------------
   0 C :   -0.228884
   1 C :   -0.228770
   2 C :   -0.636566
   3 C :   -0.636690
   4 C :    0.135866
   5 C :    0.135661
   6 C :    0.758019
   7 C :    0.758257
   8 N :   -0.641202
   9 N :   -0.641127
  10 N :   -0.661765
  11 H :    0.305031
  12 H :    0.305144
  13 H :    0.426877
  14 H :    0.426613
  15 H :    0.139550
  16 H :    0.139589
  17 H :    0.144397
Sum of atomic charges:    0.0000000

LOEWDIN ATOMIC CHARGES
----------------------
   0 C :    0.372645
   1 C :    0.372645
   2 C :    0.207621
   3 C :    0.207621
   4 C :   -0.294639
   5 C :   -0.294638
   6 C :   -0.227572
   7 C :   -0.227573
   8 N :    0.834180
   9 N :    0.834181
  10 N :    0.882998
  11 H :   -0.333135
  12 H :   -0.333135
  13 H :   -0.314333
  14 H :   -0.314333
  15 H :   -0.456886
  16 H :   -0.456888
  17 H :   -0.458759

  Mayer bond orders larger than 0.100000
B(  0-C ,  2-C ) :   1.6019 B(  0-C ,  4-C ) :   1.0896 B(  0-C ,  6-C ) :  -0.3550
B(  0-C , 10-N ) :  -0.1856 B(  0-C , 11-H ) :   1.0140 B(  1-C ,  3-C ) :   1.6016
B(  1-C ,  5-C ) :   1.0898 B(  1-C ,  7-C ) :  -0.3548 B(  1-C , 10-N ) :  -0.1854
B(  1-C , 12-H ) :   1.0138 B(  2-C ,  6-C ) :  -0.2111 B(  2-C ,  8-N ) :   1.1376
B(  2-C , 13-H ) :   0.8932 B(  3-C ,  7-C ) :  -0.2115 B(  3-C ,  9-N ) :   1.1378
B(  3-C , 14-H ) :   0.8936 B(  4-C ,  6-C ) :   1.2573 B(  4-C ,  7-C ) :  -0.4978
B(  4-C , 10-N ) :   0.9538 B(  5-C ,  6-C ) :  -0.4973 B(  5-C ,  7-C ) :   1.2570
B(  5-C , 10-N ) :   0.9540 B(  6-C ,  7-C ) :   1.0953 B(  6-C ,  8-N ) :   0.6470
B(  6-C ,  9-N ) :  -0.1106 B(  6-C , 15-H ) :  -0.1152 B(  7-C ,  8-N ) :  -0.1104
B(  7-C ,  9-N ) :   0.6469 B(  7-C , 16-H ) :  -0.1151 B(  8-N , 15-H ) :   1.1429
B(  9-N , 16-H ) :   1.1428 B( 10-N , 17-H ) :   1.1682

MP2 TOTAL ENERGY:     -472.501327367 Eh
FINAL SINGLE POINT ENERGY      -472.501327366720

DIPOLE MOMENT
-------------
                                X             Y             Z
Electronic contribution:     -0.00000      -0.31181      -0.01917
Nuclear contribution   :      0.00001      -0.38512       0.05462
                        -----------------------------------------
Total Dipole Moment    :      0.00001      -0.69693       0.03545
                        -----------------------------------------
Magnitude (a.u.)       :      0.69783
Magnitude (Debye)      :      1.77375

Rotational constants in cm-1:     0.108667     0.030175     0.023617
Rotational constants in MHz :  3257.753039   904.622599   708.028412

                             ****ORCA TERMINATED NORMALLY****
TOTAL RUN TIME: 0 days 1 hours 14 minutes 2 seconds 959 msec
