                         Program Version 5.0.4 -  RELEASE  -
|  1> !ri-mp2 aug-cc-pvqz aug-cc-pvqz/c tightscf
|  2> %pal nprocs 16 end
|  3>
|  4> * xyz 0 1
|  5> C      0.000000    0.000000    0.410032
|  6> C      0.000000    1.303082    0.410018
|  7> C      0.000000   -1.303082    0.410018
|  8> C     -0.871882    2.172515   -0.457285
|  9> C      0.871882   -2.172515   -0.457285
| 10> H      0.676863    1.817656    1.088068
| 11> H     -0.676863   -1.817656    1.088068
| 12> H     -1.504967    2.819715    0.154671
| 13> H     -0.264433    2.825078   -1.089145
| 14> H     -1.514184    1.573281   -1.100088
| 15> H      1.504967   -2.819715    0.154671
| 16> H      0.264433   -2.825078   -1.089145
| 17> H      1.514184   -1.573281   -1.100088
| 18> *
| 19>
| 20>                          ****END OF INPUT****

CARTESIAN COORDINATES (ANGSTROEM)
---------------------------------
  C      0.000000    0.000000    0.410032
  C      0.000000    1.303082    0.410018
  C      0.000000   -1.303082    0.410018
  C     -0.871882    2.172515   -0.457285
  C      0.871882   -2.172515   -0.457285
  H      0.676863    1.817656    1.088068
  H     -0.676863   -1.817656    1.088068
  H     -1.504967    2.819715    0.154671
  H     -0.264433    2.825078   -1.089145
  H     -1.514184    1.573281   -1.100088
  H      1.504967   -2.819715    0.154671
  H      0.264433   -2.825078   -1.089145
  H      1.514184   -1.573281   -1.100088

 Total Charge           Charge          ....    0
 Multiplicity           Mult            ....    1
 Number of Electrons    NEL             ....   38
 Basis Dimension        Dim             ....  768

ORBITAL ENERGIES
----------------

  NO   OCC          E(Eh)            E(eV)
   0   2.0000     -11.236122      -305.7504
   1   2.0000     -11.233527      -305.6798
   2   2.0000     -11.232733      -305.6582
   3   2.0000     -11.222922      -305.3912
   4   2.0000     -11.222921      -305.3912
   5   2.0000      -1.090392       -29.6711
   6   2.0000      -1.027444       -27.9582
   7   2.0000      -0.931750       -25.3542
   8   2.0000      -0.860953       -23.4277
   9   2.0000      -0.692149       -18.8343
  10   2.0000      -0.644449       -17.5363
  11   2.0000      -0.581876       -15.8337
  12   2.0000      -0.573449       -15.6043
  13   2.0000      -0.563244       -15.3267
  14   2.0000      -0.556731       -15.1494
  15   2.0000      -0.526120       -14.3164
  16   2.0000      -0.519927       -14.1479
  17   2.0000      -0.354596        -9.6491
  18   2.0000      -0.354427        -9.6444
  19   0.0000       0.026782         0.7288
  20   0.0000       0.031034         0.8445
  21   0.0000       0.035344         0.9618
  22   0.0000       0.035499         0.9660
  23   0.0000       0.049146         1.3373

MULLIKEN ATOMIC CHARGES
-----------------------
   0 C :   -0.041441
   1 C :   -0.357749
   2 C :   -0.357749
   3 C :   -0.772012
   4 C :   -0.772012
   5 H :    0.403441
   6 H :    0.403441
   7 H :    0.248215
   8 H :    0.234314
   9 H :    0.264512
  10 H :    0.248215
  11 H :    0.234314
  12 H :    0.264512
Sum of atomic charges:   -0.0000000

LOEWDIN ATOMIC CHARGES
----------------------
   0 C :    0.211636
   1 C :    0.310077
   2 C :    0.310077
   3 C :    0.863847
   4 C :    0.863847
   5 H :   -0.360159
   6 H :   -0.360159
   7 H :   -0.302224
   8 H :   -0.302053
   9 H :   -0.315305
  10 H :   -0.302224
  11 H :   -0.302053
  12 H :   -0.315305

  Mayer bond orders larger than 0.100000
B(  0-C ,  1-C ) :   1.9086 B(  0-C ,  2-C ) :   1.9086 B(  1-C ,  2-C ) :  -0.3065
B(  1-C ,  3-C ) :   0.9926 B(  1-C ,  5-H ) :   0.7503 B(  2-C ,  4-C ) :   0.9926
B(  2-C ,  6-H ) :   0.7503 B(  3-C ,  7-H ) :   0.9665 B(  3-C ,  8-H ) :   0.9631
B(  3-C ,  9-H ) :   0.9252 B(  4-C , 10-H ) :   0.9665 B(  4-C , 11-H ) :   0.9631
B(  4-C , 12-H ) :   0.9252

MP2 TOTAL ENERGY:     -194.902040282 Eh
FINAL SINGLE POINT ENERGY      -194.902040282390

DIPOLE MOMENT
-------------
                                X             Y             Z
Electronic contribution:      0.00000       0.00000       1.89404
Nuclear contribution   :      0.00000      -0.00000      -1.98324
                        -----------------------------------------
Total Dipole Moment    :      0.00000       0.00000      -0.08920
                        -----------------------------------------
Magnitude (a.u.)       :      0.08920
Magnitude (Debye)      :      0.22672

Rotational constants in cm-1:     0.582889     0.074442     0.072004
Rotational constants in MHz : 17474.576992  2231.723176  2158.613742

                             ****ORCA TERMINATED NORMALLY****
TOTAL RUN TIME: 0 days 0 hours 15 minutes 44 seconds 824 msec
