                         Program Version 5.0.4 -  RELEASE  -
|  1> !ri-mp2 aug-cc-pvqz aug-cc-pvqz/c tightscf
|  2> %pal nprocs 16 end
|  3>
|  4> * xyz 0 1
|  5> S    -0.810277   -1.201087   -0.200139
|  6> S     1.913381   -0.044710    0.323269
|  7> N     0.443660   -0.088164   -0.739013
|  8> N    -0.252291    1.168391   -0.769326
|  9> C    -1.623704    0.083578    0.709655
| 10> C    -1.186766    1.266178    0.270196
| 11> H     1.326453    0.217777    1.515056
| 12> H     0.406206    1.926467   -0.878431
| 13> H    -2.353808   -0.114528    1.473493
| 14> H    -1.505287    2.242921    0.599065
| 15> *
| 16>
| 17>                          ****END OF INPUT****

CARTESIAN COORDINATES (ANGSTROEM)
---------------------------------
  S     -0.810277   -1.201087   -0.200139
  S      1.913381   -0.044710    0.323269
  N      0.443660   -0.088164   -0.739013
  N     -0.252291    1.168391   -0.769326
  C     -1.623704    0.083578    0.709655
  C     -1.186766    1.266178    0.270196
  H      1.326453    0.217777    1.515056
  H      0.406206    1.926467   -0.878431
  H     -2.353808   -0.114528    1.473493
  H     -1.505287    2.242921    0.599065

 Total Charge           Charge          ....    0
 Multiplicity           Mult            ....    1
 Number of Electrons    NEL             ....   62
 Basis Dimension        Dim             ....  672

ORBITAL ENERGIES
----------------

  NO   OCC          E(Eh)            E(eV)
   0   2.0000     -91.994006     -2503.2842
   1   2.0000     -91.986089     -2503.0687
   2   2.0000     -15.657321      -426.0574
   3   2.0000     -15.617462      -424.9727
   4   2.0000     -11.289036      -307.1903
   5   2.0000     -11.260885      -306.4243
   6   2.0000      -8.992509      -244.6986
   7   2.0000      -8.985335      -244.5034
   8   2.0000      -6.673762      -181.6023
   9   2.0000      -6.672795      -181.5760
  10   2.0000      -6.671583      -181.5430
  11   2.0000      -6.666526      -181.4054
  12   2.0000      -6.665403      -181.3748
  13   2.0000      -6.664487      -181.3499
  14   2.0000      -1.339963       -36.4622
  15   2.0000      -1.113387       -30.2968
  16   2.0000      -1.072164       -29.1751
  17   2.0000      -0.957755       -26.0618
  18   2.0000      -0.839742       -22.8505
  19   2.0000      -0.800511       -21.7830
  20   2.0000      -0.735612       -20.0170
  21   2.0000      -0.627807       -17.0835
  22   2.0000      -0.619669       -16.8620
  23   2.0000      -0.600970       -16.3532
  24   2.0000      -0.574043       -15.6205
  25   2.0000      -0.492126       -13.3914
  26   2.0000      -0.474234       -12.9046
  27   2.0000      -0.435404       -11.8479
  28   2.0000      -0.427250       -11.6261
  29   2.0000      -0.373290       -10.1577
  30   2.0000      -0.300326        -8.1723
  31   0.0000       0.021237         0.5779
  32   0.0000       0.030452         0.8286
  33   0.0000       0.037863         1.0303
  34   0.0000       0.044165         1.2018
  35   0.0000       0.059818         1.6277

MULLIKEN ATOMIC CHARGES
-----------------------
   0 S :    0.292474
   1 S :   -0.015225
   2 N :   -0.450148
   3 N :   -0.310879
   4 C :   -0.671295
   5 C :   -0.197834
   6 H :    0.111125
   7 H :    0.310381
   8 H :    0.431496
   9 H :    0.499906
Sum of atomic charges:   -0.0000000

LOEWDIN ATOMIC CHARGES
----------------------
   0 S :    0.995462
   1 S :    1.305485
   2 N :   -0.521145
   3 N :    0.456712
   4 C :   -0.101378
   5 C :   -0.002069
   6 H :   -0.804161
   7 H :   -0.589610
   8 H :   -0.418767
   9 H :   -0.320527

  Mayer bond orders larger than 0.100000
B(  0-S ,  2-N ) :   0.8051 B(  0-S ,  4-C ) :   1.0352 B(  1-S ,  2-N ) :   0.9382
B(  1-S ,  6-H ) :   0.9611 B(  2-N ,  3-N ) :   0.7854 B(  3-N ,  5-C ) :   1.0361
B(  3-N ,  7-H ) :   0.8658 B(  4-C ,  5-C ) :   1.6376 B(  4-C ,  8-H ) :   0.8222
B(  5-C ,  9-H ) :   0.7768

MP2 TOTAL ENERGY:     -983.200975045 Eh
FINAL SINGLE POINT ENERGY      -983.200975045161

DIPOLE MOMENT
-------------
                                X             Y             Z
Electronic contribution:      1.71836      -3.26191      -1.77538
Nuclear contribution   :     -2.09202       4.18280       2.61245
                        -----------------------------------------
Total Dipole Moment    :     -0.37366       0.92089       0.83707
                        -----------------------------------------
Magnitude (a.u.)       :      1.29936
Magnitude (Debye)      :      3.30272

Rotational constants in cm-1:     0.133159     0.072181     0.057325
Rotational constants in MHz :  3991.992227  2163.925039  1718.550331

                             ****ORCA TERMINATED NORMALLY****
TOTAL RUN TIME: 0 days 0 hours 17 minutes 5 seconds 190 msec
