                         Program Version 5.0.4 -  RELEASE  -
|  1> !ri-mp2 aug-cc-pvqz aug-cc-pvqz/c tightscf
|  2> %pal nprocs 16 end
|  3>
|  4> * xyz 0 1
|  5> C      1.587197   -0.663411    0.266045
|  6> C      1.587197    0.663411    0.266045
|  7> C      0.353161   -1.327115   -0.256480
|  8> C      0.353161    1.327115   -0.256480
|  9> O     -1.726065    0.000000    0.869953
| 10> S     -0.946541    0.000000   -0.417329
| 11> H      2.420926   -1.255926    0.620455
| 12> H      2.420926    1.255926    0.620455
| 13> H      0.494961   -1.789128   -1.236410
| 14> H     -0.081439   -2.065993    0.417387
| 15> H     -0.081439    2.065993    0.417387
| 16> H      0.494961    1.789128   -1.236410
| 17> *
| 18>
| 19>                          ****END OF INPUT****

CARTESIAN COORDINATES (ANGSTROEM)
---------------------------------
  C      1.587197   -0.663411    0.266045
  C      1.587197    0.663411    0.266045
  C      0.353161   -1.327115   -0.256480
  C      0.353161    1.327115   -0.256480
  O     -1.726065    0.000000    0.869953
  S     -0.946541    0.000000   -0.417329
  H      2.420926   -1.255926    0.620455
  H      2.420926    1.255926    0.620455
  H      0.494961   -1.789128   -1.236410
  H     -0.081439   -2.065993    0.417387
  H     -0.081439    2.065993    0.417387
  H      0.494961    1.789128   -1.236410

 Total Charge           Charge          ....    0
 Multiplicity           Mult            ....    1
 Number of Electrons    NEL             ....   54
 Basis Dimension        Dim             ....  760

ORBITAL ENERGIES
----------------

  NO   OCC          E(Eh)            E(eV)
   0   2.0000     -92.065090     -2505.2185
   1   2.0000     -20.501946      -557.8863
   2   2.0000     -11.271435      -306.7113
   3   2.0000     -11.271421      -306.7110
   4   2.0000     -11.254994      -306.2640
   5   2.0000     -11.253201      -306.2152
   6   2.0000      -9.052187      -246.3225
   7   2.0000      -6.734071      -183.2434
   8   2.0000      -6.733798      -183.2359
   9   2.0000      -6.732588      -183.2030
  10   2.0000      -1.327885       -36.1336
  11   2.0000      -1.142945       -31.1011
  12   2.0000      -1.002889       -27.2900
  13   2.0000      -0.975595       -26.5473
  14   2.0000      -0.810289       -22.0491
  15   2.0000      -0.763876       -20.7861
  16   2.0000      -0.692653       -18.8480
  17   2.0000      -0.642146       -17.4737
  18   2.0000      -0.609591       -16.5878
  19   2.0000      -0.578545       -15.7430
  20   2.0000      -0.562825       -15.3152
  21   2.0000      -0.549076       -14.9411
  22   2.0000      -0.534779       -14.5521
  23   2.0000      -0.519596       -14.1389
  24   2.0000      -0.408735       -11.1222
  25   2.0000      -0.379813       -10.3352
  26   2.0000      -0.368142       -10.0177
  27   0.0000       0.020807         0.5662
  28   0.0000       0.028284         0.7696
  29   0.0000       0.031127         0.8470
  30   0.0000       0.042960         1.1690
  31   0.0000       0.043447         1.1823

MULLIKEN ATOMIC CHARGES
-----------------------
   0 C :   -0.418942
   1 C :   -0.418942
   2 C :   -0.581456
   3 C :   -0.581456
   4 O :   -1.156505
   5 S :    1.074604
   6 H :    0.438088
   7 H :    0.438088
   8 H :    0.283663
   9 H :    0.319597
  10 H :    0.319597
  11 H :    0.283663
Sum of atomic charges:   -0.0000000

LOEWDIN ATOMIC CHARGES
----------------------
   0 C :    0.316516
   1 C :    0.316516
   2 C :    0.315424
   3 C :    0.315424
   4 O :    0.058367
   5 S :    0.701644
   6 H :   -0.312559
   7 H :   -0.312559
   8 H :   -0.342612
   9 H :   -0.356775
  10 H :   -0.356775
  11 H :   -0.342612

  Mayer bond orders larger than 0.100000
B(  0-C ,  1-C ) :   1.6863 B(  0-C ,  2-C ) :   0.9081 B(  0-C ,  6-H ) :   0.8056
B(  1-C ,  3-C ) :   0.9081 B(  1-C ,  7-H ) :   0.8056 B(  2-C ,  5-S ) :   0.8961
B(  2-C ,  8-H ) :   0.8986 B(  2-C ,  9-H ) :   0.8952 B(  3-C ,  5-S ) :   0.8961
B(  3-C , 10-H ) :   0.8952 B(  3-C , 11-H ) :   0.8986 B(  4-O ,  5-S ) :   1.2258

MP2 TOTAL ENERGY:     -628.573563032 Eh
FINAL SINGLE POINT ENERGY      -628.573563032121

DIPOLE MOMENT
-------------
                                X             Y             Z
Electronic contribution:     -4.04388      -0.00000      -0.55157
Nuclear contribution   :      5.63008       0.00000      -0.36788
                        -----------------------------------------
Total Dipole Moment    :      1.58621      -0.00000      -0.91945
                        -----------------------------------------
Magnitude (a.u.)       :      1.83342
Magnitude (Debye)      :      4.66019

Rotational constants in cm-1:     0.175094     0.095190     0.075577
Rotational constants in MHz :  5249.177546  2853.734958  2265.727977

                             ****ORCA TERMINATED NORMALLY****
TOTAL RUN TIME: 0 days 0 hours 21 minutes 20 seconds 756 msec
