                         Program Version 5.0.4 -  RELEASE  -
|  1> !ri-mp2 aug-cc-pvqz aug-cc-pvqz/c tightscf
|  2> %pal nprocs 16 end
|  3>
|  4> * xyz 0 1
|  5> C      0.997463    1.325679    0.022163
|  6> H      0.373584    1.884891   -0.678759
|  7> H      2.034359    1.430874   -0.293345
|  8> H      0.884792    1.810232    0.996291
|  9> C     -1.914097    0.084632   -0.392799
| 10> H     -1.882388    1.165754   -0.529981
| 11> H     -2.902148   -0.167486   -0.005719
| 12> H     -1.807245   -0.381100   -1.373424
| 13> C     -0.819378   -0.403315    0.566621
| 14> H     -0.933041   -1.477083    0.723891
| 15> H     -0.969525    0.073773    1.541238
| 16> C      0.586621   -0.119984    0.095100
| 17> C      1.423162   -1.102883   -0.231347
| 18> H      1.127074   -2.142429   -0.169432
| 19> H      2.431914   -0.902201   -0.569192
| 20> *
| 21>
| 22>                          ****END OF INPUT****

CARTESIAN COORDINATES (ANGSTROEM)
---------------------------------
  C      0.997463    1.325679    0.022163
  H      0.373584    1.884891   -0.678759
  H      2.034359    1.430874   -0.293345
  H      0.884792    1.810232    0.996291
  C     -1.914097    0.084632   -0.392799
  H     -1.882388    1.165754   -0.529981
  H     -2.902148   -0.167486   -0.005719
  H     -1.807245   -0.381100   -1.373424
  C     -0.819378   -0.403315    0.566621
  H     -0.933041   -1.477083    0.723891
  H     -0.969525    0.073773    1.541238
  C      0.586621   -0.119984    0.095100
  C      1.423162   -1.102883   -0.231347
  H      1.127074   -2.142429   -0.169432
  H      2.431914   -0.902201   -0.569192

 Total Charge           Charge          ....    0
 Multiplicity           Mult            ....    1
 Number of Electrons    NEL             ....   40
 Basis Dimension        Dim             ....  860

ORBITAL ENERGIES
----------------

  NO   OCC          E(Eh)            E(eV)
   0   2.0000     -11.234097      -305.6953
   1   2.0000     -11.222618      -305.3830
   2   2.0000     -11.216952      -305.2288
   3   2.0000     -11.213714      -305.1407
   4   2.0000     -11.206241      -304.9373
   5   2.0000      -1.097357       -29.8606
   6   2.0000      -0.998295       -27.1650
   7   2.0000      -0.931740       -25.3539
   8   2.0000      -0.854070       -23.2404
   9   2.0000      -0.715401       -19.4670
  10   2.0000      -0.627649       -17.0792
  11   2.0000      -0.625903       -17.0317
  12   2.0000      -0.583990       -15.8912
  13   2.0000      -0.564897       -15.3716
  14   2.0000      -0.542037       -14.7496
  15   2.0000      -0.515399       -14.0247
  16   2.0000      -0.510248       -13.8846
  17   2.0000      -0.481562       -13.1040
  18   2.0000      -0.464129       -12.6296
  19   2.0000      -0.346730        -9.4350
  20   0.0000       0.027315         0.7433
  21   0.0000       0.031786         0.8649
  22   0.0000       0.033210         0.9037
  23   0.0000       0.037120         1.0101
  24   0.0000       0.047333         1.2880

MULLIKEN ATOMIC CHARGES
-----------------------
   0 C :   -0.759429
   1 H :    0.240918
   2 H :    0.277381
   3 H :    0.246308
   4 C :   -0.887600
   5 H :    0.230229
   6 H :    0.312719
   7 H :    0.252144
   8 C :   -0.286506
   9 H :    0.242494
  10 H :    0.241971
  11 C :    0.283329
  12 C :   -0.906086
  13 H :    0.223776
  14 H :    0.288352
Sum of atomic charges:   -0.0000000

LOEWDIN ATOMIC CHARGES
----------------------
   0 C :    0.889196
   1 H :   -0.294678
   2 H :   -0.308910
   3 H :   -0.279843
   4 C :    0.926604
   5 H :   -0.297286
   6 H :   -0.282009
   7 H :   -0.278280
   8 C :    0.471669
   9 H :   -0.311232
  10 H :   -0.279383
  11 C :   -0.055965
  12 C :    0.802795
  13 H :   -0.350556
  14 H :   -0.352124

  Mayer bond orders larger than 0.100000
B(  0-C ,  1-H ) :   0.9899 B(  0-C ,  2-H ) :   0.9843 B(  0-C ,  3-H ) :   0.9755
B(  0-C , 11-C ) :   0.7041 B(  4-C ,  5-H ) :   0.9451 B(  4-C ,  6-H ) :   0.9322
B(  4-C ,  7-H ) :   0.9405 B(  4-C ,  8-C ) :   1.0166 B(  8-C ,  9-H ) :   0.9518
B(  8-C , 10-H ) :   0.9060 B(  8-C , 11-C ) :   0.7116 B( 11-C , 12-C ) :   1.5549
B( 11-C , 13-H ) :  -0.1013 B( 12-C , 13-H ) :   1.0899 B( 12-C , 14-H ) :   1.0255

MP2 TOTAL ENERGY:     -196.146270712 Eh
FINAL SINGLE POINT ENERGY      -196.146270712000

DIPOLE MOMENT
-------------
                                X             Y             Z
Electronic contribution:      1.60204      -1.23039       0.43835
Nuclear contribution   :     -1.75945       1.38734      -0.38392
                        -----------------------------------------
Total Dipole Moment    :     -0.15741       0.15695       0.05443
                        -----------------------------------------
Magnitude (a.u.)       :      0.22885
Magnitude (Debye)      :      0.58169

Rotational constants in cm-1:     0.242488     0.124452     0.094697
Rotational constants in MHz :  7269.612822  3730.987331  2838.948515

                             ****ORCA TERMINATED NORMALLY****
TOTAL RUN TIME: 0 days 0 hours 25 minutes 30 seconds 583 msec
