                         Program Version 5.0.4 -  RELEASE  -
|  1> !ri-mp2 aug-cc-pvqz aug-cc-pvqz/c tightscf
|  2> %pal nprocs 16 end
|  3>
|  4> * xyz 0 1
|  5> C      1.914502   -1.078827   -0.104407
|  6> C      1.061527    0.128342   -0.489304
|  7> C      1.601028    1.440504    0.068529
|  8> S     -0.649449   -0.198934    0.095737
|  9> C     -1.646361    1.149604   -0.566671
| 10> O     -1.109835   -1.428241   -0.547411
| 11> O     -0.671628   -0.094970    1.553917
| 12> H      1.500968   -2.001807   -0.504676
| 13> H      2.919668   -0.945747   -0.505540
| 14> H      1.988659   -1.170348    0.978888
| 15> H      0.955561    0.177066   -1.574814
| 16> H      2.625979    1.581977   -0.276903
| 17> H      1.023346    2.303886   -0.259803
| 18> H      1.607003    1.421611    1.157570
| 19> H     -1.554403    1.165975   -1.649467
| 20> H     -2.667243    0.908253   -0.279320
| 21> H     -1.340836    2.090018   -0.118649
| 22> *
| 23>
| 24>                          ****END OF INPUT****

CARTESIAN COORDINATES (ANGSTROEM)
---------------------------------
  C      1.914502   -1.078827   -0.104407
  C      1.061527    0.128342   -0.489304
  C      1.601028    1.440504    0.068529
  S     -0.649449   -0.198934    0.095737
  C     -1.646361    1.149604   -0.566671
  O     -1.109835   -1.428241   -0.547411
  O     -0.671628   -0.094970    1.553917
  H      1.500968   -2.001807   -0.504676
  H      2.919668   -0.945747   -0.505540
  H      1.988659   -1.170348    0.978888
  H      0.955561    0.177066   -1.574814
  H      2.625979    1.581977   -0.276903
  H      1.023346    2.303886   -0.259803
  H      1.607003    1.421611    1.157570
  H     -1.554403    1.165975   -1.649467
  H     -2.667243    0.908253   -0.279320
  H     -1.340836    2.090018   -0.118649

 Total Charge           Charge          ....    0
 Multiplicity           Mult            ....    1
 Number of Electrons    NEL             ....   66
 Basis Dimension        Dim             .... 1024

ORBITAL ENERGIES
----------------

  NO   OCC          E(Eh)            E(eV)
   0   2.0000     -92.163743     -2507.9030
   1   2.0000     -20.535166      -558.7903
   2   2.0000     -20.534476      -558.7715
   3   2.0000     -11.285110      -307.0835
   4   2.0000     -11.273877      -306.7778
   5   2.0000     -11.243448      -305.9498
   6   2.0000     -11.234108      -305.6956
   7   2.0000      -9.134213      -248.5546
   8   2.0000      -6.819369      -185.5645
   9   2.0000      -6.818721      -185.5468
  10   2.0000      -6.818386      -185.5377
  11   2.0000      -1.432936       -38.9922
  12   2.0000      -1.322599       -35.9898
  13   2.0000      -1.109889       -30.2016
  14   2.0000      -1.033780       -28.1306
  15   2.0000      -0.960505       -26.1367
  16   2.0000      -0.886229       -24.1155
  17   2.0000      -0.780763       -21.2456
  18   2.0000      -0.694283       -18.8924
  19   2.0000      -0.659356       -17.9420
  20   2.0000      -0.653065       -17.7708
  21   2.0000      -0.640057       -17.4168
  22   2.0000      -0.606822       -16.5125
  23   2.0000      -0.595983       -16.2175
  24   2.0000      -0.585673       -15.9370
  25   2.0000      -0.563012       -15.3203
  26   2.0000      -0.555480       -15.1154
  27   2.0000      -0.516585       -14.0570
  28   2.0000      -0.515587       -14.0298
  29   2.0000      -0.487800       -13.2737
  30   2.0000      -0.481815       -13.1109
  31   2.0000      -0.461196       -12.5498
  32   2.0000      -0.422978       -11.5098
  33   0.0000       0.018583         0.5057
  34   0.0000       0.027068         0.7366
  35   0.0000       0.031609         0.8601
  36   0.0000       0.036163         0.9840
  37   0.0000       0.046155         1.2559

MULLIKEN ATOMIC CHARGES
-----------------------
   0 C :   -0.963446
   1 C :    0.150291
   2 C :   -0.958173
   3 S :    2.456152
   4 C :   -1.008551
   5 O :   -1.370693
   6 O :   -1.324673
   7 H :    0.292656
   8 H :    0.281076
   9 H :    0.238355
  10 H :    0.320951
  11 H :    0.299394
  12 H :    0.253495
  13 H :    0.261921
  14 H :    0.318131
  15 H :    0.400514
  16 H :    0.352601
Sum of atomic charges:   -0.0000000

LOEWDIN ATOMIC CHARGES
----------------------
   0 C :    0.878893
   1 C :    0.001811
   2 C :    0.884803
   3 S :   -0.188970
   4 C :    0.838833
   5 O :    0.311168
   6 O :    0.310345
   7 H :   -0.299417
   8 H :   -0.276668
   9 H :   -0.284570
  10 H :   -0.323601
  11 H :   -0.275260
  12 H :   -0.295609
  13 H :   -0.290649
  14 H :   -0.320677
  15 H :   -0.333436
  16 H :   -0.336995

  Mayer bond orders larger than 0.100000
B(  0-C ,  1-C ) :   0.6101 B(  0-C ,  2-C ) :   0.1016 B(  0-C ,  7-H ) :   0.9663
B(  0-C ,  8-H ) :   0.9825 B(  0-C ,  9-H ) :   0.9742 B(  1-C ,  2-C ) :   0.7309
B(  1-C ,  3-S ) :   0.8448 B(  1-C ,  6-O ) :  -0.1072 B(  1-C , 10-H ) :   0.8953
B(  2-C , 11-H ) :   0.9510 B(  2-C , 12-H ) :   0.9954 B(  2-C , 13-H ) :   0.9500
B(  3-S ,  4-C ) :   0.9168 B(  3-S ,  5-O ) :   0.8351 B(  3-S ,  6-O ) :   0.8257
B(  4-C , 14-H ) :   0.8968 B(  4-C , 15-H ) :   0.8358 B(  4-C , 16-H ) :   0.8922

MP2 TOTAL ENERGY:     -706.165464890 Eh
FINAL SINGLE POINT ENERGY      -706.165464889663

DIPOLE MOMENT
-------------
                                X             Y             Z
Electronic contribution:     -6.30786      -4.05792       1.97937
Nuclear contribution   :      7.15285       5.59291      -3.06357
                        -----------------------------------------
Total Dipole Moment    :      0.84498       1.53500      -1.08420
                        -----------------------------------------
Magnitude (a.u.)       :      2.06051
Magnitude (Debye)      :      5.23740

Rotational constants in cm-1:     0.099101     0.065358     0.054291
Rotational constants in MHz :  2970.984282  1959.376335  1627.613595

                             ****ORCA TERMINATED NORMALLY****
TOTAL RUN TIME: 0 days 0 hours 48 minutes 50 seconds 752 msec
