                         Program Version 5.0.4 -  RELEASE  -
|  1> !ri-mp2 aug-cc-pvqz aug-cc-pvqz/c tightscf
|  2> %pal nprocs 16 end
|  3>
|  4> * xyz 0 1
|  5> C      0.000000    0.000000    0.600514
|  6> C      0.000000    0.000000   -0.600514
|  7> C      0.000000    0.000000    2.057156
|  8> C      0.000000    0.000000   -2.057156
|  9> H      0.037656    1.017156    2.451360
| 10> H     -0.899710   -0.475967    2.451360
| 11> H      0.862055   -0.541189    2.451360
| 12> H      0.899710   -0.475967   -2.451360
| 13> H     -0.037656    1.017156   -2.451360
| 14> H     -0.862055   -0.541189   -2.451360
| 15> *
| 16>
| 17>                          ****END OF INPUT****

CARTESIAN COORDINATES (ANGSTROEM)
---------------------------------
  C      0.000000    0.000000    0.600514
  C      0.000000    0.000000   -0.600514
  C      0.000000    0.000000    2.057156
  C      0.000000    0.000000   -2.057156
  H      0.037656    1.017156    2.451360
  H     -0.899710   -0.475967    2.451360
  H      0.862055   -0.541189    2.451360
  H      0.899710   -0.475967   -2.451360
  H     -0.037656    1.017156   -2.451360
  H     -0.862055   -0.541189   -2.451360

 Total Charge           Charge          ....    0
 Multiplicity           Mult            ....    1
 Number of Electrons    NEL             ....   30
 Basis Dimension        Dim             ....  596

ORBITAL ENERGIES
----------------

  NO   OCC          E(Eh)            E(eV)
   0   2.0000     -11.240132      -305.8595
   1   2.0000     -11.240131      -305.8595
   2   2.0000     -11.215194      -305.1809
   3   2.0000     -11.211331      -305.0758
   4   2.0000      -1.062210       -28.9042
   5   2.0000      -1.001889       -27.2628
   6   2.0000      -0.915559       -24.9136
   7   2.0000      -0.653645       -17.7866
   8   2.0000      -0.598052       -16.2738
   9   2.0000      -0.590417       -16.0661
  10   2.0000      -0.590417       -16.0661
  11   2.0000      -0.573150       -15.5962
  12   2.0000      -0.573150       -15.5962
  13   2.0000      -0.362739        -9.8706
  14   2.0000      -0.362739        -9.8706
  15   0.0000       0.026265         0.7147
  16   0.0000       0.029009         0.7894
  17   0.0000       0.041428         1.1273
  18   0.0000       0.041428         1.1273
  19   0.0000       0.053234         1.4486

MULLIKEN ATOMIC CHARGES
-----------------------
   0 C :   -0.072943
   1 C :   -0.072943
   2 C :   -0.549932
   3 C :   -0.549932
   4 H :    0.207625
   5 H :    0.207625
   6 H :    0.207625
   7 H :    0.207625
   8 H :    0.207625
   9 H :    0.207625
Sum of atomic charges:    0.0000000

LOEWDIN ATOMIC CHARGES
----------------------
   0 C :    0.144351
   1 C :    0.144351
   2 C :    0.820616
   3 C :    0.820616
   4 H :   -0.321655
   5 H :   -0.321656
   6 H :   -0.321655
   7 H :   -0.321656
   8 H :   -0.321655
   9 H :   -0.321655

  Mayer bond orders larger than 0.100000
B(  0-C ,  1-C ) :   2.9597 B(  0-C ,  2-C ) :   0.6542 B(  1-C ,  3-C ) :   0.6542
B(  2-C ,  4-H ) :   1.0154 B(  2-C ,  5-H ) :   1.0154 B(  2-C ,  6-H ) :   1.0154
B(  3-C ,  7-H ) :   1.0154 B(  3-C ,  8-H ) :   1.0154 B(  3-C ,  9-H ) :   1.0154

MP2 TOTAL ENERGY:     -155.674194317 Eh
FINAL SINGLE POINT ENERGY      -155.674194317366

DIPOLE MOMENT
-------------
                                X             Y             Z
Electronic contribution:      0.00000      -0.00000       0.00000
Nuclear contribution   :      0.00000       0.00000       0.00000
                        -----------------------------------------
Total Dipole Moment    :      0.00000      -0.00000       0.00000
                        -----------------------------------------
Magnitude (a.u.)       :      0.00000
Magnitude (Debye)      :      0.00000

Rotational constants in cm-1:     2.690391     0.112536     0.112536
Rotational constants in MHz : 80655.892100  3373.748990  3373.748918

                             ****ORCA TERMINATED NORMALLY****
TOTAL RUN TIME: 0 days 0 hours 5 minutes 38 seconds 935 msec
