                         Program Version 5.0.4 -  RELEASE  -
|  1> !ri-mp2 aug-cc-pvqz aug-cc-pvqz/c tightscf
|  2> %pal nprocs 16 end
|  3>
|  4> * xyz 0 1
|  5> Cl    0.000000    1.591361    2.692912
|  6> C     0.000000    0.696756    1.212282
|  7> C     0.000000   -0.696756    1.212282
|  8> Cl    0.000000   -1.591361    2.692912
|  9> C     0.000000   -1.409756    0.008295
| 10> O     0.000000   -2.759999    0.052901
| 11> C     0.000000   -0.695960   -1.189657
| 12> Cl    0.000000   -1.601358   -2.678734
| 13> C     0.000000    0.695960   -1.189657
| 14> C     0.000000    1.409756    0.008295
| 15> O     0.000000    2.759999    0.052901
| 16> Cl    0.000000    1.601358   -2.678734
| 17> H     0.000000   -3.106114   -0.849754
| 18> H     0.000000    3.106114   -0.849754
| 19> *
| 20>
| 21>                          ****END OF INPUT****

CARTESIAN COORDINATES (ANGSTROEM)
---------------------------------
  Cl     0.000000    1.591361    2.692912
  C      0.000000    0.696756    1.212282
  C      0.000000   -0.696756    1.212282
  Cl     0.000000   -1.591361    2.692912
  C      0.000000   -1.409756    0.008295
  O      0.000000   -2.759999    0.052901
  C      0.000000   -0.695960   -1.189657
  Cl     0.000000   -1.601358   -2.678734
  C      0.000000    0.695960   -1.189657
  C      0.000000    1.409756    0.008295
  O      0.000000    2.759999    0.052901
  Cl     0.000000    1.601358   -2.678734
  H      0.000000   -3.106114   -0.849754
  H      0.000000    3.106114   -0.849754

 Total Charge           Charge          ....    0
 Multiplicity           Mult            ....    1
 Number of Electrons    NEL             ....  122
 Basis Dimension        Dim             .... 1068

ORBITAL ENERGIES
----------------

  NO   OCC          E(Eh)            E(eV)
   0   2.0000    -104.880146     -2853.9339
   1   2.0000    -104.880146     -2853.9339
   2   2.0000    -104.855778     -2853.2708
   3   2.0000    -104.855778     -2853.2708
   4   2.0000     -20.615953      -560.9886
   5   2.0000     -20.615953      -560.9886
   6   2.0000     -11.348003      -308.7949
   7   2.0000     -11.347996      -308.7947
   8   2.0000     -11.341871      -308.6280
   9   2.0000     -11.340666      -308.5952
  10   2.0000     -11.335166      -308.4456
  11   2.0000     -11.333951      -308.4125
  12   2.0000     -10.605318      -288.5854
  13   2.0000     -10.605314      -288.5853
  14   2.0000     -10.580890      -287.9206
  15   2.0000     -10.580886      -287.9205
  16   2.0000      -8.072414      -219.6615
  17   2.0000      -8.072412      -219.6615
  18   2.0000      -8.070685      -219.6145
  19   2.0000      -8.070684      -219.6145
  20   2.0000      -8.070545      -219.6107
  21   2.0000      -8.070544      -219.6107
  22   2.0000      -8.048049      -218.9985
  23   2.0000      -8.048047      -218.9985
  24   2.0000      -8.046110      -218.9458
  25   2.0000      -8.046110      -218.9458
  26   2.0000      -8.046100      -218.9455
  27   2.0000      -8.046100      -218.9455
  28   2.0000      -1.443198       -39.2714
  29   2.0000      -1.441085       -39.2139
  30   2.0000      -1.244590       -33.8670
  31   2.0000      -1.207682       -32.8627
  32   2.0000      -1.164507       -31.6878
  33   2.0000      -1.145745       -31.1773
  34   2.0000      -1.105217       -30.0745
  35   2.0000      -1.017881       -27.6980
  36   2.0000      -0.990701       -26.9583
  37   2.0000      -0.873363       -23.7654
  38   2.0000      -0.857529       -23.3346
  39   2.0000      -0.790214       -21.5028
  40   2.0000      -0.751622       -20.4527
  41   2.0000      -0.723668       -19.6920
  42   2.0000      -0.658804       -17.9270
  43   2.0000      -0.644188       -17.5293
  44   2.0000      -0.631950       -17.1962
  45   2.0000      -0.621298       -16.9064
  46   2.0000      -0.620306       -16.8794
  47   2.0000      -0.608299       -16.5527
  48   2.0000      -0.589946       -16.0532
  49   2.0000      -0.559555       -15.2263
  50   2.0000      -0.546766       -14.8783
  51   2.0000      -0.542164       -14.7530
  52   2.0000      -0.515323       -14.0226
  53   2.0000      -0.512265       -13.9394
  54   2.0000      -0.492622       -13.4049
  55   2.0000      -0.488304       -13.2874
  56   2.0000      -0.483589       -13.1591
  57   2.0000      -0.455088       -12.3836
  58   2.0000      -0.452023       -12.3002
  59   2.0000      -0.356836        -9.7100
  60   2.0000      -0.331334        -9.0161
  61   0.0000       0.024662         0.6711
  62   0.0000       0.030048         0.8176
  63   0.0000       0.048072         1.3081
  64   0.0000       0.058152         1.5824
  65   0.0000       0.062548         1.7020

MULLIKEN ATOMIC CHARGES
-----------------------
   0 Cl:   -0.271489
   1 C :   -0.266618
   2 C :   -0.266459
   3 Cl:   -0.271496
   4 C :    1.582367
   5 O :   -0.726522
   6 C :   -0.390080
   7 Cl:   -0.337332
   8 C :   -0.390113
   9 C :    1.582282
  10 O :   -0.726525
  11 Cl:   -0.337327
  12 H :    0.409655
  13 H :    0.409655
Sum of atomic charges:   -0.0000000

LOEWDIN ATOMIC CHARGES
----------------------
   0 Cl:    1.205328
   1 C :   -1.026263
   2 C :   -1.026263
   3 Cl:    1.205328
   4 C :   -0.753122
   5 O :    1.216350
   6 C :   -0.959893
   7 Cl:    1.265262
   8 C :   -0.959893
   9 C :   -0.753122
  10 O :    1.216350
  11 Cl:    1.265262
  12 H :   -0.947664
  13 H :   -0.947664

  Mayer bond orders larger than 0.100000
B(  0-Cl,  1-C ) :   1.2328 B(  0-Cl,  2-C ) :  -0.2775 B(  0-Cl,  9-C ) :  -0.2434
B(  1-C ,  2-C ) :   0.9169 B(  1-C ,  3-Cl) :  -0.2773 B(  1-C ,  9-C ) :   1.0255
B(  1-C , 10-O ) :   0.2838 B(  2-C ,  3-Cl) :   1.2328 B(  2-C ,  4-C ) :   1.0254
B(  2-C ,  5-O ) :   0.2838 B(  3-Cl,  4-C ) :  -0.2436 B(  4-C ,  6-C ) :   1.1608
B(  4-C ,  7-Cl) :  -0.2085 B(  4-C , 12-H ) :  -0.1380 B(  5-O ,  6-C ) :   0.3583
B(  5-O , 12-H ) :   0.8772 B(  6-C ,  7-Cl) :   1.0858 B(  6-C ,  8-C ) :   0.7813
B(  6-C , 11-Cl) :  -0.2170 B(  7-Cl,  8-C ) :  -0.2171 B(  8-C ,  9-C ) :   1.1608
B(  8-C , 10-O ) :   0.3583 B(  8-C , 11-Cl) :   1.0857 B(  9-C , 11-Cl) :  -0.2086
B(  9-C , 13-H ) :  -0.1380 B( 10-O , 13-H ) :   0.8772

MP2 TOTAL ENERGY:    -2218.679555932 Eh
FINAL SINGLE POINT ENERGY     -2218.679555932467

DIPOLE MOMENT
-------------
                                X             Y             Z
Electronic contribution:     -0.00000       0.00000       0.51742
Nuclear contribution   :      0.00000       0.00000      -1.60680
                        -----------------------------------------
Total Dipole Moment    :     -0.00000       0.00000      -1.08938
                        -----------------------------------------
Magnitude (a.u.)       :      1.08938
Magnitude (Debye)      :      2.76899

Rotational constants in cm-1:     0.024234     0.015412     0.009421
Rotational constants in MHz :   726.507223   462.029643   282.421086

                             ****ORCA TERMINATED NORMALLY****
TOTAL RUN TIME: 0 days 1 hours 12 minutes 4 seconds 238 msec
