                         Program Version 5.0.4 -  RELEASE  -
|  1> !ri-mp2 aug-cc-pvqz aug-cc-pvqz/c tightscf
|  2> %pal nprocs 16 end
|  3>
|  4> * xyz 0 1
|  5> C      0.029432   -2.115963    0.000000
|  6> C     -1.177779   -1.432184    0.000000
|  7> C      1.221499   -1.401498    0.000000
|  8> C     -1.215878   -0.038978    0.000000
|  9> C      1.232186   -0.009912    0.000000
| 10> C      0.000000    0.652782    0.000000
| 11> C     -2.522797    0.709811    0.000000
| 12> C      2.513155    0.776894    0.000000
| 13> O      0.045187    2.025498    0.000000
| 14> H      0.042486   -3.197090    0.000000
| 15> H     -2.110575   -1.981915    0.000000
| 16> H      2.166310   -1.930240    0.000000
| 17> H     -2.631669    1.347832    0.882868
| 18> H     -2.631669    1.347832   -0.882868
| 19> H     -3.362725    0.017813    0.000000
| 20> H      2.580324    1.426517   -0.874653
| 21> H      2.580324    1.426517    0.874653
| 22> H      3.374227    0.110457    0.000000
| 23> H     -0.847434    2.382583    0.000000
| 24> *
| 25>
| 26>                          ****END OF INPUT****

CARTESIAN COORDINATES (ANGSTROEM)
---------------------------------
  C      0.029432   -2.115963    0.000000
  C     -1.177779   -1.432184    0.000000
  C      1.221499   -1.401498    0.000000
  C     -1.215878   -0.038978    0.000000
  C      1.232186   -0.009912    0.000000
  C      0.000000    0.652782    0.000000
  C     -2.522797    0.709811    0.000000
  C      2.513155    0.776894    0.000000
  O      0.045187    2.025498    0.000000
  H      0.042486   -3.197090    0.000000
  H     -2.110575   -1.981915    0.000000
  H      2.166310   -1.930240    0.000000
  H     -2.631669    1.347832    0.882868
  H     -2.631669    1.347832   -0.882868
  H     -3.362725    0.017813    0.000000
  H      2.580324    1.426517   -0.874653
  H      2.580324    1.426517    0.874653
  H      3.374227    0.110457    0.000000
  H     -0.847434    2.382583    0.000000

 Total Charge           Charge          ....    0
 Multiplicity           Mult            ....    1
 Number of Electrons    NEL             ....   66
 Basis Dimension        Dim             .... 1180

ORBITAL ENERGIES
----------------

  NO   OCC          E(Eh)            E(eV)
   0   2.0000     -20.583572      -560.1075
   1   2.0000     -11.290173      -307.2212
   2   2.0000     -11.236622      -305.7640
   3   2.0000     -11.235049      -305.7212
   4   2.0000     -11.231056      -305.6126
   5   2.0000     -11.228391      -305.5401
   6   2.0000     -11.225870      -305.4715
   7   2.0000     -11.220243      -305.3183
   8   2.0000     -11.214057      -305.1500
   9   2.0000      -1.400113       -38.0990
  10   2.0000      -1.150147       -31.2971
  11   2.0000      -1.062347       -28.9079
  12   2.0000      -1.019558       -27.7436
  13   2.0000      -0.944445       -25.6997
  14   2.0000      -0.925870       -25.1942
  15   2.0000      -0.819220       -22.2921
  16   2.0000      -0.797202       -21.6930
  17   2.0000      -0.726253       -19.7624
  18   2.0000      -0.673622       -18.3302
  19   2.0000      -0.637799       -17.3554
  20   2.0000      -0.609908       -16.5964
  21   2.0000      -0.592944       -16.1348
  22   2.0000      -0.573415       -15.6034
  23   2.0000      -0.572360       -15.5747
  24   2.0000      -0.564680       -15.3657
  25   2.0000      -0.556803       -15.1514
  26   2.0000      -0.544942       -14.8286
  27   2.0000      -0.529066       -14.3966
  28   2.0000      -0.494971       -13.4688
  29   2.0000      -0.480316       -13.0701
  30   2.0000      -0.470204       -12.7949
  31   2.0000      -0.324782        -8.8378
  32   2.0000      -0.305770        -8.3204
  33   0.0000       0.023432         0.6376
  34   0.0000       0.028569         0.7774
  35   0.0000       0.029760         0.8098
  36   0.0000       0.039029         1.0620
  37   0.0000       0.040366         1.0984

MULLIKEN ATOMIC CHARGES
-----------------------
   0 C :   -0.278821
   1 C :   -0.646668
   2 C :   -0.564874
   3 C :    0.357254
   4 C :    0.378394
   5 C :    0.843202
   6 C :   -0.696736
   7 C :   -0.829686
   8 O :   -0.840276
   9 H :    0.195090
  10 H :    0.194702
  11 H :    0.240437
  12 H :    0.181015
  13 H :    0.181015
  14 H :    0.216222
  15 H :    0.227216
  16 H :    0.227216
  17 H :    0.270009
  18 H :    0.345289
Sum of atomic charges:    0.0000000

LOEWDIN ATOMIC CHARGES
----------------------
   0 C :    0.349521
   1 C :    0.335856
   2 C :    0.336849
   3 C :   -0.068172
   4 C :   -0.089677
   5 C :   -0.413155
   6 C :    0.905648
   7 C :    0.896879
   8 O :    1.303112
   9 H :   -0.327481
  10 H :   -0.324177
  11 H :   -0.323597
  12 H :   -0.273450
  13 H :   -0.273450
  14 H :   -0.303547
  15 H :   -0.285335
  16 H :   -0.285335
  17 H :   -0.309931
  18 H :   -0.850557

  Mayer bond orders larger than 0.100000
B(  0-C ,  1-C ) :   1.2490 B(  0-C ,  2-C ) :   1.2239 B(  0-C ,  3-C ) :  -0.4043
B(  0-C ,  4-C ) :  -0.3938 B(  0-C ,  5-C ) :   0.2027 B(  0-C ,  9-H ) :   1.2358
B(  1-C ,  2-C ) :   0.3045 B(  1-C ,  3-C ) :   0.8740 B(  1-C ,  4-C ) :  -0.1040
B(  1-C ,  5-C ) :   0.1151 B(  1-C ,  6-C ) :  -0.1361 B(  1-C ,  9-H ) :  -0.2055
B(  1-C , 10-H ) :   1.0889 B(  2-C ,  4-C ) :   0.8621 B(  2-C ,  7-C ) :  -0.1367
B(  2-C ,  9-H ) :  -0.1949 B(  2-C , 11-H ) :   1.0367 B(  3-C ,  4-C ) :  -0.2065
B(  3-C ,  5-C ) :   1.1228 B(  3-C ,  6-C ) :   0.6512 B(  3-C ,  8-O ) :   0.3742
B(  3-C , 12-H ) :  -0.1105 B(  3-C , 13-H ) :  -0.1105 B(  3-C , 14-H ) :  -0.1329
B(  3-C , 18-H ) :   0.1047 B(  4-C ,  5-C ) :   1.0797 B(  4-C ,  7-C ) :   0.6887
B(  4-C ,  8-O ) :   0.3568 B(  5-C ,  6-C ) :  -0.1048 B(  5-C ,  8-O ) :  -0.3641
B(  5-C , 18-H ) :  -0.1577 B(  6-C , 12-H ) :   1.0420 B(  6-C , 13-H ) :   1.0420
B(  6-C , 14-H ) :   1.0611 B(  7-C , 15-H ) :   1.0139 B(  7-C , 16-H ) :   1.0139
B(  7-C , 17-H ) :   1.0314 B(  8-O , 18-H ) :   0.9363

MP2 TOTAL ENERGY:     -385.446613882 Eh
FINAL SINGLE POINT ENERGY      -385.446613882361

DIPOLE MOMENT
-------------
                                X             Y             Z
Electronic contribution:      0.28464      -0.92861      -0.00000
Nuclear contribution   :     -0.85196       0.99659       0.00000
                        -----------------------------------------
Total Dipole Moment    :     -0.56732       0.06798      -0.00000
                        -----------------------------------------
Magnitude (a.u.)       :      0.57138
Magnitude (Debye)      :      1.45234

Rotational constants in cm-1:     0.076388     0.058889     0.033667
Rotational constants in MHz :  2290.064432  1765.462359  1009.315243

                             ****ORCA TERMINATED NORMALLY****
TOTAL RUN TIME: 0 days 1 hours 33 minutes 16 seconds 649 msec
