                         Program Version 5.0.4 -  RELEASE  -
|  1> !ri-mp2 aug-cc-pvqz aug-cc-pvqz/c tightscf
|  2> %pal nprocs 16 end
|  3>
|  4> * xyz 0 1
|  5> C      0.937510   -0.611839   -0.203807
|  6> C     -1.492937   -0.871125    0.255516
|  7> C     -0.484063    1.465272    0.040969
|  8> C     -0.424750    0.011005   -0.411659
|  9> O      1.895644   -0.059648    0.273304
| 10> H      1.010074   -1.671441   -0.531638
| 11> H     -1.421772   -1.909325   -0.072827
| 12> H     -2.490925   -0.510468    0.007755
| 13> H     -1.387988   -0.851504    1.341538
| 14> H     -1.458920    1.896200   -0.188710
| 15> H      0.282990    2.063378   -0.448681
| 16> H     -0.321324    1.543319    1.116354
| 17> H     -0.591848   -0.042855   -1.496335
| 18> *
| 19>
| 20>                          ****END OF INPUT****

CARTESIAN COORDINATES (ANGSTROEM)
---------------------------------
  C      0.937510   -0.611839   -0.203807
  C     -1.492937   -0.871125    0.255516
  C     -0.484063    1.465272    0.040969
  C     -0.424750    0.011005   -0.411659
  O      1.895644   -0.059648    0.273304
  H      1.010074   -1.671441   -0.531638
  H     -1.421772   -1.909325   -0.072827
  H     -2.490925   -0.510468    0.007755
  H     -1.387988   -0.851504    1.341538
  H     -1.458920    1.896200   -0.188710
  H      0.282990    2.063378   -0.448681
  H     -0.321324    1.543319    1.116354
  H     -0.591848   -0.042855   -1.496335

 Total Charge           Charge          ....    0
 Multiplicity           Mult            ....    1
 Number of Electrons    NEL             ....   40
 Basis Dimension        Dim             ....  768

ORBITAL ENERGIES
----------------

  NO   OCC          E(Eh)            E(eV)
   0   2.0000     -20.554818      -559.3250
   1   2.0000     -11.327556      -308.2385
   2   2.0000     -11.248103      -306.0764
   3   2.0000     -11.233187      -305.6706
   4   2.0000     -11.218143      -305.2612
   5   2.0000      -1.394403       -37.9436
   6   2.0000      -1.092333       -29.7239
   7   2.0000      -0.946511       -25.7559
   8   2.0000      -0.888450       -24.1760
   9   2.0000      -0.760746       -20.7010
  10   2.0000      -0.681409       -18.5421
  11   2.0000      -0.643047       -17.4982
  12   2.0000      -0.625403       -17.0181
  13   2.0000      -0.568052       -15.4575
  14   2.0000      -0.552055       -15.0222
  15   2.0000      -0.535839       -14.5809
  16   2.0000      -0.525319       -14.2947
  17   2.0000      -0.495791       -13.4912
  18   2.0000      -0.482831       -13.1385
  19   2.0000      -0.415483       -11.3059
  20   0.0000       0.022687         0.6173
  21   0.0000       0.031762         0.8643
  22   0.0000       0.032933         0.8961
  23   0.0000       0.038553         1.0491
  24   0.0000       0.051788         1.4092

MULLIKEN ATOMIC CHARGES
-----------------------
   0 C :    0.302019
   1 C :   -0.863315
   2 C :   -0.841178
   3 C :    0.026297
   4 O :   -0.779437
   5 H :    0.365587
   6 H :    0.258636
   7 H :    0.258997
   8 H :    0.230018
   9 H :    0.281615
  10 H :    0.240134
  11 H :    0.218362
  12 H :    0.302264
Sum of atomic charges:   -0.0000000

LOEWDIN ATOMIC CHARGES
----------------------
   0 C :   -0.252792
   1 C :    0.907945
   2 C :    0.888513
   3 C :    0.043710
   4 O :    0.728995
   5 H :   -0.337510
   6 H :   -0.285139
   7 H :   -0.277142
   8 H :   -0.275302
   9 H :   -0.279557
  10 H :   -0.286188
  11 H :   -0.283526
  12 H :   -0.292005

  Mayer bond orders larger than 0.100000
B(  0-C ,  3-C ) :   0.8759 B(  0-C ,  4-O ) :   1.4843 B(  0-C ,  5-H ) :   0.8574
B(  1-C ,  3-C ) :   0.8436 B(  1-C ,  6-H ) :   0.9587 B(  1-C ,  7-H ) :   0.9590
B(  1-C ,  8-H ) :   0.9569 B(  2-C ,  3-C ) :   0.8025 B(  2-C ,  9-H ) :   0.9597
B(  2-C , 10-H ) :   0.9898 B(  2-C , 11-H ) :   0.9739 B(  3-C ,  4-O ) :   0.1419
B(  3-C , 12-H ) :   0.8244

MP2 TOTAL ENERGY:     -232.072632541 Eh
FINAL SINGLE POINT ENERGY      -232.072632540618

DIPOLE MOMENT
-------------
                                X             Y             Z
Electronic contribution:      5.49538      -0.90742      -0.16263
Nuclear contribution   :     -6.61542       0.53796      -0.27946
                        -----------------------------------------
Total Dipole Moment    :     -1.12003      -0.36946      -0.44208
                        -----------------------------------------
Magnitude (a.u.)       :      1.25953
Magnitude (Debye)      :      3.20146

Rotational constants in cm-1:     0.249337     0.136398     0.098884
Rotational constants in MHz :  7474.935487  4089.119496  2964.478915

                             ****ORCA TERMINATED NORMALLY****
TOTAL RUN TIME: 0 days 0 hours 19 minutes 15 seconds 884 msec
