                         Program Version 5.0.4 -  RELEASE  -
|  1> !ri-mp2 aug-cc-pvqz aug-cc-pvqz/c tightscf
|  2> %pal nprocs 16 end
|  3>
|  4> * xyz 0 1
|  5> O     1.368073   -0.041927    1.328654
|  6> S     0.744052    0.002026    0.009543
|  7> O     1.597344    0.012383   -1.173724
|  8> C    -0.537812   -1.301973   -0.132311
|  9> C    -1.894471   -0.605338    0.038088
| 10> C    -1.683857    0.887280   -0.028918
| 11> C    -0.438708    1.331798   -0.052416
| 12> H    -0.319494   -2.041155    0.632439
| 13> H    -0.409741   -1.736972   -1.119449
| 14> H    -2.352765   -0.862446    0.995568
| 15> H    -2.595132   -0.923617   -0.735185
| 16> H    -2.540636    1.548631   -0.035815
| 17> H    -0.081319    2.348887   -0.076348
| 18> *
| 19>
| 20>                          ****END OF INPUT****

CARTESIAN COORDINATES (ANGSTROEM)
---------------------------------
  O      1.368073   -0.041927    1.328654
  S      0.744052    0.002026    0.009543
  O      1.597344    0.012383   -1.173724
  C     -0.537812   -1.301973   -0.132311
  C     -1.894471   -0.605338    0.038088
  C     -1.683857    0.887280   -0.028918
  C     -0.438708    1.331798   -0.052416
  H     -0.319494   -2.041155    0.632439
  H     -0.409741   -1.736972   -1.119449
  H     -2.352765   -0.862446    0.995568
  H     -2.595132   -0.923617   -0.735185
  H     -2.540636    1.548631   -0.035815
  H     -0.081319    2.348887   -0.076348

 Total Charge           Charge          ....    0
 Multiplicity           Mult            ....    1
 Number of Electrons    NEL             ....   62
 Basis Dimension        Dim             ....  840

ORBITAL ENERGIES
----------------

  NO   OCC          E(Eh)            E(eV)
   0   2.0000     -92.171922     -2508.1255
   1   2.0000     -20.540186      -558.9269
   2   2.0000     -20.539456      -558.9070
   3   2.0000     -11.288668      -307.1803
   4   2.0000     -11.283220      -307.0320
   5   2.0000     -11.277843      -306.8857
   6   2.0000     -11.277768      -306.8837
   7   2.0000      -9.141466      -248.7519
   8   2.0000      -6.827055      -185.7736
   9   2.0000      -6.825898      -185.7421
  10   2.0000      -6.825614      -185.7344
  11   2.0000      -1.438066       -39.1318
  12   2.0000      -1.326145       -36.0862
  13   2.0000      -1.166220       -31.7345
  14   2.0000      -1.036139       -28.1948
  15   2.0000      -0.973044       -26.4779
  16   2.0000      -0.833597       -22.6833
  17   2.0000      -0.784350       -21.3432
  18   2.0000      -0.715934       -19.4815
  19   2.0000      -0.681666       -18.5491
  20   2.0000      -0.644877       -17.5480
  21   2.0000      -0.636007       -17.3066
  22   2.0000      -0.623235       -16.9591
  23   2.0000      -0.582468       -15.8498
  24   2.0000      -0.565396       -15.3852
  25   2.0000      -0.556364       -15.1394
  26   2.0000      -0.495553       -13.4847
  27   2.0000      -0.487775       -13.2730
  28   2.0000      -0.472864       -12.8673
  29   2.0000      -0.433946       -11.8083
  30   2.0000      -0.408731       -11.1221
  31   0.0000       0.015840         0.4310
  32   0.0000       0.026817         0.7297
  33   0.0000       0.032139         0.8745
  34   0.0000       0.034790         0.9467
  35   0.0000       0.045588         1.2405

MULLIKEN ATOMIC CHARGES
-----------------------
   0 O :   -1.245710
   1 S :    2.487349
   2 O :   -1.271892
   3 C :   -0.603108
   4 C :   -0.346007
   5 C :   -0.353580
   6 C :   -0.755424
   7 H :    0.328758
   8 H :    0.328096
   9 H :    0.248696
  10 H :    0.276294
  11 H :    0.449756
  12 H :    0.456772
Sum of atomic charges:    0.0000000

LOEWDIN ATOMIC CHARGES
----------------------
   0 O :    0.270843
   1 S :   -0.203210
   2 O :    0.268668
   3 C :    0.445335
   4 C :    0.468187
   5 C :    0.332369
   6 C :    0.269083
   7 H :   -0.317399
   8 H :   -0.325002
   9 H :   -0.276418
  10 H :   -0.278753
  11 H :   -0.300042
  12 H :   -0.353659

  Mayer bond orders larger than 0.100000
B(  0-O ,  1-S ) :   0.9186 B(  1-S ,  2-O ) :   0.9108 B(  1-S ,  3-C ) :   0.9155
B(  1-S ,  6-C ) :   0.9420 B(  3-C ,  4-C ) :   0.9908 B(  3-C ,  7-H ) :   0.8418
B(  3-C ,  8-H ) :   0.8632 B(  4-C ,  5-C ) :   0.7428 B(  4-C ,  9-H ) :   0.9113
B(  4-C , 10-H ) :   0.9108 B(  5-C ,  6-C ) :   1.6610 B(  5-C , 11-H ) :   0.8206
B(  6-C , 12-H ) :   0.8277

MP2 TOTAL ENERGY:     -703.735952384 Eh
FINAL SINGLE POINT ENERGY      -703.735952384018

DIPOLE MOMENT
-------------
                                X             Y             Z
Electronic contribution:      5.66854       1.54912       0.17810
Nuclear contribution   :     -8.15557      -1.64308      -0.33177
                        -----------------------------------------
Total Dipole Moment    :     -2.48703      -0.09395      -0.15367
                        -----------------------------------------
Magnitude (a.u.)       :      2.49354
Magnitude (Debye)      :      6.33808

Rotational constants in cm-1:     0.133679     0.069133     0.064243
Rotational constants in MHz :  4007.592380  2072.564930  1925.945408

                             ****ORCA TERMINATED NORMALLY****
TOTAL RUN TIME: 0 days 0 hours 28 minutes 25 seconds 282 msec
