                         Program Version 5.0.4 -  RELEASE  -
|  1> !ri-mp2 aug-cc-pvqz aug-cc-pvqz/c tightscf
|  2> %pal nprocs 16 end
|  3>
|  4> * xyz 0 1
|  5> S      1.786816   -0.999206   -0.026846
|  6> S     -2.245223   -0.148491   -0.179660
|  7> O     -1.005016   -1.270226    0.235149
|  8> O     -1.330231    1.236629    0.220211
|  9> C      0.134146   -0.525701    0.028191
| 10> C     -0.017500    0.819744    0.026189
| 11> C      1.196636    1.540976   -0.022378
| 12> C      2.258331    0.681032   -0.056911
| 13> H      1.283391    2.615343   -0.042028
| 14> H      3.303414    0.920280   -0.147308
| 15> *
| 16>
| 17>                          ****END OF INPUT****

CARTESIAN COORDINATES (ANGSTROEM)
---------------------------------
  S      1.786816   -0.999206   -0.026846
  S     -2.245223   -0.148491   -0.179660
  O     -1.005016   -1.270226    0.235149
  O     -1.330231    1.236629    0.220211
  C      0.134146   -0.525701    0.028191
  C     -0.017500    0.819744    0.026189
  C      1.196636    1.540976   -0.022378
  C      2.258331    0.681032   -0.056911
  H      1.283391    2.615343   -0.042028
  H      3.303414    0.920280   -0.147308

 Total Charge           Charge          ....    0
 Multiplicity           Mult            ....    1
 Number of Electrons    NEL             ....   74
 Basis Dimension        Dim             ....  740

ORBITAL ENERGIES
----------------

  NO   OCC          E(Eh)            E(eV)
   0   2.0000     -92.075347     -2505.4976
   1   2.0000     -92.006944     -2503.6362
   2   2.0000     -20.635256      -561.5139
   3   2.0000     -20.629448      -561.3558
   4   2.0000     -11.328677      -308.2690
   5   2.0000     -11.306255      -307.6588
   6   2.0000     -11.280881      -306.9684
   7   2.0000     -11.262950      -306.4805
   8   2.0000      -9.065323      -246.6800
   9   2.0000      -9.007470      -245.1057
  10   2.0000      -6.746058      -183.5696
  11   2.0000      -6.745012      -183.5411
  12   2.0000      -6.742752      -183.4796
  13   2.0000      -6.688772      -182.0107
  14   2.0000      -6.688296      -181.9978
  15   2.0000      -6.687444      -181.9746
  16   2.0000      -1.467455       -39.9315
  17   2.0000      -1.388936       -37.7949
  18   2.0000      -1.185186       -32.2505
  19   2.0000      -1.004385       -27.3307
  20   2.0000      -1.003734       -27.3130
  21   2.0000      -0.926094       -25.2003
  22   2.0000      -0.811190       -22.0736
  23   2.0000      -0.783671       -21.3248
  24   2.0000      -0.707358       -19.2482
  25   2.0000      -0.675909       -18.3924
  26   2.0000      -0.629247       -17.1227
  27   2.0000      -0.620980       -16.8977
  28   2.0000      -0.606686       -16.5088
  29   2.0000      -0.596059       -16.2196
  30   2.0000      -0.562473       -15.3057
  31   2.0000      -0.528118       -14.3708
  32   2.0000      -0.513928       -13.9847
  33   2.0000      -0.495933       -13.4950
  34   2.0000      -0.385360       -10.4862
  35   2.0000      -0.362963        -9.8767
  36   2.0000      -0.313279        -8.5247
  37   0.0000       0.024663         0.6711
  38   0.0000       0.032426         0.8823
  39   0.0000       0.043310         1.1785
  40   0.0000       0.050127         1.3640
  41   0.0000       0.056652         1.5416

MULLIKEN ATOMIC CHARGES
-----------------------
   0 S :    0.318456
   1 S :    0.669916
   2 O :   -0.782054
   3 O :   -0.785493
   4 C :    0.299646
   5 C :    0.506576
   6 C :   -0.352240
   7 C :   -0.725948
   8 H :    0.420216
   9 H :    0.430924
Sum of atomic charges:    0.0000000

LOEWDIN ATOMIC CHARGES
----------------------
   0 S :    1.345936
   1 S :    0.672474
   2 O :    0.304300
   3 O :    0.350401
   4 C :   -1.190661
   5 C :   -0.872819
   6 C :    0.204970
   7 C :   -0.072479
   8 H :   -0.330198
   9 H :   -0.411924

  Mayer bond orders larger than 0.100000
B(  0-S ,  4-C ) :   1.0157 B(  0-S ,  7-C ) :   1.2864 B(  1-S ,  2-O ) :   0.7949
B(  1-S ,  3-O ) :   0.8195 B(  2-O ,  4-C ) :   0.4904 B(  2-O ,  5-C ) :   0.2408
B(  3-O ,  4-C ) :   0.1736 B(  3-O ,  5-C ) :   0.4435 B(  4-C ,  5-C ) :   1.6072
B(  4-C ,  6-C ) :  -0.1389 B(  5-C ,  6-C ) :   1.1074 B(  5-C ,  7-C ) :  -0.1506
B(  6-C ,  7-C ) :   1.5004 B(  6-C ,  8-H ) :   0.8575 B(  7-C ,  9-H ) :   0.8303

MP2 TOTAL ENERGY:    -1099.023147148 Eh
FINAL SINGLE POINT ENERGY     -1099.023147148353

DIPOLE MOMENT
-------------
                                X             Y             Z
Electronic contribution:     -3.85893      -3.03637      -0.02425
Nuclear contribution   :      4.33931       3.39463      -0.16713
                        -----------------------------------------
Total Dipole Moment    :      0.48039       0.35826      -0.19138
                        -----------------------------------------
Magnitude (a.u.)       :      0.62909
Magnitude (Debye)      :      1.59901

Rotational constants in cm-1:     0.121466     0.041872     0.031464
Rotational constants in MHz :  3641.463245  1255.278151   943.256234

                             ****ORCA TERMINATED NORMALLY****
TOTAL RUN TIME: 0 days 0 hours 24 minutes 4 seconds 865 msec
