                         Program Version 5.0.4 -  RELEASE  -
|  1> !ri-mp2 aug-cc-pvqz aug-cc-pvqz/c tightscf
|  2> %pal nprocs 16 end
|  3>
|  4> * xyz 0 1
|  5> N      0.544724    1.387269    0.000000
|  6> H      0.216989    1.895686    0.813925
|  7> H      0.216989    1.895686   -0.813925
|  8> C     -1.527556   -0.018978    0.000000
|  9> H     -1.923151    0.487103    0.883105
| 10> H     -1.923151    0.487103   -0.883105
| 11> H     -1.910040   -1.041945    0.000000
| 12> C      0.544724   -0.686055    1.255867
| 13> H      1.634333   -0.676871    1.262856
| 14> H      0.196491   -0.179088    2.158818
| 15> H      0.203288   -1.720826    1.303577
| 16> C      0.011620    0.010930    0.000000
| 17> C      0.544724   -0.686055   -1.255867
| 18> H      1.634333   -0.676871   -1.262856
| 19> H      0.203288   -1.720826   -1.303577
| 20> H      0.196491   -0.179088   -2.158818
| 21> *
| 22>
| 23>                          ****END OF INPUT****

CARTESIAN COORDINATES (ANGSTROEM)
---------------------------------
  N      0.544724    1.387269    0.000000
  H      0.216989    1.895686    0.813925
  H      0.216989    1.895686   -0.813925
  C     -1.527556   -0.018978    0.000000
  H     -1.923151    0.487103    0.883105
  H     -1.923151    0.487103   -0.883105
  H     -1.910040   -1.041945    0.000000
  C      0.544724   -0.686055    1.255867
  H      1.634333   -0.676871    1.262856
  H      0.196491   -0.179088    2.158818
  H      0.203288   -1.720826    1.303577
  C      0.011620    0.010930    0.000000
  C      0.544724   -0.686055   -1.255867
  H      1.634333   -0.676871   -1.262856
  H      0.203288   -1.720826   -1.303577
  H      0.196491   -0.179088   -2.158818

 Total Charge           Charge          ....    0
 Multiplicity           Mult            ....    1
 Number of Electrons    NEL             ....   42
 Basis Dimension        Dim             ....  906

ORBITAL ENERGIES
----------------

  NO   OCC          E(Eh)            E(eV)
   0   2.0000     -15.531883      -422.6440
   1   2.0000     -11.258523      -306.3600
   2   2.0000     -11.209595      -305.0286
   3   2.0000     -11.206455      -304.9431
   4   2.0000     -11.206441      -304.9428
   5   2.0000      -1.187350       -32.3094
   6   2.0000      -1.028549       -27.9882
   7   2.0000      -0.932393       -25.3717
   8   2.0000      -0.932272       -25.3684
   9   2.0000      -0.750311       -20.4170
  10   2.0000      -0.655154       -17.8276
  11   2.0000      -0.628148       -17.0928
  12   2.0000      -0.602734       -16.4012
  13   2.0000      -0.575658       -15.6644
  14   2.0000      -0.546210       -14.8631
  15   2.0000      -0.527252       -14.3473
  16   2.0000      -0.512091       -13.9347
  17   2.0000      -0.502195       -13.6654
  18   2.0000      -0.474091       -12.9007
  19   2.0000      -0.461541       -12.5592
  20   2.0000      -0.385731       -10.4963
  21   0.0000       0.025654         0.6981
  22   0.0000       0.032785         0.8921
  23   0.0000       0.033730         0.9178
  24   0.0000       0.035740         0.9725
  25   0.0000       0.052808         1.4370

MULLIKEN ATOMIC CHARGES
-----------------------
   0 N :   -0.863487
   1 H :    0.196819
   2 H :    0.196819
   3 C :   -1.009095
   4 H :    0.240213
   5 H :    0.240213
   6 H :    0.224896
   7 C :   -1.024740
   8 H :    0.263634
   9 H :    0.231751
  10 H :    0.228179
  11 C :    1.375971
  12 C :   -1.024740
  13 H :    0.263634
  14 H :    0.228179
  15 H :    0.231751
Sum of atomic charges:    0.0000000

LOEWDIN ATOMIC CHARGES
----------------------
   0 N :    1.291200
   1 H :   -0.505904
   2 H :   -0.505904
   3 C :    0.905848
   4 H :   -0.280192
   5 H :   -0.280192
   6 H :   -0.275592
   7 C :    0.892803
   8 H :   -0.277488
   9 H :   -0.276872
  10 H :   -0.275798
  11 C :   -0.474550
  12 C :    0.892803
  13 H :   -0.277488
  14 H :   -0.275798
  15 H :   -0.276872

  Mayer bond orders larger than 0.100000
B(  0-N ,  1-H ) :   0.9817 B(  0-N ,  2-H ) :   0.9817 B(  0-N ,  3-C ) :   0.1032
B(  0-N , 11-C ) :   0.2192 B(  3-C ,  4-H ) :   1.0185 B(  3-C ,  5-H ) :   1.0185
B(  3-C ,  6-H ) :   0.9987 B(  3-C , 11-C ) :   0.4771 B(  7-C ,  8-H ) :   1.0095
B(  7-C ,  9-H ) :   1.0229 B(  7-C , 10-H ) :   1.0221 B(  7-C , 11-C ) :   0.4859
B( 11-C , 12-C ) :   0.4859 B( 12-C , 13-H ) :   1.0095 B( 12-C , 14-H ) :   1.0221
B( 12-C , 15-H ) :   1.0229

MP2 TOTAL ENERGY:     -213.417821080 Eh
FINAL SINGLE POINT ENERGY      -213.417821079516

DIPOLE MOMENT
-------------
                                X             Y             Z
Electronic contribution:      0.85382       1.52936       0.00000
Nuclear contribution   :     -1.34912      -1.53338       0.00000
                        -----------------------------------------
Total Dipole Moment    :     -0.49530      -0.00402       0.00000
                        -----------------------------------------
Magnitude (a.u.)       :      0.49531
Magnitude (Debye)      :      1.25899

Rotational constants in cm-1:     0.153136     0.152088     0.149308
Rotational constants in MHz :  4590.889116  4559.488868  4476.127317

                             ****ORCA TERMINATED NORMALLY****
TOTAL RUN TIME: 0 days 0 hours 24 minutes 49 seconds 666 msec
