                         Program Version 5.0.4 -  RELEASE  -
|  1> !ri-mp2 aug-cc-pvqz aug-cc-pvqz/c tightscf
|  2> %pal nprocs 16 end
|  3>
|  4> * xyz 0 1
|  5> C     -0.376341    0.220360    0.000000
|  6> H      1.502631    0.816125    0.875477
|  7> H      1.502631    0.816125   -0.875477
|  8> N      1.913976   -1.014914    0.000000
|  9> H      1.709887   -1.574258    0.817358
| 10> H      1.709887   -1.574258   -0.817358
| 11> N     -0.906035    1.595947    0.000000
| 12> H     -0.583445    2.106254   -0.814987
| 13> H     -0.583445    2.106254    0.814987
| 14> C      1.179166    0.245313    0.000000
| 15> C     -0.906035   -0.473601   -1.257115
| 16> C     -0.906035   -0.473601    1.257115
| 17> H     -0.558883    0.037001   -2.158942
| 18> H     -0.558883    0.037001    2.158942
| 19> H     -0.574785   -1.511227    1.310395
| 20> H     -0.574785   -1.511227   -1.310395
| 21> H     -1.995459   -0.462925   -1.263115
| 22> H     -1.995459   -0.462925    1.263115
| 23> *
| 24>
| 25>                          ****END OF INPUT****

CARTESIAN COORDINATES (ANGSTROEM)
---------------------------------
  C     -0.376341    0.220360    0.000000
  H      1.502631    0.816125    0.875477
  H      1.502631    0.816125   -0.875477
  N      1.913976   -1.014914    0.000000
  H      1.709887   -1.574258    0.817358
  H      1.709887   -1.574258   -0.817358
  N     -0.906035    1.595947    0.000000
  H     -0.583445    2.106254   -0.814987
  H     -0.583445    2.106254    0.814987
  C      1.179166    0.245313    0.000000
  C     -0.906035   -0.473601   -1.257115
  C     -0.906035   -0.473601    1.257115
  H     -0.558883    0.037001   -2.158942
  H     -0.558883    0.037001    2.158942
  H     -0.574785   -1.511227    1.310395
  H     -0.574785   -1.511227   -1.310395
  H     -1.995459   -0.462925   -1.263115
  H     -1.995459   -0.462925    1.263115

 Total Charge           Charge          ....    0
 Multiplicity           Mult            ....    1
 Number of Electrons    NEL             ....   50
 Basis Dimension        Dim             .... 1032

ORBITAL ENERGIES
----------------

  NO   OCC          E(Eh)            E(eV)
   0   2.0000     -15.537802      -422.8051
   1   2.0000     -15.536210      -422.7618
   2   2.0000     -11.258599      -306.3621
   3   2.0000     -11.244565      -305.9802
   4   2.0000     -11.211188      -305.0719
   5   2.0000     -11.211174      -305.0716
   6   2.0000      -1.202297       -32.7162
   7   2.0000      -1.162761       -31.6403
   8   2.0000      -1.017389       -27.6846
   9   2.0000      -0.937989       -25.5240
  10   2.0000      -0.903805       -24.5938
  11   2.0000      -0.753663       -20.5082
  12   2.0000      -0.676411       -18.4061
  13   2.0000      -0.653661       -17.7870
  14   2.0000      -0.643926       -17.5221
  15   2.0000      -0.612162       -16.6578
  16   2.0000      -0.566508       -15.4155
  17   2.0000      -0.556551       -15.1445
  18   2.0000      -0.532088       -14.4789
  19   2.0000      -0.509792       -13.8722
  20   2.0000      -0.508646       -13.8410
  21   2.0000      -0.488677       -13.2976
  22   2.0000      -0.464733       -12.6460
  23   2.0000      -0.430302       -11.7091
  24   2.0000      -0.361618        -9.8401
  25   0.0000       0.025341         0.6896
  26   0.0000       0.030937         0.8418
  27   0.0000       0.031350         0.8531
  28   0.0000       0.036091         0.9821
  29   0.0000       0.049723         1.3530

MULLIKEN ATOMIC CHARGES
-----------------------
   0 C :    1.375540
   1 H :    0.270339
   2 H :    0.270335
   3 N :   -0.760957
   4 H :    0.244417
   5 H :    0.244417
   6 N :   -0.939210
   7 H :    0.201369
   8 H :    0.201369
   9 C :   -0.488225
  10 C :   -1.013790
  11 C :   -1.013791
  12 H :    0.215907
  13 H :    0.215906
  14 H :    0.218696
  15 H :    0.218697
  16 H :    0.269488
  17 H :    0.269491
Sum of atomic charges:    0.0000000

LOEWDIN ATOMIC CHARGES
----------------------
   0 C :   -0.448563
   1 H :   -0.296986
   2 H :   -0.296986
   3 N :    1.304835
   4 H :   -0.516534
   5 H :   -0.516534
   6 N :    1.293158
   7 H :   -0.502457
   8 H :   -0.502457
   9 C :    0.351054
  10 C :    0.898688
  11 C :    0.898688
  12 H :   -0.271954
  13 H :   -0.271954
  14 H :   -0.285513
  15 H :   -0.285513
  16 H :   -0.275486
  17 H :   -0.275486

  Mayer bond orders larger than 0.100000
B(  0-C ,  3-N ) :   0.1425 B(  0-C ,  9-C ) :   0.4991 B(  0-C , 10-C ) :   0.4108
B(  0-C , 11-C ) :   0.4108 B(  0-C , 12-H ) :  -0.1324 B(  0-C , 13-H ) :  -0.1324
B(  0-C , 14-H ) :  -0.1024 B(  0-C , 15-H ) :  -0.1024 B(  0-C , 16-H ) :  -0.1025
B(  0-C , 17-H ) :  -0.1025 B(  1-H ,  9-C ) :   0.9917 B(  2-H ,  9-C ) :   0.9917
B(  3-N ,  4-H ) :   0.9090 B(  3-N ,  5-H ) :   0.9090 B(  3-N ,  9-C ) :   0.8303
B(  6-N ,  7-H ) :   0.9992 B(  6-N ,  8-H ) :   0.9992 B(  6-N ,  9-C ) :   0.1533
B(  6-N , 10-C ) :   0.1005 B(  6-N , 11-C ) :   0.1005 B( 10-C , 12-H ) :   1.0621
B( 10-C , 15-H ) :   1.0470 B( 10-C , 16-H ) :   1.0286 B( 11-C , 13-H ) :   1.0621
B( 11-C , 14-H ) :   1.0470 B( 11-C , 17-H ) :   1.0286

MP2 TOTAL ENERGY:     -268.692665247 Eh
FINAL SINGLE POINT ENERGY      -268.692665247443

DIPOLE MOMENT
-------------
                                X             Y             Z
Electronic contribution:      1.02925       1.12945      -0.00000
Nuclear contribution   :     -1.05904      -1.25126       0.00000
                        -----------------------------------------
Total Dipole Moment    :     -0.02979      -0.12181      -0.00000
                        -----------------------------------------
Magnitude (a.u.)       :      0.12540
Magnitude (Debye)      :      0.31875

Rotational constants in cm-1:     0.146871     0.084933     0.084187
Rotational constants in MHz :  4403.075168  2546.241081  2523.876475

                             ****ORCA TERMINATED NORMALLY****
TOTAL RUN TIME: 0 days 0 hours 42 minutes 38 seconds 694 msec
