                         Program Version 5.0.4 -  RELEASE  -
|  1> !ri-mp2 aug-cc-pvqz aug-cc-pvqz/c tightscf
|  2> %pal nprocs 16 end
|  3>
|  4> * xyz 0 1
|  5> C     0.000000     0.000000    1.130632
|  6> N     0.000000     1.186666    0.292106
|  7> N     0.000000    -1.186666    0.292106
|  8> C     0.000000     0.737561   -0.907000
|  9> C     0.000000    -0.737561   -0.907000
| 10> H    -0.879628     0.000000    1.780422
| 11> H     0.879628     0.000000    1.780422
| 12> H     0.000000     1.384794   -1.775054
| 13> H     0.000000    -1.384794   -1.775054
| 14> *
| 15>
| 16>                          ****END OF INPUT****

CARTESIAN COORDINATES (ANGSTROEM)
---------------------------------
  C      0.000000    0.000000    1.130632
  N      0.000000    1.186666    0.292106
  N      0.000000   -1.186666    0.292106
  C      0.000000    0.737561   -0.907000
  C      0.000000   -0.737561   -0.907000
  H     -0.879628    0.000000    1.780422
  H      0.879628    0.000000    1.780422
  H      0.000000    1.384794   -1.775054
  H      0.000000   -1.384794   -1.775054

 Total Charge           Charge          ....    0
 Multiplicity           Mult            ....    1
 Number of Electrons    NEL             ....   36
 Basis Dimension        Dim             ....  584

ORBITAL ENERGIES
----------------

  NO   OCC          E(Eh)            E(eV)
   0   2.0000     -15.579047      -423.9274
   1   2.0000     -15.579010      -423.9264
   2   2.0000     -11.289346      -307.1987
   3   2.0000     -11.288557      -307.1772
   4   2.0000     -11.287418      -307.1463
   5   2.0000      -1.324644       -36.0454
   6   2.0000      -1.173758       -31.9396
   7   2.0000      -0.998951       -27.1828
   8   2.0000      -0.820441       -22.3253
   9   2.0000      -0.788968       -21.4689
  10   2.0000      -0.712031       -19.3754
  11   2.0000      -0.647631       -17.6229
  12   2.0000      -0.609297       -16.5798
  13   2.0000      -0.562683       -15.3114
  14   2.0000      -0.468114       -12.7380
  15   2.0000      -0.464453       -12.6384
  16   2.0000      -0.443871       -12.0783
  17   2.0000      -0.410754       -11.1772
  18   0.0000       0.023394         0.6366
  19   0.0000       0.035546         0.9673
  20   0.0000       0.035743         0.9726
  21   0.0000       0.040531         1.1029
  22   0.0000       0.064007         1.7417

MULLIKEN ATOMIC CHARGES
-----------------------
   0 C :   -0.110698
   1 N :   -0.579310
   2 N :   -0.579310
   3 C :   -0.259106
   4 C :   -0.259106
   5 H :    0.330886
   6 H :    0.330886
   7 H :    0.562878
   8 H :    0.562878
Sum of atomic charges:   -0.0000000

LOEWDIN ATOMIC CHARGES
----------------------
   0 C :   -0.012883
   1 N :    0.599849
   2 N :    0.599849
   3 C :    0.072685
   4 C :    0.072685
   5 H :   -0.323667
   6 H :   -0.323667
   7 H :   -0.342426
   8 H :   -0.342426

  Mayer bond orders larger than 0.100000
B(  0-C ,  1-N ) :   0.9182 B(  0-C ,  2-N ) :   0.9182 B(  0-C ,  5-H ) :   0.8523
B(  0-C ,  6-H ) :   0.8523 B(  1-N ,  3-C ) :   1.7023 B(  2-N ,  4-C ) :   1.7023
B(  3-C ,  4-C ) :   1.1198 B(  3-C ,  7-H ) :   0.6948 B(  4-C ,  8-H ) :   0.6948

MP2 TOTAL ENERGY:     -225.824361380 Eh
FINAL SINGLE POINT ENERGY      -225.824361380121

DIPOLE MOMENT
-------------
                                X             Y             Z
Electronic contribution:     -0.00000      -0.00000      -0.66374
Nuclear contribution   :      0.00000       0.00000       0.01407
                        -----------------------------------------
Total Dipole Moment    :     -0.00000      -0.00000      -0.64968
                        -----------------------------------------
Magnitude (a.u.)       :      0.64968
Magnitude (Debye)      :      1.65135

Rotational constants in cm-1:     0.325384     0.290938     0.158093
Rotational constants in MHz :  9754.771509  8722.103146  4739.513647

                             ****ORCA TERMINATED NORMALLY****
TOTAL RUN TIME: 0 days 0 hours 6 minutes 52 seconds 791 msec
