                         Program Version 5.0.4 -  RELEASE  -
|  1> !ri-mp2 aug-cc-pvqz aug-cc-pvqz/c tightscf
|  2> %pal nprocs 16 end
|  3>
|  4> * xyz 0 1
|  5> C     -2.240901   -0.228900    0.078947
|  6> C      1.357635    0.506201   -0.241163
|  7> C     -0.057727    0.632576    0.286522
|  8> O      1.985166   -0.733246    0.058970
|  9> O     -0.911332   -0.260311   -0.393888
| 10> H     -2.296798   -0.511289    1.137407
| 11> H     -2.810353   -0.945359   -0.509172
| 12> H     -2.687110    0.766333   -0.039775
| 13> H      1.946368    1.347748    0.143838
| 14> H      1.344535    0.574466   -1.328580
| 15> H     -0.397375    1.669916    0.147193
| 16> H     -0.075546    0.427374    1.368715
| 17> H      2.031563   -0.840001    1.013883
| 18> *
| 19>
| 20>                          ****END OF INPUT****

CARTESIAN COORDINATES (ANGSTROEM)
---------------------------------
  C     -2.240901   -0.228900    0.078947
  C      1.357635    0.506201   -0.241163
  C     -0.057727    0.632576    0.286522
  O      1.985166   -0.733246    0.058970
  O     -0.911332   -0.260311   -0.393888
  H     -2.296798   -0.511289    1.137407
  H     -2.810353   -0.945359   -0.509172
  H     -2.687110    0.766333   -0.039775
  H      1.946368    1.347748    0.143838
  H      1.344535    0.574466   -1.328580
  H     -0.397375    1.669916    0.147193
  H     -0.075546    0.427374    1.368715
  H      2.031563   -0.840001    1.013883

 Total Charge           Charge          ....    0
 Multiplicity           Mult            ....    1
 Number of Electrons    NEL             ....   42
 Basis Dimension        Dim             ....  768

ORBITAL ENERGIES
----------------

  NO   OCC          E(Eh)            E(eV)
   0   2.0000     -20.555650      -559.3477
   1   2.0000     -20.553179      -559.2804
   2   2.0000     -11.279585      -306.9331
   3   2.0000     -11.275392      -306.8190
   4   2.0000     -11.271432      -306.7113
   5   2.0000      -1.379884       -37.5485
   6   2.0000      -1.352767       -36.8107
   7   2.0000      -1.017903       -27.6985
   8   2.0000      -0.915429       -24.9101
   9   2.0000      -0.838542       -22.8179
  10   2.0000      -0.692551       -18.8453
  11   2.0000      -0.675748       -18.3880
  12   2.0000      -0.658265       -17.9123
  13   2.0000      -0.627346       -17.0710
  14   2.0000      -0.602392       -16.3919
  15   2.0000      -0.564554       -15.3623
  16   2.0000      -0.535873       -14.5819
  17   2.0000      -0.506398       -13.7798
  18   2.0000      -0.476716       -12.9721
  19   2.0000      -0.445017       -12.1095
  20   2.0000      -0.427675       -11.6376
  21   0.0000       0.023930         0.6512
  22   0.0000       0.032318         0.8794
  23   0.0000       0.033951         0.9238
  24   0.0000       0.040091         1.0909
  25   0.0000       0.051222         1.3938

MULLIKEN ATOMIC CHARGES
-----------------------
   0 C :   -0.630193
   1 C :   -0.019837
   2 C :   -0.002472
   3 O :   -0.807603
   4 O :   -0.765930
   5 H :    0.251727
   6 H :    0.380821
   7 H :    0.253374
   8 H :    0.220280
   9 H :    0.297141
  10 H :    0.254645
  11 H :    0.232455
  12 H :    0.335592
Sum of atomic charges:    0.0000000

LOEWDIN ATOMIC CHARGES
----------------------
   0 C :    0.560380
   1 C :    0.169094
   2 C :    0.116961
   3 O :    1.265131
   4 O :    0.871607
   5 H :   -0.311170
   6 H :   -0.327743
   7 H :   -0.310230
   8 H :   -0.302526
   9 H :   -0.325682
  10 H :   -0.300383
  11 H :   -0.305504
  12 H :   -0.799935

  Mayer bond orders larger than 0.100000
B(  0-C ,  4-O ) :   0.9220 B(  0-C ,  5-H ) :   0.9234 B(  0-C ,  6-H ) :   0.8805
B(  0-C ,  7-H ) :   0.9192 B(  1-C ,  2-C ) :   0.9532 B(  1-C ,  3-O ) :   0.6515
B(  1-C ,  8-H ) :   0.9653 B(  1-C ,  9-H ) :   0.8770 B(  2-C ,  4-O ) :   0.7570
B(  2-C , 10-H ) :   0.8794 B(  2-C , 11-H ) :   0.8766 B(  3-O , 12-H ) :   0.8731

MP2 TOTAL ENERGY:     -269.163743399 Eh
FINAL SINGLE POINT ENERGY      -269.163743399330

DIPOLE MOMENT
-------------
                                X             Y             Z
Electronic contribution:      2.57787      -1.79903      -1.16864
Nuclear contribution   :     -3.03491       2.56402       1.99878
                        -----------------------------------------
Total Dipole Moment    :     -0.45704       0.76499       0.83014
                        -----------------------------------------
Magnitude (a.u.)       :      1.21788
Magnitude (Debye)      :      3.09560

Rotational constants in cm-1:     0.464871     0.084365     0.078400
Rotational constants in MHz : 13936.484865  2529.190047  2350.370753

                             ****ORCA TERMINATED NORMALLY****
TOTAL RUN TIME: 0 days 0 hours 15 minutes 25 seconds 247 msec
