                         Program Version 5.0.4 -  RELEASE  -
|  1> !ri-mp2 aug-cc-pvqz aug-cc-pvqz/c tightscf
|  2> %pal nprocs 16 end
|  3>
|  4> * xyz 0 1
|  5> O      0.112000    1.645041    0.000178
|  6> N      0.429060   -0.659026   -0.000089
|  7> N      1.652969   -0.464671   -0.000125
|  8> N      2.770025   -0.386800   -0.000154
|  9> C     -1.813590    0.267150    0.000107
| 10> C     -0.363056    0.533548    0.000075
| 11> C     -2.364559   -0.942577   -0.000011
| 12> H     -2.413662    1.167111    0.000239
| 13> H     -1.760433   -1.838905   -0.000143
| 14> H     -3.439057   -1.063786    0.000022
| 15> *
| 16>
| 17>                          ****END OF INPUT****

CARTESIAN COORDINATES (ANGSTROEM)
---------------------------------
  O      0.112000    1.645041    0.000178
  N      0.429060   -0.659026   -0.000089
  N      1.652969   -0.464671   -0.000125
  N      2.770025   -0.386800   -0.000154
  C     -1.813590    0.267150    0.000107
  C     -0.363056    0.533548    0.000075
  C     -2.364559   -0.942577   -0.000011
  H     -2.413662    1.167111    0.000239
  H     -1.760433   -1.838905   -0.000143
  H     -3.439057   -1.063786    0.000022

 Total Charge           Charge          ....    0
 Multiplicity           Mult            ....    1
 Number of Electrons    NEL             ....   50
 Basis Dimension        Dim             ....  698

ORBITAL ENERGIES
----------------

  NO   OCC          E(Eh)            E(eV)
   0   2.0000     -20.557172      -559.3891
   1   2.0000     -15.808227      -430.1637
   2   2.0000     -15.704707      -427.3468
   3   2.0000     -15.624908      -425.1754
   4   2.0000     -11.383519      -309.7613
   5   2.0000     -11.267594      -306.6068
   6   2.0000     -11.258532      -306.3602
   7   2.0000      -1.540217       -41.9114
   8   2.0000      -1.417702       -38.5776
   9   2.0000      -1.309641       -35.6372
  10   2.0000      -1.096222       -29.8297
  11   2.0000      -0.942869       -25.6568
  12   2.0000      -0.845002       -22.9937
  13   2.0000      -0.739425       -20.1208
  14   2.0000      -0.731690       -19.9103
  15   2.0000      -0.714548       -19.4438
  16   2.0000      -0.692881       -18.8542
  17   2.0000      -0.660029       -17.9603
  18   2.0000      -0.632642       -17.2151
  19   2.0000      -0.577414       -15.7122
  20   2.0000      -0.557468       -15.1695
  21   2.0000      -0.519120       -14.1260
  22   2.0000      -0.441789       -12.0217
  23   2.0000      -0.420528       -11.4431
  24   2.0000      -0.402559       -10.9542
  25   0.0000       0.023054         0.6273
  26   0.0000       0.034027         0.9259
  27   0.0000       0.039356         1.0709
  28   0.0000       0.055099         1.4993
  29   0.0000       0.060061         1.6343

MULLIKEN ATOMIC CHARGES
-----------------------
   0 O :   -0.700446
   1 N :   -0.226178
   2 N :    0.289617
   3 N :   -0.252848
   4 C :   -0.508439
   5 C :    0.871100
   6 C :   -0.641571
   7 H :    0.385856
   8 H :    0.453131
   9 H :    0.329779
Sum of atomic charges:    0.0000000

LOEWDIN ATOMIC CHARGES
----------------------
   0 O :    0.667833
   1 N :    0.263794
   2 N :   -0.274450
   3 N :    0.415219
   4 C :    0.267388
   5 C :   -1.043506
   6 C :    0.784537
   7 H :   -0.372851
   8 H :   -0.372110
   9 H :   -0.335855

  Mayer bond orders larger than 0.100000
B(  0-O ,  4-C ) :   0.1856 B(  0-O ,  5-C ) :   1.3748 B(  1-N ,  2-N ) :   1.3383
B(  1-N ,  3-N ) :   0.1564 B(  1-N ,  5-C ) :   1.0315 B(  2-N ,  3-N ) :   2.2766
B(  2-N ,  5-C ) :  -0.1017 B(  4-C ,  5-C ) :   1.0038 B(  4-C ,  6-C ) :   1.7502
B(  4-C ,  7-H ) :   0.8581 B(  6-C ,  8-H ) :   0.7606 B(  6-C ,  9-H ) :   0.9732

MP2 TOTAL ENERGY:     -355.015836070 Eh
FINAL SINGLE POINT ENERGY      -355.015836069563

DIPOLE MOMENT
-------------
                                X             Y             Z
Electronic contribution:      6.65430       0.72845      -0.00019
Nuclear contribution   :     -7.33503      -1.66234       0.00012
                        -----------------------------------------
Total Dipole Moment    :     -0.68073      -0.93388      -0.00008
                        -----------------------------------------
Magnitude (a.u.)       :      1.15565
Magnitude (Debye)      :      2.93743

Rotational constants in cm-1:     0.224013     0.060816     0.047831
Rotational constants in MHz :  6715.752479  1823.222942  1433.932456

                             ****ORCA TERMINATED NORMALLY****
TOTAL RUN TIME: 0 days 0 hours 12 minutes 49 seconds 176 msec
