                         Program Version 5.0.4 -  RELEASE  -
|  1> !ri-mp2 aug-cc-pvqz aug-cc-pvqz/c tightscf
|  2> %pal nprocs 16 end
|  3>
|  4> * xyz 0 1
|  5> C      1.231266   -1.050200        0.000000
|  6> C      1.247252    0.302719        0.000000
|  7> C     -0.014010   -1.744866        0.000000
|  8> C      0.000000    1.044703        0.000000
|  9> N     -1.158816   -1.129309        0.000000
| 10> N     -1.120005    0.204852        0.000000
| 11> O     -0.133213    2.257718        0.000000
| 12> H      2.151945   -1.618873        0.000000
| 13> H      2.161023    0.878599        0.000000
| 14> H     -0.060616   -2.824365        0.000000
| 15> H     -2.021955    0.659959        0.000000
| 16> *
| 17>
| 18>                          ****END OF INPUT****

CARTESIAN COORDINATES (ANGSTROEM)
---------------------------------
  C      1.231266   -1.050200    0.000000
  C      1.247252    0.302719    0.000000
  C     -0.014010   -1.744866    0.000000
  C      0.000000    1.044703    0.000000
  N     -1.158816   -1.129309    0.000000
  N     -1.120005    0.204852    0.000000
  O     -0.133213    2.257718    0.000000
  H      2.151945   -1.618873    0.000000
  H      2.161023    0.878599    0.000000
  H     -0.060616   -2.824365    0.000000
  H     -2.021955    0.659959    0.000000

 Total Charge           Charge          ....    0
 Multiplicity           Mult            ....    1
 Number of Electrons    NEL             ....   50
 Basis Dimension        Dim             ....  744

ORBITAL ENERGIES
----------------

  NO   OCC          E(Eh)            E(eV)
   0   2.0000     -20.522581      -558.4478
   1   2.0000     -15.649268      -425.8382
   2   2.0000     -15.644847      -425.7179
   3   2.0000     -11.366278      -309.2921
   4   2.0000     -11.292289      -307.2788
   5   2.0000     -11.285936      -307.1059
   6   2.0000     -11.270439      -306.6842
   7   2.0000      -1.408857       -38.3370
   8   2.0000      -1.353602       -36.8334
   9   2.0000      -1.146495       -31.1977
  10   2.0000      -1.109612       -30.1941
  11   2.0000      -0.924415       -25.1546
  12   2.0000      -0.893500       -24.3134
  13   2.0000      -0.776084       -21.1183
  14   2.0000      -0.730665       -19.8824
  15   2.0000      -0.681494       -18.5444
  16   2.0000      -0.644274       -17.5316
  17   2.0000      -0.637854       -17.3569
  18   2.0000      -0.609334       -16.5808
  19   2.0000      -0.587028       -15.9739
  20   2.0000      -0.522131       -14.2079
  21   2.0000      -0.501462       -13.6455
  22   2.0000      -0.443372       -12.0648
  23   2.0000      -0.428508       -11.6603
  24   2.0000      -0.349433        -9.5086
  25   0.0000       0.018774         0.5109
  26   0.0000       0.028997         0.7890
  27   0.0000       0.034495         0.9387
  28   0.0000       0.045339         1.2337
  29   0.0000       0.050302         1.3688

MULLIKEN ATOMIC CHARGES
-----------------------
   0 C :   -0.378462
   1 C :   -0.397815
   2 C :   -0.214797
   3 C :    1.090625
   4 N :   -0.396610
   5 N :   -0.274022
   6 O :   -0.810208
   7 H :    0.333125
   8 H :    0.341295
   9 H :    0.452769
  10 H :    0.254099
Sum of atomic charges:    0.0000000

LOEWDIN ATOMIC CHARGES
----------------------
   0 C :    0.334838
   1 C :    0.326964
   2 C :    0.076502
   3 C :   -0.882059
   4 N :    0.490948
   5 N :    0.552107
   6 O :    0.656421
   7 H :   -0.318396
   8 H :   -0.333788
   9 H :   -0.369857
  10 H :   -0.533681

  Mayer bond orders larger than 0.100000
B(  0-C ,  1-C ) :   1.5182 B(  0-C ,  2-C ) :   1.0467 B(  0-C ,  3-C ) :  -0.1314
B(  0-C ,  7-H ) :   0.9667 B(  1-C ,  3-C ) :   1.1736 B(  1-C ,  6-O ) :   0.2234
B(  1-C ,  8-H ) :   0.9066 B(  2-C ,  4-N ) :   1.5883 B(  2-C ,  9-H ) :   0.8901
B(  3-C ,  5-N ) :   1.0647 B(  3-C ,  6-O ) :   1.1416 B(  4-N ,  5-N ) :   0.4575
B(  5-N ,  6-O ) :   0.1983 B(  5-N , 10-H ) :   1.0466

MP2 TOTAL ENERGY:     -339.023679676 Eh
FINAL SINGLE POINT ENERGY      -339.023679675938

DIPOLE MOMENT
-------------
                                X             Y             Z
Electronic contribution:     -1.55279       1.32886       0.00000
Nuclear contribution   :      2.16455      -2.80914       0.00000
                        -----------------------------------------
Total Dipole Moment    :      0.61176      -1.48028       0.00000
                        -----------------------------------------
Magnitude (a.u.)       :      1.60171
Magnitude (Debye)      :      4.07122

Rotational constants in cm-1:     0.193986     0.095809     0.064134
Rotational constants in MHz :  5815.566481  2872.275672  1922.676520

                             ****ORCA TERMINATED NORMALLY****
TOTAL RUN TIME: 0 days 0 hours 20 minutes 17 seconds 726 msec
