                         Program Version 5.0.4 -  RELEASE  -
|  1> !ri-mp2 aug-cc-pvqz aug-cc-pvqz/c tightscf
|  2> %pal nprocs 16 end
|  3>
|  4> * xyz 0 1
|  5> C    -1.966141   -0.243997    0.652074
|  6> C     1.427449   -0.406198   -0.004522
|  7> C     0.548506    0.597372   -0.160463
|  8> C     1.159927   -1.840030   -0.373853
|  9> C     2.811134   -0.200827    0.559532
| 10> C     0.786607    2.053943    0.137899
| 11> O    -3.126754   -0.539822    0.672071
| 12> S    -1.103623    0.293545   -0.820783
| 13> H    -1.304658   -0.279475    1.536228
| 14> H     1.992891   -2.231161   -0.963195
| 15> H     1.099429   -2.460899    0.524518
| 16> H     0.242889   -1.970157   -0.939207
| 17> H     2.984133    0.790914    0.963815
| 18> H     3.562165   -0.391258   -0.212287
| 19> H     2.996780   -0.925244    1.356070
| 20> H     0.160197    2.390423    0.967818
| 21> H     1.822753    2.273115    0.382174
| 22> H     0.510533    2.664030   -0.723971
| 23> *
| 24>
| 25>                          ****END OF INPUT****

CARTESIAN COORDINATES (ANGSTROEM)
---------------------------------
  C     -1.966141   -0.243997    0.652074
  C      1.427449   -0.406198   -0.004522
  C      0.548506    0.597372   -0.160463
  C      1.159927   -1.840030   -0.373853
  C      2.811134   -0.200827    0.559532
  C      0.786607    2.053943    0.137899
  O     -3.126754   -0.539822    0.672071
  S     -1.103623    0.293545   -0.820783
  H     -1.304658   -0.279475    1.536228
  H      1.992891   -2.231161   -0.963195
  H      1.099429   -2.460899    0.524518
  H      0.242889   -1.970157   -0.939207
  H      2.984133    0.790914    0.963815
  H      3.562165   -0.391258   -0.212287
  H      2.996780   -0.925244    1.356070
  H      0.160197    2.390423    0.967818
  H      1.822753    2.273115    0.382174
  H      0.510533    2.664030   -0.723971

 Total Charge           Charge          ....    0
 Multiplicity           Mult            ....    1
 Number of Electrons    NEL             ....   70
 Basis Dimension        Dim             .... 1104

ORBITAL ENERGIES
----------------

  NO   OCC          E(Eh)            E(eV)
   0   2.0000     -91.969071     -2502.6057
   1   2.0000     -20.562910      -559.5452
   2   2.0000     -11.360803      -309.1432
   3   2.0000     -11.270566      -306.6877
   4   2.0000     -11.267342      -306.6000
   5   2.0000     -11.237585      -305.7902
   6   2.0000     -11.235021      -305.7205
   7   2.0000     -11.231636      -305.6284
   8   2.0000      -8.971723      -244.1330
   9   2.0000      -6.652964      -181.0363
  10   2.0000      -6.652167      -181.0147
  11   2.0000      -6.651600      -180.9992
  12   2.0000      -1.407390       -38.2970
  13   2.0000      -1.138068       -30.9684
  14   2.0000      -1.044010       -28.4090
  15   2.0000      -0.989235       -26.9184
  16   2.0000      -0.952176       -25.9100
  17   2.0000      -0.891455       -24.2577
  18   2.0000      -0.805342       -21.9145
  19   2.0000      -0.707287       -19.2462
  20   2.0000      -0.669066       -18.2062
  21   2.0000      -0.649905       -17.6848
  22   2.0000      -0.626425       -17.0459
  23   2.0000      -0.614135       -16.7115
  24   2.0000      -0.589990       -16.0544
  25   2.0000      -0.573229       -15.5984
  26   2.0000      -0.556385       -15.1400
  27   2.0000      -0.553072       -15.0499
  28   2.0000      -0.550688       -14.9850
  29   2.0000      -0.533934       -14.5291
  30   2.0000      -0.523346       -14.2410
  31   2.0000      -0.461445       -12.5566
  32   2.0000      -0.422299       -11.4913
  33   2.0000      -0.374874       -10.2008
  34   2.0000      -0.356006        -9.6874
  35   0.0000       0.019622         0.5339
  36   0.0000       0.027071         0.7366
  37   0.0000       0.030040         0.8174
  38   0.0000       0.032996         0.8979
  39   0.0000       0.045811         1.2466

MULLIKEN ATOMIC CHARGES
-----------------------
   0 C :    0.099942
   1 C :    0.183786
   2 C :    0.029304
   3 C :   -0.884062
   4 C :   -0.816058
   5 C :   -0.836386
   6 O :   -0.746746
   7 S :    0.060403
   8 H :    0.421236
   9 H :    0.292280
  10 H :    0.243828
  11 H :    0.316813
  12 H :    0.294525
  13 H :    0.276331
  14 H :    0.237563
  15 H :    0.250134
  16 H :    0.276063
  17 H :    0.301045
Sum of atomic charges:   -0.0000000

LOEWDIN ATOMIC CHARGES
----------------------
   0 C :   -0.674343
   1 C :   -0.121042
   2 C :   -0.436018
   3 C :    0.860734
   4 C :    0.907760
   5 C :    0.804376
   6 O :    0.576476
   7 S :    1.277466
   8 H :   -0.444290
   9 H :   -0.283417
  10 H :   -0.275883
  11 H :   -0.368123
  12 H :   -0.330233
  13 H :   -0.269938
  14 H :   -0.278408
  15 H :   -0.294379
  16 H :   -0.338131
  17 H :   -0.312607

  Mayer bond orders larger than 0.100000
B(  0-C ,  6-O ) :   1.4904 B(  0-C ,  7-S ) :   1.2064 B(  0-C ,  8-H ) :   0.7944
B(  1-C ,  2-C ) :   1.4374 B(  1-C ,  3-C ) :   0.7443 B(  1-C ,  4-C ) :   0.6912
B(  2-C ,  5-C ) :   0.7545 B(  2-C ,  7-S ) :   0.7739 B(  3-C ,  9-H ) :   0.9733
B(  3-C , 10-H ) :   0.9662 B(  3-C , 11-H ) :   0.9490 B(  4-C , 12-H ) :   0.9629
B(  4-C , 13-H ) :   0.9769 B(  4-C , 14-H ) :   1.0087 B(  5-C , 15-H ) :   0.9874
B(  5-C , 16-H ) :   0.9899 B(  5-C , 17-H ) :   0.9799 B(  6-O ,  7-S ) :   0.1125

MP2 TOTAL ENERGY:     -707.072726315 Eh
FINAL SINGLE POINT ENERGY      -707.072726315035

DIPOLE MOMENT
-------------
                                X             Y             Z
Electronic contribution:    -12.24934       0.29924      -2.62478
Nuclear contribution   :     14.18787      -0.15880       2.95622
                        -----------------------------------------
Total Dipole Moment    :      1.93853       0.14043       0.33144
                        -----------------------------------------
Magnitude (a.u.)       :      1.97167
Magnitude (Debye)      :      5.01159

Rotational constants in cm-1:     0.088805     0.035329     0.029591
Rotational constants in MHz :  2662.312258  1059.141772   887.112436

                             ****ORCA TERMINATED NORMALLY****
TOTAL RUN TIME: 0 days 1 hours 7 minutes 29 seconds 362 msec
