                         Program Version 5.0.4 -  RELEASE  -
|  1> !ri-mp2 aug-cc-pvqz aug-cc-pvqz/c tightscf
|  2> %pal nprocs 16 end
|  3>
|  4> * xyz 0 1
|  5> O     -0.000005    1.187716    0.000000
|  6> C      0.000009    0.367981    1.174300
|  7> C      0.000009   -1.040764    0.662346
|  8> C      0.000009   -1.040764   -0.662346
|  9> C      0.000009    0.367981   -1.174300
| 10> H     -0.884524    0.596428    1.780702
| 11> H      0.884421    0.596465    1.780810
| 12> H      0.884421    0.596465   -1.780810
| 13> H     -0.884524    0.596428   -1.780702
| 14> H      0.000016   -1.907063    1.307178
| 15> H      0.000016   -1.907063   -1.307178
| 16> *
| 17>
| 18>                          ****END OF INPUT****

CARTESIAN COORDINATES (ANGSTROEM)
---------------------------------
  O     -0.000005    1.187716    0.000000
  C      0.000009    0.367981    1.174300
  C      0.000009   -1.040764    0.662346
  C      0.000009   -1.040764   -0.662346
  C      0.000009    0.367981   -1.174300
  H     -0.884524    0.596428    1.780702
  H      0.884421    0.596465    1.780810
  H      0.884421    0.596465   -1.780810
  H     -0.884524    0.596428   -1.780702
  H      0.000016   -1.907063    1.307178
  H      0.000016   -1.907063   -1.307178

 Total Charge           Charge          ....    0
 Multiplicity           Mult            ....    1
 Number of Electrons    NEL             ....   38
 Basis Dimension        Dim             ....  676

ORBITAL ENERGIES
----------------

  NO   OCC          E(Eh)            E(eV)
   0   2.0000     -20.548329      -559.1485
   1   2.0000     -11.277796      -306.8844
   2   2.0000     -11.277773      -306.8838
   3   2.0000     -11.233722      -305.6851
   4   2.0000     -11.231903      -305.6356
   5   2.0000      -1.370670       -37.2978
   6   2.0000      -1.073755       -29.2184
   7   2.0000      -0.991567       -26.9819
   8   2.0000      -0.829687       -22.5769
   9   2.0000      -0.763571       -20.7778
  10   2.0000      -0.698447       -19.0057
  11   2.0000      -0.664498       -18.0819
  12   2.0000      -0.582438       -15.8489
  13   2.0000      -0.570860       -15.5339
  14   2.0000      -0.567447       -15.4410
  15   2.0000      -0.510579       -13.8936
  16   2.0000      -0.489157       -13.3106
  17   2.0000      -0.437443       -11.9034
  18   2.0000      -0.353958        -9.6317
  19   0.0000       0.025301         0.6885
  20   0.0000       0.031286         0.8513
  21   0.0000       0.037566         1.0222
  22   0.0000       0.038909         1.0588
  23   0.0000       0.047908         1.3037

MULLIKEN ATOMIC CHARGES
-----------------------
   0 O :   -0.738115
   1 C :   -0.228786
   2 C :   -0.508236
   3 C :   -0.508236
   4 C :   -0.228786
   5 H :    0.318433
   6 H :    0.318511
   7 H :    0.318511
   8 H :    0.318433
   9 H :    0.469135
  10 H :    0.469135
Sum of atomic charges:   -0.0000000

LOEWDIN ATOMIC CHARGES
----------------------
   0 O :    0.857880
   1 C :    0.133652
   2 C :    0.360216
   3 C :    0.360216
   4 C :    0.133652
   5 H :   -0.306479
   6 H :   -0.306494
   7 H :   -0.306494
   8 H :   -0.306479
   9 H :   -0.309836
  10 H :   -0.309836

  Mayer bond orders larger than 0.100000
B(  0-O ,  1-C ) :   0.8343 B(  0-O ,  4-C ) :   0.8343 B(  1-C ,  2-C ) :   1.0910
B(  1-C ,  4-C ) :   0.1163 B(  1-C ,  5-H ) :   0.8711 B(  1-C ,  6-H ) :   0.8711
B(  2-C ,  3-C ) :   1.6605 B(  2-C ,  9-H ) :   0.7566 B(  3-C ,  4-C ) :   1.0910
B(  3-C , 10-H ) :   0.7566 B(  4-C ,  7-H ) :   0.8711 B(  4-C ,  8-H ) :   0.8711

MP2 TOTAL ENERGY:     -230.839173129 Eh
FINAL SINGLE POINT ENERGY      -230.839173128834

DIPOLE MOMENT
-------------
                                X             Y             Z
Electronic contribution:      0.00020       0.73858      -0.00000
Nuclear contribution   :     -0.00018      -1.43527       0.00000
                        -----------------------------------------
Total Dipole Moment    :      0.00003      -0.69669      -0.00000
                        -----------------------------------------
Magnitude (a.u.)       :      0.69669
Magnitude (Debye)      :      1.77085

Rotational constants in cm-1:     0.267373     0.264496     0.139926
Rotational constants in MHz :  8015.638622  7929.381162  4194.861919

                             ****ORCA TERMINATED NORMALLY****
TOTAL RUN TIME: 0 days 0 hours 12 minutes 28 seconds 570 msec
