                         Program Version 5.0.4 -  RELEASE  -
|  1> !ri-mp2 aug-cc-pvqz aug-cc-pvqz/c tightscf
|  2> %pal nprocs 16 end
|  3> %maxcore 3800
|  4>
|  5> * xyz 0 1
|  6> C      4.089165    0.588477    0.122469
|  7> C      2.923903   -0.328181   -0.246075
|  8> C      1.567017    0.231891    0.182347
|  9> C      0.411798   -0.680523   -0.186833
| 10> C     -3.172463   -0.056120    0.344075
| 11> C     -1.956993   -0.859646   -0.067429
| 12> O     -3.273599    1.167332   -0.370804
| 13> O     -0.806302   -0.090619    0.241637
| 14> H      3.988063    1.565495   -0.353995
| 15> H      4.136511    0.751152    1.200924
| 16> H      5.043295    0.163461   -0.191317
| 17> H      2.923021   -0.497172   -1.326931
| 18> H      3.074567   -1.308953    0.214777
| 19> H      1.555650    0.393751    1.263323
| 20> H      1.405218    1.208369   -0.282062
| 21> H      0.381813   -0.843154   -1.272776
| 22> H      0.532797   -1.663858    0.288024
| 23> H     -3.138051    0.127329    1.424009
| 24> H     -4.077395   -0.622897    0.124143
| 25> H     -1.992298   -1.069512   -1.143946
| 26> H     -1.937954   -1.816743    0.471425
| 27> H     -2.430595    1.623640   -0.273584
| 28> *
| 29>
| 30>                          ****END OF INPUT****

CARTESIAN COORDINATES (ANGSTROEM)
---------------------------------
  C      4.089165    0.588477    0.122469
  C      2.923903   -0.328181   -0.246075
  C      1.567017    0.231891    0.182347
  C      0.411798   -0.680523   -0.186833
  C     -3.172463   -0.056120    0.344075
  C     -1.956993   -0.859646   -0.067429
  O     -3.273599    1.167332   -0.370804
  O     -0.806302   -0.090619    0.241637
  H      3.988063    1.565495   -0.353995
  H      4.136511    0.751152    1.200924
  H      5.043295    0.163461   -0.191317
  H      2.923021   -0.497172   -1.326931
  H      3.074567   -1.308953    0.214777
  H      1.555650    0.393751    1.263323
  H      1.405218    1.208369   -0.282062
  H      0.381813   -0.843154   -1.272776
  H      0.532797   -1.663858    0.288024
  H     -3.138051    0.127329    1.424009
  H     -4.077395   -0.622897    0.124143
  H     -1.992298   -1.069512   -1.143946
  H     -1.937954   -1.816743    0.471425
  H     -2.430595    1.623640   -0.273584

 Total Charge           Charge          ....    0
 Multiplicity           Mult            ....    1
 Number of Electrons    NEL             ....   66
 Basis Dimension        Dim             .... 1284

ORBITAL ENERGIES
----------------

  NO   OCC          E(Eh)            E(eV)
   0   2.0000     -20.558902      -559.4362
   1   2.0000     -20.547112      -559.1153
   2   2.0000     -11.276580      -306.8513
   3   2.0000     -11.276400      -306.8464
   4   2.0000     -11.271493      -306.7129
   5   2.0000     -11.223917      -305.4183
   6   2.0000     -11.219819      -305.3068
   7   2.0000     -11.214491      -305.1618
   8   2.0000      -1.382877       -37.6300
   9   2.0000      -1.347257       -36.6607
  10   2.0000      -1.079622       -29.3780
  11   2.0000      -1.016223       -27.6528
  12   2.0000      -0.962763       -26.1981
  13   2.0000      -0.863127       -23.4869
  14   2.0000      -0.831461       -22.6252
  15   2.0000      -0.800551       -21.7841
  16   2.0000      -0.695918       -18.9369
  17   2.0000      -0.683465       -18.5980
  18   2.0000      -0.659124       -17.9357
  19   2.0000      -0.642239       -17.4762
  20   2.0000      -0.616172       -16.7669
  21   2.0000      -0.588306       -16.0086
  22   2.0000      -0.584398       -15.9023
  23   2.0000      -0.560294       -15.2464
  24   2.0000      -0.548884       -14.9359
  25   2.0000      -0.518316       -14.1041
  26   2.0000      -0.507546       -13.8110
  27   2.0000      -0.489620       -13.3232
  28   2.0000      -0.478773       -13.0281
  29   2.0000      -0.472632       -12.8610
  30   2.0000      -0.465921       -12.6784
  31   2.0000      -0.438850       -11.9417
  32   2.0000      -0.430310       -11.7093
  33   0.0000       0.024580         0.6689
  34   0.0000       0.027709         0.7540
  35   0.0000       0.031604         0.8600
  36   0.0000       0.033312         0.9065
  37   0.0000       0.040763         1.1092

MULLIKEN ATOMIC CHARGES
-----------------------
   0 C :   -0.889623
   1 C :   -0.471637
   2 C :   -0.427606
   3 C :    0.304197
   4 C :   -0.012981
   5 C :   -0.224507
   6 O :   -0.845379
   7 O :   -0.914911
   8 H :    0.224260
   9 H :    0.223084
  10 H :    0.253690
  11 H :    0.233771
  12 H :    0.229580
  13 H :    0.244278
  14 H :    0.227037
  15 H :    0.232426
  16 H :    0.234050
  17 H :    0.175461
  18 H :    0.330349
  19 H :    0.232962
  20 H :    0.294014
  21 H :    0.347482
Sum of atomic charges:   -0.0000000

LOEWDIN ATOMIC CHARGES
----------------------
   0 C :    0.927105
   1 C :    0.500938
   2 C :    0.492877
   3 C :    0.160938
   4 C :    0.164504
   5 C :    0.144505
   6 O :    1.266911
   7 O :    0.900847
   8 H :   -0.284579
   9 H :   -0.284740
  10 H :   -0.284033
  11 H :   -0.273564
  12 H :   -0.273583
  13 H :   -0.273590
  14 H :   -0.273983
  15 H :   -0.289104
  16 H :   -0.287213
  17 H :   -0.299616
  18 H :   -0.318767
  19 H :   -0.298658
  20 H :   -0.289557
  21 H :   -0.827641

  Mayer bond orders larger than 0.100000
B(  0-C ,  1-C ) :   1.0362 B(  0-C ,  2-C ) :  -0.1080 B(  0-C ,  8-H ) :   0.9575
B(  0-C ,  9-H ) :   0.9585 B(  0-C , 10-H ) :   1.0274 B(  1-C ,  2-C ) :   0.9610
B(  1-C , 11-H ) :   0.8721 B(  1-C , 12-H ) :   0.8783 B(  2-C ,  3-C ) :   1.1367
B(  2-C ,  7-O ) :   0.1534 B(  2-C , 13-H ) :   0.8527 B(  2-C , 14-H ) :   0.8667
B(  3-C ,  7-O ) :   0.7487 B(  3-C , 15-H ) :   0.8671 B(  3-C , 16-H ) :   0.8292
B(  4-C ,  5-C ) :   1.0106 B(  4-C ,  6-O ) :   0.6121 B(  4-C , 17-H ) :   0.9855
B(  4-C , 18-H ) :   0.8997 B(  5-C ,  7-O ) :   0.8922 B(  5-C , 19-H ) :   0.8808
B(  5-C , 20-H ) :   0.8516 B(  6-O , 21-H ) :   0.8534

MP2 TOTAL ENERGY:     -386.882138461 Eh
FINAL SINGLE POINT ENERGY      -386.882138460686

DIPOLE MOMENT
-------------
                                X             Y             Z
Electronic contribution:     -9.12256       1.34086      -0.05185
Nuclear contribution   :      9.85984      -2.06852       0.14682
                        -----------------------------------------
Total Dipole Moment    :      0.73728      -0.72767       0.09497
                        -----------------------------------------
Magnitude (a.u.)       :      1.04024
Magnitude (Debye)      :      2.64408

Rotational constants in cm-1:     0.219126     0.020500     0.019474
Rotational constants in MHz :  6569.225253   614.569219   583.812744

                             ****ORCA TERMINATED NORMALLY****
TOTAL RUN TIME: 0 days 1 hours 11 minutes 27 seconds 150 msec
