                         Program Version 5.0.4 -  RELEASE  -
|  1> !ri-mp2 aug-cc-pvqz aug-cc-pvqz/c tightscf
|  2> %pal nprocs 16 end
|  3>
|  4> * xyz 0 1
|  5> C     -0.186018    1.136555   -0.016276
|  6> C      2.009439    0.143910   -0.020263
|  7> C     -1.688458    0.930915   -0.085110
|  8> C     -2.193334   -0.451194    0.319463
|  9> C     -1.329801   -1.518012   -0.342061
| 10> C      0.110985   -1.389348    0.120028
| 11> N      0.625043   -0.010474   -0.004995
| 12> O      0.292401    2.250735   -0.012180
| 13> O      2.774688   -0.789444    0.046595
| 14> H      2.318270    1.188945   -0.103512
| 15> H     -2.134838    1.730283    0.504410
| 16> H     -1.958505    1.134988   -1.126204
| 17> H     -2.147779   -0.565223    1.406075
| 18> H     -3.240882   -0.559386    0.036482
| 19> H     -1.680512   -2.521239   -0.096983
| 20> H     -1.383960   -1.417352   -1.429648
| 21> H      0.200795   -1.695360    1.165693
| 22> H      0.778519   -2.029625   -0.451356
| 23> *
| 24>
| 25>                          ****END OF INPUT****

CARTESIAN COORDINATES (ANGSTROEM)
---------------------------------
  C     -0.186018    1.136555   -0.016276
  C      2.009439    0.143910   -0.020263
  C     -1.688458    0.930915   -0.085110
  C     -2.193334   -0.451194    0.319463
  C     -1.329801   -1.518012   -0.342061
  C      0.110985   -1.389348    0.120028
  N      0.625043   -0.010474   -0.004995
  O      0.292401    2.250735   -0.012180
  O      2.774688   -0.789444    0.046595
  H      2.318270    1.188945   -0.103512
  H     -2.134838    1.730283    0.504410
  H     -1.958505    1.134988   -1.126204
  H     -2.147779   -0.565223    1.406075
  H     -3.240882   -0.559386    0.036482
  H     -1.680512   -2.521239   -0.096983
  H     -1.383960   -1.417352   -1.429648
  H      0.200795   -1.695360    1.165693
  H      0.778519   -2.029625   -0.451356

 Total Charge           Charge          ....    0
 Multiplicity           Mult            ....    1
 Number of Electrons    NEL             ....   68
 Basis Dimension        Dim             .... 1134

ORBITAL ENERGIES
----------------

  NO   OCC          E(Eh)            E(eV)
   0   2.0000     -20.546797      -559.1068
   1   2.0000     -20.542566      -558.9916
   2   2.0000     -15.616828      -424.9555
   3   2.0000     -11.376426      -309.5683
   4   2.0000     -11.358335      -309.0760
   5   2.0000     -11.281387      -306.9821
   6   2.0000     -11.255276      -306.2716
   7   2.0000     -11.249562      -306.1162
   8   2.0000     -11.247930      -306.0717
   9   2.0000      -1.418964       -38.6120
  10   2.0000      -1.395719       -37.9795
  11   2.0000      -1.262653       -34.3585
  12   2.0000      -1.112006       -30.2592
  13   2.0000      -1.033463       -28.1220
  14   2.0000      -0.938284       -25.5320
  15   2.0000      -0.878761       -23.9123
  16   2.0000      -0.836390       -22.7593
  17   2.0000      -0.753875       -20.5140
  18   2.0000      -0.706053       -19.2127
  19   2.0000      -0.688391       -18.7321
  20   2.0000      -0.667655       -18.1678
  21   2.0000      -0.636007       -17.3066
  22   2.0000      -0.626610       -17.0509
  23   2.0000      -0.619606       -16.8603
  24   2.0000      -0.615285       -16.7428
  25   2.0000      -0.596358       -16.2277
  26   2.0000      -0.541831       -14.7440
  27   2.0000      -0.521674       -14.1955
  28   2.0000      -0.519601       -14.1391
  29   2.0000      -0.502644       -13.6776
  30   2.0000      -0.496535       -13.5114
  31   2.0000      -0.466511       -12.6944
  32   2.0000      -0.423913       -11.5353
  33   2.0000      -0.409567       -11.1449
  34   0.0000       0.017615         0.4793
  35   0.0000       0.028147         0.7659
  36   0.0000       0.028811         0.7840
  37   0.0000       0.034257         0.9322
  38   0.0000       0.046032         1.2526

MULLIKEN ATOMIC CHARGES
-----------------------
   0 C :    1.207105
   1 C :    0.460871
   2 C :   -0.533162
   3 C :   -0.470128
   4 C :   -0.484328
   5 C :   -0.365969
   6 N :   -0.539552
   7 O :   -0.913230
   8 O :   -0.827400
   9 H :    0.433058
  10 H :    0.288509
  11 H :    0.212729
  12 H :    0.170816
  13 H :    0.312552
  14 H :    0.287686
  15 H :    0.213322
  16 H :    0.209150
  17 H :    0.337972
Sum of atomic charges:    0.0000000

LOEWDIN ATOMIC CHARGES
----------------------
   0 C :   -0.793066
   1 C :   -0.422259
   2 C :    0.503523
   3 C :    0.533375
   4 C :    0.535371
   5 C :    0.360429
   6 N :    0.413362
   7 O :    0.741537
   8 O :    0.716962
   9 H :   -0.409256
  10 H :   -0.290565
  11 H :   -0.275003
  12 H :   -0.262043
  13 H :   -0.256974
  14 H :   -0.256378
  15 H :   -0.259121
  16 H :   -0.261775
  17 H :   -0.318120

  Mayer bond orders larger than 0.100000
B(  0-C ,  2-C ) :   0.9676 B(  0-C ,  3-C ) :  -0.1121 B(  0-C ,  6-N ) :   1.0627
B(  0-C ,  7-O ) :   0.9207 B(  1-C ,  6-N ) :   1.2390 B(  1-C ,  8-O ) :   1.4885
B(  1-C ,  9-H ) :   0.7872 B(  2-C ,  3-C ) :   0.9994 B(  2-C ,  7-O ) :   0.2153
B(  2-C , 10-H ) :   0.9396 B(  2-C , 11-H ) :   0.9303 B(  3-C ,  4-C ) :   0.9626
B(  3-C , 12-H ) :   0.9831 B(  3-C , 13-H ) :   0.8735 B(  4-C ,  5-C ) :   0.9531
B(  4-C , 14-H ) :   0.9056 B(  4-C , 15-H ) :   0.9513 B(  5-C ,  6-N ) :   0.7459
B(  5-C , 16-H ) :   0.9861 B(  5-C , 17-H ) :   0.9137 B(  6-N ,  7-O ) :   0.2904
B(  6-N ,  8-O ) :   0.1192

MP2 TOTAL ENERGY:     -438.612735070 Eh
FINAL SINGLE POINT ENERGY      -438.612735070180

DIPOLE MOMENT
-------------
                                X             Y             Z
Electronic contribution:      7.44752       4.03474       0.03828
Nuclear contribution   :     -9.23781      -4.73196      -0.09495
                        -----------------------------------------
Total Dipole Moment    :     -1.79029      -0.69722      -0.05667
                        -----------------------------------------
Magnitude (a.u.)       :      1.92210
Magnitude (Debye)      :      4.88558

Rotational constants in cm-1:     0.083386     0.050098     0.032518
Rotational constants in MHz :  2499.850164  1501.893695   974.852515

                             ****ORCA TERMINATED NORMALLY****
TOTAL RUN TIME: 0 days 1 hours 12 minutes 29 seconds 877 msec
