                         Program Version 5.0.4 -  RELEASE  -
|  1> !ri-mp2 aug-cc-pvqz aug-cc-pvqz/c tightscf
|  2> %pal nprocs 16 end
|  3>
|  4> * xyz 0 1
|  5> O      1.200695   -1.750566    0.240229
|  6> N      2.095132    0.298369   -0.157996
|  7> N     -2.390612   -1.479398   -0.111412
|  8> N     -0.628948    2.555406   -0.003648
|  9> C     -0.321090    0.047446   -0.017924
| 10> C      1.054680   -0.568996    0.024318
| 11> C     -1.457343   -0.805306   -0.066056
| 12> C     -0.506482    1.358873    0.056891
| 13> H      1.962629    1.187336   -0.607887
| 14> H      3.009679   -0.117160   -0.220990
| 15> H     -0.725463    3.121623    0.835062
| 16> *
| 17>
| 18>                          ****END OF INPUT****

CARTESIAN COORDINATES (ANGSTROEM)
---------------------------------
  O      1.200695   -1.750566    0.240229
  N      2.095132    0.298369   -0.157996
  N     -2.390612   -1.479398   -0.111412
  N     -0.628948    2.555406   -0.003648
  C     -0.321090    0.047446   -0.017924
  C      1.054680   -0.568996    0.024318
  C     -1.457343   -0.805306   -0.066056
  C     -0.506482    1.358873    0.056891
  H      1.962629    1.187336   -0.607887
  H      3.009679   -0.117160   -0.220990
  H     -0.725463    3.121623    0.835062

 Total Charge           Charge          ....    0
 Multiplicity           Mult            ....    1
 Number of Electrons    NEL             ....   56
 Basis Dimension        Dim             ....  778

ORBITAL ENERGIES
----------------

  NO   OCC          E(Eh)            E(eV)
   0   2.0000     -20.546354      -559.0947
   1   2.0000     -15.652038      -425.9136
   2   2.0000     -15.608570      -424.7308
   3   2.0000     -15.575231      -423.8236
   4   2.0000     -11.394292      -310.0544
   5   2.0000     -11.393935      -310.0447
   6   2.0000     -11.312435      -307.8270
   7   2.0000     -11.285887      -307.1046
   8   2.0000      -1.415332       -38.5132
   9   2.0000      -1.322064       -35.9752
  10   2.0000      -1.241907       -33.7940
  11   2.0000      -1.228029       -33.4164
  12   2.0000      -1.116504       -30.3816
  13   2.0000      -0.878911       -23.9164
  14   2.0000      -0.851259       -23.1639
  15   2.0000      -0.793582       -21.5945
  16   2.0000      -0.772223       -21.0132
  17   2.0000      -0.695060       -18.9135
  18   2.0000      -0.639544       -17.4029
  19   2.0000      -0.636906       -17.3311
  20   2.0000      -0.596643       -16.2355
  21   2.0000      -0.570170       -15.5151
  22   2.0000      -0.552110       -15.0237
  23   2.0000      -0.515026       -14.0146
  24   2.0000      -0.477371       -12.9899
  25   2.0000      -0.462323       -12.5804
  26   2.0000      -0.443855       -12.0779
  27   2.0000      -0.388896       -10.5824
  28   0.0000       0.009010         0.2452
  29   0.0000       0.022149         0.6027
  30   0.0000       0.040115         1.0916
  31   0.0000       0.051989         1.4147
  32   0.0000       0.059319         1.6141

MULLIKEN ATOMIC CHARGES
-----------------------
   0 O :   -0.722987
   1 N :   -0.699047
   2 N :   -0.709265
   3 N :   -0.731130
   4 C :   -0.540664
   5 C :    1.072590
   6 C :    0.623885
   7 C :    0.741693
   8 H :    0.321733
   9 H :    0.260711
  10 H :    0.382481
Sum of atomic charges:   -0.0000000

LOEWDIN ATOMIC CHARGES
----------------------
   0 O :    0.698110
   1 N :    1.227587
   2 N :    0.413624
   3 N :    0.990594
   4 C :   -0.272498
   5 C :   -0.921244
   6 C :   -0.396366
   7 C :   -0.091363
   8 H :   -0.519542
   9 H :   -0.497338
  10 H :   -0.631563

  Mayer bond orders larger than 0.100000
B(  0-O ,  1-N ) :   0.1043 B(  0-O ,  4-C ) :   0.2745 B(  0-O ,  5-C ) :   1.3139
B(  1-N ,  5-C ) :   1.1447 B(  1-N ,  8-H ) :   0.8624 B(  1-N ,  9-H ) :   0.9663
B(  2-N ,  6-C ) :   2.4320 B(  3-N ,  7-C ) :   1.9638 B(  3-N , 10-H ) :   0.7708
B(  4-C ,  5-C ) :   0.9623 B(  4-C ,  6-C ) :   1.2681 B(  4-C ,  7-C ) :   1.6919
B(  5-C ,  6-C ) :  -0.1622 B(  6-C ,  7-C ) :  -0.1093

MP2 TOTAL ENERGY:     -393.087078219 Eh
FINAL SINGLE POINT ENERGY      -393.087078219148

DIPOLE MOMENT
-------------
                                X             Y             Z
Electronic contribution:     -2.80234      -1.28241       0.15510
Nuclear contribution   :      4.10741       4.02250       0.00807
                        -----------------------------------------
Total Dipole Moment    :      1.30508       2.74009       0.16317
                        -----------------------------------------
Magnitude (a.u.)       :      3.03940
Magnitude (Debye)      :      7.72554

Rotational constants in cm-1:     0.076616     0.073496     0.037956
Rotational constants in MHz :  2296.888972  2203.347533  1137.894052

                             ****ORCA TERMINATED NORMALLY****
TOTAL RUN TIME: 0 days 0 hours 15 minutes 27 seconds 199 msec
