                         Program Version 5.0.4 -  RELEASE  -
|  1> !ri-mp2 aug-cc-pvqz aug-cc-pvqz/c tightscf
|  2> %pal nprocs 16 end
|  3>
|  4> * xyz 0 1
|  5> S    -1.764262   -0.028731    0.281446
|  6> O     0.586821   -1.114709   -0.509303
|  7> N    -0.251683    0.006912   -0.828675
|  8> N     0.614061    1.105043   -0.503142
|  9> C     1.485936   -0.681423    0.451316
| 10> C     1.501411    0.645466    0.492509
| 11> H    -1.126094    0.003515    1.472452
| 12> H     0.064649    1.928199   -0.298450
| 13> H     2.039233   -1.439683    0.972831
| 14> H     2.095103    1.317395    1.084212
| 15> *
| 16>
| 17>                          ****END OF INPUT****

CARTESIAN COORDINATES (ANGSTROEM)
---------------------------------
  S     -1.764262   -0.028731    0.281446
  O      0.586821   -1.114709   -0.509303
  N     -0.251683    0.006912   -0.828675
  N      0.614061    1.105043   -0.503142
  C      1.485936   -0.681423    0.451316
  C      1.501411    0.645466    0.492509
  H     -1.126094    0.003515    1.472452
  H      0.064649    1.928199   -0.298450
  H      2.039233   -1.439683    0.972831
  H      2.095103    1.317395    1.084212

 Total Charge           Charge          ....    0
 Multiplicity           Mult            ....    1
 Number of Electrons    NEL             ....   54
 Basis Dimension        Dim             ....  668

ORBITAL ENERGIES
----------------

  NO   OCC          E(Eh)            E(eV)
   0   2.0000     -91.984083     -2503.0141
   1   2.0000     -20.625797      -561.2565
   2   2.0000     -15.702613      -427.2898
   3   2.0000     -15.618206      -424.9930
   4   2.0000     -11.297206      -307.4126
   5   2.0000     -11.279997      -306.9443
   6   2.0000      -8.983652      -244.4576
   7   2.0000      -6.664720      -181.3562
   8   2.0000      -6.663703      -181.3286
   9   2.0000      -6.662703      -181.3014
  10   2.0000      -1.479218       -40.2516
  11   2.0000      -1.265250       -34.4292
  12   2.0000      -1.112330       -30.2680
  13   2.0000      -0.980907       -26.6918
  14   2.0000      -0.899373       -24.4732
  15   2.0000      -0.831818       -22.6349
  16   2.0000      -0.757220       -20.6050
  17   2.0000      -0.673188       -18.3184
  18   2.0000      -0.634770       -17.2730
  19   2.0000      -0.628172       -17.0934
  20   2.0000      -0.605455       -16.4753
  21   2.0000      -0.562697       -15.3118
  22   2.0000      -0.528705       -14.3868
  23   2.0000      -0.489532       -13.3208
  24   2.0000      -0.437384       -11.9018
  25   2.0000      -0.384391       -10.4598
  26   2.0000      -0.316055        -8.6003
  27   0.0000       0.020456         0.5566
  28   0.0000       0.030563         0.8317
  29   0.0000       0.036829         1.0022
  30   0.0000       0.044207         1.2029
  31   0.0000       0.065630         1.7859

MULLIKEN ATOMIC CHARGES
-----------------------
   0 S :   -0.018770
   1 O :   -0.603610
   2 N :    0.045982
   3 N :   -0.395789
   4 C :   -0.101237
   5 C :   -0.369584
   6 H :    0.101847
   7 H :    0.316043
   8 H :    0.529812
   9 H :    0.495304
Sum of atomic charges:    0.0000000

LOEWDIN ATOMIC CHARGES
----------------------
   0 S :    1.359810
   1 O :    0.548916
   2 N :   -0.337654
   3 N :    0.535224
   4 C :   -0.102080
   5 C :    0.097997
   6 H :   -0.832897
   7 H :   -0.594201
   8 H :   -0.351755
   9 H :   -0.323360

  Mayer bond orders larger than 0.100000
B(  0-S ,  2-N ) :   0.8909 B(  0-S ,  6-H ) :   0.9915 B(  1-O ,  2-N ) :   0.7456
B(  1-O ,  4-C ) :   0.7904 B(  1-O ,  5-C ) :   0.1172 B(  2-N ,  3-N ) :   0.8591
B(  3-N ,  5-C ) :   0.9872 B(  3-N ,  7-H ) :   0.8705 B(  4-C ,  5-C ) :   1.8212
B(  4-C ,  8-H ) :   0.7361 B(  5-C ,  9-H ) :   0.7719

MP2 TOTAL ENERGY:     -660.556899602 Eh
FINAL SINGLE POINT ENERGY      -660.556899601741

DIPOLE MOMENT
-------------
                                X             Y             Z
Electronic contribution:     -2.48334      -1.09254      -1.94078
Nuclear contribution   :      3.05699       1.75242       3.12303
                        -----------------------------------------
Total Dipole Moment    :      0.57365       0.65988       1.18225
                        -----------------------------------------
Magnitude (a.u.)       :      1.47046
Magnitude (Debye)      :      3.73760

Rotational constants in cm-1:     0.199193     0.082477     0.073270
Rotational constants in MHz :  5971.641703  2472.601118  2196.573152

                             ****ORCA TERMINATED NORMALLY****
TOTAL RUN TIME: 0 days 0 hours 13 minutes 17 seconds 429 msec
