                         Program Version 5.0.4 -  RELEASE  -
|  1> !ri-mp2 aug-cc-pvqz aug-cc-pvqz/c tightscf
|  2> %pal nprocs 16 end
|  3>
|  4> * xyz 0 1
|  5> C     1.188334    -1.577198    0.000000
|  6> H     1.793080    -1.322397    0.871672
|  7> H     0.948796    -2.636600    0.000000
|  8> H     1.793080    -1.322397   -0.871672
|  9> C    -1.188334     1.577198    0.000000
| 10> H    -1.793080     1.322397    0.871672
| 11> H    -0.948796     2.636600    0.000000
| 12> H    -1.793080     1.322397   -0.871672
| 13> C     0.078985     0.772271    0.000000
| 14> O     1.188334     1.252788    0.000000
| 15> C    -0.078985    -0.772271    0.000000
| 16> O    -1.188334    -1.252788    0.000000
| 17> *
| 18>
| 19>                          ****END OF INPUT****

CARTESIAN COORDINATES (ANGSTROEM)
---------------------------------
  C      1.188334   -1.577198    0.000000
  H      1.793080   -1.322397    0.871672
  H      0.948796   -2.636600    0.000000
  H      1.793080   -1.322397   -0.871672
  C     -1.188334    1.577198    0.000000
  H     -1.793080    1.322397    0.871672
  H     -0.948796    2.636600    0.000000
  H     -1.793080    1.322397   -0.871672
  C      0.078985    0.772271    0.000000
  O      1.188334    1.252788    0.000000
  C     -0.078985   -0.772271    0.000000
  O     -1.188334   -1.252788    0.000000

 Total Charge           Charge          ....    0
 Multiplicity           Mult            ....    1
 Number of Electrons    NEL             ....   46
 Basis Dimension        Dim             ....  756

ORBITAL ENERGIES
----------------

  NO   OCC          E(Eh)            E(eV)
   0   2.0000     -20.577424      -559.9402
   1   2.0000     -20.577423      -559.9401
   2   2.0000     -11.352363      -308.9135
   3   2.0000     -11.351808      -308.8984
   4   2.0000     -11.241224      -305.8892
   5   2.0000     -11.241221      -305.8892
   6   2.0000      -1.426608       -38.8200
   7   2.0000      -1.408169       -38.3182
   8   2.0000      -1.036885       -28.2151
   9   2.0000      -1.022770       -27.8310
  10   2.0000      -0.870484       -23.6871
  11   2.0000      -0.729561       -19.8524
  12   2.0000      -0.699246       -19.0275
  13   2.0000      -0.665213       -18.1014
  14   2.0000      -0.633441       -17.2368
  15   2.0000      -0.615454       -16.7474
  16   2.0000      -0.593016       -16.1368
  17   2.0000      -0.588240       -16.0068
  18   2.0000      -0.553441       -15.0599
  19   2.0000      -0.522556       -14.2195
  20   2.0000      -0.510895       -13.9021
  21   2.0000      -0.507743       -13.8164
  22   2.0000      -0.409695       -11.1484
  23   0.0000       0.025733         0.7002
  24   0.0000       0.028838         0.7847
  25   0.0000       0.037764         1.0276
  26   0.0000       0.042157         1.1472
  27   0.0000       0.050071         1.3625

MULLIKEN ATOMIC CHARGES
-----------------------
   0 C :   -0.802193
   1 H :    0.255671
   2 H :    0.337776
   3 H :    0.255671
   4 C :   -0.802193
   5 H :    0.255671
   6 H :    0.337776
   7 H :    0.255671
   8 C :    0.653831
   9 O :   -0.700757
  10 C :    0.653831
  11 O :   -0.700757
Sum of atomic charges:    0.0000000

LOEWDIN ATOMIC CHARGES
----------------------
   0 C :    0.865110
   1 H :   -0.301389
   2 H :   -0.317972
   3 H :   -0.301389
   4 C :    0.865110
   5 H :   -0.301389
   6 H :   -0.317972
   7 H :   -0.301389
   8 C :   -0.675101
   9 O :    0.730740
  10 C :   -0.675101
  11 O :    0.730740

  Mayer bond orders larger than 0.100000
B(  0-C ,  1-H ) :   0.9413 B(  0-C ,  2-H ) :   0.9529 B(  0-C ,  3-H ) :   0.9413
B(  0-C , 10-C ) :   0.8957 B(  0-C , 11-O ) :   0.1005 B(  4-C ,  5-H ) :   0.9413
B(  4-C ,  6-H ) :   0.9529 B(  4-C ,  7-H ) :   0.9413 B(  4-C ,  8-C ) :   0.8957
B(  4-C ,  9-O ) :   0.1005 B(  8-C ,  9-O ) :   1.3079 B(  8-C , 10-C ) :   0.9173
B(  8-C , 11-O ) :   0.1456 B(  9-O , 10-C ) :   0.1456 B( 10-C , 11-O ) :   1.3079

MP2 TOTAL ENERGY:     -306.023216824 Eh
FINAL SINGLE POINT ENERGY      -306.023216824054

DIPOLE MOMENT
-------------
                                X             Y             Z
Electronic contribution:     -0.00000      -0.00000      -0.00000
Nuclear contribution   :      0.00000       0.00000       0.00000
                        -----------------------------------------
Total Dipole Moment    :     -0.00000      -0.00000      -0.00000
                        -----------------------------------------
Magnitude (a.u.)       :      0.00000
Magnitude (Debye)      :      0.00000

Rotational constants in cm-1:     0.177401     0.112006     0.070415
Rotational constants in MHz :  5318.359746  3357.866134  2110.986076

                             ****ORCA TERMINATED NORMALLY****
TOTAL RUN TIME: 0 days 0 hours 19 minutes 11 seconds 262 msec
