                         Program Version 5.0.4 -  RELEASE  -
|  1> !ri-mp2 aug-cc-pvqz aug-cc-pvqz/c tightscf
|  2> %pal nprocs 16 end
|  3> %maxcore 3800
|  4>
|  5> * xyz 0 1
|  6> N      0.859731   -0.762092   -0.403390
|  7> N      2.049387   -0.946307   -0.188347
|  8> N      3.137721   -1.220267   -0.036056
|  9> C      0.291648    0.571345    0.012070
| 10> C     -1.196524    0.509338   -0.367515
| 11> C      0.982348    1.682950   -0.785949
| 12> C      0.502842    0.782356    1.515246
| 13> C     -2.032716   -0.571619    0.318400
| 14> C     -3.460252   -0.628326   -0.225082
| 15> H     -1.253030    0.365417   -1.449882
| 16> H     -1.630745    1.492153   -0.162114
| 17> H      0.564501    2.654726   -0.520022
| 18> H      2.052937    1.712880   -0.577082
| 19> H      0.845343    1.530789   -1.856315
| 20> H      0.024062    1.708878    1.835252
| 21> H      1.564949    0.858780    1.752680
| 22> H      0.084771   -0.038464    2.094828
| 23> H     -1.547898   -1.539559    0.179221
| 24> H     -2.067572   -0.392248    1.395396
| 25> H     -3.978282    0.323071   -0.084883
| 26> H     -3.466515   -0.852334   -1.293656
| 27> H     -4.044468   -1.399694    0.278104
| 28> *
| 29>
| 30>                          ****END OF INPUT****

CARTESIAN COORDINATES (ANGSTROEM)
---------------------------------
  N      0.859731   -0.762092   -0.403390
  N      2.049387   -0.946307   -0.188347
  N      3.137721   -1.220267   -0.036056
  C      0.291648    0.571345    0.012070
  C     -1.196524    0.509338   -0.367515
  C      0.982348    1.682950   -0.785949
  C      0.502842    0.782356    1.515246
  C     -2.032716   -0.571619    0.318400
  C     -3.460252   -0.628326   -0.225082
  H     -1.253030    0.365417   -1.449882
  H     -1.630745    1.492153   -0.162114
  H      0.564501    2.654726   -0.520022
  H      2.052937    1.712880   -0.577082
  H      0.845343    1.530789   -1.856315
  H      0.024062    1.708878    1.835252
  H      1.564949    0.858780    1.752680
  H      0.084771   -0.038464    2.094828
  H     -1.547898   -1.539559    0.179221
  H     -2.067572   -0.392248    1.395396
  H     -3.978282    0.323071   -0.084883
  H     -3.466515   -0.852334   -1.293656
  H     -4.044468   -1.399694    0.278104

 Total Charge           Charge          ....    0
 Multiplicity           Mult            ....    1
 Number of Electrons    NEL             ....   70
 Basis Dimension        Dim             .... 1318

ORBITAL ENERGIES
----------------

  NO   OCC          E(Eh)            E(eV)
   0   2.0000     -15.772951      -429.2038
   1   2.0000     -15.651768      -425.9063
   2   2.0000     -15.593456      -424.3195
   3   2.0000     -11.289846      -307.2123
   4   2.0000     -11.224311      -305.4290
   5   2.0000     -11.224002      -305.4206
   6   2.0000     -11.223838      -305.4162
   7   2.0000     -11.216734      -305.2228
   8   2.0000     -11.211522      -305.0810
   9   2.0000      -1.496632       -40.7254
  10   2.0000      -1.286534       -35.0084
  11   2.0000      -1.109515       -30.1914
  12   2.0000      -1.038713       -28.2648
  13   2.0000      -0.951139       -25.8818
  14   2.0000      -0.933260       -25.3953
  15   2.0000      -0.848310       -23.0837
  16   2.0000      -0.806144       -21.9363
  17   2.0000      -0.704475       -19.1697
  18   2.0000      -0.697632       -18.9835
  19   2.0000      -0.688402       -18.7324
  20   2.0000      -0.661635       -18.0040
  21   2.0000      -0.625793       -17.0287
  22   2.0000      -0.610170       -16.6036
  23   2.0000      -0.594095       -16.1661
  24   2.0000      -0.568847       -15.4791
  25   2.0000      -0.560743       -15.2586
  26   2.0000      -0.551249       -15.0003
  27   2.0000      -0.533063       -14.5054
  28   2.0000      -0.523203       -14.2371
  29   2.0000      -0.507128       -13.7996
  30   2.0000      -0.475844       -12.9484
  31   2.0000      -0.468461       -12.7475
  32   2.0000      -0.461844       -12.5674
  33   2.0000      -0.418469       -11.3871
  34   2.0000      -0.369434       -10.0528
  35   0.0000       0.024348         0.6625
  36   0.0000       0.028249         0.7687
  37   0.0000       0.030203         0.8219
  38   0.0000       0.035410         0.9636
  39   0.0000       0.044473         1.2102

MULLIKEN ATOMIC CHARGES
-----------------------
   0 N :   -0.422758
   1 N :    0.180234
   2 N :   -0.464684
   3 C :    1.358949
   4 C :   -0.256566
   5 C :   -1.159086
   6 C :   -1.090514
   7 C :   -0.422266
   8 C :   -0.901182
   9 H :    0.288919
  10 H :    0.261761
  11 H :    0.242763
  12 H :    0.253994
  13 H :    0.266127
  14 H :    0.217251
  15 H :    0.286670
  16 H :    0.247271
  17 H :    0.236356
  18 H :    0.189751
  19 H :    0.219957
  20 H :    0.211464
  21 H :    0.255591
Sum of atomic charges:    0.0000000

LOEWDIN ATOMIC CHARGES
----------------------
   0 N :    0.371905
   1 N :   -0.272096
   2 N :    0.377313
   3 C :   -0.538014
   4 C :    0.463363
   5 C :    0.890042
   6 C :    0.893160
   7 C :    0.512038
   8 C :    0.936932
   9 H :   -0.280637
  10 H :   -0.267975
  11 H :   -0.270068
  12 H :   -0.287612
  13 H :   -0.274273
  14 H :   -0.263959
  15 H :   -0.286212
  16 H :   -0.289592
  17 H :   -0.284814
  18 H :   -0.283237
  19 H :   -0.281638
  20 H :   -0.282644
  21 H :   -0.281981

  Mayer bond orders larger than 0.100000
B(  0-N ,  1-N ) :   1.5541 B(  0-N ,  2-N ) :   0.1833 B(  0-N ,  3-C ) :   0.3225
B(  0-N ,  5-C ) :   0.1279 B(  1-N ,  2-N ) :   2.0575 B(  1-N ,  3-C ) :  -0.3734
B(  3-C ,  4-C ) :   0.6442 B(  3-C ,  5-C ) :   0.4608 B(  3-C ,  6-C ) :   0.4336
B(  3-C , 12-H ) :  -0.1261 B(  3-C , 16-H ) :  -0.1126 B(  4-C ,  7-C ) :   0.8092
B(  4-C ,  9-H ) :   0.9098 B(  4-C , 10-H ) :   0.9324 B(  5-C ,  6-C ) :   0.1529
B(  5-C , 11-H ) :   1.0146 B(  5-C , 12-H ) :   1.0268 B(  5-C , 13-H ) :   1.0089
B(  6-C , 14-H ) :   1.0272 B(  6-C , 15-H ) :   0.9792 B(  6-C , 16-H ) :   1.0432
B(  7-C ,  8-C ) :   0.9431 B(  7-C , 17-H ) :   0.8792 B(  7-C , 18-H ) :   0.8945
B(  7-C , 21-H ) :  -0.1273 B(  8-C , 19-H ) :   0.9693 B(  8-C , 20-H ) :   0.9871
B(  8-C , 21-H ) :   1.0465

MP2 TOTAL ENERGY:     -399.998565509 Eh
FINAL SINGLE POINT ENERGY      -399.998565508695

DIPOLE MOMENT
-------------
                                X             Y             Z
Electronic contribution:     12.75553      -5.88816      -1.41537
Nuclear contribution   :    -13.24714       6.62251       1.64120
                        -----------------------------------------
Total Dipole Moment    :     -0.49160       0.73435       0.22583
                        -----------------------------------------
Magnitude (a.u.)       :      0.91211
Magnitude (Debye)      :      2.31840

Rotational constants in cm-1:     0.091773     0.030207     0.027296
Rotational constants in MHz :  2751.282376   905.585214   818.312924

                             ****ORCA TERMINATED NORMALLY****
TOTAL RUN TIME: 0 days 1 hours 52 minutes 2 seconds 952 msec
