                         Program Version 5.0.4 -  RELEASE  -
|  1> !ri-mp2 aug-cc-pvqz aug-cc-pvqz/c tightscf
|  2> %pal nprocs 16 end
|  3>
|  4> * xyz 0 1
|  5> C      1.117724   -1.621803        0.000000
|  6> C     -0.134070   -2.228093        0.000000
|  7> C      1.198783   -0.239009        0.000000
|  8> C     -1.256435   -1.414617        0.000000
|  9> C      0.000000    0.468958        0.000000
| 10> N     -1.193392   -0.079209        0.000000
| 11> Cl     0.066001    2.226123        0.000000
| 12> H      2.020758   -2.217277        0.000000
| 13> H     -0.237807   -3.303639        0.000000
| 14> H      2.145204    0.279330        0.000000
| 15> H     -2.252452   -1.840652        0.000000
| 16> *
| 17>
| 18>                          ****END OF INPUT****

CARTESIAN COORDINATES (ANGSTROEM)
---------------------------------
  C      1.117724   -1.621803    0.000000
  C     -0.134070   -2.228093    0.000000
  C      1.198783   -0.239009    0.000000
  C     -1.256435   -1.414617    0.000000
  C      0.000000    0.468958    0.000000
  N     -1.193392   -0.079209    0.000000
  Cl     0.066001    2.226123    0.000000
  H      2.020758   -2.217277    0.000000
  H     -0.237807   -3.303639    0.000000
  H      2.145204    0.279330    0.000000
  H     -2.252452   -1.840652    0.000000

 Total Charge           Charge          ....    0
 Multiplicity           Mult            ....    1
 Number of Electrons    NEL             ....   58
 Basis Dimension        Dim             ....  748

ORBITAL ENERGIES
----------------

  NO   OCC          E(Eh)            E(eV)
   0   2.0000    -104.839618     -2852.8310
   1   2.0000     -15.580510      -423.9672
   2   2.0000     -11.345282      -308.7208
   3   2.0000     -11.290820      -307.2388
   4   2.0000     -11.273885      -306.7780
   5   2.0000     -11.258048      -306.3471
   6   2.0000     -11.252575      -306.1981
   7   2.0000     -10.565004      -287.4884
   8   2.0000      -8.032066      -218.5636
   9   2.0000      -8.030323      -218.5162
  10   2.0000      -8.030317      -218.5160
  11   2.0000      -1.293772       -35.2053
  12   2.0000      -1.134963       -30.8839
  13   2.0000      -1.109035       -30.1784
  14   2.0000      -1.022457       -27.8225
  15   2.0000      -0.883039       -24.0287
  16   2.0000      -0.853014       -23.2117
  17   2.0000      -0.723818       -19.6961
  18   2.0000      -0.689314       -18.7572
  19   2.0000      -0.659614       -17.9490
  20   2.0000      -0.604861       -16.4591
  21   2.0000      -0.589919       -16.0525
  22   2.0000      -0.581950       -15.8357
  23   2.0000      -0.536509       -14.5991
  24   2.0000      -0.477952       -13.0057
  25   2.0000      -0.459336       -12.4992
  26   2.0000      -0.438771       -11.9396
  27   2.0000      -0.401039       -10.9128
  28   2.0000      -0.352568        -9.5939
  29   0.0000       0.020392         0.5549
  30   0.0000       0.027836         0.7575
  31   0.0000       0.034692         0.9440
  32   0.0000       0.045045         1.2257
  33   0.0000       0.063916         1.7392

MULLIKEN ATOMIC CHARGES
-----------------------
   0 C :   -0.231842
   1 C :   -0.315378
   2 C :   -0.213010
   3 C :   -0.267238
   4 C :    0.114516
   5 N :   -0.379363
   6 Cl:   -0.277327
   7 H :    0.307124
   8 H :    0.354308
   9 H :    0.444470
  10 H :    0.463739
Sum of atomic charges:   -0.0000000

LOEWDIN ATOMIC CHARGES
----------------------
   0 C :    0.318929
   1 C :    0.330390
   2 C :    0.186566
   3 C :    0.061702
   4 C :   -1.130227
   5 N :    0.453904
   6 Cl:    1.130403
   7 H :   -0.311402
   8 H :   -0.327992
   9 H :   -0.363639
  10 H :   -0.348633

  Mayer bond orders larger than 0.100000
B(  0-C ,  1-C ) :   1.1661 B(  0-C ,  2-C ) :   1.2463 B(  0-C ,  4-C ) :  -0.1235
B(  0-C ,  7-H ) :   1.0026 B(  1-C ,  3-C ) :   1.2451 B(  1-C ,  8-H ) :   0.9619
B(  2-C ,  3-C ) :   0.1378 B(  2-C ,  4-C ) :   1.0862 B(  2-C ,  6-Cl) :  -0.1148
B(  2-C ,  9-H ) :   0.8210 B(  3-C ,  5-N ) :   1.2439 B(  3-C , 10-H ) :   0.8868
B(  4-C ,  5-N ) :   1.2163 B(  4-C ,  6-Cl) :   0.8983 B(  5-N ,  6-Cl) :  -0.1099

MP2 TOTAL ENERGY:     -706.991895754 Eh
FINAL SINGLE POINT ENERGY      -706.991895754374

DIPOLE MOMENT
-------------
                                X             Y             Z
Electronic contribution:     -0.81916       8.60009       0.00000
Nuclear contribution   :      1.51024      -9.84986       0.00000
                        -----------------------------------------
Total Dipole Moment    :      0.69108      -1.24978       0.00000
                        -----------------------------------------
Magnitude (a.u.)       :      1.42812
Magnitude (Debye)      :      3.63000

Rotational constants in cm-1:     0.197845     0.053834     0.042319
Rotational constants in MHz :  5931.239868  1613.909376  1268.693743

                             ****ORCA TERMINATED NORMALLY****
TOTAL RUN TIME: 0 days 0 hours 33 minutes 36 seconds 581 msec
