                         Program Version 5.0.4 -  RELEASE  -
|  1> !ri-mp2 aug-cc-pvqz aug-cc-pvqz/c tightscf
|  2> %pal nprocs 16 end
|  3>
|  4> * xyz 0 1
|  5> C     -1.545200    0.674146   -0.126359
|  6> C     -0.105076    1.223728    0.005730
|  7> C     -1.368914   -0.846757    0.057412
|  8> C      0.732800   -0.011059    0.378649
|  9> C      2.152046   -0.027585   -0.146353
| 10> O      0.009355   -1.112893   -0.176593
| 11> H     -2.218989    1.088613    0.622495
| 12> H     -1.962003    0.904798   -1.105364
| 13> H      0.242266    1.630722   -0.944467
| 14> H     -0.020334    2.011011    0.754025
| 15> H     -1.637823   -1.149102    1.077531
| 16> H     -1.947361   -1.446214   -0.643058
| 17> H      0.744850   -0.121334    1.473448
| 18> H      2.155499    0.063414   -1.233368
| 19> H      2.721516    0.803002    0.273159
| 20> H      2.653606   -0.956606    0.123859
| 21> *
| 22>
| 23>                          ****END OF INPUT****

CARTESIAN COORDINATES (ANGSTROEM)
---------------------------------
  C     -1.545200    0.674146   -0.126359
  C     -0.105076    1.223728    0.005730
  C     -1.368914   -0.846757    0.057412
  C      0.732800   -0.011059    0.378649
  C      2.152046   -0.027585   -0.146353
  O      0.009355   -1.112893   -0.176593
  H     -2.218989    1.088613    0.622495
  H     -1.962003    0.904798   -1.105364
  H      0.242266    1.630722   -0.944467
  H     -0.020334    2.011011    0.754025
  H     -1.637823   -1.149102    1.077531
  H     -1.947361   -1.446214   -0.643058
  H      0.744850   -0.121334    1.473448
  H      2.155499    0.063414   -1.233368
  H      2.721516    0.803002    0.273159
  H      2.653606   -0.956606    0.123859

 Total Charge           Charge          ....    0
 Multiplicity           Mult            ....    1
 Number of Electrons    NEL             ....   48
 Basis Dimension        Dim             ....  940

ORBITAL ENERGIES
----------------

  NO   OCC          E(Eh)            E(eV)
   0   2.0000     -20.543494      -559.0169
   1   2.0000     -11.272570      -306.7422
   2   2.0000     -11.266736      -306.5835
   3   2.0000     -11.221130      -305.3425
   4   2.0000     -11.219409      -305.2957
   5   2.0000     -11.210056      -305.0411
   6   2.0000      -1.370365       -37.2895
   7   2.0000      -1.054094       -28.6834
   8   2.0000      -1.026686       -27.9375
   9   2.0000      -0.913404       -24.8550
  10   2.0000      -0.808795       -22.0084
  11   2.0000      -0.786709       -21.4075
  12   2.0000      -0.674553       -18.3555
  13   2.0000      -0.652972       -17.7683
  14   2.0000      -0.626970       -17.0607
  15   2.0000      -0.584623       -15.9084
  16   2.0000      -0.569579       -15.4990
  17   2.0000      -0.530120       -14.4253
  18   2.0000      -0.517955       -14.0943
  19   2.0000      -0.494905       -13.4671
  20   2.0000      -0.477496       -12.9933
  21   2.0000      -0.463982       -12.6256
  22   2.0000      -0.459180       -12.4949
  23   2.0000      -0.414251       -11.2723
  24   0.0000       0.027215         0.7406
  25   0.0000       0.032131         0.8743
  26   0.0000       0.033905         0.9226
  27   0.0000       0.036547         0.9945
  28   0.0000       0.047582         1.2948

MULLIKEN ATOMIC CHARGES
-----------------------
   0 C :   -0.559281
   1 C :   -0.617546
   2 C :   -0.365121
   3 C :    0.597807
   4 C :   -0.874781
   5 O :   -0.861387
   6 H :    0.237741
   7 H :    0.274679
   8 H :    0.285722
   9 H :    0.285946
  10 H :    0.224173
  11 H :    0.436505
  12 H :    0.238803
  13 H :    0.222557
  14 H :    0.219109
  15 H :    0.255073
Sum of atomic charges:    0.0000000

LOEWDIN ATOMIC CHARGES
----------------------
   0 C :    0.542503
   1 C :    0.524975
   2 C :    0.190574
   3 C :   -0.250490
   4 C :    0.916042
   5 O :    0.897322
   6 H :   -0.273136
   7 H :   -0.275784
   8 H :   -0.281556
   9 H :   -0.261564
  10 H :   -0.289169
  11 H :   -0.301470
  12 H :   -0.283740
  13 H :   -0.289136
  14 H :   -0.281774
  15 H :   -0.283599

  Mayer bond orders larger than 0.100000
B(  0-C ,  1-C ) :   1.0567 B(  0-C ,  2-C ) :   1.1228 B(  0-C ,  3-C ) :  -0.1487
B(  0-C ,  6-H ) :   0.9260 B(  0-C ,  7-H ) :   0.8830 B(  1-C ,  3-C ) :   0.8807
B(  1-C ,  5-O ) :   0.1158 B(  1-C ,  8-H ) :   0.8580 B(  1-C ,  9-H ) :   0.8963
B(  2-C ,  5-O ) :   0.9203 B(  2-C , 10-H ) :   0.9551 B(  2-C , 11-H ) :   0.7793
B(  3-C ,  4-C ) :   0.6625 B(  3-C ,  5-O ) :   0.5121 B(  3-C , 12-H ) :   0.9529
B(  3-C , 14-H ) :  -0.1050 B(  4-C , 13-H ) :   0.9525 B(  4-C , 14-H ) :   1.0659
B(  4-C , 15-H ) :   1.0044

MP2 TOTAL ENERGY:     -271.307840786 Eh
FINAL SINGLE POINT ENERGY      -271.307840786116

DIPOLE MOMENT
-------------
                                X             Y             Z
Electronic contribution:     -0.99392      -2.36829      -0.16544
Nuclear contribution   :      0.76545       2.94173       0.41391
                        -----------------------------------------
Total Dipole Moment    :     -0.22847       0.57344       0.24847
                        -----------------------------------------
Magnitude (a.u.)       :      0.66541
Magnitude (Debye)      :      1.69133

Rotational constants in cm-1:     0.219510     0.105478     0.078686
Rotational constants in MHz :  6580.746921  3162.162576  2358.953791

                             ****ORCA TERMINATED NORMALLY****
TOTAL RUN TIME: 0 days 0 hours 34 minutes 46 seconds 9 msec
