                         Program Version 5.0.4 -  RELEASE  -
|  1> !ri-mp2 aug-cc-pvqz aug-cc-pvqz/c tightscf
|  2> %pal nprocs 16 end
|  3>
|  4> * xyz 0 1
|  5> C      0.000000    0.000000    0.000000
|  6> C      0.886726    0.886726    0.886726
|  7> C     -0.886726   -0.886726    0.886726
|  8> C      0.886726   -0.886726   -0.886726
|  9> C     -0.886726    0.886726   -0.886726
| 10> H     -1.529798    0.282357   -1.529798
| 11> H      1.529798    1.529798    0.282357
| 12> H      1.529798   -0.282357   -1.529798
| 13> H      1.529798    0.282357    1.529798
| 14> H     -1.529798   -0.282357    1.529798
| 15> H      1.529798   -1.529798   -0.282357
| 16> H     -0.282357    1.529798   -1.529798
| 17> H      0.282357    1.529798    1.529798
| 18> H      0.282357   -1.529798   -1.529798
| 19> H     -0.282357   -1.529798    1.529798
| 20> H     -1.529798    1.529798   -0.282357
| 21> H     -1.529798   -1.529798    0.282357
| 22> *
| 23>
| 24>                          ****END OF INPUT****

CARTESIAN COORDINATES (ANGSTROEM)
---------------------------------
  C      0.000000    0.000000    0.000000
  C      0.886726    0.886726    0.886726
  C     -0.886726   -0.886726    0.886726
  C      0.886726   -0.886726   -0.886726
  C     -0.886726    0.886726   -0.886726
  H     -1.529798    0.282357   -1.529798
  H      1.529798    1.529798    0.282357
  H      1.529798   -0.282357   -1.529798
  H      1.529798    0.282357    1.529798
  H     -1.529798   -0.282357    1.529798
  H      1.529798   -1.529798   -0.282357
  H     -0.282357    1.529798   -1.529798
  H      0.282357    1.529798    1.529798
  H      0.282357   -1.529798   -1.529798
  H     -0.282357   -1.529798    1.529798
  H     -1.529798    1.529798   -0.282357
  H     -1.529798   -1.529798    0.282357

 Total Charge           Charge          ....    0
 Multiplicity           Mult            ....    1
 Number of Electrons    NEL             ....   42
 Basis Dimension        Dim             ....  952

ORBITAL ENERGIES
----------------

  NO   OCC          E(Eh)            E(eV)
   0   2.0000     -11.229899      -305.5811
   1   2.0000     -11.205835      -304.9263
   2   2.0000     -11.205835      -304.9263
   3   2.0000     -11.205835      -304.9263
   4   2.0000     -11.205799      -304.9253
   5   2.0000      -1.100968       -29.9589
   6   2.0000      -0.927373       -25.2351
   7   2.0000      -0.927373       -25.2351
   8   2.0000      -0.927373       -25.2351
   9   2.0000      -0.730366       -19.8743
  10   2.0000      -0.609466       -16.5844
  11   2.0000      -0.609466       -16.5844
  12   2.0000      -0.609466       -16.5844
  13   2.0000      -0.551810       -15.0155
  14   2.0000      -0.551810       -15.0155
  15   2.0000      -0.509466       -13.8633
  16   2.0000      -0.509466       -13.8633
  17   2.0000      -0.509466       -13.8633
  18   2.0000      -0.451988       -12.2992
  19   2.0000      -0.451988       -12.2992
  20   2.0000      -0.451988       -12.2992
  21   0.0000       0.026933         0.7329
  22   0.0000       0.033526         0.9123
  23   0.0000       0.033526         0.9123
  24   0.0000       0.033526         0.9123
  25   0.0000       0.053515         1.4562

MULLIKEN ATOMIC CHARGES
-----------------------
   0 C :    1.335507
   1 C :   -1.033699
   2 C :   -1.033713
   3 C :   -1.033683
   4 C :   -1.033679
   5 H :    0.233264
   6 H :    0.233286
   7 H :    0.233273
   8 H :    0.233262
   9 H :    0.233264
  10 H :    0.233281
  11 H :    0.233276
  12 H :    0.233260
  13 H :    0.233270
  14 H :    0.233279
  15 H :    0.233276
  16 H :    0.233276
Sum of atomic charges:    0.0000000

LOEWDIN ATOMIC CHARGES
----------------------
   0 C :   -0.322646
   1 C :    0.900389
   2 C :    0.900389
   3 C :    0.900389
   4 C :    0.900389
   5 H :   -0.273243
   6 H :   -0.273243
   7 H :   -0.273243
   8 H :   -0.273243
   9 H :   -0.273243
  10 H :   -0.273243
  11 H :   -0.273243
  12 H :   -0.273243
  13 H :   -0.273243
  14 H :   -0.273243
  15 H :   -0.273243
  16 H :   -0.273243

  Mayer bond orders larger than 0.100000
B(  0-C ,  1-C ) :   0.4728 B(  0-C ,  2-C ) :   0.4728 B(  0-C ,  3-C ) :   0.4729
B(  0-C ,  4-C ) :   0.4729 B(  1-C ,  2-C ) :   0.1030 B(  1-C ,  3-C ) :   0.1030
B(  1-C ,  4-C ) :   0.1030 B(  1-C ,  6-H ) :   1.0228 B(  1-C ,  8-H ) :   1.0228
B(  1-C , 12-H ) :   1.0228 B(  2-C ,  3-C ) :   0.1030 B(  2-C ,  4-C ) :   0.1030
B(  2-C ,  9-H ) :   1.0228 B(  2-C , 14-H ) :   1.0228 B(  2-C , 16-H ) :   1.0228
B(  3-C ,  4-C ) :   0.1030 B(  3-C ,  7-H ) :   1.0228 B(  3-C , 10-H ) :   1.0228
B(  3-C , 13-H ) :   1.0228 B(  4-C ,  5-H ) :   1.0228 B(  4-C , 11-H ) :   1.0228
B(  4-C , 15-H ) :   1.0228

MP2 TOTAL ENERGY:     -197.375988607 Eh
FINAL SINGLE POINT ENERGY      -197.375988607377

DIPOLE MOMENT
-------------
                                X             Y             Z
Electronic contribution:     -0.00000      -0.00000       0.00000
Nuclear contribution   :      0.00000       0.00000      -0.00000
                        -----------------------------------------
Total Dipole Moment    :     -0.00000      -0.00000       0.00000
                        -----------------------------------------
Magnitude (a.u.)       :      0.00000
Magnitude (Debye)      :      0.00000

Rotational constants in cm-1:     0.147953     0.147953     0.147953
Rotational constants in MHz :  4435.513729  4435.513729  4435.513729

                             ****ORCA TERMINATED NORMALLY****
TOTAL RUN TIME: 0 days 0 hours 35 minutes 59 seconds 897 msec
