                         Program Version 5.0.4 -  RELEASE  -
|  1> !ri-mp2 aug-cc-pvqz aug-cc-pvqz/c tightscf
|  2> %pal nprocs 16 end
|  3>
|  4> * xyz 0 1
|  5> H      1.090374    2.042312    0.076465
|  6> C      0.596544    1.086224    0.038981
|  7> H      2.249849   -0.338572    0.019187
|  8> C      1.198765   -0.096252    0.008788
|  9> O      0.365290   -1.176016   -0.062866
| 10> H     -1.297406    1.237768   -1.005784
| 11> H     -1.452898    1.372804    0.739281
| 12> C     -0.896855    0.873537   -0.055484
| 13> H     -1.592748   -1.131233   -0.710934
| 14> H     -1.364629   -0.974542    1.041627
| 15> C     -0.990931   -0.663577    0.064896
| 16> *
| 17>
| 18>                          ****END OF INPUT****

CARTESIAN COORDINATES (ANGSTROEM)
---------------------------------
  H      1.090374    2.042312    0.076465
  C      0.596544    1.086224    0.038981
  H      2.249849   -0.338572    0.019187
  C      1.198765   -0.096252    0.008788
  O      0.365290   -1.176016   -0.062866
  H     -1.297406    1.237768   -1.005784
  H     -1.452898    1.372804    0.739281
  C     -0.896855    0.873537   -0.055484
  H     -1.592748   -1.131233   -0.710934
  H     -1.364629   -0.974542    1.041627
  C     -0.990931   -0.663577    0.064896

 Total Charge           Charge          ....    0
 Multiplicity           Mult            ....    1
 Number of Electrons    NEL             ....   38
 Basis Dimension        Dim             ....  676

ORBITAL ENERGIES
----------------

  NO   OCC          E(Eh)            E(eV)
   0   2.0000     -20.569929      -559.7362
   1   2.0000     -11.282260      -307.0059
   2   2.0000     -11.281593      -306.9877
   3   2.0000     -11.233717      -305.6850
   4   2.0000     -11.214405      -305.1595
   5   2.0000      -1.398612       -38.0582
   6   2.0000      -1.064966       -28.9792
   7   2.0000      -0.997525       -27.1440
   8   2.0000      -0.829364       -22.5681
   9   2.0000      -0.768805       -20.9202
  10   2.0000      -0.704076       -19.1589
  11   2.0000      -0.667075       -18.1520
  12   2.0000      -0.591612       -16.0986
  13   2.0000      -0.554231       -15.0814
  14   2.0000      -0.540444       -14.7062
  15   2.0000      -0.523446       -14.2437
  16   2.0000      -0.498706       -13.5705
  17   2.0000      -0.492317       -13.3966
  18   2.0000      -0.326081        -8.8731
  19   0.0000       0.026551         0.7225
  20   0.0000       0.033530         0.9124
  21   0.0000       0.035577         0.9681
  22   0.0000       0.038056         1.0356
  23   0.0000       0.048668         1.3243

MULLIKEN ATOMIC CHARGES
-----------------------
   0 H :    0.403652
   1 C :   -0.586468
   2 H :    0.586992
   3 C :   -0.183929
   4 O :   -0.752673
   5 H :    0.296918
   6 H :    0.263730
   7 C :   -0.483950
   8 H :    0.316560
   9 H :    0.274631
  10 C :   -0.135464
Sum of atomic charges:   -0.0000000

LOEWDIN ATOMIC CHARGES
----------------------
   0 H :   -0.330882
   1 C :    0.351827
   2 H :   -0.343489
   3 C :   -0.016529
   4 O :    0.843653
   5 H :   -0.283265
   6 H :   -0.286585
   7 C :    0.464715
   8 H :   -0.297636
   9 H :   -0.297501
  10 C :    0.195692

  Mayer bond orders larger than 0.100000
B(  0-H ,  1-C ) :   0.8463 B(  1-C ,  3-C ) :   1.6675 B(  1-C ,  4-O ) :   0.1346
B(  1-C ,  7-C ) :   0.8900 B(  2-H ,  3-C ) :   0.7071 B(  3-C ,  4-O ) :   0.9085
B(  3-C ,  7-C ) :  -0.1504 B(  4-O , 10-C ) :   0.6928 B(  5-H ,  7-C ) :   0.8575
B(  6-H ,  7-C ) :   0.9337 B(  7-C , 10-C ) :   1.1421 B(  8-H , 10-C ) :   0.8717
B(  9-H , 10-C ) :   0.8937

MP2 TOTAL ENERGY:     -230.844958724 Eh
FINAL SINGLE POINT ENERGY      -230.844958724261

DIPOLE MOMENT
-------------
                                X             Y             Z
Electronic contribution:      2.08995      -1.79527      -0.12571
Nuclear contribution   :     -2.40469       2.22986       0.16174
                        -----------------------------------------
Total Dipole Moment    :     -0.31474       0.43459       0.03603
                        -----------------------------------------
Magnitude (a.u.)       :      0.53780
Magnitude (Debye)      :      1.36697

Rotational constants in cm-1:     0.269879     0.260765     0.139997
Rotational constants in MHz :  8090.774851  7817.529386  4197.005407

                             ****ORCA TERMINATED NORMALLY****
TOTAL RUN TIME: 0 days 0 hours 13 minutes 26 seconds 188 msec
