                         Program Version 5.0.4 -  RELEASE  -
|  1> !ri-mp2 aug-cc-pvqz aug-cc-pvqz/c tightscf
|  2> %pal nprocs 16 end
|  3>
|  4> * xyz 0 1
|  5> C     -1.071798    1.395295   -0.516943
|  6> H     -2.097308    1.655846   -0.745207
|  7> H     -0.324065    2.139068   -0.752121
|  8> C     -1.846494   -0.781611    0.354048
|  9> H     -1.822725   -1.041562    1.416022
| 10> H     -2.835490   -0.389471    0.122101
| 11> H     -1.717430   -1.714418   -0.199086
| 12> C     -0.767616    0.217558    0.024788
| 13> C      1.126951   -1.341248   -0.574524
| 14> H      2.119063   -1.686706   -0.279687
| 15> H      0.459313   -2.201864   -0.554699
| 16> H      1.185647   -0.984025   -1.604310
| 17> C      0.651228   -0.212141    0.359200
| 18> H      0.614475   -0.630270    1.372557
| 19> C      1.673172    0.925370    0.370849
| 20> H      1.815739    1.345990   -0.626310
| 21> H      1.368190    1.732615    1.036949
| 22> H      2.641935    0.555459    0.709287
| 23> *
| 24>
| 25>                          ****END OF INPUT****

CARTESIAN COORDINATES (ANGSTROEM)
---------------------------------
  C     -1.071798    1.395295   -0.516943
  H     -2.097308    1.655846   -0.745207
  H     -0.324065    2.139068   -0.752121
  C     -1.846494   -0.781611    0.354048
  H     -1.822725   -1.041562    1.416022
  H     -2.835490   -0.389471    0.122101
  H     -1.717430   -1.714418   -0.199086
  C     -0.767616    0.217558    0.024788
  C      1.126951   -1.341248   -0.574524
  H      2.119063   -1.686706   -0.279687
  H      0.459313   -2.201864   -0.554699
  H      1.185647   -0.984025   -1.604310
  C      0.651228   -0.212141    0.359200
  H      0.614475   -0.630270    1.372557
  C      1.673172    0.925370    0.370849
  H      1.815739    1.345990   -0.626310
  H      1.368190    1.732615    1.036949
  H      2.641935    0.555459    0.709287

 Total Charge           Charge          ....    0
 Multiplicity           Mult            ....    1
 Number of Electrons    NEL             ....   48
 Basis Dimension        Dim             .... 1032

ORBITAL ENERGIES
----------------

  NO   OCC          E(Eh)            E(eV)
   0   2.0000     -11.232954      -305.6642
   1   2.0000     -11.230069      -305.5857
   2   2.0000     -11.215882      -305.1997
   3   2.0000     -11.212086      -305.0964
   4   2.0000     -11.208745      -305.0055
   5   2.0000     -11.204828      -304.8989
   6   2.0000      -1.108453       -30.1625
   7   2.0000      -1.018372       -27.7113
   8   2.0000      -0.940641       -25.5961
   9   2.0000      -0.916091       -24.9281
  10   2.0000      -0.827877       -22.5277
  11   2.0000      -0.704000       -19.1568
  12   2.0000      -0.642731       -17.4896
  13   2.0000      -0.617112       -16.7925
  14   2.0000      -0.591601       -16.0983
  15   2.0000      -0.568821       -15.4784
  16   2.0000      -0.558060       -15.1856
  17   2.0000      -0.537162       -14.6169
  18   2.0000      -0.528129       -14.3711
  19   2.0000      -0.512244       -13.9389
  20   2.0000      -0.478955       -13.0330
  21   2.0000      -0.467499       -12.7213
  22   2.0000      -0.455236       -12.3876
  23   2.0000      -0.346654        -9.4329
  24   0.0000       0.026891         0.7317
  25   0.0000       0.030557         0.8315
  26   0.0000       0.031900         0.8681
  27   0.0000       0.035141         0.9562
  28   0.0000       0.045399         1.2354

MULLIKEN ATOMIC CHARGES
-----------------------
   0 C :   -0.901403
   1 H :    0.254289
   2 H :    0.260946
   3 C :   -0.823395
   4 H :    0.234793
   5 H :    0.270240
   6 H :    0.231211
   7 C :    0.209201
   8 C :   -0.976398
   9 H :    0.286668
  10 H :    0.279983
  11 H :    0.235891
  12 C :    0.404657
  13 H :    0.290350
  14 C :   -0.921890
  15 H :    0.159629
  16 H :    0.230533
  17 H :    0.274697
Sum of atomic charges:    0.0000000

LOEWDIN ATOMIC CHARGES
----------------------
   0 C :    0.808914
   1 H :   -0.345706
   2 H :   -0.367520
   3 C :    0.896191
   4 H :   -0.276940
   5 H :   -0.308211
   6 H :   -0.294955
   7 C :   -0.040686
   8 C :    0.924062
   9 H :   -0.275543
  10 H :   -0.293162
  11 H :   -0.269838
  12 C :    0.074501
  13 H :   -0.291391
  14 C :    0.896720
  15 H :   -0.286743
  16 H :   -0.274406
  17 H :   -0.275288

  Mayer bond orders larger than 0.100000
B(  0-C ,  1-H ) :   1.0584 B(  0-C ,  2-H ) :   1.0645 B(  0-C ,  7-C ) :   1.5380
B(  0-C , 12-C ) :  -0.1666 B(  1-H ,  7-C ) :  -0.1106 B(  2-H ,  7-C ) :  -0.1191
B(  3-C ,  4-H ) :   0.9767 B(  3-C ,  5-H ) :   1.0193 B(  3-C ,  6-H ) :   1.0226
B(  3-C ,  7-C ) :   0.6506 B(  7-C , 12-C ) :   0.5547 B(  8-C ,  9-H ) :   0.9625
B(  8-C , 10-H ) :   0.9729 B(  8-C , 11-H ) :   0.9773 B(  8-C , 12-C ) :   0.7510
B( 12-C , 13-H ) :   0.8641 B( 12-C , 14-C ) :   0.6846 B( 14-C , 15-H ) :   1.0325
B( 14-C , 16-H ) :   1.0066 B( 14-C , 17-H ) :   1.0139

MP2 TOTAL ENERGY:     -235.384332263 Eh
FINAL SINGLE POINT ENERGY      -235.384332262816

DIPOLE MOMENT
-------------
                                X             Y             Z
Electronic contribution:     -1.43975       1.10836       0.21619
Nuclear contribution   :      1.50743      -1.30606      -0.11194
                        -----------------------------------------
Total Dipole Moment    :      0.06769      -0.19770       0.10425
                        -----------------------------------------
Magnitude (a.u.)       :      0.23353
Magnitude (Debye)      :      0.59357

Rotational constants in cm-1:     0.151203     0.096031     0.069341
Rotational constants in MHz :  4532.946703  2878.941830  2078.783552

                             ****ORCA TERMINATED NORMALLY****
TOTAL RUN TIME: 0 days 0 hours 48 minutes 43 seconds 565 msec
