                         Program Version 5.0.4 -  RELEASE  -
|  1> !ri-mp2 aug-cc-pvqz aug-cc-pvqz/c tightscf
|  2> %pal nprocs 16 end
|  3>
|  4> * xyz 0 1
|  5> C     -1.178683   -0.742088    0.000000
|  6> C      0.047290   -1.388143    0.000000
|  7> C      0.000000    1.309459    0.000000
|  8> C     -1.228041    0.649909    0.000000
|  9> C      1.221409   -0.633508    0.000000
| 10> C     -2.528268    1.405525    0.000000
| 11> C      2.580459   -1.275923    0.000000
| 12> N      1.185094    0.702648    0.000000
| 13> H     -2.095720   -1.319232    0.000000
| 14> H      0.097475   -2.468673    0.000000
| 15> H      0.024650    2.395020    0.000000
| 16> H     -3.128947    1.163181    0.878919
| 17> H     -2.357997    2.481564    0.000000
| 18> H     -3.128947    1.163181   -0.878919
| 19> H      3.147907   -0.961093   -0.876888
| 20> H      3.147907   -0.961093    0.876888
| 21> H      2.513018   -2.362770    0.000000
| 22> *
| 23>
| 24>                          ****END OF INPUT****

CARTESIAN COORDINATES (ANGSTROEM)
---------------------------------
  C     -1.178683   -0.742088    0.000000
  C      0.047290   -1.388143    0.000000
  C      0.000000    1.309459    0.000000
  C     -1.228041    0.649909    0.000000
  C      1.221409   -0.633508    0.000000
  C     -2.528268    1.405525    0.000000
  C      2.580459   -1.275923    0.000000
  N      1.185094    0.702648    0.000000
  H     -2.095720   -1.319232    0.000000
  H      0.097475   -2.468673    0.000000
  H      0.024650    2.395020    0.000000
  H     -3.128947    1.163181    0.878919
  H     -2.357997    2.481564    0.000000
  H     -3.128947    1.163181   -0.878919
  H      3.147907   -0.961093   -0.876888
  H      3.147907   -0.961093    0.876888
  H      2.513018   -2.362770    0.000000

 Total Charge           Charge          ....    0
 Multiplicity           Mult            ....    1
 Number of Electrons    NEL             ....   58
 Basis Dimension        Dim             .... 1054

ORBITAL ENERGIES
----------------

  NO   OCC          E(Eh)            E(eV)
   0   2.0000     -15.551678      -423.1827
   1   2.0000     -11.272042      -306.7279
   2   2.0000     -11.263205      -306.4874
   3   2.0000     -11.247787      -306.0678
   4   2.0000     -11.238400      -305.8124
   5   2.0000     -11.230843      -305.6068
   6   2.0000     -11.227845      -305.5252
   7   2.0000     -11.217929      -305.2554
   8   2.0000      -1.254247       -34.1298
   9   2.0000      -1.097252       -29.8578
  10   2.0000      -1.058639       -28.8070
  11   2.0000      -0.985434       -26.8150
  12   2.0000      -0.911691       -24.8084
  13   2.0000      -0.854677       -23.2570
  14   2.0000      -0.806581       -21.9482
  15   2.0000      -0.684440       -18.6246
  16   2.0000      -0.670584       -18.2475
  17   2.0000      -0.626695       -17.0532
  18   2.0000      -0.590418       -16.0661
  19   2.0000      -0.575299       -15.6547
  20   2.0000      -0.573749       -15.6125
  21   2.0000      -0.559514       -15.2252
  22   2.0000      -0.545816       -14.8524
  23   2.0000      -0.534197       -14.5362
  24   2.0000      -0.505170       -13.7464
  25   2.0000      -0.502495       -13.6736
  26   2.0000      -0.406404       -11.0588
  27   2.0000      -0.374230       -10.1833
  28   2.0000      -0.325464        -8.8563
  29   0.0000       0.023384         0.6363
  30   0.0000       0.027217         0.7406
  31   0.0000       0.031695         0.8625
  32   0.0000       0.038813         1.0562
  33   0.0000       0.041169         1.1203

MULLIKEN ATOMIC CHARGES
-----------------------
   0 C :   -0.209376
   1 C :   -0.416974
   2 C :   -0.399233
   3 C :    0.498091
   4 C :    0.396391
   5 C :   -0.768631
   6 C :   -0.782734
   7 N :   -0.676212
   8 H :    0.289930
   9 H :    0.266010
  10 H :    0.378188
  11 H :    0.227858
  12 H :    0.231643
  13 H :    0.227858
  14 H :    0.269089
  15 H :    0.269089
  16 H :    0.199013
Sum of atomic charges:    0.0000000

LOEWDIN ATOMIC CHARGES
----------------------
   0 C :    0.343056
   1 C :    0.346304
   2 C :    0.091531
   3 C :   -0.081862
   4 C :   -0.340673
   5 C :    0.900788
   6 C :    0.888538
   7 N :    0.614404
   8 H :   -0.304305
   9 H :   -0.326394
  10 H :   -0.350111
  11 H :   -0.285682
  12 H :   -0.310981
  13 H :   -0.285682
  14 H :   -0.292733
  15 H :   -0.292733
  16 H :   -0.313461

  Mayer bond orders larger than 0.100000
B(  0-C ,  1-C ) :   1.2216 B(  0-C ,  2-C ) :  -0.1107 B(  0-C ,  3-C ) :   1.0076
B(  0-C ,  4-C ) :  -0.2249 B(  0-C ,  8-H ) :   0.9948 B(  0-C ,  9-H ) :  -0.1709
B(  1-C ,  2-C ) :   0.1869 B(  1-C ,  3-C ) :  -0.1208 B(  1-C ,  4-C ) :   1.0954
B(  1-C ,  7-N ) :   0.1120 B(  1-C ,  8-H ) :  -0.1305 B(  1-C ,  9-H ) :   1.0236
B(  2-C ,  3-C ) :   1.1357 B(  2-C ,  5-C ) :  -0.1034 B(  2-C ,  7-N ) :   1.2339
B(  2-C , 10-H ) :   0.9503 B(  3-C ,  5-C ) :   0.4809 B(  3-C , 11-H ) :  -0.1143
B(  3-C , 12-H ) :  -0.1543 B(  3-C , 13-H ) :  -0.1143 B(  4-C ,  6-C ) :   0.6564
B(  4-C ,  7-N ) :   1.0354 B(  4-C , 16-H ) :  -0.1272 B(  5-C , 11-H ) :   1.0287
B(  5-C , 12-H ) :   1.0446 B(  5-C , 13-H ) :   1.0287 B(  6-C , 14-H ) :   0.9814
B(  6-C , 15-H ) :   0.9814 B(  6-C , 16-H ) :   1.0962

MP2 TOTAL ENERGY:     -326.331020486 Eh
FINAL SINGLE POINT ENERGY      -326.331020486297

DIPOLE MOMENT
-------------
                                X             Y             Z
Electronic contribution:      1.09256       0.44256      -0.00000
Nuclear contribution   :     -1.80303      -0.88011       0.00000
                        -----------------------------------------
Total Dipole Moment    :     -0.71048      -0.43755      -0.00000
                        -----------------------------------------
Magnitude (a.u.)       :      0.83440
Magnitude (Debye)      :      2.12088

Rotational constants in cm-1:     0.186114     0.049371     0.039590
Rotational constants in MHz :  5579.542584  1480.120305  1186.874410

                             ****ORCA TERMINATED NORMALLY****
TOTAL RUN TIME: 0 days 0 hours 40 minutes 41 seconds 818 msec
