                         Program Version 5.0.4 -  RELEASE  -
|  1> !ri-mp2 aug-cc-pvqz aug-cc-pvqz/c tightscf
|  2> %pal nprocs 16 end
|  3>
|  4> * xyz 0 1
|  5> C      0.350820   -1.850666    0.000000
|  6> C      0.350820    1.050444    1.263414
|  7> C      0.350820    1.050444   -1.263414
|  8> C     -0.805408   -0.847966    0.000000
|  9> C     -0.414139    0.642850    0.000000
| 10> H     -0.031506   -2.872394    0.000000
| 11> H      0.984723   -1.741982    0.880927
| 12> H      0.984723   -1.741982   -0.880927
| 13> H      1.332012    0.574521    1.311117
| 14> H     -0.197555    0.775240    2.166524
| 15> H      0.512150    2.129575    1.288536
| 16> H      1.332012    0.574521   -1.311117
| 17> H      0.512150    2.129575   -1.288536
| 18> H     -0.197555    0.775240   -2.166524
| 19> H     -1.436172   -1.037018   -0.873465
| 20> H     -1.436172   -1.037018    0.873465
| 21> H     -1.356290    1.201080    0.000000
| 22> *
| 23>
| 24>                          ****END OF INPUT****

CARTESIAN COORDINATES (ANGSTROEM)
---------------------------------
  C      0.350820   -1.850666    0.000000
  C      0.350820    1.050444    1.263414
  C      0.350820    1.050444   -1.263414
  C     -0.805408   -0.847966    0.000000
  C     -0.414139    0.642850    0.000000
  H     -0.031506   -2.872394    0.000000
  H      0.984723   -1.741982    0.880927
  H      0.984723   -1.741982   -0.880927
  H      1.332012    0.574521    1.311117
  H     -0.197555    0.775240    2.166524
  H      0.512150    2.129575    1.288536
  H      1.332012    0.574521   -1.311117
  H      0.512150    2.129575   -1.288536
  H     -0.197555    0.775240   -2.166524
  H     -1.436172   -1.037018   -0.873465
  H     -1.436172   -1.037018    0.873465
  H     -1.356290    1.201080    0.000000

 Total Charge           Charge          ....    0
 Multiplicity           Mult            ....    1
 Number of Electrons    NEL             ....   42
 Basis Dimension        Dim             ....  952

ORBITAL ENERGIES
----------------

  NO   OCC          E(Eh)            E(eV)
   0   2.0000     -11.220608      -305.3283
   1   2.0000     -11.212711      -305.1134
   2   2.0000     -11.206524      -304.9450
   3   2.0000     -11.205649      -304.9212
   4   2.0000     -11.205626      -304.9206
   5   2.0000      -1.086215       -29.5574
   6   2.0000      -0.987524       -26.8719
   7   2.0000      -0.925543       -25.1853
   8   2.0000      -0.861918       -23.4540
   9   2.0000      -0.745400       -20.2834
  10   2.0000      -0.634044       -17.2532
  11   2.0000      -0.613145       -16.6845
  12   2.0000      -0.591115       -16.0850
  13   2.0000      -0.550769       -14.9872
  14   2.0000      -0.535850       -14.5812
  15   2.0000      -0.523135       -14.2352
  16   2.0000      -0.518327       -14.1044
  17   2.0000      -0.488616       -13.2959
  18   2.0000      -0.453852       -12.3499
  19   2.0000      -0.448526       -12.2050
  20   2.0000      -0.445092       -12.1116
  21   0.0000       0.027024         0.7354
  22   0.0000       0.032211         0.8765
  23   0.0000       0.033926         0.9232
  24   0.0000       0.034267         0.9325
  25   0.0000       0.049655         1.3512

MULLIKEN ATOMIC CHARGES
-----------------------
   0 C :   -0.864487
   1 C :   -0.886386
   2 C :   -0.886386
   3 C :   -0.442152
   4 C :    0.239680
   5 H :    0.315599
   6 H :    0.198921
   7 H :    0.198921
   8 H :    0.192599
   9 H :    0.210682
  10 H :    0.286027
  11 H :    0.192599
  12 H :    0.286027
  13 H :    0.210682
  14 H :    0.238450
  15 H :    0.238450
  16 H :    0.270773
Sum of atomic charges:    0.0000000

LOEWDIN ATOMIC CHARGES
----------------------
   0 C :    0.926036
   1 C :    0.916706
   2 C :    0.916706
   3 C :    0.510506
   4 C :    0.101349
   5 H :   -0.279420
   6 H :   -0.290364
   7 H :   -0.290364
   8 H :   -0.289336
   9 H :   -0.272751
  10 H :   -0.276476
  11 H :   -0.289336
  12 H :   -0.276476
  13 H :   -0.272751
  14 H :   -0.276235
  15 H :   -0.276235
  16 H :   -0.281558

  Mayer bond orders larger than 0.100000
B(  0-C ,  3-C ) :   0.9667 B(  0-C ,  4-C ) :  -0.1043 B(  0-C ,  5-H ) :   0.9498
B(  0-C ,  6-H ) :   0.9694 B(  0-C ,  7-H ) :   0.9694 B(  1-C ,  4-C ) :   0.7236
B(  1-C ,  8-H ) :   0.9909 B(  1-C ,  9-H ) :   1.0187 B(  1-C , 10-H ) :   0.9777
B(  2-C ,  4-C ) :   0.7236 B(  2-C , 11-H ) :   0.9909 B(  2-C , 12-H ) :   0.9777
B(  2-C , 13-H ) :   1.0187 B(  3-C ,  4-C ) :   0.8027 B(  3-C , 14-H ) :   0.9254
B(  3-C , 15-H ) :   0.9254 B(  4-C , 16-H ) :   0.8358

MP2 TOTAL ENERGY:     -197.369073476 Eh
FINAL SINGLE POINT ENERGY      -197.369073476199

DIPOLE MOMENT
-------------
                                X             Y             Z
Electronic contribution:     -1.14993       0.30672       0.00000
Nuclear contribution   :      1.09601      -0.29588       0.00000
                        -----------------------------------------
Total Dipole Moment    :     -0.05392       0.01084       0.00000
                        -----------------------------------------
Magnitude (a.u.)       :      0.05500
Magnitude (Debye)      :      0.13980

Rotational constants in cm-1:     0.201927     0.123279     0.099924
Rotational constants in MHz :  6053.610988  3695.803851  2995.641824

                             ****ORCA TERMINATED NORMALLY****
TOTAL RUN TIME: 0 days 0 hours 35 minutes 32 seconds 950 msec
