                         Program Version 5.0.4 -  RELEASE  -
|  1> !ri-mp2 aug-cc-pvqz aug-cc-pvqz/c tightscf
|  2> %pal nprocs 16 end
|  3>
|  4> * xyz 0 1
|  5> C     -1.431534   -1.031992    0.000000
|  6> C     -1.295454    0.385519    0.000000
|  7> C     -0.233038   -1.675211    0.000000
|  8> C      0.000000    0.813659    0.000000
|  9> C      0.515874    2.217453    0.000000
| 10> S      1.080231   -0.550999    0.000000
| 11> H     -2.381672   -1.545414    0.000000
| 12> H     -2.133617    1.068000    0.000000
| 13> H     -0.039022   -2.734092    0.000000
| 14> H     -0.319300    2.917141    0.000000
| 15> H      1.127412    2.426894    0.879789
| 16> H      1.127412    2.426894   -0.879789
| 17> *
| 18>
| 19>                          ****END OF INPUT****

CARTESIAN COORDINATES (ANGSTROEM)
---------------------------------
  C     -1.431534   -1.031992    0.000000
  C     -1.295454    0.385519    0.000000
  C     -0.233038   -1.675211    0.000000
  C      0.000000    0.813659    0.000000
  C      0.515874    2.217453    0.000000
  S      1.080231   -0.550999    0.000000
  H     -2.381672   -1.545414    0.000000
  H     -2.133617    1.068000    0.000000
  H     -0.039022   -2.734092    0.000000
  H     -0.319300    2.917141    0.000000
  H      1.127412    2.426894    0.879789
  H      1.127412    2.426894   -0.879789

 Total Charge           Charge          ....    0
 Multiplicity           Mult            ....    1
 Number of Electrons    NEL             ....   52
 Basis Dimension        Dim             ....  760

ORBITAL ENERGIES
----------------

  NO   OCC          E(Eh)            E(eV)
   0   2.0000     -91.974047     -2502.7411
   1   2.0000     -11.266025      -306.5641
   2   2.0000     -11.254799      -306.2586
   3   2.0000     -11.234465      -305.7053
   4   2.0000     -11.233173      -305.6702
   5   2.0000     -11.228142      -305.5333
   6   2.0000      -8.975797      -244.2439
   7   2.0000      -6.657108      -181.1491
   8   2.0000      -6.656632      -181.1362
   9   2.0000      -6.655988      -181.1186
  10   2.0000      -1.168848       -31.8060
  11   2.0000      -1.031325       -28.0638
  12   2.0000      -0.977757       -26.6061
  13   2.0000      -0.920236       -25.0409
  14   2.0000      -0.758293       -20.6342
  15   2.0000      -0.724665       -19.7191
  16   2.0000      -0.676849       -18.4180
  17   2.0000      -0.587796       -15.9947
  18   2.0000      -0.587480       -15.9861
  19   2.0000      -0.563562       -15.3353
  20   2.0000      -0.533011       -14.5040
  21   2.0000      -0.504015       -13.7149
  22   2.0000      -0.502384       -13.6706
  23   2.0000      -0.463568       -12.6143
  24   2.0000      -0.343176        -9.3383
  25   2.0000      -0.316340        -8.6081
  26   0.0000       0.026396         0.7183
  27   0.0000       0.028374         0.7721
  28   0.0000       0.033232         0.9043
  29   0.0000       0.043218         1.1760
  30   0.0000       0.043395         1.1809

MULLIKEN ATOMIC CHARGES
-----------------------
   0 C :   -0.249169
   1 C :   -0.435727
   2 C :   -0.812753
   3 C :    0.085166
   4 C :   -0.699336
   5 S :    0.272374
   6 H :    0.352497
   7 H :    0.328205
   8 H :    0.418416
   9 H :    0.236441
  10 H :    0.251942
  11 H :    0.251942
Sum of atomic charges:   -0.0000000

LOEWDIN ATOMIC CHARGES
----------------------
   0 C :    0.189335
   1 C :    0.198902
   2 C :   -0.077027
   3 C :   -0.492197
   4 C :    0.822696
   5 S :    1.352887
   6 H :   -0.332507
   7 H :   -0.326325
   8 H :   -0.411137
   9 H :   -0.315406
  10 H :   -0.304611
  11 H :   -0.304611

  Mayer bond orders larger than 0.100000
B(  0-C ,  1-C ) :   1.1816 B(  0-C ,  2-C ) :   1.5061 B(  0-C ,  3-C ) :  -0.2819
B(  0-C ,  6-H ) :   0.9632 B(  1-C ,  3-C ) :   1.2407 B(  1-C ,  5-S ) :   0.1017
B(  1-C ,  7-H ) :   0.9262 B(  2-C ,  3-C ) :  -0.1502 B(  2-C ,  5-S ) :   1.2585
B(  2-C ,  8-H ) :   0.8463 B(  3-C ,  4-C ) :   0.6643 B(  3-C ,  5-S ) :   0.9209
B(  4-C ,  9-H ) :   1.0204 B(  4-C , 10-H ) :   0.9802 B(  4-C , 11-H ) :   0.9802

MP2 TOTAL ENERGY:     -591.509693665 Eh
FINAL SINGLE POINT ENERGY      -591.509693664548

DIPOLE MOMENT
-------------
                                X             Y             Z
Electronic contribution:      2.38506      -4.31380      -0.00000
Nuclear contribution   :     -2.63852       4.55296       0.00000
                        -----------------------------------------
Total Dipole Moment    :     -0.25346       0.23917      -0.00000
                        -----------------------------------------
Magnitude (a.u.)       :      0.34849
Magnitude (Debye)      :      0.88579

Rotational constants in cm-1:     0.176191     0.103588     0.066032
Rotational constants in MHz :  5282.071328  3105.501270  1979.596108

                             ****ORCA TERMINATED NORMALLY****
TOTAL RUN TIME: 0 days 0 hours 20 minutes 44 seconds 446 msec
