                         Program Version 5.0.4 -  RELEASE  -
|  1> !ri-mp2 aug-cc-pvqz aug-cc-pvqz/c tightscf
|  2> %pal nprocs 16 end
|  3>
|  4> * xyz 0 1
|  5> C     -1.465797    0.872297    0.156005
|  6> C     -1.620855   -0.609455    0.335459
|  7> C     -0.276897    1.302884   -0.242595
|  8> C     -0.393911   -1.261059   -0.306555
|  9> O      1.765599   -0.030829    0.858773
| 10> S      0.967718    0.002094   -0.419379
| 11> H     -2.288404    1.542755    0.376595
| 12> H     -1.699412   -0.844109    1.400319
| 13> H     -2.540491   -0.970774   -0.129233
| 14> H      0.033910    2.327308   -0.379703
| 15> H      0.024673   -2.096585    0.248885
| 16> H     -0.593786   -1.573461   -1.330850
| 17> *
| 18>
| 19>                          ****END OF INPUT****

CARTESIAN COORDINATES (ANGSTROEM)
---------------------------------
  C     -1.465797    0.872297    0.156005
  C     -1.620855   -0.609455    0.335459
  C     -0.276897    1.302884   -0.242595
  C     -0.393911   -1.261059   -0.306555
  O      1.765599   -0.030829    0.858773
  S      0.967718    0.002094   -0.419379
  H     -2.288404    1.542755    0.376595
  H     -1.699412   -0.844109    1.400319
  H     -2.540491   -0.970774   -0.129233
  H      0.033910    2.327308   -0.379703
  H      0.024673   -2.096585    0.248885
  H     -0.593786   -1.573461   -1.330850

 Total Charge           Charge          ....    0
 Multiplicity           Mult            ....    1
 Number of Electrons    NEL             ....   54
 Basis Dimension        Dim             ....  760

ORBITAL ENERGIES
----------------

  NO   OCC          E(Eh)            E(eV)
   0   2.0000     -92.065232     -2505.2223
   1   2.0000     -20.499545      -557.8210
   2   2.0000     -11.270410      -306.6834
   3   2.0000     -11.269374      -306.6552
   4   2.0000     -11.262633      -306.4718
   5   2.0000     -11.259196      -306.3783
   6   2.0000      -9.051777      -246.3114
   7   2.0000      -6.733865      -183.2378
   8   2.0000      -6.733442      -183.2263
   9   2.0000      -6.732234      -183.1934
  10   2.0000      -1.324849       -36.0510
  11   2.0000      -1.146940       -31.2098
  12   2.0000      -1.010742       -27.5037
  13   2.0000      -0.969421       -26.3793
  14   2.0000      -0.816776       -22.2256
  15   2.0000      -0.762336       -20.7442
  16   2.0000      -0.697331       -18.9753
  17   2.0000      -0.660878       -17.9834
  18   2.0000      -0.588654       -16.0181
  19   2.0000      -0.563052       -15.3214
  20   2.0000      -0.557988       -15.1836
  21   2.0000      -0.550567       -14.9817
  22   2.0000      -0.532807       -14.4984
  23   2.0000      -0.524483       -14.2719
  24   2.0000      -0.412811       -11.2332
  25   2.0000      -0.393324       -10.7029
  26   2.0000      -0.366459        -9.9718
  27   0.0000       0.019501         0.5306
  28   0.0000       0.029206         0.7947
  29   0.0000       0.032262         0.8779
  30   0.0000       0.038682         1.0526
  31   0.0000       0.045716         1.2440

MULLIKEN ATOMIC CHARGES
-----------------------
   0 C :   -0.343386
   1 C :   -0.333764
   2 C :   -0.671089
   3 C :   -0.603444
   4 O :   -1.153106
   5 S :    1.089225
   6 H :    0.439884
   7 H :    0.274580
   8 H :    0.248655
   9 H :    0.435131
  10 H :    0.316728
  11 H :    0.300586
Sum of atomic charges:   -0.0000000

LOEWDIN ATOMIC CHARGES
----------------------
   0 C :    0.297304
   1 C :    0.434460
   2 C :    0.158703
   3 C :    0.332708
   4 O :    0.040624
   5 S :    0.668065
   6 H :   -0.303275
   7 H :   -0.275976
   8 H :   -0.282587
   9 H :   -0.388792
  10 H :   -0.337705
  11 H :   -0.343528

  Mayer bond orders larger than 0.100000
B(  0-C ,  1-C ) :   0.7992 B(  0-C ,  2-C ) :   1.6950 B(  0-C ,  6-H ) :   0.8232
B(  1-C ,  3-C ) :   0.9837 B(  1-C ,  7-H ) :   0.8756 B(  1-C ,  8-H ) :   0.9344
B(  2-C ,  5-S ) :   0.9519 B(  2-C ,  9-H ) :   0.8503 B(  3-C ,  5-S ) :   0.8708
B(  3-C , 10-H ) :   0.8800 B(  3-C , 11-H ) :   0.8837 B(  4-O ,  5-S ) :   1.2302

MP2 TOTAL ENERGY:     -628.571825769 Eh
FINAL SINGLE POINT ENERGY      -628.571825768935

DIPOLE MOMENT
-------------
                                X             Y             Z
Electronic contribution:      5.15901       1.50463      -0.99446
Nuclear contribution   :     -7.01470      -1.60379       0.21096
                        -----------------------------------------
Total Dipole Moment    :     -1.85568      -0.09917      -0.78350
                        -----------------------------------------
Magnitude (a.u.)       :      2.01675
Magnitude (Debye)      :      5.12616

Rotational constants in cm-1:     0.178347     0.093819     0.075196
Rotational constants in MHz :  5346.696494  2812.608039  2254.328138

                             ****ORCA TERMINATED NORMALLY****
TOTAL RUN TIME: 0 days 0 hours 21 minutes 48 seconds 63 msec
