                         Program Version 5.0.4 -  RELEASE  -
|  1> !ri-mp2 aug-cc-pvqz aug-cc-pvqz/c tightscf
|  2> %pal nprocs 16 end
|  3>
|  4> * xyz 0 1
|  5> S    -2.712144   -0.669688     0.037222
|  6> O     0.933735    2.198989     0.455731
|  7> O    -0.813211    1.753882    -0.838351
|  8> O     3.132632   -1.292925    -0.368579
|  9> N     1.364274   -0.584057     0.618722
| 10> N     2.135784   -0.617460    -0.478845
| 11> C     0.002543   -0.066606     0.511530
| 12> C    -0.932563   -0.985226    -0.286130
| 13> C    -0.000890    1.370282    -0.050456
| 14> H    -0.365039    0.012010     1.536683
| 15> H    -0.768377   -0.838439    -1.350349
| 16> H    -0.717791   -2.023048    -0.047362
| 17> H     1.618464   -1.240568     1.355307
| 18> H    -2.888807   -1.681239     0.906858
| 19> H     1.575667    1.706649     0.984110
| 20> *
| 21>
| 22>                          ****END OF INPUT****

CARTESIAN COORDINATES (ANGSTROEM)
---------------------------------
  S     -2.712144   -0.669688    0.037222
  O      0.933735    2.198989    0.455731
  O     -0.813211    1.753882   -0.838351
  O      3.132632   -1.292925   -0.368579
  N      1.364274   -0.584057    0.618722
  N      2.135784   -0.617460   -0.478845
  C      0.002543   -0.066606    0.511530
  C     -0.932563   -0.985226   -0.286130
  C     -0.000890    1.370282   -0.050456
  H     -0.365039    0.012010    1.536683
  H     -0.768377   -0.838439   -1.350349
  H     -0.717791   -2.023048   -0.047362
  H      1.618464   -1.240568    1.355307
  H     -2.888807   -1.681239    0.906858
  H      1.575667    1.706649    0.984110

 Total Charge           Charge          ....    0
 Multiplicity           Mult            ....    1
 Number of Electrons    NEL             ....   78
 Basis Dimension        Dim             .... 1000

ORBITAL ENERGIES
----------------

  NO   OCC          E(Eh)            E(eV)
   0   2.0000     -91.969457     -2502.6162
   1   2.0000     -20.626350      -561.2715
   2   2.0000     -20.623331      -561.1894
   3   2.0000     -20.563895      -559.5720
   4   2.0000     -15.762201      -428.9113
   5   2.0000     -15.660186      -426.1353
   6   2.0000     -11.406289      -310.3809
   7   2.0000     -11.335528      -308.4554
   8   2.0000     -11.291034      -307.2447
   9   2.0000      -8.971215      -244.1192
  10   2.0000      -6.652628      -181.0272
  11   2.0000      -6.651733      -181.0029
  12   2.0000      -6.650788      -180.9771
  13   2.0000      -1.554498       -42.3000
  14   2.0000      -1.480577       -40.2885
  15   2.0000      -1.386814       -37.7371
  16   2.0000      -1.308537       -35.6071
  17   2.0000      -1.108565       -30.1656
  18   2.0000      -1.011644       -27.5282
  19   2.0000      -0.937352       -25.5066
  20   2.0000      -0.886054       -24.1108
  21   2.0000      -0.839551       -22.8453
  22   2.0000      -0.772899       -21.0316
  23   2.0000      -0.768288       -20.9062
  24   2.0000      -0.716706       -19.5026
  25   2.0000      -0.689093       -18.7512
  26   2.0000      -0.665609       -18.1121
  27   2.0000      -0.647512       -17.6197
  28   2.0000      -0.645783       -17.5726
  29   2.0000      -0.622809       -16.9475
  30   2.0000      -0.592505       -16.1229
  31   2.0000      -0.574910       -15.6441
  32   2.0000      -0.544097       -14.8056
  33   2.0000      -0.499893       -13.6028
  34   2.0000      -0.491075       -13.3628
  35   2.0000      -0.468427       -12.7465
  36   2.0000      -0.450793       -12.2667
  37   2.0000      -0.444461       -12.0944
  38   2.0000      -0.375635       -10.2215
  39   0.0000       0.011127         0.3028
  40   0.0000       0.025401         0.6912
  41   0.0000       0.032566         0.8862
  42   0.0000       0.038287         1.0418
  43   0.0000       0.047721         1.2986

MULLIKEN ATOMIC CHARGES
-----------------------
   0 S :   -0.117740
   1 O :   -0.848007
   2 O :   -0.805849
   3 O :   -0.568066
   4 N :   -0.308757
   5 N :    0.236527
   6 C :    0.129872
   7 C :   -0.571455
   8 C :    1.268520
   9 H :    0.434626
  10 H :    0.271933
  11 H :    0.271911
  12 H :    0.235666
  13 H :    0.022179
  14 H :    0.348639
Sum of atomic charges:    0.0000000

LOEWDIN ATOMIC CHARGES
----------------------
   0 S :    1.606275
   1 O :    1.262440
   2 O :    0.701742
   3 O :    0.409002
   4 N :    0.546818
   5 N :   -0.133543
   6 C :   -0.198118
   7 C :    0.086504
   8 C :   -1.054944
   9 H :   -0.337656
  10 H :   -0.386681
  11 H :   -0.367732
  12 H :   -0.516270
  13 H :   -0.775074
  14 H :   -0.842763

  Mayer bond orders larger than 0.100000
B(  0-S ,  7-C ) :   0.8637 B(  0-S , 13-H ) :   1.0497 B(  1-O ,  2-O ) :   0.1238
B(  1-O ,  8-C ) :   0.6191 B(  1-O , 14-H ) :   0.8607 B(  2-O ,  6-C ) :   0.1684
B(  2-O ,  8-C ) :   1.4006 B(  3-O ,  4-N ) :   0.1050 B(  3-O ,  5-N ) :   1.5333
B(  4-N ,  5-N ) :   0.9552 B(  4-N ,  6-C ) :   0.7075 B(  4-N , 12-H ) :   0.9556
B(  6-C ,  7-C ) :   0.8083 B(  6-C ,  8-C ) :   1.0930 B(  6-C ,  9-H ) :   0.7570
B(  7-C , 10-H ) :   0.9168 B(  7-C , 11-H ) :   0.9384

MP2 TOTAL ENERGY:     -850.173468590 Eh
FINAL SINGLE POINT ENERGY      -850.173468589647

DIPOLE MOMENT
-------------
                                X             Y             Z
Electronic contribution:      1.50780       2.62971      -1.55022
Nuclear contribution   :     -1.35646      -3.91131       3.29080
                        -----------------------------------------
Total Dipole Moment    :      0.15134      -1.28160       1.74059
                        -----------------------------------------
Magnitude (a.u.)       :      2.16681
Magnitude (Debye)      :      5.50758

Rotational constants in cm-1:     0.064519     0.029572     0.022277
Rotational constants in MHz :  1934.239116   886.538497   667.859946

                             ****ORCA TERMINATED NORMALLY****
TOTAL RUN TIME: 0 days 0 hours 42 minutes 8 seconds 355 msec
