                         Program Version 5.0.4 -  RELEASE  -
|  1> !ri-mp2 aug-cc-pvqz aug-cc-pvqz/c tightscf
|  2> %pal nprocs 16 end
|  3>
|  4> * xyz 0 1
|  5> C      0.000000    0.000000    0.603507
|  6> C      0.000000    0.000000   -0.603507
|  7> C      0.000000    0.000000    1.966164
|  8> C      0.000000    0.000000   -1.966164
|  9> N      0.000000    0.000000    3.122257
| 10> N      0.000000    0.000000   -3.122257
| 11> *
| 12>
| 13>                          ****END OF INPUT****

CARTESIAN COORDINATES (ANGSTROEM)
---------------------------------
  C      0.000000    0.000000    0.603507
  C      0.000000    0.000000   -0.603507
  C      0.000000    0.000000    1.966164
  C      0.000000    0.000000   -1.966164
  N      0.000000    0.000000    3.122257
  N      0.000000    0.000000   -3.122257

 Total Charge           Charge          ....    0
 Multiplicity           Mult            ....    1
 Number of Electrons    NEL             ....   38
 Basis Dimension        Dim             ....  480

ORBITAL ENERGIES
----------------

  NO   OCC          E(Eh)            E(eV)
   0   2.0000     -15.637597      -425.5206
   1   2.0000     -15.637596      -425.5206
   2   2.0000     -11.351702      -308.8955
   3   2.0000     -11.348019      -308.7953
   4   2.0000     -11.337293      -308.5034
   5   2.0000     -11.337281      -308.5031
   6   2.0000      -1.279409       -34.8145
   7   2.0000      -1.276166       -34.7262
   8   2.0000      -1.148181       -31.2436
   9   2.0000      -0.989850       -26.9352
  10   2.0000      -0.884456       -24.0673
  11   2.0000      -0.619441       -16.8559
  12   2.0000      -0.617542       -16.8042
  13   2.0000      -0.601087       -16.3564
  14   2.0000      -0.601087       -16.3564
  15   2.0000      -0.546187       -14.8625
  16   2.0000      -0.546187       -14.8625
  17   2.0000      -0.442402       -12.0384
  18   2.0000      -0.442402       -12.0384
  19   0.0000       0.015273         0.4156
  20   0.0000       0.015273         0.4156
  21   0.0000       0.033669         0.9162
  22   0.0000       0.043877         1.1940
  23   0.0000       0.054917         1.4944

MULLIKEN ATOMIC CHARGES
-----------------------
   0 C :   -0.445225
   1 C :   -0.445225
   2 C :    1.213855
   3 C :    1.213854
   4 N :   -0.768630
   5 N :   -0.768630
Sum of atomic charges:   -0.0000000

LOEWDIN ATOMIC CHARGES
----------------------
   0 C :   -0.021115
   1 C :   -0.021115
   2 C :   -0.386630
   3 C :   -0.386630
   4 N :    0.407745
   5 N :    0.407745

  Mayer bond orders larger than 0.100000
B(  0-C ,  1-C ) :   2.8705 B(  0-C ,  2-C ) :   1.1377 B(  0-C ,  3-C ) :  -0.4335
B(  0-C ,  4-N ) :   0.2037 B(  1-C ,  2-C ) :  -0.4335 B(  1-C ,  3-C ) :   1.1377
B(  1-C ,  5-N ) :   0.2037 B(  2-C ,  3-C ) :   0.1818 B(  2-C ,  4-N ) :   2.2745
B(  3-C ,  5-N ) :   2.2745

MP2 TOTAL ENERGY:     -261.402205635 Eh
FINAL SINGLE POINT ENERGY      -261.402205635356

DIPOLE MOMENT
-------------
                                X             Y             Z
Electronic contribution:      0.00000      -0.00000      -0.00000
Nuclear contribution   :      0.00000       0.00000       0.00000
                        -----------------------------------------
Total Dipole Moment    :      0.00000      -0.00000      -0.00000
                        -----------------------------------------
Magnitude (a.u.)       :      0.00000
Magnitude (Debye)      :      0.00000

Rotational constants in cm-1:     0.000000     0.044989     0.044989
Rotational constants in MHz :     0.000000  1348.729749  1348.729749

                             ****ORCA TERMINATED NORMALLY****
TOTAL RUN TIME: 0 days 0 hours 2 minutes 33 seconds 517 msec
