                         Program Version 5.0.4 -  RELEASE  -
|  1> !ri-mp2 aug-cc-pvqz aug-cc-pvqz/c tightscf
|  2> %pal nprocs 16 end
|  3>
|  4> * xyz 0 1
|  5> C     0.031152     1.911320       0.000000
|  6> C     0.450591     0.488912       0.000000
|  7> C    -0.450591    -0.488912       0.000000
|  8> C    -0.031152    -1.911320       0.000000
|  9> O     1.105518    -2.312587       0.000000
| 10> O    -1.105518     2.312587       0.000000
| 11> O     1.105518     2.733674       0.000000
| 12> O    -1.105518    -2.733674       0.000000
| 13> H     1.509349     0.269845       0.000000
| 14> H    -1.509349    -0.269845       0.000000
| 15> H     0.771942     3.643174       0.000000
| 16> H    -0.771942    -3.643174       0.000000
| 17> *
| 18>
| 19>                          ****END OF INPUT****

CARTESIAN COORDINATES (ANGSTROEM)
---------------------------------
  C      0.031152    1.911320    0.000000
  C      0.450591    0.488912    0.000000
  C     -0.450591   -0.488912    0.000000
  C     -0.031152   -1.911320    0.000000
  O      1.105518   -2.312587    0.000000
  O     -1.105518    2.312587    0.000000
  O      1.105518    2.733674    0.000000
  O     -1.105518   -2.733674    0.000000
  H      1.509349    0.269845    0.000000
  H     -1.509349   -0.269845    0.000000
  H      0.771942    3.643174    0.000000
  H     -0.771942   -3.643174    0.000000

 Total Charge           Charge          ....    0
 Multiplicity           Mult            ....    1
 Number of Electrons    NEL             ....   60
 Basis Dimension        Dim             ....  824

ORBITAL ENERGIES
----------------

  NO   OCC          E(Eh)            E(eV)
   0   2.0000     -20.627227      -561.2954
   1   2.0000     -20.627227      -561.2954
   2   2.0000     -20.564342      -559.5842
   3   2.0000     -20.564341      -559.5842
   4   2.0000     -11.407763      -310.4210
   5   2.0000     -11.407760      -310.4209
   6   2.0000     -11.283911      -307.0508
   7   2.0000     -11.282139      -307.0026
   8   2.0000      -1.481658       -40.3180
   9   2.0000      -1.480785       -40.2942
  10   2.0000      -1.379068       -37.5263
  11   2.0000      -1.378719       -37.5169
  12   2.0000      -1.119625       -30.4665
  13   2.0000      -0.968919       -26.3656
  14   2.0000      -0.866180       -23.5700
  15   2.0000      -0.772158       -21.0115
  16   2.0000      -0.751831       -20.4584
  17   2.0000      -0.724477       -19.7140
  18   2.0000      -0.711524       -19.3616
  19   2.0000      -0.683500       -18.5990
  20   2.0000      -0.653392       -17.7797
  21   2.0000      -0.645188       -17.5565
  22   2.0000      -0.618941       -16.8422
  23   2.0000      -0.613535       -16.6951
  24   2.0000      -0.580508       -15.7964
  25   2.0000      -0.510152       -13.8819
  26   2.0000      -0.503073       -13.6893
  27   2.0000      -0.477672       -12.9981
  28   2.0000      -0.477162       -12.9843
  29   2.0000      -0.419706       -11.4208
  30   0.0000       0.023206         0.6315
  31   0.0000       0.027434         0.7465
  32   0.0000       0.034084         0.9275
  33   0.0000       0.040715         1.1079
  34   0.0000       0.043523         1.1843

MULLIKEN ATOMIC CHARGES
-----------------------
   0 C :    1.218280
   1 C :   -0.656880
   2 C :   -0.656887
   3 C :    1.218278
   4 O :   -0.717920
   5 O :   -0.717920
   6 O :   -0.682230
   7 O :   -0.682230
   8 H :    0.511432
   9 H :    0.511432
  10 H :    0.327323
  11 H :    0.327323
Sum of atomic charges:   -0.0000000

LOEWDIN ATOMIC CHARGES
----------------------
   0 C :   -1.056296
   1 C :    0.290598
   2 C :    0.290598
   3 C :   -1.056296
   4 O :    0.697080
   5 O :    0.697080
   6 O :    1.239805
   7 O :    1.239805
   8 H :   -0.359759
   9 H :   -0.359759
  10 H :   -0.811428
  11 H :   -0.811428

  Mayer bond orders larger than 0.100000
B(  0-C ,  1-C ) :   1.2933 B(  0-C ,  2-C ) :  -0.3340 B(  0-C ,  5-O ) :   1.4035
B(  0-C ,  6-O ) :   0.7991 B(  1-C ,  2-C ) :   1.4077 B(  1-C ,  3-C ) :  -0.3340
B(  1-C ,  5-O ) :   0.1276 B(  1-C ,  6-O ) :   0.1385 B(  1-C ,  8-H ) :   0.6874
B(  2-C ,  3-C ) :   1.2933 B(  2-C ,  4-O ) :   0.1276 B(  2-C ,  7-O ) :   0.1385
B(  2-C ,  9-H ) :   0.6874 B(  3-C ,  4-O ) :   1.4035 B(  3-C ,  7-O ) :   0.7991
B(  6-O , 10-H ) :   0.9357 B(  7-O , 11-H ) :   0.9357

MP2 TOTAL ENERGY:     -455.160125548 Eh
FINAL SINGLE POINT ENERGY      -455.160125548430

DIPOLE MOMENT
-------------
                                X             Y             Z
Electronic contribution:      0.00000       0.00000       0.00000
Nuclear contribution   :      0.00000       0.00000       0.00000
                        -----------------------------------------
Total Dipole Moment    :      0.00000       0.00000       0.00000
                        -----------------------------------------
Magnitude (a.u.)       :      0.00000
Magnitude (Debye)      :      0.00000

Rotational constants in cm-1:     0.193483     0.031662     0.027209
Rotational constants in MHz :  5800.481133   949.191847   815.709060

                             ****ORCA TERMINATED NORMALLY****
TOTAL RUN TIME: 0 days 0 hours 21 minutes 54 seconds 2 msec
