                         Program Version 5.0.4 -  RELEASE  -
|  1> !ri-mp2 aug-cc-pvqz aug-cc-pvqz/c tightscf
|  2> %pal nprocs 16 end
|  3>
|  4> * xyz 0 1
|  5> Cl     1.926269   -1.029667    0.000000
|  6> O      1.000529    1.396322    0.000001
|  7> O     -2.545474   -1.255419   -0.000001
|  8> N     -1.326289   -1.296988   -0.000001
|  9> C     -0.699105   -0.046948    0.000000
| 10> C      0.667284    0.101086    0.000000
| 11> C     -1.242421    1.285636    0.000000
| 12> C     -0.184456    2.114819    0.000001
| 13> H     -2.285347    1.546278    0.000000
| 14> H     -0.065452    3.182198    0.000001
| 15> *
| 16>
| 17>                          ****END OF INPUT****

CARTESIAN COORDINATES (ANGSTROEM)
---------------------------------
  Cl     1.926269   -1.029667    0.000000
  O      1.000529    1.396322    0.000001
  O     -2.545474   -1.255419   -0.000001
  N     -1.326289   -1.296988   -0.000001
  C     -0.699105   -0.046948    0.000000
  C      0.667284    0.101086    0.000000
  C     -1.242421    1.285636    0.000000
  C     -0.184456    2.114819    0.000001
  H     -2.285347    1.546278    0.000000
  H     -0.065452    3.182198    0.000001

 Total Charge           Charge          ....    0
 Multiplicity           Mult            ....    1
 Number of Electrons    NEL             ....   66
 Basis Dimension        Dim             ....  736

ORBITAL ENERGIES
----------------

  NO   OCC          E(Eh)            E(eV)
   0   2.0000    -104.885993     -2854.0930
   1   2.0000     -20.669129      -562.4356
   2   2.0000     -20.622491      -561.1665
   3   2.0000     -15.708826      -427.4589
   4   2.0000     -11.399593      -310.1987
   5   2.0000     -11.323107      -308.1174
   6   2.0000     -11.289779      -307.2105
   7   2.0000     -11.267332      -306.5997
   8   2.0000     -10.611008      -288.7402
   9   2.0000      -8.078253      -219.8205
  10   2.0000      -8.076160      -219.7635
  11   2.0000      -8.076158      -219.7634
  12   2.0000      -1.514586       -41.2140
  13   2.0000      -1.507082       -41.0098
  14   2.0000      -1.196819       -32.5671
  15   2.0000      -1.150317       -31.3017
  16   2.0000      -1.051949       -28.6250
  17   2.0000      -0.971711       -26.4416
  18   2.0000      -0.844350       -22.9759
  19   2.0000      -0.793529       -21.5930
  20   2.0000      -0.755968       -20.5709
  21   2.0000      -0.693680       -18.8760
  22   2.0000      -0.685221       -18.6458
  23   2.0000      -0.665471       -18.1084
  24   2.0000      -0.633720       -17.2444
  25   2.0000      -0.613609       -16.6971
  26   2.0000      -0.602541       -16.3960
  27   2.0000      -0.573418       -15.6035
  28   2.0000      -0.526504       -14.3269
  29   2.0000      -0.498403       -13.5622
  30   2.0000      -0.434017       -11.8102
  31   2.0000      -0.419568       -11.4170
  32   2.0000      -0.349229        -9.5030
  33   0.0000       0.021506         0.5852
  34   0.0000       0.034211         0.9309
  35   0.0000       0.045018         1.2250
  36   0.0000       0.047827         1.3014
  37   0.0000       0.061133         1.6635

MULLIKEN ATOMIC CHARGES
-----------------------
   0 Cl:   -0.121301
   1 O :   -0.497343
   2 O :   -0.473367
   3 N :    0.011210
   4 C :    0.206930
   5 C :    0.384519
   6 C :   -0.499719
   7 C :   -0.079923
   8 H :    0.465872
   9 H :    0.603123
Sum of atomic charges:    0.0000000

LOEWDIN ATOMIC CHARGES
----------------------
   0 Cl:    1.238026
   1 O :    0.749346
   2 O :    0.401383
   3 N :   -0.057614
   4 C :   -0.609342
   5 C :   -1.348295
   6 C :    0.264905
   7 C :    0.017692
   8 H :   -0.324659
   9 H :   -0.331440

  Mayer bond orders larger than 0.100000
B(  0-Cl,  4-C ) :  -0.1541 B(  0-Cl,  5-C ) :   0.9663 B(  1-O ,  5-C ) :   0.8089
B(  1-O ,  6-C ) :   0.1248 B(  1-O ,  7-C ) :   0.7806 B(  2-O ,  3-N ) :   1.6553
B(  2-O ,  4-C ) :  -0.1096 B(  3-N ,  4-C ) :   0.8843 B(  3-N ,  6-C ) :  -0.1032
B(  4-C ,  5-C ) :   1.1966 B(  4-C ,  6-C ) :   1.1193 B(  4-C ,  7-C ) :  -0.1640
B(  5-C ,  6-C ) :  -0.1465 B(  6-C ,  7-C ) :   1.6705 B(  6-C ,  8-H ) :   0.8122
B(  7-C ,  9-H ) :   0.6652

MP2 TOTAL ENERGY:     -817.938711959 Eh
FINAL SINGLE POINT ENERGY      -817.938711959055

DIPOLE MOMENT
-------------
                                X             Y             Z
Electronic contribution:      5.30889      -4.66771      -0.00000
Nuclear contribution   :     -4.84317       5.83977       0.00000
                        -----------------------------------------
Total Dipole Moment    :      0.46571       1.17206       0.00000
                        -----------------------------------------
Magnitude (a.u.)       :      1.26119
Magnitude (Debye)      :      3.20570

Rotational constants in cm-1:     0.082799     0.054184     0.032751
Rotational constants in MHz :  2482.237049  1624.405642   981.862843

                             ****ORCA TERMINATED NORMALLY****
TOTAL RUN TIME: 0 days 0 hours 16 minutes 52 seconds 517 msec
