                         Program Version 5.0.4 -  RELEASE  -
|  1> !ri-mp2 aug-cc-pvqz aug-cc-pvqz/c tightscf
|  2> %pal nprocs 16 end
|  3>
|  4> * xyz 0 1
|  5> C      1.015957    1.451343    0.163935
|  6> H      0.123868    2.040690   -0.046686
|  7> H      1.188253    1.483529    1.242634
|  8> H      1.861449    1.938979   -0.323138
|  9> S     -1.912944    0.066947   -0.125366
| 10> H     -2.706994   -0.873776    0.415091
| 11> C      2.163432   -0.784591   -0.063963
| 12> H      2.089609   -1.805448   -0.442007
| 13> H      3.013177   -0.307136   -0.553827
| 14> H      2.384593   -0.837208    1.004776
| 15> C     -0.305593   -0.718329    0.333908
| 16> H     -0.334382   -1.754724    0.003227
| 17> H     -0.203516   -0.701401    1.419378
| 18> C      0.875283    0.005676   -0.319616
| 19> H      0.696575    0.020737   -1.399165
| 20> *
| 21>
| 22>                          ****END OF INPUT****

CARTESIAN COORDINATES (ANGSTROEM)
---------------------------------
  C      1.015957    1.451343    0.163935
  H      0.123868    2.040690   -0.046686
  H      1.188253    1.483529    1.242634
  H      1.861449    1.938979   -0.323138
  S     -1.912944    0.066947   -0.125366
  H     -2.706994   -0.873776    0.415091
  C      2.163432   -0.784591   -0.063963
  H      2.089609   -1.805448   -0.442007
  H      3.013177   -0.307136   -0.553827
  H      2.384593   -0.837208    1.004776
  C     -0.305593   -0.718329    0.333908
  H     -0.334382   -1.754724    0.003227
  H     -0.203516   -0.701401    1.419378
  C      0.875283    0.005676   -0.319616
  H      0.696575    0.020737   -1.399165

 Total Charge           Charge          ....    0
 Multiplicity           Mult            ....    1
 Number of Electrons    NEL             ....   50
 Basis Dimension        Dim             ....  864

ORBITAL ENERGIES
----------------

  NO   OCC          E(Eh)            E(eV)
   0   2.0000     -91.945439     -2501.9626
   1   2.0000     -11.257353      -306.3282
   2   2.0000     -11.236881      -305.7711
   3   2.0000     -11.217712      -305.2495
   4   2.0000     -11.212892      -305.1183
   5   2.0000      -8.947673      -243.4786
   6   2.0000      -6.629265      -180.3915
   7   2.0000      -6.628363      -180.3669
   8   2.0000      -6.627441      -180.3418
   9   2.0000      -1.102698       -30.0059
  10   2.0000      -0.998784       -27.1783
  11   2.0000      -0.935697       -25.4616
  12   2.0000      -0.871410       -23.7123
  13   2.0000      -0.772548       -21.0221
  14   2.0000      -0.643077       -17.4990
  15   2.0000      -0.613682       -16.6991
  16   2.0000      -0.593422       -16.1478
  17   2.0000      -0.560359       -15.2482
  18   2.0000      -0.541697       -14.7403
  19   2.0000      -0.527466       -14.3531
  20   2.0000      -0.490299       -13.3417
  21   2.0000      -0.474368       -12.9082
  22   2.0000      -0.470441       -12.8013
  23   2.0000      -0.439123       -11.9491
  24   2.0000      -0.352873        -9.6022
  25   0.0000       0.025916         0.7052
  26   0.0000       0.030605         0.8328
  27   0.0000       0.034543         0.9400
  28   0.0000       0.035720         0.9720
  29   0.0000       0.049700         1.3524

MULLIKEN ATOMIC CHARGES
-----------------------
   0 C :   -0.892605
   1 H :    0.290674
   2 H :    0.201043
   3 H :    0.258596
   4 S :   -0.221309
   5 H :   -0.033654
   6 C :   -0.887596
   7 H :    0.258288
   8 H :    0.250052
   9 H :    0.197483
  10 C :   -0.420418
  11 H :    0.247487
  12 H :    0.192669
  13 C :    0.257113
  14 H :    0.302176
Sum of atomic charges:    0.0000000

LOEWDIN ATOMIC CHARGES
----------------------
   0 C :    0.885140
   1 H :   -0.315029
   2 H :   -0.277550
   3 H :   -0.277631
   4 S :    1.590033
   5 H :   -0.784086
   6 C :    0.912487
   7 H :   -0.277886
   8 H :   -0.277351
   9 H :   -0.276691
  10 C :    0.117178
  11 H :   -0.361018
  12 H :   -0.350978
  13 C :   -0.008191
  14 H :   -0.298427

  Mayer bond orders larger than 0.100000
B(  0-C ,  1-H ) :   0.9705 B(  0-C ,  2-H ) :   0.9806 B(  0-C ,  3-H ) :   0.9859
B(  0-C , 13-C ) :   0.7357 B(  4-S ,  5-H ) :   1.1113 B(  4-S , 10-C ) :   0.8328
B(  4-S , 13-C ) :  -0.1099 B(  6-C ,  7-H ) :   0.9801 B(  6-C ,  8-H ) :   1.0105
B(  6-C ,  9-H ) :   0.9794 B(  6-C , 13-C ) :   0.7060 B( 10-C , 11-H ) :   0.9706
B( 10-C , 12-H ) :   0.9644 B( 10-C , 13-C ) :   0.7491 B( 13-C , 14-H ) :   0.8482

MP2 TOTAL ENERGY:     -555.870193294 Eh
FINAL SINGLE POINT ENERGY      -555.870193293923

DIPOLE MOMENT
-------------
                                X             Y             Z
Electronic contribution:     -8.03624       0.39595      -1.15283
Nuclear contribution   :      8.50870      -0.83073       1.37876
                        -----------------------------------------
Total Dipole Moment    :      0.47246      -0.43478       0.22594
                        -----------------------------------------
Magnitude (a.u.)       :      0.68066
Magnitude (Debye)      :      1.73011

Rotational constants in cm-1:     0.246294     0.070658     0.059051
Rotational constants in MHz :  7383.703205  2118.264680  1770.308955

                             ****ORCA TERMINATED NORMALLY****
TOTAL RUN TIME: 0 days 0 hours 27 minutes 47 seconds 642 msec
