                         Program Version 5.0.4 -  RELEASE  -
|  1> !ri-mp2 aug-cc-pvqz aug-cc-pvqz/c tightscf
|  2> %pal nprocs 16 end
|  3>
|  4> * xyz 0 1
|  5> C      0.000000    0.764255   -1.297167
|  6> C      0.000000   -0.764255   -1.297167
|  7> C     -0.468541    1.090526    0.123716
|  8> C      0.468541   -1.090526    0.123716
|  9> C      0.032579    2.405081    0.690505
| 10> C     -0.032579   -2.405081    0.690505
| 11> O      0.000000    0.000000    0.938605
| 12> H      1.011237    1.147828   -1.454012
| 13> H     -0.646734    1.200592   -2.057687
| 14> H     -1.011237   -1.147828   -1.454012
| 15> H      0.646734   -1.200592   -2.057687
| 16> H     -1.565793    1.083362    0.154246
| 17> H      1.565793   -1.083362    0.154246
| 18> H     -0.297960    2.529471    1.721560
| 19> H      1.122913    2.439253    0.673182
| 20> H     -0.351842    3.243340    0.105964
| 21> H     -1.122913   -2.439253    0.673182
| 22> H      0.351842   -3.243340    0.105964
| 23> H      0.297960   -2.529471    1.721560
| 24> *
| 25>
| 26>                          ****END OF INPUT****

CARTESIAN COORDINATES (ANGSTROEM)
---------------------------------
  C      0.000000    0.764255   -1.297167
  C      0.000000   -0.764255   -1.297167
  C     -0.468541    1.090526    0.123716
  C      0.468541   -1.090526    0.123716
  C      0.032579    2.405081    0.690505
  C     -0.032579   -2.405081    0.690505
  O      0.000000    0.000000    0.938605
  H      1.011237    1.147828   -1.454012
  H     -0.646734    1.200592   -2.057687
  H     -1.011237   -1.147828   -1.454012
  H      0.646734   -1.200592   -2.057687
  H     -1.565793    1.083362    0.154246
  H      1.565793   -1.083362    0.154246
  H     -0.297960    2.529471    1.721560
  H      1.122913    2.439253    0.673182
  H     -0.351842    3.243340    0.105964
  H     -1.122913   -2.439253    0.673182
  H      0.351842   -3.243340    0.105964
  H      0.297960   -2.529471    1.721560

 Total Charge           Charge          ....    0
 Multiplicity           Mult            ....    1
 Number of Electrons    NEL             ....   56
 Basis Dimension        Dim             .... 1112

ORBITAL ENERGIES
----------------

  NO   OCC          E(Eh)            E(eV)
   0   2.0000     -20.535381      -558.7961
   1   2.0000     -11.271282      -306.7072
   2   2.0000     -11.271261      -306.7066
   3   2.0000     -11.220649      -305.3294
   4   2.0000     -11.220030      -305.3125
   5   2.0000     -11.208222      -304.9912
   6   2.0000     -11.208221      -304.9912
   7   2.0000      -1.359123       -36.9836
   8   2.0000      -1.061332       -28.8803
   9   2.0000      -1.048267       -28.5248
  10   2.0000      -0.964863       -26.2553
  11   2.0000      -0.875865       -23.8335
  12   2.0000      -0.800402       -21.7800
  13   2.0000      -0.765361       -20.8265
  14   2.0000      -0.681364       -18.5409
  15   2.0000      -0.656964       -17.8769
  16   2.0000      -0.592426       -16.1207
  17   2.0000      -0.588618       -16.0171
  18   2.0000      -0.580026       -15.7833
  19   2.0000      -0.554175       -15.0799
  20   2.0000      -0.541643       -14.7389
  21   2.0000      -0.519145       -14.1267
  22   2.0000      -0.505568       -13.7572
  23   2.0000      -0.491510       -13.3747
  24   2.0000      -0.470888       -12.8135
  25   2.0000      -0.468115       -12.7381
  26   2.0000      -0.450945       -12.2708
  27   2.0000      -0.400012       -10.8849
  28   0.0000       0.026061         0.7091
  29   0.0000       0.030225         0.8225
  30   0.0000       0.032232         0.8771
  31   0.0000       0.033898         0.9224
  32   0.0000       0.045828         1.2470

MULLIKEN ATOMIC CHARGES
-----------------------
   0 C :   -0.602200
   1 C :   -0.602224
   2 C :    0.375964
   3 C :    0.375986
   4 C :   -0.898115
   5 C :   -0.898115
   6 O :   -0.890895
   7 H :    0.201858
   8 H :    0.375441
   9 H :    0.201858
  10 H :    0.375447
  11 H :    0.257315
  12 H :    0.257319
  13 H :    0.259278
  14 H :    0.243278
  15 H :    0.232628
  16 H :    0.243277
  17 H :    0.232624
  18 H :    0.259276
Sum of atomic charges:    0.0000000

LOEWDIN ATOMIC CHARGES
----------------------
   0 C :    0.516011
   1 C :    0.516011
   2 C :   -0.227179
   3 C :   -0.227179
   4 C :    0.918945
   5 C :    0.918945
   6 O :    0.914888
   7 H :   -0.271629
   8 H :   -0.252242
   9 H :   -0.271629
  10 H :   -0.252242
  11 H :   -0.286856
  12 H :   -0.286856
  13 H :   -0.284454
  14 H :   -0.288653
  15 H :   -0.281386
  16 H :   -0.288653
  17 H :   -0.281386
  18 H :   -0.284454

  Mayer bond orders larger than 0.100000
B(  0-C ,  1-C ) :   1.0681 B(  0-C ,  2-C ) :   0.9334 B(  0-C ,  7-H ) :   0.9434
B(  0-C ,  8-H ) :   0.8093 B(  1-C ,  3-C ) :   0.9334 B(  1-C ,  9-H ) :   0.9434
B(  1-C , 10-H ) :   0.8093 B(  2-C ,  4-C ) :   0.6917 B(  2-C ,  6-O ) :   0.6102
B(  2-C , 11-H ) :   0.9313 B(  2-C , 13-H ) :  -0.1048 B(  3-C ,  5-C ) :   0.6917
B(  3-C ,  6-O ) :   0.6102 B(  3-C , 12-H ) :   0.9313 B(  3-C , 18-H ) :  -0.1048
B(  4-C , 13-H ) :   1.0150 B(  4-C , 14-H ) :   0.9244 B(  4-C , 15-H ) :   1.0466
B(  5-C , 16-H ) :   0.9244 B(  5-C , 17-H ) :   1.0466 B(  5-C , 18-H ) :   1.0150

MP2 TOTAL ENERGY:     -310.550754520 Eh
FINAL SINGLE POINT ENERGY      -310.550754520303

DIPOLE MOMENT
-------------
                                X             Y             Z
Electronic contribution:     -0.00000       0.00000       1.10735
Nuclear contribution   :      0.00000       0.00000      -1.78368
                        -----------------------------------------
Total Dipole Moment    :     -0.00000       0.00000      -0.67633
                        -----------------------------------------
Magnitude (a.u.)       :      0.67633
Magnitude (Debye)      :      1.71909

Rotational constants in cm-1:     0.165924     0.066976     0.052316
Rotational constants in MHz :  4974.284275  2007.879139  1568.380201

                             ****ORCA TERMINATED NORMALLY****
TOTAL RUN TIME: 0 days 1 hours 4 minutes 10 seconds 13 msec
