                         Program Version 5.0.4 -  RELEASE  -
|  1> !ri-mp2 aug-cc-pvqz aug-cc-pvqz/c tightscf
|  2> %pal nprocs 16 end
|  3>
|  4> * xyz 0 1
|  5> O      1.710629   -2.268770    0.000000
|  6> C      0.839149   -1.437452    0.000000
|  7> N      1.061346   -0.070202    0.000000
|  8> C      0.000000    0.800619    0.000000
|  9> S      0.108303    2.432861    0.000000
| 10> C     -0.653681   -1.727173    0.000000
| 11> S     -1.508948   -0.111223    0.000000
| 12> H      2.004537    0.291896    0.000000
| 13> H     -0.910734   -2.306252    0.884785
| 14> H     -0.910734   -2.306252   -0.884785
| 15> *
| 16>
| 17>                          ****END OF INPUT****

CARTESIAN COORDINATES (ANGSTROEM)
---------------------------------
  O      1.710629   -2.268770    0.000000
  C      0.839149   -1.437452    0.000000
  N      1.061346   -0.070202    0.000000
  C      0.000000    0.800619    0.000000
  S      0.108303    2.432861    0.000000
  C     -0.653681   -1.727173    0.000000
  S     -1.508948   -0.111223    0.000000
  H      2.004537    0.291896    0.000000
  H     -0.910734   -2.306252    0.884785
  H     -0.910734   -2.306252   -0.884785

 Total Charge           Charge          ....    0
 Multiplicity           Mult            ....    1
 Number of Electrons    NEL             ....   68
 Basis Dimension        Dim             ....  706

ORBITAL ENERGIES
----------------

  NO   OCC          E(Eh)            E(eV)
   0   2.0000     -92.012318     -2503.7825
   1   2.0000     -91.935861     -2501.7020
   2   2.0000     -20.573524      -559.8340
   3   2.0000     -15.653127      -425.9432
   4   2.0000     -11.406227      -310.3792
   5   2.0000     -11.404338      -310.3278
   6   2.0000     -11.311540      -307.8026
   7   2.0000      -9.014116      -245.2866
   8   2.0000      -8.939778      -243.2637
   9   2.0000      -6.695273      -182.1876
  10   2.0000      -6.694395      -182.1637
  11   2.0000      -6.693489      -182.1391
  12   2.0000      -6.621275      -180.1741
  13   2.0000      -6.619837      -180.1349
  14   2.0000      -6.618929      -180.1102
  15   2.0000      -1.440680       -39.2029
  16   2.0000      -1.325290       -36.0630
  17   2.0000      -1.111753       -30.2523
  18   2.0000      -1.069090       -29.0914
  19   2.0000      -0.938610       -25.5409
  20   2.0000      -0.859366       -23.3845
  21   2.0000      -0.834741       -22.7145
  22   2.0000      -0.704578       -19.1725
  23   2.0000      -0.688285       -18.7292
  24   2.0000      -0.650361       -17.6972
  25   2.0000      -0.633903       -17.2494
  26   2.0000      -0.597903       -16.2698
  27   2.0000      -0.547745       -14.9049
  28   2.0000      -0.536299       -14.5934
  29   2.0000      -0.529699       -14.4138
  30   2.0000      -0.466251       -12.6873
  31   2.0000      -0.418965       -11.4006
  32   2.0000      -0.359436        -9.7807
  33   2.0000      -0.357428        -9.7261
  34   0.0000       0.020595         0.5604
  35   0.0000       0.033991         0.9249
  36   0.0000       0.034838         0.9480
  37   0.0000       0.047682         1.2975
  38   0.0000       0.048941         1.3318

MULLIKEN ATOMIC CHARGES
-----------------------
   0 O :   -0.779095
   1 C :    1.003760
   2 N :   -0.339137
   3 C :   -0.213948
   4 S :   -0.068033
   5 C :   -0.556410
   6 S :    0.218897
   7 H :    0.136181
   8 H :    0.298893
   9 H :    0.298893
Sum of atomic charges:    0.0000000

LOEWDIN ATOMIC CHARGES
----------------------
   0 O :    0.706367
   1 C :   -0.917091
   2 N :    0.601496
   3 C :   -1.487922
   4 S :    0.965126
   5 C :    0.140096
   6 S :    1.243510
   7 H :   -0.528975
   8 H :   -0.361304
   9 H :   -0.361304

  Mayer bond orders larger than 0.100000
B(  0-O ,  1-C ) :   1.2199 B(  0-O ,  2-N ) :   0.1667 B(  0-O ,  5-C ) :   0.1198
B(  1-C ,  2-N ) :   0.9928 B(  1-C ,  5-C ) :   1.0988 B(  2-N ,  3-C ) :   0.8764
B(  2-N ,  7-H ) :   1.0928 B(  3-C ,  4-S ) :   1.5513 B(  3-C ,  6-S ) :   1.0515
B(  5-C ,  6-S ) :   0.9337 B(  5-C ,  8-H ) :   0.8642 B(  5-C ,  9-H ) :   0.8642

MP2 TOTAL ENERGY:    -1041.232511394 Eh
FINAL SINGLE POINT ENERGY     -1041.232511394212

DIPOLE MOMENT
-------------
                                X             Y             Z
Electronic contribution:     -0.75114       3.42963      -0.00000
Nuclear contribution   :      0.24882      -4.24641       0.00000
                        -----------------------------------------
Total Dipole Moment    :     -0.50232      -0.81678      -0.00000
                        -----------------------------------------
Magnitude (a.u.)       :      0.95888
Magnitude (Debye)      :      2.43729

Rotational constants in cm-1:     0.114781     0.046420     0.033259
Rotational constants in MHz :  3441.062082  1391.632557   997.065858

                             ****ORCA TERMINATED NORMALLY****
TOTAL RUN TIME: 0 days 0 hours 15 minutes 24 seconds 188 msec
