                         Program Version 5.0.4 -  RELEASE  -
|  1> !ri-mp2 aug-cc-pvqz aug-cc-pvqz/c tightscf
|  2> %pal nprocs 16 end
|  3>
|  4> * xyz 0 1
|  5> C      0.836982   -0.734002    1.259163
|  6> C      0.836982   -0.734002   -1.259163
|  7> C      0.836982    1.444049    0.000000
|  8> C      0.356343   -0.010366    0.000000
|  9> S     -1.509289    0.094963    0.000000
| 10> H      0.477461   -1.763198    1.286405
| 11> H      1.929912   -0.761420    1.279568
| 12> H      0.489091   -0.229768    2.159568
| 13> H      0.489091   -0.229768   -2.159568
| 14> H      0.477461   -1.763198   -1.286405
| 15> H      1.929912   -0.761420   -1.279568
| 16> H      0.487296    1.977794    0.883980
| 17> H      1.928534    1.468659    0.000000
| 18> H      0.487296    1.977794   -0.883980
| 19> H     -1.751158   -1.228962    0.000000
| 20> *
| 21>
| 22>                          ****END OF INPUT****

CARTESIAN COORDINATES (ANGSTROEM)
---------------------------------
  C      0.836982   -0.734002    1.259163
  C      0.836982   -0.734002   -1.259163
  C      0.836982    1.444049    0.000000
  C      0.356343   -0.010366    0.000000
  S     -1.509289    0.094963    0.000000
  H      0.477461   -1.763198    1.286405
  H      1.929912   -0.761420    1.279568
  H      0.489091   -0.229768    2.159568
  H      0.489091   -0.229768   -2.159568
  H      0.477461   -1.763198   -1.286405
  H      1.929912   -0.761420   -1.279568
  H      0.487296    1.977794    0.883980
  H      1.928534    1.468659    0.000000
  H      0.487296    1.977794   -0.883980
  H     -1.751158   -1.228962    0.000000

 Total Charge           Charge          ....    0
 Multiplicity           Mult            ....    1
 Number of Electrons    NEL             ....   50
 Basis Dimension        Dim             ....  864

ORBITAL ENERGIES
----------------

  NO   OCC          E(Eh)            E(eV)
   0   2.0000     -91.940773     -2501.8356
   1   2.0000     -11.275927      -306.8336
   2   2.0000     -11.222419      -305.3775
   3   2.0000     -11.220909      -305.3365
   4   2.0000     -11.220893      -305.3360
   5   2.0000      -8.943392      -243.3621
   6   2.0000      -6.624929      -180.2735
   7   2.0000      -6.623929      -180.2463
   8   2.0000      -6.623105      -180.2239
   9   2.0000      -1.114708       -30.3327
  10   2.0000      -0.944703       -25.7067
  11   2.0000      -0.943194       -25.6656
  12   2.0000      -0.937456       -25.5095
  13   2.0000      -0.742441       -20.2028
  14   2.0000      -0.627849       -17.0846
  15   2.0000      -0.611330       -16.6351
  16   2.0000      -0.610661       -16.6169
  17   2.0000      -0.558057       -15.1855
  18   2.0000      -0.551102       -14.9963
  19   2.0000      -0.524262       -14.2659
  20   2.0000      -0.507239       -13.8027
  21   2.0000      -0.485017       -13.1980
  22   2.0000      -0.476368       -12.9626
  23   2.0000      -0.425375       -11.5750
  24   2.0000      -0.352559        -9.5936
  25   0.0000       0.025271         0.6877
  26   0.0000       0.032272         0.8782
  27   0.0000       0.034354         0.9348
  28   0.0000       0.037598         1.0231
  29   0.0000       0.052755         1.4355

MULLIKEN ATOMIC CHARGES
-----------------------
   0 C :   -1.025533
   1 C :   -1.025533
   2 C :   -1.037320
   3 C :    0.906797
   4 S :   -0.212283
   5 H :    0.276626
   6 H :    0.220281
   7 H :    0.296542
   8 H :    0.296542
   9 H :    0.276626
  10 H :    0.220281
  11 H :    0.279803
  12 H :    0.286596
  13 H :    0.279803
  14 H :   -0.039228
Sum of atomic charges:   -0.0000000

LOEWDIN ATOMIC CHARGES
----------------------
   0 C :    0.818204
   1 C :    0.818204
   2 C :    0.796725
   3 C :   -0.684969
   4 S :    1.618083
   5 H :   -0.296378
   6 H :   -0.277579
   7 H :   -0.296324
   8 H :   -0.296324
   9 H :   -0.296378
  10 H :   -0.277579
  11 H :   -0.294399
  12 H :   -0.278329
  13 H :   -0.294399
  14 H :   -0.758559

  Mayer bond orders larger than 0.100000
B(  0-C ,  3-C ) :   0.6675 B(  0-C ,  5-H ) :   0.9888 B(  0-C ,  6-H ) :   0.9669
B(  0-C ,  7-H ) :   0.9695 B(  1-C ,  3-C ) :   0.6675 B(  1-C ,  8-H ) :   0.9695
B(  1-C ,  9-H ) :   0.9888 B(  1-C , 10-H ) :   0.9669 B(  2-C ,  3-C ) :   0.5778
B(  2-C , 11-H ) :   0.9921 B(  2-C , 12-H ) :   0.9408 B(  2-C , 13-H ) :   0.9921
B(  3-C ,  4-S ) :   0.6650 B(  3-C , 14-H ) :  -0.1253 B(  4-S , 14-H ) :   1.1037

MP2 TOTAL ENERGY:     -555.876775644 Eh
FINAL SINGLE POINT ENERGY      -555.876775644322

DIPOLE MOMENT
-------------
                                X             Y             Z
Electronic contribution:     -6.60193       1.07458       0.00000
Nuclear contribution   :      7.27983      -1.37071       0.00000
                        -----------------------------------------
Total Dipole Moment    :      0.67790      -0.29613       0.00000
                        -----------------------------------------
Magnitude (a.u.)       :      0.73975
Magnitude (Debye)      :      1.88030

Rotational constants in cm-1:     0.149235     0.098664     0.097772
Rotational constants in MHz :  4473.966195  2957.858357  2931.131184

                             ****ORCA TERMINATED NORMALLY****
TOTAL RUN TIME: 0 days 0 hours 28 minutes 30 seconds 557 msec
