                         Program Version 5.0.4 -  RELEASE  -
|  1> !ri-mp2 aug-cc-pvqz aug-cc-pvqz/c tightscf
|  2> %pal nprocs 16 end
|  3>
|  4> * xyz 0 1
|  5> C      2.063464   -1.503763        0.000000
|  6> C      2.365819   -0.135580        0.000000
|  7> C      0.760060   -1.938693        0.000000
|  8> C      1.333452    0.772214        0.000000
|  9> C     -0.327896   -1.035393        0.000000
| 10> C      0.000000    0.344759        0.000000
| 11> N     -1.591077   -1.520223        0.000000
| 12> N     -1.021402    1.372732        0.000000
| 13> O     -0.674531    2.546284        0.000000
| 14> O     -2.211698    1.027891        0.000000
| 15> H      2.862699   -2.232880        0.000000
| 16> H      3.391203    0.202815        0.000000
| 17> H      0.541477   -2.998734        0.000000
| 18> H      1.518872    1.834417        0.000000
| 19> H     -1.742811   -2.511061        0.000000
| 20> H     -2.363649   -0.876785        0.000000
| 21> *
| 22>
| 23>                          ****END OF INPUT****

CARTESIAN COORDINATES (ANGSTROEM)
---------------------------------
  C      2.063464   -1.503763    0.000000
  C      2.365819   -0.135580    0.000000
  C      0.760060   -1.938693    0.000000
  C      1.333452    0.772214    0.000000
  C     -0.327896   -1.035393    0.000000
  C      0.000000    0.344759    0.000000
  N     -1.591077   -1.520223    0.000000
  N     -1.021402    1.372732    0.000000
  O     -0.674531    2.546284    0.000000
  O     -2.211698    1.027891    0.000000
  H      2.862699   -2.232880    0.000000
  H      3.391203    0.202815    0.000000
  H      0.541477   -2.998734    0.000000
  H      1.518872    1.834417    0.000000
  H     -1.742811   -2.511061    0.000000
  H     -2.363649   -0.876785    0.000000

 Total Charge           Charge          ....    0
 Multiplicity           Mult            ....    1
 Number of Electrons    NEL             ....   72
 Basis Dimension        Dim             .... 1076

ORBITAL ENERGIES
----------------

  NO   OCC          E(Eh)            E(eV)
   0   2.0000     -20.593956      -560.3900
   1   2.0000     -20.591188      -560.3147
   2   2.0000     -15.849624      -431.2902
   3   2.0000     -15.586587      -424.1326
   4   2.0000     -11.331060      -308.3338
   5   2.0000     -11.294377      -307.3356
   6   2.0000     -11.269841      -306.6680
   7   2.0000     -11.267794      -306.6123
   8   2.0000     -11.248626      -306.0907
   9   2.0000     -11.240165      -305.8604
  10   2.0000      -1.596875       -43.4532
  11   2.0000      -1.388502       -37.7831
  12   2.0000      -1.263812       -34.3901
  13   2.0000      -1.168894       -31.8072
  14   2.0000      -1.092514       -29.7288
  15   2.0000      -1.025476       -27.9046
  16   2.0000      -0.951240       -25.8846
  17   2.0000      -0.859344       -23.3839
  18   2.0000      -0.841158       -22.8891
  19   2.0000      -0.770429       -20.9644
  20   2.0000      -0.728676       -19.8283
  21   2.0000      -0.726785       -19.7768
  22   2.0000      -0.719496       -19.5785
  23   2.0000      -0.715218       -19.4621
  24   2.0000      -0.660627       -17.9766
  25   2.0000      -0.625096       -17.0097
  26   2.0000      -0.623635       -16.9700
  27   2.0000      -0.563804       -15.3419
  28   2.0000      -0.561411       -15.2768
  29   2.0000      -0.529883       -14.4188
  30   2.0000      -0.492652       -13.4058
  31   2.0000      -0.486599       -13.2410
  32   2.0000      -0.476753       -12.9731
  33   2.0000      -0.451109       -12.2753
  34   2.0000      -0.377105       -10.2616
  35   2.0000      -0.316561        -8.6141
  36   0.0000       0.017623         0.4795
  37   0.0000       0.024616         0.6698
  38   0.0000       0.031562         0.8588
  39   0.0000       0.041392         1.1263
  40   0.0000       0.042917         1.1678

MULLIKEN ATOMIC CHARGES
-----------------------
   0 C :   -0.391170
   1 C :   -0.378576
   2 C :   -0.400416
   3 C :   -0.262614
   4 C :    0.812585
   5 C :    0.276563
   6 N :   -0.751992
   7 N :    0.689889
   8 O :   -0.624272
   9 O :   -0.643299
  10 H :    0.251821
  11 H :    0.241177
  12 H :    0.232743
  13 H :    0.375890
  14 H :    0.253245
  15 H :    0.318426
Sum of atomic charges:   -0.0000000

LOEWDIN ATOMIC CHARGES
----------------------
   0 C :    0.348942
   1 C :    0.357409
   2 C :    0.351835
   3 C :    0.297109
   4 C :   -0.232383
   5 C :   -0.272818
   6 N :    1.272766
   7 N :   -0.779891
   8 O :    0.553917
   9 O :    0.608325
  10 H :   -0.310257
  11 H :   -0.329831
  12 H :   -0.327405
  13 H :   -0.368998
  14 H :   -0.477580
  15 H :   -0.691139

  Mayer bond orders larger than 0.100000
B(  0-C ,  1-C ) :   1.1565 B(  0-C ,  2-C ) :   1.3202 B(  0-C ,  4-C ) :  -0.2547
B(  0-C , 10-H ) :   1.1319 B(  1-C ,  3-C ) :   1.3738 B(  1-C ,  5-C ) :  -0.2915
B(  1-C , 11-H ) :   1.1187 B(  2-C ,  3-C ) :   0.1139 B(  2-C ,  4-C ) :   0.9651
B(  2-C ,  5-C ) :  -0.1752 B(  2-C , 10-H ) :  -0.1637 B(  2-C , 12-H ) :   1.0335
B(  3-C ,  4-C ) :  -0.1356 B(  3-C ,  5-C ) :   0.9255 B(  3-C ,  8-O ) :  -0.1066
B(  3-C , 11-H ) :  -0.1228 B(  3-C , 13-H ) :   0.8552 B(  4-C ,  5-C ) :   1.2444
B(  4-C ,  6-N ) :   0.6747 B(  4-C ,  7-N ) :   0.1189 B(  4-C , 12-H ) :  -0.1238
B(  5-C ,  7-N ) :   0.6588 B(  5-C ,  8-O ) :   0.2768 B(  5-C ,  9-O ) :   0.1179
B(  5-C , 13-H ) :  -0.1051 B(  6-N , 14-H ) :   0.9876 B(  6-N , 15-H ) :   0.9183
B(  7-N ,  8-O ) :   1.2032 B(  7-N ,  9-O ) :   1.1210

MP2 TOTAL ENERGY:     -491.391020687 Eh
FINAL SINGLE POINT ENERGY      -491.391020686853

DIPOLE MOMENT
-------------
                                X             Y             Z
Electronic contribution:     -3.20616       4.56679      -0.00000
Nuclear contribution   :      4.05975      -6.38949       0.00000
                        -----------------------------------------
Total Dipole Moment    :      0.85359      -1.82270      -0.00000
                        -----------------------------------------
Magnitude (a.u.)       :      2.01267
Magnitude (Debye)      :      5.11581

Rotational constants in cm-1:     0.078077     0.042522     0.027529
Rotational constants in MHz :  2340.678108  1274.791330   825.308085

                             ****ORCA TERMINATED NORMALLY****
TOTAL RUN TIME: 0 days 1 hours 5 minutes 46 seconds 206 msec
