                         Program Version 5.0.4 -  RELEASE  -
|  1> !ri-mp2 aug-cc-pvqz aug-cc-pvqz/c tightscf
|  2> %pal nprocs 16 end
|  3>
|  4> * xyz 0 1
|  5> C     -0.367218    2.951058    0.128332
|  6> C      0.367218   -2.951058    0.128332
|  7> C     -0.964817    1.668994    0.237015
|  8> C      0.964817   -1.668994    0.237015
|  9> C      0.964817    2.761561   -0.145704
| 10> C     -0.964817   -2.761561   -0.145704
| 11> C      0.021536    0.722146    0.022813
| 12> C     -0.021536   -0.722146    0.022813
| 13> N      1.189772    1.410224   -0.205634
| 14> N     -1.189772   -1.410224   -0.205634
| 15> H     -0.856131    3.902314    0.249268
| 16> H      0.856131   -3.902314    0.249268
| 17> H     -1.992085    1.462515    0.486567
| 18> H      1.992085   -1.462515    0.486567
| 19> H      1.761222    3.466788   -0.303118
| 20> H     -1.761222   -3.466788   -0.303118
| 21> H      2.062056    0.976796   -0.448014
| 22> H     -2.062056   -0.976796   -0.448014
| 23> *
| 24>
| 25>                          ****END OF INPUT****

CARTESIAN COORDINATES (ANGSTROEM)
---------------------------------
  C     -0.367218    2.951058    0.128332
  C      0.367218   -2.951058    0.128332
  C     -0.964817    1.668994    0.237015
  C      0.964817   -1.668994    0.237015
  C      0.964817    2.761561   -0.145704
  C     -0.964817   -2.761561   -0.145704
  C      0.021536    0.722146    0.022813
  C     -0.021536   -0.722146    0.022813
  N      1.189772    1.410224   -0.205634
  N     -1.189772   -1.410224   -0.205634
  H     -0.856131    3.902314    0.249268
  H      0.856131   -3.902314    0.249268
  H     -1.992085    1.462515    0.486567
  H      1.992085   -1.462515    0.486567
  H      1.761222    3.466788   -0.303118
  H     -1.761222   -3.466788   -0.303118
  H      2.062056    0.976796   -0.448014
  H     -2.062056   -0.976796   -0.448014

 Total Charge           Charge          ....    0
 Multiplicity           Mult            ....    1
 Number of Electrons    NEL             ....   70
 Basis Dimension        Dim             .... 1168

ORBITAL ENERGIES
----------------

  NO   OCC          E(Eh)            E(eV)
   0   2.0000     -15.604952      -424.6323
   1   2.0000     -15.604951      -424.6323
   2   2.0000     -11.266951      -306.5893
   3   2.0000     -11.266073      -306.5654
   4   2.0000     -11.254691      -306.2557
   5   2.0000     -11.254691      -306.2557
   6   2.0000     -11.213807      -305.1432
   7   2.0000     -11.213806      -305.1432
   8   2.0000     -11.212010      -305.0943
   9   2.0000     -11.212010      -305.0943
  10   2.0000      -1.305170       -35.5155
  11   2.0000      -1.287977       -35.0476
  12   2.0000      -1.052640       -28.6438
  13   2.0000      -1.043593       -28.3976
  14   2.0000      -1.032199       -28.0876
  15   2.0000      -0.946724       -25.7617
  16   2.0000      -0.813844       -22.1458
  17   2.0000      -0.796627       -21.6773
  18   2.0000      -0.780375       -21.2351
  19   2.0000      -0.775641       -21.1063
  20   2.0000      -0.753565       -20.5056
  21   2.0000      -0.662955       -18.0399
  22   2.0000      -0.606577       -16.5058
  23   2.0000      -0.596419       -16.2294
  24   2.0000      -0.589981       -16.0542
  25   2.0000      -0.575374       -15.6567
  26   2.0000      -0.570633       -15.5277
  27   2.0000      -0.557192       -15.1620
  28   2.0000      -0.549495       -14.9525
  29   2.0000      -0.542345       -14.7580
  30   2.0000      -0.520351       -14.1595
  31   2.0000      -0.355523        -9.6743
  32   2.0000      -0.354953        -9.6587
  33   2.0000      -0.347188        -9.4475
  34   2.0000      -0.257493        -7.0067
  35   0.0000       0.023318         0.6345
  36   0.0000       0.025088         0.6827
  37   0.0000       0.029095         0.7917
  38   0.0000       0.036370         0.9897
  39   0.0000       0.038660         1.0520

MULLIKEN ATOMIC CHARGES
-----------------------
   0 C :   -0.276281
   1 C :   -0.276197
   2 C :   -0.412919
   3 C :   -0.412977
   4 C :   -0.574628
   5 C :   -0.574698
   6 C :    0.502440
   7 C :    0.502308
   8 N :   -0.484372
   9 N :   -0.484343
  10 H :    0.331950
  11 H :    0.332021
  12 H :    0.285319
  13 H :    0.285311
  14 H :    0.423559
  15 H :    0.423565
  16 H :    0.204967
  17 H :    0.204974
Sum of atomic charges:   -0.0000000

LOEWDIN ATOMIC CHARGES
----------------------
   0 C :    0.315338
   1 C :    0.315338
   2 C :    0.316748
   3 C :    0.316748
   4 C :    0.218292
   5 C :    0.218292
   6 C :   -0.242786
   7 C :   -0.242786
   8 N :    0.805030
   9 N :    0.805030
  10 H :   -0.331443
  11 H :   -0.331443
  12 H :   -0.321324
  13 H :   -0.321324
  14 H :   -0.307832
  15 H :   -0.307832
  16 H :   -0.452023
  17 H :   -0.452023

  Mayer bond orders larger than 0.100000
B(  0-C ,  2-C ) :   1.2062 B(  0-C ,  4-C ) :   1.5274 B(  0-C ,  6-C ) :  -0.3360
B(  0-C , 10-H ) :   0.9936 B(  1-C ,  3-C ) :   1.2062 B(  1-C ,  5-C ) :   1.5274
B(  1-C ,  7-C ) :  -0.3360 B(  1-C , 11-H ) :   0.9935 B(  2-C ,  6-C ) :   1.1787
B(  2-C ,  7-C ) :  -0.3550 B(  2-C , 12-H ) :   1.0047 B(  3-C ,  6-C ) :  -0.3550
B(  3-C ,  7-C ) :   1.1787 B(  3-C , 13-H ) :   1.0047 B(  4-C ,  6-C ) :  -0.1292
B(  4-C ,  8-N ) :   1.1224 B(  4-C , 14-H ) :   0.9031 B(  5-C ,  7-C ) :  -0.1293
B(  5-C ,  9-N ) :   1.1224 B(  5-C , 15-H ) :   0.9031 B(  6-C ,  7-C ) :   1.0884
B(  6-C ,  8-N ) :   0.6345 B(  7-C ,  9-N ) :   0.6347 B(  8-N , 16-H ) :   1.0804
B(  9-N , 17-H ) :   1.0804

MP2 TOTAL ENERGY:     -418.444920182 Eh
FINAL SINGLE POINT ENERGY      -418.444920182460

DIPOLE MOMENT
-------------
                                X             Y             Z
Electronic contribution:     -0.00000       0.00000      -0.23744
Nuclear contribution   :      0.00000       0.00000      -0.03283
                        -----------------------------------------
Total Dipole Moment    :     -0.00000       0.00000      -0.27027
                        -----------------------------------------
Magnitude (a.u.)       :      0.27027
Magnitude (Debye)      :      0.68698

Rotational constants in cm-1:     0.151459     0.028160     0.024060
Rotational constants in MHz :  4540.630046   844.216713   721.301274

                             ****ORCA TERMINATED NORMALLY****
TOTAL RUN TIME: 0 days 1 hours 5 minutes 35 seconds 309 msec
