                         Program Version 5.0.4 -  RELEASE  -
|  1> !ri-mp2 aug-cc-pvqz aug-cc-pvqz/c tightscf
|  2> %pal nprocs 16 end
|  3>
|  4> * xyz 0 1
|  5> S     2.547758   -0.919099   -0.053026
|  6> S    -2.705184   -0.795536    0.103404
|  7> N     1.128924   -0.011693   -0.377571
|  8> N    -0.064029   -0.748349   -0.053981
|  9> N     1.139175    1.250598    0.371535
| 10> C    -1.124329   -0.028818   -0.115379
| 11> C    -1.120311    1.420199   -0.258114
| 12> C     0.038662    2.018372    0.067171
| 13> H     2.381553   -1.155465    1.277531
| 14> H    -2.221852   -2.049836    0.167875
| 15> H     2.042552    1.684451    0.251989
| 16> H    -2.024383    1.975775   -0.440590
| 17> H     0.148326    3.086836    0.195205
| 18> *
| 19>
| 20>                          ****END OF INPUT****

CARTESIAN COORDINATES (ANGSTROEM)
---------------------------------
  S      2.547758   -0.919099   -0.053026
  S     -2.705184   -0.795536    0.103404
  N      1.128924   -0.011693   -0.377571
  N     -0.064029   -0.748349   -0.053981
  N      1.139175    1.250598    0.371535
  C     -1.124329   -0.028818   -0.115379
  C     -1.120311    1.420199   -0.258114
  C      0.038662    2.018372    0.067171
  H      2.381553   -1.155465    1.277531
  H     -2.221852   -2.049836    0.167875
  H      2.042552    1.684451    0.251989
  H     -2.024383    1.975775   -0.440590
  H      0.148326    3.086836    0.195205

 Total Charge           Charge          ....    0
 Multiplicity           Mult            ....    1
 Number of Electrons    NEL             ....   76
 Basis Dimension        Dim             ....  878

ORBITAL ENERGIES
----------------

  NO   OCC          E(Eh)            E(eV)
   0   2.0000     -91.987098     -2503.0962
   1   2.0000     -91.975324     -2502.7758
   2   2.0000     -15.656709      -426.0407
   3   2.0000     -15.622844      -425.1192
   4   2.0000     -15.589734      -424.2182
   5   2.0000     -11.326191      -308.2013
   6   2.0000     -11.311654      -307.8058
   7   2.0000     -11.239850      -305.8519
   8   2.0000      -8.986381      -244.5319
   9   2.0000      -8.978100      -244.3065
  10   2.0000      -6.667906      -181.4429
  11   2.0000      -6.666518      -181.4052
  12   2.0000      -6.665736      -181.3839
  13   2.0000      -6.659687      -181.2193
  14   2.0000      -6.658677      -181.1918
  15   2.0000      -6.657830      -181.1688
  16   2.0000      -1.369697       -37.2713
  17   2.0000      -1.224408       -33.3178
  18   2.0000      -1.149987       -31.2927
  19   2.0000      -1.017426       -27.6856
  20   2.0000      -1.008001       -27.4291
  21   2.0000      -0.896366       -24.3914
  22   2.0000      -0.861445       -23.4411
  23   2.0000      -0.751883       -20.4598
  24   2.0000      -0.706660       -19.2292
  25   2.0000      -0.695947       -18.9377
  26   2.0000      -0.640225       -17.4214
  27   2.0000      -0.613575       -16.6962
  28   2.0000      -0.606934       -16.5155
  29   2.0000      -0.562947       -15.3186
  30   2.0000      -0.520336       -14.1591
  31   2.0000      -0.501159       -13.6372
  32   2.0000      -0.484694       -13.1892
  33   2.0000      -0.461906       -12.5691
  34   2.0000      -0.421844       -11.4790
  35   2.0000      -0.383085       -10.4243
  36   2.0000      -0.369505       -10.0547
  37   2.0000      -0.311761        -8.4835
  38   0.0000       0.020421         0.5557
  39   0.0000       0.032846         0.8938
  40   0.0000       0.033745         0.9183
  41   0.0000       0.045037         1.2255
  42   0.0000       0.048169         1.3107

MULLIKEN ATOMIC CHARGES
-----------------------
   0 S :    0.090769
   1 S :   -0.067395
   2 N :   -0.301621
   3 N :   -0.382142
   4 N :   -0.483650
   5 C :    0.283510
   6 C :   -0.399269
   7 C :   -0.101503
   8 H :    0.078609
   9 H :    0.089446
  10 H :    0.286726
  11 H :    0.393201
  12 H :    0.513319
Sum of atomic charges:   -0.0000000

LOEWDIN ATOMIC CHARGES
----------------------
   0 S :    1.376145
   1 S :    1.582390
   2 N :   -0.409353
   3 N :    0.213692
   4 N :    0.597473
   5 C :   -0.934816
   6 C :    0.208768
   7 C :    0.160841
   8 H :   -0.741351
   9 H :   -0.785322
  10 H :   -0.593023
  11 H :   -0.373633
  12 H :   -0.301811

  Mayer bond orders larger than 0.100000
B(  0-S ,  2-N ) :   0.9120 B(  0-S ,  8-H ) :   0.9653 B(  1-S ,  5-C ) :   0.8868
B(  1-S ,  6-C ) :  -0.1704 B(  1-S ,  9-H ) :   1.0714 B(  2-N ,  3-N ) :   0.6727
B(  2-N ,  4-N ) :   0.8597 B(  3-N ,  5-C ) :   1.4537 B(  4-N ,  7-C ) :   1.0484
B(  4-N , 10-H ) :   0.8880 B(  5-C ,  6-C ) :   0.8154 B(  5-C ,  7-C ) :  -0.1654
B(  6-C ,  7-C ) :   1.5674 B(  6-C , 11-H ) :   0.8824 B(  7-C , 12-H ) :   0.7646

MP2 TOTAL ENERGY:    -1076.497281904 Eh
FINAL SINGLE POINT ENERGY     -1076.497281904228

DIPOLE MOMENT
-------------
                                X             Y             Z
Electronic contribution:     -0.16842      -2.43997      -1.05015
Nuclear contribution   :      0.33352       3.48806       1.40597
                        -----------------------------------------
Total Dipole Moment    :      0.16510       1.04809       0.35581
                        -----------------------------------------
Magnitude (a.u.)       :      1.11909
Magnitude (Debye)      :      2.84449

Rotational constants in cm-1:     0.093903     0.031480     0.024070
Rotational constants in MHz :  2815.146379   943.749923   721.592652

                             ****ORCA TERMINATED NORMALLY****
TOTAL RUN TIME: 0 days 0 hours 29 minutes 26 seconds 305 msec
