                         Program Version 5.0.4 -  RELEASE  -
|  1> !ri-mp2 aug-cc-pvqz aug-cc-pvqz/c tightscf
|  2> %pal nprocs 16 end
|  3>
|  4> * xyz 0 1
|  5> C     -0.431809    1.690207   -0.000125
|  6> C      0.097948    0.460822   -0.000034
|  7> C      1.557665    0.319248   -0.000030
|  8> C      2.248973   -0.821807    0.000057
|  9> C     -0.736939   -0.798581    0.000064
| 10> H      0.202753    2.566781   -0.000196
| 11> H     -1.497262    1.864489   -0.000133
| 12> H      2.107527    1.255021   -0.000107
| 13> H      1.772778   -1.792680    0.000137
| 14> H      3.330020   -0.814825    0.000051
| 15> C     -2.250834   -0.611254    0.000050
| 16> H     -0.448920   -1.398382   -0.868916
| 17> H     -0.448919   -1.398250    0.869134
| 18> H     -2.589661   -0.066300    0.881969
| 19> H     -2.748682   -1.581216    0.000132
| 20> H     -2.589661   -0.066449   -0.881960
| 21> *
| 22>
| 23>                          ****END OF INPUT****

CARTESIAN COORDINATES (ANGSTROEM)
---------------------------------
  C     -0.431809    1.690207   -0.000125
  C      0.097948    0.460822   -0.000034
  C      1.557665    0.319248   -0.000030
  C      2.248973   -0.821807    0.000057
  C     -0.736939   -0.798581    0.000064
  H      0.202753    2.566781   -0.000196
  H     -1.497262    1.864489   -0.000133
  H      2.107527    1.255021   -0.000107
  H      1.772778   -1.792680    0.000137
  H      3.330020   -0.814825    0.000051
  C     -2.250834   -0.611254    0.000050
  H     -0.448920   -1.398382   -0.868916
  H     -0.448919   -1.398250    0.869134
  H     -2.589661   -0.066300    0.881969
  H     -2.748682   -1.581216    0.000132
  H     -2.589661   -0.066449   -0.881960

 Total Charge           Charge          ....    0
 Multiplicity           Mult            ....    1
 Number of Electrons    NEL             ....   46
 Basis Dimension        Dim             ....  940

ORBITAL ENERGIES
----------------

  NO   OCC          E(Eh)            E(eV)
   0   2.0000     -11.240816      -305.8781
   1   2.0000     -11.234016      -305.6931
   2   2.0000     -11.226481      -305.4881
   3   2.0000     -11.223211      -305.3991
   4   2.0000     -11.219093      -305.2870
   5   2.0000     -11.214211      -305.1542
   6   2.0000      -1.114335       -30.3226
   7   2.0000      -1.027083       -27.9484
   8   2.0000      -0.982957       -26.7476
   9   2.0000      -0.872005       -23.7285
  10   2.0000      -0.810244       -22.0479
  11   2.0000      -0.708873       -19.2894
  12   2.0000      -0.648036       -17.6339
  13   2.0000      -0.639423       -17.3996
  14   2.0000      -0.615376       -16.7452
  15   2.0000      -0.565103       -15.3772
  16   2.0000      -0.538883       -14.6638
  17   2.0000      -0.538325       -14.6486
  18   2.0000      -0.506040       -13.7701
  19   2.0000      -0.495171       -13.4743
  20   2.0000      -0.469582       -12.7780
  21   2.0000      -0.420907       -11.4535
  22   2.0000      -0.321597        -8.7511
  23   0.0000       0.026283         0.7152
  24   0.0000       0.028993         0.7889
  25   0.0000       0.030330         0.8253
  26   0.0000       0.039208         1.0669
  27   0.0000       0.044383         1.2077

MULLIKEN ATOMIC CHARGES
-----------------------
   0 C :   -0.758118
   1 C :    0.162662
   2 C :   -0.378329
   3 C :   -0.839604
   4 C :    0.039527
   5 H :    0.216961
   6 H :    0.304752
   7 H :    0.307005
   8 H :    0.310500
   9 H :    0.360835
  10 C :   -0.874849
  11 H :    0.246573
  12 H :    0.246575
  13 H :    0.204105
  14 H :    0.247298
  15 H :    0.204107
Sum of atomic charges:    0.0000000

LOEWDIN ATOMIC CHARGES
----------------------
   0 C :    0.799847
   1 C :   -0.071032
   2 C :    0.320926
   3 C :    0.801851
   4 C :    0.453627
   5 H :   -0.347097
   6 H :   -0.364913
   7 H :   -0.361026
   8 H :   -0.366698
   9 H :   -0.349513
  10 C :    0.910105
  11 H :   -0.288368
  12 H :   -0.288368
  13 H :   -0.285449
  14 H :   -0.278443
  15 H :   -0.285449

  Mayer bond orders larger than 0.100000
B(  0-C ,  1-C ) :   1.4593 B(  0-C ,  4-C ) :  -0.1040 B(  0-C ,  5-H ) :   1.1010
B(  0-C ,  6-H ) :   0.9560 B(  1-C ,  2-C ) :   0.7824 B(  1-C ,  3-C ) :  -0.1686
B(  1-C ,  4-C ) :   0.6681 B(  1-C ,  6-H ) :  -0.1634 B(  2-C ,  3-C ) :   1.6928
B(  2-C ,  4-C ) :  -0.1316 B(  2-C ,  7-H ) :   0.9341 B(  2-C ,  9-H ) :  -0.1405
B(  3-C ,  8-H ) :   0.9434 B(  3-C ,  9-H ) :   0.9501 B(  4-C , 10-C ) :   0.8489
B(  4-C , 11-H ) :   0.9171 B(  4-C , 12-H ) :   0.9171 B(  4-C , 14-H ) :  -0.1038
B( 10-C , 13-H ) :   0.9929 B( 10-C , 14-H ) :   1.0310 B( 10-C , 15-H ) :   0.9929

MP2 TOTAL ENERGY:     -234.160609548 Eh
FINAL SINGLE POINT ENERGY      -234.160609548472

DIPOLE MOMENT
-------------
                                X             Y             Z
Electronic contribution:      2.96153       1.39605      -0.00011
Nuclear contribution   :     -3.06042      -1.50581       0.00012
                        -----------------------------------------
Total Dipole Moment    :     -0.09889      -0.10976       0.00001
                        -----------------------------------------
Magnitude (a.u.)       :      0.14774
Magnitude (Debye)      :      0.37552

Rotational constants in cm-1:     0.201830     0.082121     0.059648
Rotational constants in MHz :  6050.724956  2461.928682  1788.192173

                             ****ORCA TERMINATED NORMALLY****
TOTAL RUN TIME: 0 days 0 hours 33 minutes 56 seconds 863 msec
