                         Program Version 5.0.4 -  RELEASE  -
|  1> !ri-mp2 aug-cc-pvqz aug-cc-pvqz/c tightscf
|  2> %pal nprocs 16 end
|  3>
|  4> * xyz 0 1
|  5> C      1.129531   -1.313585   -0.008560
|  6> C     -0.238510   -1.556011   -0.001692
|  7> C      0.696232    1.038980   -0.007975
|  8> C      1.615630   -0.006887   -0.009477
|  9> C     -1.168888   -0.520347    0.002959
| 10> C     -0.670298    0.788304   -0.000863
| 11> C      3.095047    0.276324    0.010869
| 12> C     -2.651007   -0.783942    0.006802
| 13> O     -1.498806    1.880695   -0.001109
| 14> H      1.821316   -2.145686   -0.015281
| 15> H     -0.597329   -2.578032   -0.002925
| 16> H      1.028405    2.069063   -0.014268
| 17> H      3.349610    1.113290   -0.640203
| 18> H      3.430665    0.535881    1.018029
| 19> H      3.668352   -0.591678   -0.312831
| 20> H     -3.141766   -0.362979    0.890092
| 21> H     -3.146115   -0.365455   -0.875291
| 22> H     -2.851563   -1.853728    0.008728
| 23> H     -2.417548    1.596761    0.000440
| 24> *
| 25>
| 26>                          ****END OF INPUT****

CARTESIAN COORDINATES (ANGSTROEM)
---------------------------------
  C      1.129531   -1.313585   -0.008560
  C     -0.238510   -1.556011   -0.001692
  C      0.696232    1.038980   -0.007975
  C      1.615630   -0.006887   -0.009477
  C     -1.168888   -0.520347    0.002959
  C     -0.670298    0.788304   -0.000863
  C      3.095047    0.276324    0.010869
  C     -2.651007   -0.783942    0.006802
  O     -1.498806    1.880695   -0.001109
  H      1.821316   -2.145686   -0.015281
  H     -0.597329   -2.578032   -0.002925
  H      1.028405    2.069063   -0.014268
  H      3.349610    1.113290   -0.640203
  H      3.430665    0.535881    1.018029
  H      3.668352   -0.591678   -0.312831
  H     -3.141766   -0.362979    0.890092
  H     -3.146115   -0.365455   -0.875291
  H     -2.851563   -1.853728    0.008728
  H     -2.417548    1.596761    0.000440

 Total Charge           Charge          ....    0
 Multiplicity           Mult            ....    1
 Number of Electrons    NEL             ....   66
 Basis Dimension        Dim             .... 1180

ORBITAL ENERGIES
----------------

  NO   OCC          E(Eh)            E(eV)
   0   2.0000     -20.583571      -560.1074
   1   2.0000     -11.294152      -307.3295
   2   2.0000     -11.239176      -305.8335
   3   2.0000     -11.234151      -305.6968
   4   2.0000     -11.233217      -305.6714
   5   2.0000     -11.231836      -305.6338
   6   2.0000     -11.219898      -305.3089
   7   2.0000     -11.216986      -305.2297
   8   2.0000     -11.216543      -305.2177
   9   2.0000      -1.399931       -38.0941
  10   2.0000      -1.151383       -31.3307
  11   2.0000      -1.064612       -28.9696
  12   2.0000      -1.002755       -27.2863
  13   2.0000      -0.980861       -26.6906
  14   2.0000      -0.900386       -24.5007
  15   2.0000      -0.825123       -22.4527
  16   2.0000      -0.807816       -21.9818
  17   2.0000      -0.707720       -19.2580
  18   2.0000      -0.671227       -18.2650
  19   2.0000      -0.648246       -17.6397
  20   2.0000      -0.606997       -16.5172
  21   2.0000      -0.605173       -16.4676
  22   2.0000      -0.572200       -15.5703
  23   2.0000      -0.568533       -15.4706
  24   2.0000      -0.561875       -15.2894
  25   2.0000      -0.560310       -15.2468
  26   2.0000      -0.553892       -15.0722
  27   2.0000      -0.526351       -14.3227
  28   2.0000      -0.499331       -13.5875
  29   2.0000      -0.481034       -13.0896
  30   2.0000      -0.465065       -12.6551
  31   2.0000      -0.326196        -8.8762
  32   2.0000      -0.306015        -8.3271
  33   0.0000       0.023518         0.6400
  34   0.0000       0.027301         0.7429
  35   0.0000       0.030771         0.8373
  36   0.0000       0.039528         1.0756
  37   0.0000       0.041344         1.1250

MULLIKEN ATOMIC CHARGES
-----------------------
   0 C :   -0.280857
   1 C :   -0.591085
   2 C :   -0.613422
   3 C :    0.208369
   4 C :    0.246941
   5 C :    1.184077
   6 C :   -0.830611
   7 C :   -0.716481
   8 O :   -0.909298
   9 H :    0.192640
  10 H :    0.109370
  11 H :    0.328102
  12 H :    0.212138
  13 H :    0.278946
  14 H :    0.225935
  15 H :    0.168980
  16 H :    0.174660
  17 H :    0.232026
  18 H :    0.379571
Sum of atomic charges:   -0.0000000

LOEWDIN ATOMIC CHARGES
----------------------
   0 C :    0.349286
   1 C :    0.343981
   2 C :    0.328867
   3 C :   -0.083554
   4 C :   -0.070540
   5 C :   -0.413901
   6 C :    0.907202
   7 C :    0.902479
   8 O :    1.294445
   9 H :   -0.327198
  10 H :   -0.320680
  11 H :   -0.323598
  12 H :   -0.293353
  13 H :   -0.278587
  14 H :   -0.305531
  15 H :   -0.275354
  16 H :   -0.275280
  17 H :   -0.304374
  18 H :   -0.854310

  Mayer bond orders larger than 0.100000
B(  0-C ,  1-C ) :   1.2691 B(  0-C ,  3-C ) :   1.0464 B(  0-C ,  4-C ) :  -0.2068
B(  0-C ,  5-C ) :   0.1108 B(  0-C ,  9-H ) :   1.1132 B(  0-C , 10-H ) :  -0.1886
B(  1-C ,  2-C ) :   0.1698 B(  1-C ,  3-C ) :  -0.1452 B(  1-C ,  4-C ) :   0.9018
B(  1-C ,  9-H ) :  -0.1664 B(  1-C , 10-H ) :   1.2009 B(  2-C ,  3-C ) :   1.0175
B(  2-C ,  4-C ) :  -0.1063 B(  2-C ,  5-C ) :   1.5277 B(  2-C ,  6-C ) :  -0.1330
B(  2-C ,  8-O ) :   0.3185 B(  2-C , 11-H ) :   0.8689 B(  3-C ,  5-C ) :  -0.3361
B(  3-C ,  6-C ) :   0.8005 B(  3-C , 12-H ) :  -0.1148 B(  4-C ,  5-C ) :   1.0827
B(  4-C ,  7-C ) :   0.5560 B(  4-C ,  8-O ) :   0.4393 B(  4-C , 10-H ) :  -0.1215
B(  4-C , 15-H ) :  -0.1228 B(  4-C , 16-H ) :  -0.1228 B(  4-C , 17-H ) :  -0.1494
B(  4-C , 18-H ) :   0.1328 B(  5-C ,  8-O ) :  -0.4338 B(  5-C , 18-H ) :  -0.1340
B(  6-C , 12-H ) :   1.0474 B(  6-C , 13-H ) :   0.9553 B(  6-C , 14-H ) :   1.0391
B(  7-C , 15-H ) :   1.0619 B(  7-C , 16-H ) :   1.0618 B(  7-C , 17-H ) :   1.0618
B(  8-O , 18-H ) :   0.8743

MP2 TOTAL ENERGY:     -385.445080491 Eh
FINAL SINGLE POINT ENERGY      -385.445080490996

DIPOLE MOMENT
-------------
                                X             Y             Z
Electronic contribution:     -1.47962       2.15593      -0.04472
Nuclear contribution   :      1.13678      -2.59024       0.05730
                        -----------------------------------------
Total Dipole Moment    :     -0.34284      -0.43430       0.01258
                        -----------------------------------------
Magnitude (a.u.)       :      0.55346
Magnitude (Debye)      :      1.40678

Rotational constants in cm-1:     0.102106     0.043308     0.030758
Rotational constants in MHz :  3061.061191  1298.354347   922.090230

                             ****ORCA TERMINATED NORMALLY****
TOTAL RUN TIME: 0 days 1 hours 32 minutes 59 seconds 929 msec
