                         Program Version 5.0.4 -  RELEASE  -
|  1> !ri-mp2 aug-cc-pvqz aug-cc-pvqz/c tightscf
|  2> %pal nprocs 16 end
|  3>
|  4> * xyz 0 1
|  5> F      1.606461   -0.410727    0.002376
|  6> N     -1.822683   -0.186473   -0.129924
|  7> C      0.603795    0.505949    0.008579
|  8> C     -0.650353    0.130122    0.010605
|  9> H     -2.343052   -0.348985    0.733356
| 10> H      0.923032    1.534412    0.039623
| 11> *
| 12>
| 13>                          ****END OF INPUT****

CARTESIAN COORDINATES (ANGSTROEM)
---------------------------------
  F      1.606461   -0.410727    0.002376
  N     -1.822683   -0.186473   -0.129924
  C      0.603795    0.505949    0.008579
  C     -0.650353    0.130122    0.010605
  H     -2.343052   -0.348985    0.733356
  H      0.923032    1.534412    0.039623

 Total Charge           Charge          ....    0
 Multiplicity           Mult            ....    1
 Number of Electrons    NEL             ....   30
 Basis Dimension        Dim             ....  412

ORBITAL ENERGIES
----------------

  NO   OCC          E(Eh)            E(eV)
   0   2.0000     -26.312035      -715.9869
   1   2.0000     -15.607159      -424.6924
   2   2.0000     -11.330252      -308.3118
   3   2.0000     -11.327101      -308.2261
   4   2.0000      -1.623315       -44.1726
   5   2.0000      -1.264156       -34.3994
   6   2.0000      -1.034977       -28.1631
   7   2.0000      -0.804021       -21.8785
   8   2.0000      -0.749829       -20.4039
   9   2.0000      -0.726837       -19.7782
  10   2.0000      -0.696270       -18.9465
  11   2.0000      -0.608345       -16.5539
  12   2.0000      -0.571159       -15.5420
  13   2.0000      -0.498488       -13.5645
  14   2.0000      -0.364469        -9.9177
  15   0.0000       0.022092         0.6012
  16   0.0000       0.033473         0.9109
  17   0.0000       0.060491         1.6460
  18   0.0000       0.066060         1.7976
  19   0.0000       0.079856         2.1730

MULLIKEN ATOMIC CHARGES
-----------------------
   0 F :   -0.589753
   1 N :   -0.640275
   2 C :    0.263935
   3 C :    0.133886
   4 H :    0.357417
   5 H :    0.474790
Sum of atomic charges:   -0.0000000

LOEWDIN ATOMIC CHARGES
----------------------
   0 F :    0.672318
   1 N :    0.893492
   2 C :   -0.295600
   3 C :   -0.136551
   4 H :   -0.683233
   5 H :   -0.450425

  Mayer bond orders larger than 0.100000
B(  0-F ,  2-C ) :   0.4793 B(  0-F ,  3-C ) :   0.1579 B(  1-N ,  3-C ) :   1.9955
B(  1-N ,  4-H ) :   0.7953 B(  2-C ,  3-C ) :   1.8611 B(  2-C ,  5-H ) :   0.7799

MP2 TOTAL ENERGY:     -231.627985155 Eh
FINAL SINGLE POINT ENERGY      -231.627985155056

DIPOLE MOMENT
-------------
                                X             Y             Z
Electronic contribution:      2.53557      -1.04787      -0.13944
Nuclear contribution   :     -2.87922       1.51723       0.73465
                        -----------------------------------------
Total Dipole Moment    :     -0.34365       0.46936       0.59521
                        -----------------------------------------
Magnitude (a.u.)       :      0.83227
Magnitude (Debye)      :      2.11545

Rotational constants in cm-1:     1.670143     0.150374     0.139646
Rotational constants in MHz : 50069.623993  4508.098561  4186.479011

                             ****ORCA TERMINATED NORMALLY****
TOTAL RUN TIME: 0 days 0 hours 2 minutes 35 seconds 514 msec
