                         Program Version 5.0.4 -  RELEASE  -
|  1> !ri-mp2 aug-cc-pvqz aug-cc-pvqz/c tightscf
|  2> %pal nprocs 16 end
|  3>
|  4> * xyz 0 1
|  5> O     -3.400108   -0.733442   -0.118928
|  6> O      3.400112   -0.733432   -0.118929
|  7> N      0.000000    1.083109    0.012803
|  8> C     -1.191775    0.449091   -0.005616
|  9> C      1.191770    0.449084   -0.005610
| 10> C     -2.247386   -0.118373    0.033472
| 11> C      2.247401   -0.118342    0.033478
| 12> H     -3.781620   -0.952804    0.740381
| 13> H      3.781529   -0.952982    0.740374
| 14> H      0.000002    2.090260   -0.001864
| 15> *
| 16>
| 17>                          ****END OF INPUT****

CARTESIAN COORDINATES (ANGSTROEM)
---------------------------------
  O     -3.400108   -0.733442   -0.118928
  O      3.400112   -0.733432   -0.118929
  N      0.000000    1.083109    0.012803
  C     -1.191775    0.449091   -0.005616
  C      1.191770    0.449084   -0.005610
  C     -2.247386   -0.118373    0.033472
  C      2.247401   -0.118342    0.033478
  H     -3.781620   -0.952804    0.740381
  H      3.781529   -0.952982    0.740374
  H      0.000002    2.090260   -0.001864

 Total Charge           Charge          ....    0
 Multiplicity           Mult            ....    1
 Number of Electrons    NEL             ....   50
 Basis Dimension        Dim             ....  698

ORBITAL ENERGIES
----------------

  NO   OCC          E(Eh)            E(eV)
   0   2.0000     -20.626490      -561.2753
   1   2.0000     -20.626490      -561.2753
   2   2.0000     -15.621982      -425.0958
   3   2.0000     -11.281169      -306.9762
   4   2.0000     -11.281168      -306.9762
   5   2.0000     -11.257253      -306.3254
   6   2.0000     -11.257237      -306.3250
   7   2.0000      -1.436515       -39.0896
   8   2.0000      -1.436461       -39.0881
   9   2.0000      -1.273052       -34.6415
  10   2.0000      -1.031605       -28.0714
  11   2.0000      -0.994735       -27.0681
  12   2.0000      -0.828897       -22.5554
  13   2.0000      -0.804674       -21.8963
  14   2.0000      -0.766302       -20.8521
  15   2.0000      -0.752763       -20.4837
  16   2.0000      -0.662094       -18.0165
  17   2.0000      -0.659737       -17.9523
  18   2.0000      -0.611059       -16.6278
  19   2.0000      -0.610335       -16.6081
  20   2.0000      -0.570155       -15.5147
  21   2.0000      -0.401661       -10.9298
  22   2.0000      -0.384087       -10.4515
  23   2.0000      -0.370246       -10.0749
  24   2.0000      -0.316485        -8.6120
  25   0.0000       0.020136         0.5479
  26   0.0000       0.025509         0.6941
  27   0.0000       0.032960         0.8969
  28   0.0000       0.065067         1.7706
  29   0.0000       0.066308         1.8043

MULLIKEN ATOMIC CHARGES
-----------------------
   0 O :   -0.775858
   1 O :   -0.775860
   2 N :   -0.752808
   3 C :    0.036341
   4 C :    0.036299
   5 C :    0.615027
   6 C :    0.615039
   7 H :    0.332871
   8 H :    0.332868
   9 H :    0.336080
Sum of atomic charges:   -0.0000000

LOEWDIN ATOMIC CHARGES
----------------------
   0 O :    1.151260
   1 O :    1.151260
   2 N :    0.603678
   3 C :   -0.112997
   4 C :   -0.112999
   5 C :   -0.264647
   6 C :   -0.264646
   7 H :   -0.805177
   8 H :   -0.805178
   9 H :   -0.540555

  Mayer bond orders larger than 0.100000
B(  0-O ,  3-C ) :   0.2659 B(  0-O ,  5-C ) :   0.6470 B(  0-O ,  7-H ) :   0.9274
B(  1-O ,  4-C ) :   0.2659 B(  1-O ,  6-C ) :   0.6470 B(  1-O ,  8-H ) :   0.9274
B(  2-N ,  3-C ) :   0.9788 B(  2-N ,  4-C ) :   0.9788 B(  2-N ,  9-H ) :   0.9065
B(  3-C ,  4-C ) :  -0.1216 B(  3-C ,  5-C ) :   2.9229 B(  4-C ,  6-C ) :   2.9230

MP2 TOTAL ENERGY:     -358.720793086 Eh
FINAL SINGLE POINT ENERGY      -358.720793086082

DIPOLE MOMENT
-------------
                                X             Y             Z
Electronic contribution:      0.00002       0.00837      -0.30761
Nuclear contribution   :     -0.00009       0.16223       1.42705
                        -----------------------------------------
Total Dipole Moment    :     -0.00006       0.17060       1.11945
                        -----------------------------------------
Magnitude (a.u.)       :      1.13237
Magnitude (Debye)      :      2.87826

Rotational constants in cm-1:     0.361552     0.030335     0.028129
Rotational constants in MHz : 10839.053858   909.414850   843.276854

                             ****ORCA TERMINATED NORMALLY****
TOTAL RUN TIME: 0 days 0 hours 8 minutes 55 seconds 309 msec
