                         Program Version 5.0.4 -  RELEASE  -
|  1> !ri-mp2 aug-cc-pvqz aug-cc-pvqz/c tightscf
|  2> %pal nprocs 16 end
|  3>
|  4> * xyz 0 1
|  5> C     -0.211213    2.098944    0.000000
|  6> H     -0.763664    2.429115    0.882489
|  7> H      0.758858    2.588726    0.000000
|  8> H     -0.763664    2.429115   -0.882489
|  9> N     -1.022980   -0.282177    0.000000
| 10> H     -2.004898   -0.069530    0.000000
| 11> C      0.000000    0.624449    0.000000
| 12> N      1.160665    0.009381    0.000000
| 13> C      0.880939   -1.338149    0.000000
| 14> H      1.664738   -2.075911    0.000000
| 15> C     -0.467672   -1.544500    0.000000
| 16> H     -1.067486   -2.436412    0.000000
| 17> *
| 18>
| 19>                          ****END OF INPUT****

CARTESIAN COORDINATES (ANGSTROEM)
---------------------------------
  C     -0.211213    2.098944    0.000000
  H     -0.763664    2.429115    0.882489
  H      0.758858    2.588726    0.000000
  H     -0.763664    2.429115   -0.882489
  N     -1.022980   -0.282177    0.000000
  H     -2.004898   -0.069530    0.000000
  C      0.000000    0.624449    0.000000
  N      1.160665    0.009381    0.000000
  C      0.880939   -1.338149    0.000000
  H      1.664738   -2.075911    0.000000
  C     -0.467672   -1.544500    0.000000
  H     -1.067486   -2.436412    0.000000

 Total Charge           Charge          ....    0
 Multiplicity           Mult            ....    1
 Number of Electrons    NEL             ....   44
 Basis Dimension        Dim             ....  756

ORBITAL ENERGIES
----------------

  NO   OCC          E(Eh)            E(eV)
   0   2.0000     -15.610941      -424.7953
   1   2.0000     -15.533179      -422.6793
   2   2.0000     -11.297096      -307.4096
   3   2.0000     -11.253085      -306.2120
   4   2.0000     -11.235752      -305.7404
   5   2.0000     -11.235256      -305.7269
   6   2.0000      -1.336314       -36.3629
   7   2.0000      -1.159632       -31.5552
   8   2.0000      -1.044858       -28.4320
   9   2.0000      -0.944686       -25.7062
  10   2.0000      -0.814441       -22.1621
  11   2.0000      -0.792907       -21.5761
  12   2.0000      -0.715523       -19.4704
  13   2.0000      -0.619435       -16.8557
  14   2.0000      -0.611294       -16.6342
  15   2.0000      -0.596053       -16.2194
  16   2.0000      -0.556983       -15.1563
  17   2.0000      -0.552538       -15.0353
  18   2.0000      -0.541386       -14.7319
  19   2.0000      -0.429385       -11.6842
  20   2.0000      -0.396144       -10.7796
  21   2.0000      -0.310886        -8.4596
  22   0.0000       0.019151         0.5211
  23   0.0000       0.027826         0.7572
  24   0.0000       0.036160         0.9840
  25   0.0000       0.039870         1.0849
  26   0.0000       0.045569         1.2400

MULLIKEN ATOMIC CHARGES
-----------------------
   0 C :   -0.645686
   1 H :    0.259389
   2 H :    0.261980
   3 H :    0.259389
   4 N :   -0.538808
   5 H :    0.184078
   6 C :    0.562493
   7 N :   -0.660350
   8 C :   -0.266791
   9 H :    0.502161
  10 C :   -0.389559
  11 H :    0.471704
Sum of atomic charges:   -0.0000000

LOEWDIN ATOMIC CHARGES
----------------------
   0 C :    0.915037
   1 H :   -0.290807
   2 H :   -0.316865
   3 H :   -0.290807
   4 N :    0.794161
   5 H :   -0.444643
   6 C :   -0.506734
   7 N :    0.570905
   8 C :    0.050024
   9 H :   -0.354463
  10 C :    0.191123
  11 H :   -0.316931

  Mayer bond orders larger than 0.100000
B(  0-C ,  1-H ) :   0.9556 B(  0-C ,  2-H ) :   1.0157 B(  0-C ,  3-H ) :   0.9556
B(  0-C ,  6-C ) :   0.7337 B(  4-N ,  5-H ) :   1.0535 B(  4-N ,  6-C ) :   1.0861
B(  4-N , 10-C ) :   1.0690 B(  6-C ,  7-N ) :   1.4640 B(  6-C , 10-C ) :  -0.1228
B(  7-N ,  8-C ) :   0.9886 B(  8-C ,  9-H ) :   0.7936 B(  8-C , 10-C ) :   1.6945
B( 10-C , 11-H ) :   0.8060

MP2 TOTAL ENERGY:     -265.101035685 Eh
FINAL SINGLE POINT ENERGY      -265.101035684933

DIPOLE MOMENT
-------------
                                X             Y             Z
Electronic contribution:      0.73114      -2.74405       0.00000
Nuclear contribution   :     -2.18933       2.88196       0.00000
                        -----------------------------------------
Total Dipole Moment    :     -1.45819       0.13791       0.00000
                        -----------------------------------------
Magnitude (a.u.)       :      1.46470
Magnitude (Debye)      :      3.72296

Rotational constants in cm-1:     0.299450     0.120147     0.087136
Rotational constants in MHz :  8977.278203  3601.913651  2612.267099

                             ****ORCA TERMINATED NORMALLY****
TOTAL RUN TIME: 0 days 0 hours 17 minutes 31 seconds 363 msec
