                         Program Version 5.0.4 -  RELEASE  -
|  1> !ri-mp2 aug-cc-pvqz aug-cc-pvqz/c tightscf
|  2> %pal nprocs 16 end
|  3> %maxcore 3800
|  4>
|  5> * xyz 0 1
|  6> C      1.734839   -1.077796   -1.065905
|  7> C      2.632719    0.591958    0.605922
|  8> C     -1.734840   -1.077794    1.065906
|  9> C     -2.632718    0.591958   -0.605923
| 10> C      1.441089   -0.271419    0.195238
| 11> C     -1.441089   -0.271419   -0.195238
| 12> S      0.000000    0.866458    0.000000
| 13> H      2.591479   -1.736141   -0.899071
| 14> H      0.892872   -1.704377   -1.358644
| 15> H      1.969701   -0.415640   -1.900083
| 16> H      3.513715   -0.035344    0.754087
| 17> H      2.435115    1.129802    1.532456
| 18> H      2.869539    1.323680   -0.168464
| 19> H     -2.591478   -1.736141    0.899071
| 20> H     -0.892872   -1.704375    1.358647
| 21> H     -1.969704   -0.415638    1.900082
| 22> H     -3.513714   -0.035344   -0.754090
| 23> H     -2.435113    1.129802   -1.532458
| 24> H     -2.869540    1.323680    0.168462
| 25> H      1.204385   -0.950113    1.015660
| 26> H     -1.204384   -0.950114   -1.015659
| 27> *
| 28>
| 29>                          ****END OF INPUT****

CARTESIAN COORDINATES (ANGSTROEM)
---------------------------------
  C      1.734839   -1.077796   -1.065905
  C      2.632719    0.591958    0.605922
  C     -1.734840   -1.077794    1.065906
  C     -2.632718    0.591958   -0.605923
  C      1.441089   -0.271419    0.195238
  C     -1.441089   -0.271419   -0.195238
  S      0.000000    0.866458    0.000000
  H      2.591479   -1.736141   -0.899071
  H      0.892872   -1.704377   -1.358644
  H      1.969701   -0.415640   -1.900083
  H      3.513715   -0.035344    0.754087
  H      2.435115    1.129802    1.532456
  H      2.869539    1.323680   -0.168464
  H     -2.591478   -1.736141    0.899071
  H     -0.892872   -1.704375    1.358647
  H     -1.969704   -0.415638    1.900082
  H     -3.513714   -0.035344   -0.754090
  H     -2.435113    1.129802   -1.532458
  H     -2.869540    1.323680    0.168462
  H      1.204385   -0.950113    1.015660
  H     -1.204384   -0.950114   -1.015659

 Total Charge           Charge          ....    0
 Multiplicity           Mult            ....    1
 Number of Electrons    NEL             ....   66
 Basis Dimension        Dim             .... 1208

ORBITAL ENERGIES
----------------

  NO   OCC          E(Eh)            E(eV)
   0   2.0000     -91.928395     -2501.4988
   1   2.0000     -11.258282      -306.3534
   2   2.0000     -11.258274      -306.3532
   3   2.0000     -11.217437      -305.2420
   4   2.0000     -11.217437      -305.2420
   5   2.0000     -11.217415      -305.2414
   6   2.0000     -11.217415      -305.2414
   7   2.0000      -8.930583      -243.0135
   8   2.0000      -6.612022      -179.9223
   9   2.0000      -6.611146      -179.8984
  10   2.0000      -6.610359      -179.8770
  11   2.0000      -1.102575       -30.0026
  12   2.0000      -1.063807       -28.9477
  13   2.0000      -0.938274       -25.5317
  14   2.0000      -0.936826       -25.4923
  15   2.0000      -0.917738       -24.9729
  16   2.0000      -0.799940       -21.7675
  17   2.0000      -0.748790       -20.3756
  18   2.0000      -0.641496       -17.4560
  19   2.0000      -0.626696       -17.0533
  20   2.0000      -0.603177       -16.4133
  21   2.0000      -0.577637       -15.7183
  22   2.0000      -0.563214       -15.3258
  23   2.0000      -0.562837       -15.3156
  24   2.0000      -0.541568       -14.7368
  25   2.0000      -0.541431       -14.7331
  26   2.0000      -0.497964       -13.5503
  27   2.0000      -0.494460       -13.4550
  28   2.0000      -0.493720       -13.4348
  29   2.0000      -0.485176       -13.2023
  30   2.0000      -0.437453       -11.9037
  31   2.0000      -0.406345       -11.0572
  32   2.0000      -0.331025        -9.0076
  33   0.0000       0.025176         0.6851
  34   0.0000       0.029011         0.7894
  35   0.0000       0.033115         0.9011
  36   0.0000       0.033739         0.9181
  37   0.0000       0.045224         1.2306

MULLIKEN ATOMIC CHARGES
-----------------------
   0 C :   -1.015270
   1 C :   -0.936425
   2 C :   -1.015263
   3 C :   -0.936446
   4 C :    0.179171
   5 C :    0.179185
   6 S :   -0.231744
   7 H :    0.291009
   8 H :    0.290942
   9 H :    0.229597
  10 H :    0.282204
  11 H :    0.269800
  12 H :    0.218633
  13 H :    0.291000
  14 H :    0.290949
  15 H :    0.229601
  16 H :    0.282198
  17 H :    0.269814
  18 H :    0.218632
  19 H :    0.306211
  20 H :    0.306204
Sum of atomic charges:    0.0000000

LOEWDIN ATOMIC CHARGES
----------------------
   0 C :    0.852303
   1 C :    0.816743
   2 C :    0.852303
   3 C :    0.816742
   4 C :   -0.235733
   5 C :   -0.235733
   6 S :    1.394644
   7 H :   -0.279433
   8 H :   -0.308180
   9 H :   -0.291341
  10 H :   -0.284304
  11 H :   -0.299064
  12 H :   -0.297847
  13 H :   -0.279433
  14 H :   -0.308178
  15 H :   -0.291342
  16 H :   -0.284304
  17 H :   -0.299063
  18 H :   -0.297847
  19 H :   -0.370466
  20 H :   -0.370466

  Mayer bond orders larger than 0.100000
B(  0-C ,  4-C ) :   0.8189 B(  0-C ,  6-S ) :   0.1041 B(  0-C ,  7-H ) :   0.9406
B(  0-C ,  8-H ) :   0.9668 B(  0-C ,  9-H ) :   0.9691 B(  1-C ,  4-C ) :   0.6149
B(  1-C , 10-H ) :   0.9854 B(  1-C , 11-H ) :   0.9925 B(  1-C , 12-H ) :   1.0086
B(  2-C ,  5-C ) :   0.8189 B(  2-C ,  6-S ) :   0.1041 B(  2-C , 13-H ) :   0.9406
B(  2-C , 14-H ) :   0.9668 B(  2-C , 15-H ) :   0.9691 B(  3-C ,  5-C ) :   0.6149
B(  3-C , 16-H ) :   0.9854 B(  3-C , 17-H ) :   0.9925 B(  3-C , 18-H ) :   1.0086
B(  4-C ,  6-S ) :   0.7190 B(  4-C , 10-H ) :  -0.1039 B(  4-C , 19-H ) :   0.8541
B(  5-C ,  6-S ) :   0.7191 B(  5-C , 16-H ) :  -0.1039 B(  5-C , 20-H ) :   0.8541

MP2 TOTAL ENERGY:     -634.347805209 Eh
FINAL SINGLE POINT ENERGY      -634.347805209430

DIPOLE MOMENT
-------------
                                X             Y             Z
Electronic contribution:     -0.00000       4.31570       0.00000
Nuclear contribution   :      0.00000      -5.03514      -0.00000
                        -----------------------------------------
Total Dipole Moment    :     -0.00000      -0.71944       0.00000
                        -----------------------------------------
Magnitude (a.u.)       :      0.71944
Magnitude (Debye)      :      1.82868

Rotational constants in cm-1:     0.120539     0.039600     0.037445
Rotational constants in MHz :  3613.665967  1187.176822  1122.562108

                             ****ORCA TERMINATED NORMALLY****
TOTAL RUN TIME: 0 days 1 hours 12 minutes 9 seconds 698 msec
