                         Program Version 5.0.4 -  RELEASE  -
|  1> !ri-mp2 aug-cc-pvqz aug-cc-pvqz/c tightscf
|  2> %pal nprocs 16 end
|  3>
|  4> * xyz 0 1
|  5> C     0.671348     0.000000    0.000000
|  6> C    -0.671348     0.000000    0.000000
|  7> C     1.522644     1.246022    0.000000
|  8> C     1.522644    -1.246022    0.000000
|  9> C    -1.522644    -1.246022    0.000000
| 10> C    -1.522644     1.246022    0.000000
| 11> H     2.179680     1.256485    0.874962
| 12> H     2.179680     1.256485   -0.874962
| 13> H     0.958985     2.173276    0.000000
| 14> H     2.179680    -1.256485    0.874962
| 15> H     0.958985    -2.173276    0.000000
| 16> H     2.179680    -1.256485   -0.874962
| 17> H    -2.179680    -1.256485   -0.874962
| 18> H    -2.179680    -1.256485    0.874962
| 19> H    -0.958985    -2.173276    0.000000
| 20> H    -2.179680     1.256485   -0.874962
| 21> H    -2.179680     1.256485    0.874962
| 22> H    -0.958985     2.173276    0.000000
| 23> *
| 24>
| 25>                          ****END OF INPUT****

CARTESIAN COORDINATES (ANGSTROEM)
---------------------------------
  C      0.671348    0.000000    0.000000
  C     -0.671348    0.000000    0.000000
  C      1.522644    1.246022    0.000000
  C      1.522644   -1.246022    0.000000
  C     -1.522644   -1.246022    0.000000
  C     -1.522644    1.246022    0.000000
  H      2.179680    1.256485    0.874962
  H      2.179680    1.256485   -0.874962
  H      0.958985    2.173276    0.000000
  H      2.179680   -1.256485    0.874962
  H      0.958985   -2.173276    0.000000
  H      2.179680   -1.256485   -0.874962
  H     -2.179680   -1.256485   -0.874962
  H     -2.179680   -1.256485    0.874962
  H     -0.958985   -2.173276    0.000000
  H     -2.179680    1.256485   -0.874962
  H     -2.179680    1.256485    0.874962
  H     -0.958985    2.173276    0.000000

 Total Charge           Charge          ....    0
 Multiplicity           Mult            ....    1
 Number of Electrons    NEL             ....   48
 Basis Dimension        Dim             .... 1032

ORBITAL ENERGIES
----------------

  NO   OCC          E(Eh)            E(eV)
   0   2.0000     -11.223325      -305.4022
   1   2.0000     -11.221692      -305.3578
   2   2.0000     -11.210589      -305.0556
   3   2.0000     -11.210579      -305.0554
   4   2.0000     -11.210551      -305.0546
   5   2.0000     -11.210550      -305.0546
   6   2.0000      -1.103417       -30.0255
   7   2.0000      -1.010323       -27.4923
   8   2.0000      -0.946247       -25.7487
   9   2.0000      -0.914658       -24.8891
  10   2.0000      -0.853906       -23.2360
  11   2.0000      -0.672314       -18.2946
  12   2.0000      -0.638895       -17.3852
  13   2.0000      -0.598241       -16.2790
  14   2.0000      -0.596009       -16.2182
  15   2.0000      -0.569404       -15.4943
  16   2.0000      -0.534213       -14.5367
  17   2.0000      -0.529043       -14.3960
  18   2.0000      -0.524540       -14.2735
  19   2.0000      -0.521514       -14.1911
  20   2.0000      -0.508129       -13.8269
  21   2.0000      -0.498738       -13.5714
  22   2.0000      -0.450472       -12.2580
  23   2.0000      -0.320995        -8.7347
  24   0.0000       0.027336         0.7439
  25   0.0000       0.030037         0.8174
  26   0.0000       0.031960         0.8697
  27   0.0000       0.038757         1.0546
  28   0.0000       0.042159         1.1472

MULLIKEN ATOMIC CHARGES
-----------------------
   0 C :    0.135160
   1 C :    0.135152
   2 C :   -0.830513
   3 C :   -0.830539
   4 C :   -0.830551
   5 C :   -0.830521
   6 H :    0.237136
   7 H :    0.237136
   8 H :    0.288685
   9 H :    0.237138
  10 H :    0.288684
  11 H :    0.237138
  12 H :    0.237134
  13 H :    0.237134
  14 H :    0.288676
  15 H :    0.237132
  16 H :    0.237132
  17 H :    0.288687
Sum of atomic charges:    0.0000000

LOEWDIN ATOMIC CHARGES
----------------------
   0 C :   -0.003534
   1 C :   -0.003534
   2 C :    0.897280
   3 C :    0.897280
   4 C :    0.897280
   5 C :    0.897280
   6 H :   -0.278680
   7 H :   -0.278680
   8 H :   -0.338154
   9 H :   -0.278680
  10 H :   -0.338154
  11 H :   -0.278680
  12 H :   -0.278680
  13 H :   -0.278680
  14 H :   -0.338154
  15 H :   -0.278680
  16 H :   -0.278680
  17 H :   -0.338154

  Mayer bond orders larger than 0.100000
B(  0-C ,  1-C ) :   0.8842 B(  0-C ,  2-C ) :   0.8272 B(  0-C ,  3-C ) :   0.8273
B(  1-C ,  4-C ) :   0.8273 B(  1-C ,  5-C ) :   0.8272 B(  2-C ,  6-H ) :   1.0149
B(  2-C ,  7-H ) :   1.0149 B(  2-C ,  8-H ) :   0.9649 B(  3-C ,  9-H ) :   1.0149
B(  3-C , 10-H ) :   0.9649 B(  3-C , 11-H ) :   1.0149 B(  4-C , 12-H ) :   1.0149
B(  4-C , 13-H ) :   1.0149 B(  4-C , 14-H ) :   0.9649 B(  5-C , 15-H ) :   1.0149
B(  5-C , 16-H ) :   1.0149 B(  5-C , 17-H ) :   0.9649

MP2 TOTAL ENERGY:     -235.385887407 Eh
FINAL SINGLE POINT ENERGY      -235.385887407399

DIPOLE MOMENT
-------------
                                X             Y             Z
Electronic contribution:     -0.00000      -0.00000       0.00000
Nuclear contribution   :     -0.00000      -0.00000       0.00000
                        -----------------------------------------
Total Dipole Moment    :     -0.00000      -0.00000       0.00000
                        -----------------------------------------
Magnitude (a.u.)       :      0.00000
Magnitude (Debye)      :      0.00000

Rotational constants in cm-1:     0.149793     0.098925     0.062297
Rotational constants in MHz :  4490.669048  2965.704948  1867.619666

                             ****ORCA TERMINATED NORMALLY****
TOTAL RUN TIME: 0 days 0 hours 47 minutes 48 seconds 101 msec
