                         Program Version 5.0.4 -  RELEASE  -
|  1> !ri-mp2 aug-cc-pvqz aug-cc-pvqz/c tightscf
|  2> %pal nprocs 16 end
|  3> %maxcore 3800
|  4>
|  5> * xyz 0 1
|  6> C     -1.846468    1.363840   -0.077215
|  7> C     -2.662406   -1.005759   -0.096294
|  8> C      2.238415   -1.049347   -0.534903
|  9> C      1.347049    0.062739    1.517236
| 10> C      1.470851    1.310380   -0.660535
| 11> C     -0.206189   -0.619162   -0.388682
| 12> C     -1.491679   -0.085189    0.274492
| 13> C      1.189357   -0.053191   -0.006364
| 14> H     -1.878530    1.507566   -1.160137
| 15> H     -2.830639    1.621044    0.318884
| 16> H     -1.136791    2.079950    0.332372
| 17> H     -2.842778   -0.992361   -1.174393
| 18> H     -3.583115   -0.688469    0.396236
| 19> H     -2.465759   -2.039230    0.193579
| 20> H      2.126690   -2.027904   -0.064042
| 21> H      3.250825   -0.693599   -0.333918
| 22> H      2.141559   -1.185634   -1.614225
| 23> H      2.366909    0.355952    1.774490
| 24> H      0.675201    0.809842    1.941318
| 25> H      1.141903   -0.890029    2.010264
| 26> H      0.817786    2.095891   -0.286579
| 27> H      2.499514    1.619425   -0.462797
| 28> H      1.343993    1.257474   -1.743806
| 29> H     -0.175142   -1.692454   -0.177183
| 30> H     -0.319174   -0.537597   -1.476057
| 31> H     -1.366031   -0.145726    1.359582
| 32> *
| 33>
| 34>                          ****END OF INPUT****

CARTESIAN COORDINATES (ANGSTROEM)
---------------------------------
  C     -1.846468    1.363840   -0.077215
  C     -2.662406   -1.005759   -0.096294
  C      2.238415   -1.049347   -0.534903
  C      1.347049    0.062739    1.517236
  C      1.470851    1.310380   -0.660535
  C     -0.206189   -0.619162   -0.388682
  C     -1.491679   -0.085189    0.274492
  C      1.189357   -0.053191   -0.006364
  H     -1.878530    1.507566   -1.160137
  H     -2.830639    1.621044    0.318884
  H     -1.136791    2.079950    0.332372
  H     -2.842778   -0.992361   -1.174393
  H     -3.583115   -0.688469    0.396236
  H     -2.465759   -2.039230    0.193579
  H      2.126690   -2.027904   -0.064042
  H      3.250825   -0.693599   -0.333918
  H      2.141559   -1.185634   -1.614225
  H      2.366909    0.355952    1.774490
  H      0.675201    0.809842    1.941318
  H      1.141903   -0.890029    2.010264
  H      0.817786    2.095891   -0.286579
  H      2.499514    1.619425   -0.462797
  H      1.343993    1.257474   -1.743806
  H     -0.175142   -1.692454   -0.177183
  H     -0.319174   -0.537597   -1.476057
  H     -1.366031   -0.145726    1.359582

 Total Charge           Charge          ....    0
 Multiplicity           Mult            ....    1
 Number of Electrons    NEL             ....   66
 Basis Dimension        Dim             .... 1468

ORBITAL ENERGIES
----------------

  NO   OCC          E(Eh)            E(eV)
   0   2.0000     -11.229932      -305.5820
   1   2.0000     -11.221007      -305.3391
   2   2.0000     -11.209852      -305.0356
   3   2.0000     -11.205958      -304.9296
   4   2.0000     -11.205793      -304.9251
   5   2.0000     -11.205723      -304.9232
   6   2.0000     -11.204868      -304.9000
   7   2.0000     -11.203708      -304.8684
   8   2.0000      -1.110782       -30.2259
   9   2.0000      -1.058099       -28.7923
  10   2.0000      -0.933462       -25.4008
  11   2.0000      -0.928162       -25.2566
  12   2.0000      -0.920137       -25.0382
  13   2.0000      -0.914916       -24.8961
  14   2.0000      -0.778011       -21.1708
  15   2.0000      -0.722947       -19.6724
  16   2.0000      -0.638358       -17.3706
  17   2.0000      -0.616059       -16.7638
  18   2.0000      -0.609754       -16.5922
  19   2.0000      -0.591683       -16.1005
  20   2.0000      -0.570241       -15.5170
  21   2.0000      -0.554535       -15.0897
  22   2.0000      -0.540600       -14.7105
  23   2.0000      -0.534741       -14.5510
  24   2.0000      -0.526742       -14.3334
  25   2.0000      -0.510174       -13.8826
  26   2.0000      -0.505611       -13.7584
  27   2.0000      -0.490372       -13.3437
  28   2.0000      -0.469018       -12.7626
  29   2.0000      -0.463875       -12.6227
  30   2.0000      -0.445460       -12.1216
  31   2.0000      -0.436984       -11.8909
  32   2.0000      -0.425905       -11.5895
  33   0.0000       0.025323         0.6891
  34   0.0000       0.029259         0.7962
  35   0.0000       0.030849         0.8394
  36   0.0000       0.031364         0.8534
  37   0.0000       0.043088         1.1725

MULLIKEN ATOMIC CHARGES
-----------------------
   0 C :   -1.007954
   1 C :   -0.974497
   2 C :   -1.159340
   3 C :   -1.141109
   4 C :   -1.211374
   5 C :   -0.149177
   6 C :    0.356037
   7 C :    1.529219
   8 H :    0.119878
   9 H :    0.272597
  10 H :    0.247103
  11 H :    0.171977
  12 H :    0.253638
  13 H :    0.218260
  14 H :    0.217316
  15 H :    0.223120
  16 H :    0.203748
  17 H :    0.231555
  18 H :    0.175305
  19 H :    0.176984
  20 H :    0.278996
  21 H :    0.236396
  22 H :    0.155672
  23 H :    0.265074
  24 H :    0.163145
  25 H :    0.147431
Sum of atomic charges:   -0.0000000

LOEWDIN ATOMIC CHARGES
----------------------
   0 C :    0.935774
   1 C :    0.926186
   2 C :    0.904886
   3 C :    0.914323
   4 C :    0.919087
   5 C :    0.511903
   6 C :    0.130227
   7 C :   -0.258102
   8 H :   -0.262774
   9 H :   -0.275082
  10 H :   -0.304664
  11 H :   -0.270528
  12 H :   -0.277511
  13 H :   -0.274897
  14 H :   -0.270925
  15 H :   -0.272767
  16 H :   -0.264814
  17 H :   -0.269180
  18 H :   -0.281103
  19 H :   -0.260439
  20 H :   -0.309944
  21 H :   -0.270438
  22 H :   -0.262812
  23 H :   -0.296708
  24 H :   -0.268406
  25 H :   -0.291292

  Mayer bond orders larger than 0.100000
B(  0-C ,  1-C ) :   0.1548 B(  0-C ,  6-C ) :   0.5615 B(  0-C ,  8-H ) :   1.0917
B(  0-C ,  9-H ) :   1.0293 B(  0-C , 10-H ) :   1.0237 B(  1-C ,  5-C ) :  -0.1060
B(  1-C ,  6-C ) :   0.5938 B(  1-C , 11-H ) :   1.0738 B(  1-C , 12-H ) :   1.0482
B(  1-C , 13-H ) :   1.0603 B(  2-C ,  3-C ) :   0.1721 B(  2-C ,  4-C ) :   0.1706
B(  2-C ,  7-C ) :   0.2445 B(  2-C , 14-H ) :   1.0964 B(  2-C , 15-H ) :   1.0675
B(  2-C , 16-H ) :   1.1078 B(  3-C ,  4-C ) :   0.1333 B(  3-C ,  7-C ) :   0.2885
B(  3-C , 17-H ) :   1.0653 B(  3-C , 18-H ) :   1.0990 B(  3-C , 19-H ) :   1.1240
B(  4-C ,  7-C ) :   0.2377 B(  4-C , 20-H ) :   1.0431 B(  4-C , 21-H ) :   1.0789
B(  4-C , 22-H ) :   1.1611 B(  5-C ,  6-C ) :   0.6073 B(  5-C ,  7-C ) :   0.6737
B(  5-C , 23-H ) :   0.9145 B(  5-C , 24-H ) :   0.9809 B(  6-C , 11-H ) :  -0.1244
B(  6-C , 12-H ) :  -0.1230 B(  6-C , 25-H ) :   0.9604 B(  7-C , 14-H ) :  -0.1828
B(  7-C , 15-H ) :  -0.1304 B(  7-C , 16-H ) :  -0.1673 B(  7-C , 17-H ) :  -0.1191
B(  7-C , 18-H ) :  -0.1158 B(  7-C , 19-H ) :  -0.1324 B(  7-C , 20-H ) :  -0.1395
B(  7-C , 21-H ) :  -0.1303 B(  7-C , 22-H ) :  -0.1354

MP2 TOTAL ENERGY:     -315.081622713 Eh
FINAL SINGLE POINT ENERGY      -315.081622712637

DIPOLE MOMENT
-------------
                                X             Y             Z
Electronic contribution:      0.24844      -0.49610       0.22560
Nuclear contribution   :     -0.25346       0.49278      -0.18057
                        -----------------------------------------
Total Dipole Moment    :     -0.00502      -0.00331       0.04502
                        -----------------------------------------
Magnitude (a.u.)       :      0.04542
Magnitude (Debye)      :      0.11546

Rotational constants in cm-1:     0.098465     0.040126     0.036326
Rotational constants in MHz :  2951.909251  1202.936627  1089.025339

                             ****ORCA TERMINATED NORMALLY****
TOTAL RUN TIME: 0 days 2 hours 31 minutes 21 seconds 614 msec
