                         Program Version 5.0.4 -  RELEASE  -
|  1> !ri-mp2 aug-cc-pvqz aug-cc-pvqz/c tightscf
|  2> %pal nprocs 16 end
|  3> %maxcore 3800
|  4>
|  5> * xyz 0 1
|  6> C      2.780946    0.034090   -0.496412
|  7> C      2.081979    1.196215   -0.197941
|  8> C      1.046417   -1.191362    0.282233
|  9> C      0.324882   -0.029326    0.581800
| 10> C     -2.293729    1.300701   -0.581142
| 11> C     -2.259009   -1.219791   -0.767466
| 12> C     -1.051716   -0.083716    1.186804
| 13> C     -2.235332   -0.022090    0.185648
| 14> N      2.262542   -1.168677   -0.252894
| 15> N      0.864183    1.170413    0.338964
| 16> H      3.772639    0.071644   -0.930765
| 17> H      2.515504    2.170975   -0.390188
| 18> H      0.623598   -2.167465    0.490849
| 19> H     -1.429831    1.424092   -1.234865
| 20> H     -2.314015    2.154514    0.096934
| 21> H     -3.190666    1.339309   -1.201754
| 22> H     -3.158002   -1.199555   -1.385241
| 23> H     -1.400440   -1.213979   -1.441787
| 24> H     -2.251536   -2.166685   -0.224003
| 25> H     -1.144990   -1.004046    1.767797
| 26> H     -1.141864    0.752268    1.881855
| 27> H     -3.134101   -0.081540    0.807527
| 28> *
| 29>
| 30>                          ****END OF INPUT****

CARTESIAN COORDINATES (ANGSTROEM)
---------------------------------
  C      2.780946    0.034090   -0.496412
  C      2.081979    1.196215   -0.197941
  C      1.046417   -1.191362    0.282233
  C      0.324882   -0.029326    0.581800
  C     -2.293729    1.300701   -0.581142
  C     -2.259009   -1.219791   -0.767466
  C     -1.051716   -0.083716    1.186804
  C     -2.235332   -0.022090    0.185648
  N      2.262542   -1.168677   -0.252894
  N      0.864183    1.170413    0.338964
  H      3.772639    0.071644   -0.930765
  H      2.515504    2.170975   -0.390188
  H      0.623598   -2.167465    0.490849
  H     -1.429831    1.424092   -1.234865
  H     -2.314015    2.154514    0.096934
  H     -3.190666    1.339309   -1.201754
  H     -3.158002   -1.199555   -1.385241
  H     -1.400440   -1.213979   -1.441787
  H     -2.251536   -2.166685   -0.224003
  H     -1.144990   -1.004046    1.767797
  H     -1.141864    0.752268    1.881855
  H     -3.134101   -0.081540    0.807527

 Total Charge           Charge          ....    0
 Multiplicity           Mult            ....    1
 Number of Electrons    NEL             ....   74
 Basis Dimension        Dim             .... 1352

ORBITAL ENERGIES
----------------

  NO   OCC          E(Eh)            E(eV)
   0   2.0000     -15.585882      -424.1134
   1   2.0000     -15.580929      -423.9786
   2   2.0000     -11.282882      -307.0228
   3   2.0000     -11.277540      -306.8775
   4   2.0000     -11.274275      -306.7886
   5   2.0000     -11.273911      -306.7787
   6   2.0000     -11.233786      -305.6868
   7   2.0000     -11.230750      -305.6042
   8   2.0000     -11.213378      -305.1315
   9   2.0000     -11.207020      -304.9585
  10   2.0000      -1.304967       -35.5100
  11   2.0000      -1.216002       -33.0891
  12   2.0000      -1.101514       -29.9737
  13   2.0000      -1.048025       -28.5182
  14   2.0000      -0.956780       -26.0353
  15   2.0000      -0.931702       -25.3529
  16   2.0000      -0.893365       -24.3097
  17   2.0000      -0.860805       -23.4237
  18   2.0000      -0.772217       -21.0131
  19   2.0000      -0.710856       -19.3434
  20   2.0000      -0.706492       -19.2246
  21   2.0000      -0.657871       -17.9016
  22   2.0000      -0.635416       -17.2906
  23   2.0000      -0.600919       -16.3518
  24   2.0000      -0.594067       -16.1654
  25   2.0000      -0.580776       -15.8037
  26   2.0000      -0.566002       -15.4017
  27   2.0000      -0.538554       -14.6548
  28   2.0000      -0.536942       -14.6109
  29   2.0000      -0.518460       -14.1080
  30   2.0000      -0.492226       -13.3942
  31   2.0000      -0.476259       -12.9597
  32   2.0000      -0.469700       -12.7812
  33   2.0000      -0.468050       -12.7363
  34   2.0000      -0.428063       -11.6482
  35   2.0000      -0.401164       -10.9162
  36   2.0000      -0.345346        -9.3973
  37   0.0000       0.024296         0.6611
  38   0.0000       0.027176         0.7395
  39   0.0000       0.031493         0.8570
  40   0.0000       0.032790         0.8923
  41   0.0000       0.040144         1.0924

MULLIKEN ATOMIC CHARGES
-----------------------
   0 C :   -0.204084
   1 C :   -0.526277
   2 C :    0.057784
   3 C :    0.488810
   4 C :   -0.938104
   5 C :   -0.919636
   6 C :   -0.423729
   7 C :    0.207158
   8 N :   -0.878088
   9 N :   -0.576410
  10 H :    0.514765
  11 H :    0.469739
  12 H :    0.478678
  13 H :    0.219928
  14 H :    0.207292
  15 H :    0.288101
  16 H :    0.290320
  17 H :    0.204429
  18 H :    0.218074
  19 H :    0.256850
  20 H :    0.256453
  21 H :    0.307947
Sum of atomic charges:   -0.0000000

LOEWDIN ATOMIC CHARGES
----------------------
   0 C :    0.075199
   1 C :    0.086769
   2 C :    0.083352
   3 C :   -0.340773
   4 C :    0.921690
   5 C :    0.920576
   6 C :    0.491032
   7 C :    0.114185
   8 N :    0.603815
   9 N :    0.621175
  10 H :   -0.355674
  11 H :   -0.350165
  12 H :   -0.343157
  13 H :   -0.290821
  14 H :   -0.271259
  15 H :   -0.275579
  16 H :   -0.274293
  17 H :   -0.283351
  18 H :   -0.272693
  19 H :   -0.291813
  20 H :   -0.290406
  21 H :   -0.277809

  Mayer bond orders larger than 0.100000
B(  0-C ,  1-C ) :   1.2779 B(  0-C ,  8-N ) :   1.2912 B(  0-C , 10-H ) :   0.8053
B(  1-C ,  2-C ) :   0.1443 B(  1-C ,  8-N ) :   0.1482 B(  1-C ,  9-N ) :   1.2869
B(  1-C , 10-H ) :  -0.1052 B(  1-C , 11-H ) :   0.8822 B(  2-C ,  3-C ) :   1.2379
B(  2-C ,  6-C ) :  -0.1856 B(  2-C ,  8-N ) :   0.8056 B(  2-C ,  9-N ) :   0.1071
B(  2-C , 12-H ) :   0.8456 B(  3-C ,  6-C ) :   0.7440 B(  3-C ,  8-N ) :   0.1138
B(  3-C ,  9-N ) :   0.7759 B(  4-C ,  7-C ) :   0.7273 B(  4-C , 13-H ) :   0.9616
B(  4-C , 14-H ) :   1.0369 B(  4-C , 15-H ) :   0.9946 B(  5-C ,  7-C ) :   0.6968
B(  5-C , 16-H ) :   0.9944 B(  5-C , 17-H ) :   0.9719 B(  5-C , 18-H ) :   1.0196
B(  6-C ,  7-C ) :   0.8632 B(  6-C , 19-H ) :   0.9927 B(  6-C , 20-H ) :   0.9912
B(  7-C , 21-H ) :   0.8187 B(  8-N , 10-H ) :  -0.1064 B(  8-N , 12-H ) :  -0.1504

MP2 TOTAL ENERGY:     -420.836130307 Eh
FINAL SINGLE POINT ENERGY      -420.836130306918

DIPOLE MOMENT
-------------
                                X             Y             Z
Electronic contribution:     12.19239      -0.01102       1.86026
Nuclear contribution   :    -12.48504       0.08116      -1.79911
                        -----------------------------------------
Total Dipole Moment    :     -0.29265       0.07014       0.06115
                        -----------------------------------------
Magnitude (a.u.)       :      0.30708
Magnitude (Debye)      :      0.78055

Rotational constants in cm-1:     0.087245     0.030002     0.026139
Rotational constants in MHz :  2615.529093   899.431218   783.617531

                             ****ORCA TERMINATED NORMALLY****
TOTAL RUN TIME: 0 days 1 hours 20 minutes 40 seconds 515 msec
