                         Program Version 5.0.4 -  RELEASE  -
|  1> !ri-mp2 aug-cc-pvqz aug-cc-pvqz/c tightscf
|  2> %pal nprocs 16 end
|  3>
|  4> * xyz 0 1
|  5> C     -1.079574    0.025415   -0.000044
|  6> C     -0.317064    1.276053    0.000024
|  7> C      1.029994    1.272817    0.000051
|  8> C      1.811253    0.048223   -0.000048
|  9> C      1.208607   -1.145981   -0.000088
| 10> C     -0.278700   -1.273628    0.000176
| 11> O     -2.298529    0.003675   -0.000115
| 12> H     -0.888882    2.193888    0.000022
| 13> H      1.565350    2.214743    0.000240
| 14> H      2.890068    0.123598   -0.000248
| 15> H      1.792087   -2.058324   -0.000305
| 16> H     -0.608643   -1.860082    0.864683
| 17> H     -0.608845   -1.860624   -0.863902
| 18> *
| 19>
| 20>                          ****END OF INPUT****

CARTESIAN COORDINATES (ANGSTROEM)
---------------------------------
  C     -1.079574    0.025415   -0.000044
  C     -0.317064    1.276053    0.000024
  C      1.029994    1.272817    0.000051
  C      1.811253    0.048223   -0.000048
  C      1.208607   -1.145981   -0.000088
  C     -0.278700   -1.273628    0.000176
  O     -2.298529    0.003675   -0.000115
  H     -0.888882    2.193888    0.000022
  H      1.565350    2.214743    0.000240
  H      2.890068    0.123598   -0.000248
  H      1.792087   -2.058324   -0.000305
  H     -0.608643   -1.860082    0.864683
  H     -0.608845   -1.860624   -0.863902

 Total Charge           Charge          ....    0
 Multiplicity           Mult            ....    1
 Number of Electrons    NEL             ....   50
 Basis Dimension        Dim             ....  836

ORBITAL ENERGIES
----------------

  NO   OCC          E(Eh)            E(eV)
   0   2.0000     -20.533638      -558.7487
   1   2.0000     -11.330216      -308.3108
   2   2.0000     -11.270925      -306.6975
   3   2.0000     -11.261745      -306.4477
   4   2.0000     -11.249562      -306.1161
   5   2.0000     -11.247749      -306.0668
   6   2.0000     -11.239844      -305.8517
   7   2.0000      -1.376107       -37.4458
   8   2.0000      -1.150055       -31.2946
   9   2.0000      -1.043825       -28.4039
  10   2.0000      -0.999161       -27.1885
  11   2.0000      -0.859662       -23.3926
  12   2.0000      -0.808437       -21.9987
  13   2.0000      -0.708198       -19.2711
  14   2.0000      -0.667724       -18.1697
  15   2.0000      -0.658640       -17.9225
  16   2.0000      -0.620879       -16.8950
  17   2.0000      -0.612124       -16.6567
  18   2.0000      -0.593915       -16.1612
  19   2.0000      -0.535945       -14.5838
  20   2.0000      -0.524555       -14.2739
  21   2.0000      -0.508858       -13.8467
  22   2.0000      -0.455256       -12.3881
  23   2.0000      -0.411415       -11.1952
  24   2.0000      -0.333744        -9.0816
  25   0.0000       0.020258         0.5513
  26   0.0000       0.026617         0.7243
  27   0.0000       0.033571         0.9135
  28   0.0000       0.040395         1.0992
  29   0.0000       0.045168         1.2291

MULLIKEN ATOMIC CHARGES
-----------------------
   0 C :    1.147299
   1 C :   -0.515406
   2 C :   -0.369559
   3 C :   -0.447552
   4 C :   -0.320048
   5 C :   -0.439439
   6 O :   -0.819463
   7 H :    0.395970
   8 H :    0.274757
   9 H :    0.330141
  10 H :    0.331228
  11 H :    0.216211
  12 H :    0.215860
Sum of atomic charges:    0.0000000

LOEWDIN ATOMIC CHARGES
----------------------
   0 C :   -0.688755
   1 C :    0.337067
   2 C :    0.345210
   3 C :    0.357170
   4 C :    0.385041
   5 C :    0.448444
   6 O :    0.706393
   7 H :   -0.348603
   8 H :   -0.319583
   9 H :   -0.335589
  10 H :   -0.304343
  11 H :   -0.291225
  12 H :   -0.291227

  Mayer bond orders larger than 0.100000
B(  0-C ,  1-C ) :   1.0573 B(  0-C ,  2-C ) :  -0.1827 B(  0-C ,  5-C ) :   0.9024
B(  0-C ,  6-O ) :   0.7715 B(  1-C ,  2-C ) :   1.5570 B(  1-C ,  6-O ) :   0.2740
B(  1-C ,  7-H ) :   0.8493 B(  1-C ,  8-H ) :  -0.1247 B(  2-C ,  3-C ) :   1.0026
B(  2-C ,  8-H ) :   1.0583 B(  3-C ,  4-C ) :   1.5291 B(  3-C ,  9-H ) :   0.9785
B(  4-C ,  5-C ) :   0.8962 B(  4-C , 10-H ) :   0.9529 B(  5-C ,  6-O ) :   0.2484
B(  5-C , 11-H ) :   0.9436 B(  5-C , 12-H ) :   0.9440

MP2 TOTAL ENERGY:     -306.923865904 Eh
FINAL SINGLE POINT ENERGY      -306.923865904300

DIPOLE MOMENT
-------------
                                X             Y             Z
Electronic contribution:     -2.46278       1.08157      -0.00036
Nuclear contribution   :      4.09577      -1.24397       0.00049
                        -----------------------------------------
Total Dipole Moment    :      1.63299      -0.16240       0.00013
                        -----------------------------------------
Magnitude (a.u.)       :      1.64104
Magnitude (Debye)      :      4.17120

Rotational constants in cm-1:     0.174048     0.089976     0.059949
Rotational constants in MHz :  5217.826104  2697.411672  1797.214039

                             ****ORCA TERMINATED NORMALLY****
TOTAL RUN TIME: 0 days 0 hours 32 minutes 35 seconds 6 msec
