                         Program Version 5.0.4 -  RELEASE  -
|  1> !ri-mp2 aug-cc-pvqz aug-cc-pvqz/c tightscf
|  2> %pal nprocs 16 end
|  3>
|  4> * xyz 0 1
|  5> S     -0.341510   -0.991986   -0.000006
|  6> O      2.519011   -1.365713   -0.000008
|  7> O      3.108200    0.731357    0.000007
|  8> N      2.272192   -0.162941    0.000001
|  9> C      0.889034    0.218887    0.000002
| 10> C      0.400378    1.497039    0.000009
| 11> C     -1.005032    1.513710    0.000008
| 12> C     -1.562355    0.249687    0.000001
| 13> C     -2.927020   -0.091395   -0.000003
| 14> C     -4.090699   -0.393484   -0.000005
| 15> H      1.038617    2.365715    0.000015
| 16> H     -1.603763    2.410935    0.000014
| 17> H     -5.119557   -0.656096   -0.000007
| 18> *
| 19>
| 20>                          ****END OF INPUT****

CARTESIAN COORDINATES (ANGSTROEM)
---------------------------------
  S     -0.341510   -0.991986   -0.000006
  O      2.519011   -1.365713   -0.000008
  O      3.108200    0.731357    0.000007
  N      2.272192   -0.162941    0.000001
  C      0.889034    0.218887    0.000002
  C      0.400378    1.497039    0.000009
  C     -1.005032    1.513710    0.000008
  C     -1.562355    0.249687    0.000001
  C     -2.927020   -0.091395   -0.000003
  C     -4.090699   -0.393484   -0.000005
  H      1.038617    2.365715    0.000015
  H     -1.603763    2.410935    0.000014
  H     -5.119557   -0.656096   -0.000007

 Total Charge           Charge          ....    0
 Multiplicity           Mult            ....    1
 Number of Electrons    NEL             ....   78
 Basis Dimension        Dim             ....  942

ORBITAL ENERGIES
----------------

  NO   OCC          E(Eh)            E(eV)
   0   2.0000     -92.029253     -2504.2433
   1   2.0000     -20.608299      -560.7803
   2   2.0000     -20.607867      -560.7686
   3   2.0000     -15.866454      -431.7482
   4   2.0000     -11.336935      -308.4937
   5   2.0000     -11.330435      -308.3168
   6   2.0000     -11.292781      -307.2922
   7   2.0000     -11.280293      -306.9524
   8   2.0000     -11.271056      -306.7010
   9   2.0000     -11.265310      -306.5447
  10   2.0000      -9.029625      -245.7086
  11   2.0000      -6.710608      -182.6049
  12   2.0000      -6.710147      -182.5924
  13   2.0000      -6.709321      -182.5699
  14   2.0000      -1.614373       -43.9293
  15   2.0000      -1.407283       -38.2941
  16   2.0000      -1.231149       -33.5013
  17   2.0000      -1.116151       -30.3720
  18   2.0000      -1.062577       -28.9142
  19   2.0000      -1.028902       -27.9978
  20   2.0000      -0.958687       -26.0872
  21   2.0000      -0.849607       -23.1190
  22   2.0000      -0.807643       -21.9771
  23   2.0000      -0.765030       -20.8175
  24   2.0000      -0.742087       -20.1932
  25   2.0000      -0.732192       -19.9240
  26   2.0000      -0.730108       -19.8673
  27   2.0000      -0.680839       -18.5266
  28   2.0000      -0.629394       -17.1267
  29   2.0000      -0.591676       -16.1003
  30   2.0000      -0.575622       -15.6635
  31   2.0000      -0.531418       -14.4606
  32   2.0000      -0.504482       -13.7276
  33   2.0000      -0.502375       -13.6703
  34   2.0000      -0.465689       -12.6721
  35   2.0000      -0.463807       -12.6208
  36   2.0000      -0.428287       -11.6543
  37   2.0000      -0.388766       -10.5789
  38   2.0000      -0.348191        -9.4748
  39   0.0000       0.006350         0.1728
  40   0.0000       0.018166         0.4943
  41   0.0000       0.023278         0.6334
  42   0.0000       0.037768         1.0277
  43   0.0000       0.051854         1.4110

MULLIKEN ATOMIC CHARGES
-----------------------
   0 S :    0.593917
   1 O :   -0.571032
   2 O :   -0.563606
   3 N :    0.705955
   4 C :   -0.417281
   5 C :   -0.006779
   6 C :   -0.273598
   7 C :    0.302488
   8 C :   -0.369050
   9 C :   -0.588915
  10 H :    0.402200
  11 H :    0.341909
  12 H :    0.443792
Sum of atomic charges:    0.0000000

LOEWDIN ATOMIC CHARGES
----------------------
   0 S :    1.389167
   1 O :    0.501801
   2 O :    0.528897
   3 N :   -0.941614
   4 C :   -0.760722
   5 C :    0.220410
   6 C :    0.220874
   7 C :   -0.603173
   8 C :   -0.046906
   9 C :    0.571053
  10 H :   -0.318172
  11 H :   -0.314193
  12 H :   -0.447421

  Mayer bond orders larger than 0.100000
B(  0-S ,  4-C ) :   1.1281 B(  0-S ,  7-C ) :   1.0259 B(  1-O ,  2-O ) :   0.1017
B(  1-O ,  3-N ) :   1.2020 B(  1-O ,  4-C ) :   0.1458 B(  2-O ,  3-N ) :   1.2154
B(  2-O ,  4-C ) :   0.1371 B(  3-N ,  4-C ) :   1.0381 B(  3-N ,  5-C ) :  -0.1491
B(  4-C ,  5-C ) :   1.3259 B(  4-C ,  6-C ) :  -0.2312 B(  4-C ,  7-C ) :  -0.2235
B(  4-C , 10-H ) :  -0.1026 B(  5-C ,  6-C ) :   1.2883 B(  5-C ,  7-C ) :  -0.2485
B(  5-C , 10-H ) :   0.8786 B(  6-C ,  7-C ) :   1.0831 B(  6-C ,  8-C ) :  -0.1013
B(  6-C , 11-H ) :   0.9513 B(  7-C ,  8-C ) :   0.9930 B(  7-C ,  9-C ) :  -0.3633
B(  8-C ,  9-C ) :   3.0309 B(  9-C , 12-H ) :   0.9279

MP2 TOTAL ENERGY:     -832.568857698 Eh
FINAL SINGLE POINT ENERGY      -832.568857697669

DIPOLE MOMENT
-------------
                                X             Y             Z
Electronic contribution:      3.36165      -3.15807      -0.00002
Nuclear contribution   :     -5.32962       3.96002       0.00002
                        -----------------------------------------
Total Dipole Moment    :     -1.96797       0.80196       0.00000
                        -----------------------------------------
Magnitude (a.u.)       :      2.12510
Magnitude (Debye)      :      5.40158

Rotational constants in cm-1:     0.120532     0.023452     0.019632
Rotational constants in MHz :  3613.453438   703.080238   588.562002

                             ****ORCA TERMINATED NORMALLY****
TOTAL RUN TIME: 0 days 0 hours 42 minutes 11 seconds 925 msec
