                         Program Version 5.0.4 -  RELEASE  -
|  1> !ri-mp2 aug-cc-pvqz aug-cc-pvqz/c tightscf
|  2> %pal nprocs 16 end
|  3>
|  4> * xyz 0 1
|  5> C      0.291567    0.213459    0.000000
|  6> N     -0.907457    1.063947    0.000000
|  7> H      1.214879    0.812042    0.000000
|  8> C      0.291567   -0.643023    1.262440
|  9> C      0.291567   -0.643023   -1.262440
| 10> H     -0.926663    1.665263   -0.815022
| 11> H     -0.926663    1.665263    0.815022
| 12> H     -0.596181   -1.276761    1.290536
| 13> H     -0.596181   -1.276761   -1.290536
| 14> H      1.176573   -1.279494    1.299902
| 15> H      1.176573   -1.279494   -1.299902
| 16> H      0.290826   -0.021081    2.160146
| 17> H      0.290826   -0.021081   -2.160146
| 18> *
| 19>
| 20>                          ****END OF INPUT****

CARTESIAN COORDINATES (ANGSTROEM)
---------------------------------
  C      0.291567    0.213459    0.000000
  N     -0.907457    1.063947    0.000000
  H      1.214879    0.812042    0.000000
  C      0.291567   -0.643023    1.262440
  C      0.291567   -0.643023   -1.262440
  H     -0.926663    1.665263   -0.815022
  H     -0.926663    1.665263    0.815022
  H     -0.596181   -1.276761    1.290536
  H     -0.596181   -1.276761   -1.290536
  H      1.176573   -1.279494    1.299902
  H      1.176573   -1.279494   -1.299902
  H      0.290826   -0.021081    2.160146
  H      0.290826   -0.021081   -2.160146

 Total Charge           Charge          ....    0
 Multiplicity           Mult            ....    1
 Number of Electrons    NEL             ....   34
 Basis Dimension        Dim             ....  734

ORBITAL ENERGIES
----------------

  NO   OCC          E(Eh)            E(eV)
   0   2.0000     -15.533499      -422.6880
   1   2.0000     -11.251297      -306.1634
   2   2.0000     -11.207430      -304.9697
   3   2.0000     -11.207416      -304.9693
   4   2.0000      -1.180273       -32.1169
   5   2.0000      -1.012309       -27.5463
   6   2.0000      -0.931107       -25.3367
   7   2.0000      -0.780372       -21.2350
   8   2.0000      -0.650914       -17.7123
   9   2.0000      -0.650404       -17.6984
  10   2.0000      -0.597372       -16.2553
  11   2.0000      -0.538177       -14.6445
  12   2.0000      -0.527629       -14.3575
  13   2.0000      -0.506575       -13.7846
  14   2.0000      -0.489963       -13.3326
  15   2.0000      -0.473802       -12.8928
  16   2.0000      -0.386376       -10.5138
  17   0.0000       0.025986         0.7071
  18   0.0000       0.034464         0.9378
  19   0.0000       0.035179         0.9573
  20   0.0000       0.037207         1.0124
  21   0.0000       0.053620         1.4591

MULLIKEN ATOMIC CHARGES
-----------------------
   0 C :    0.323574
   1 N :   -0.746216
   2 H :    0.316040
   3 C :   -0.907385
   4 C :   -0.907385
   5 H :    0.212990
   6 H :    0.212991
   7 H :    0.234968
   8 H :    0.234968
   9 H :    0.252204
  10 H :    0.252204
  11 H :    0.260523
  12 H :    0.260523
Sum of atomic charges:   -0.0000000

LOEWDIN ATOMIC CHARGES
----------------------
   0 C :   -0.083695
   1 N :    1.281415
   2 H :   -0.277104
   3 C :    0.900490
   4 C :    0.900490
   5 H :   -0.510706
   6 H :   -0.510706
   7 H :   -0.284458
   8 H :   -0.284458
   9 H :   -0.282984
  10 H :   -0.282984
  11 H :   -0.282649
  12 H :   -0.282649

  Mayer bond orders larger than 0.100000
B(  0-C ,  1-N ) :   0.6086 B(  0-C ,  2-H ) :   0.8347 B(  0-C ,  3-C ) :   0.7976
B(  0-C ,  4-C ) :   0.7976 B(  1-N ,  5-H ) :   0.9659 B(  1-N ,  6-H ) :   0.9659
B(  3-C ,  7-H ) :   0.9483 B(  3-C ,  9-H ) :   0.9910 B(  3-C , 11-H ) :   0.9674
B(  4-C ,  8-H ) :   0.9483 B(  4-C , 10-H ) :   0.9910 B(  4-C , 12-H ) :   0.9674

MP2 TOTAL ENERGY:     -174.176283114 Eh
FINAL SINGLE POINT ENERGY      -174.176283114148

DIPOLE MOMENT
-------------
                                X             Y             Z
Electronic contribution:     -0.76960       1.39455       0.00000
Nuclear contribution   :      1.18681      -1.08656       0.00000
                        -----------------------------------------
Total Dipole Moment    :      0.41720       0.30799       0.00000
                        -----------------------------------------
Magnitude (a.u.)       :      0.51857
Magnitude (Debye)      :      1.31810

Rotational constants in cm-1:     0.278015     0.265776     0.154943
Rotational constants in MHz :  8334.675571  7967.755451  4645.080603

                             ****ORCA TERMINATED NORMALLY****
TOTAL RUN TIME: 0 days 0 hours 12 minutes 28 seconds 865 msec
