                         Program Version 5.0.4 -  RELEASE  -
|  1> !ri-mp2 aug-cc-pvqz aug-cc-pvqz/c tightscf
|  2> %pal nprocs 16 end
|  3>
|  4> * xyz 0 1
|  5> C     -1.104968   -1.663429        0.000000
|  6> C     -1.932817   -0.545821        0.000000
|  7> C      0.277669   -1.523878        0.000000
|  8> C     -1.373010    0.728438        0.000000
|  9> C      0.848168   -0.256096        0.000000
| 10> C      0.000000    0.846928        0.000000
| 11> O      2.201785   -0.118858        0.000000
| 12> F      0.585079    2.077027        0.000000
| 13> H     -1.536548   -2.654610        0.000000
| 14> H     -3.007204   -0.659939        0.000000
| 15> H      0.930968   -2.385091        0.000000
| 16> H     -1.982396    1.621014        0.000000
| 17> H      2.424943    0.819401        0.000000
| 18> *
| 19>
| 20>                          ****END OF INPUT****

CARTESIAN COORDINATES (ANGSTROEM)
---------------------------------
  C     -1.104968   -1.663429    0.000000
  C     -1.932817   -0.545821    0.000000
  C      0.277669   -1.523878    0.000000
  C     -1.373010    0.728438    0.000000
  C      0.848168   -0.256096    0.000000
  C      0.000000    0.846928    0.000000
  O      2.201785   -0.118858    0.000000
  F      0.585079    2.077027    0.000000
  H     -1.536548   -2.654610    0.000000
  H     -3.007204   -0.659939    0.000000
  H      0.930968   -2.385091    0.000000
  H     -1.982396    1.621014    0.000000
  H      2.424943    0.819401    0.000000

 Total Charge           Charge          ....    0
 Multiplicity           Mult            ....    1
 Number of Electrons    NEL             ....   58
 Basis Dimension        Dim             ....  870

ORBITAL ENERGIES
----------------

  NO   OCC          E(Eh)            E(eV)
   0   2.0000     -26.317827      -716.1445
   1   2.0000     -20.597625      -560.4899
   2   2.0000     -11.326583      -308.2120
   3   2.0000     -11.313675      -307.8608
   4   2.0000     -11.251840      -306.1781
   5   2.0000     -11.245931      -306.0173
   6   2.0000     -11.242213      -305.9162
   7   2.0000     -11.241886      -305.9073
   8   2.0000      -1.632993       -44.4360
   9   2.0000      -1.415501       -38.5177
  10   2.0000      -1.165304       -31.7095
  11   2.0000      -1.034448       -28.1488
  12   2.0000      -1.020345       -27.7650
  13   2.0000      -0.866619       -23.5819
  14   2.0000      -0.850453       -23.1420
  15   2.0000      -0.773115       -21.0375
  16   2.0000      -0.733951       -19.9718
  17   2.0000      -0.705842       -19.2069
  18   2.0000      -0.703619       -19.1465
  19   2.0000      -0.655892       -17.8477
  20   2.0000      -0.628842       -17.1117
  21   2.0000      -0.616299       -16.7703
  22   2.0000      -0.597508       -16.2590
  23   2.0000      -0.583748       -15.8846
  24   2.0000      -0.539888       -14.6911
  25   2.0000      -0.515779       -14.0351
  26   2.0000      -0.496560       -13.5121
  27   2.0000      -0.352764        -9.5992
  28   2.0000      -0.327838        -8.9209
  29   0.0000       0.025131         0.6839
  30   0.0000       0.029936         0.8146
  31   0.0000       0.031151         0.8477
  32   0.0000       0.043617         1.1869
  33   0.0000       0.046723         1.2714

MULLIKEN ATOMIC CHARGES
-----------------------
   0 C :   -0.406110
   1 C :   -0.395246
   2 C :   -0.429029
   3 C :   -0.449514
   4 C :    0.822056
   5 C :    0.745275
   6 O :   -0.756987
   7 F :   -0.783066
   8 H :    0.241753
   9 H :    0.255415
  10 H :    0.367778
  11 H :    0.411653
  12 H :    0.376022
Sum of atomic charges:    0.0000000

LOEWDIN ATOMIC CHARGES
----------------------
   0 C :    0.325859
   1 C :    0.322858
   2 C :    0.317431
   3 C :    0.294173
   4 C :   -0.486502
   5 C :   -0.676655
   6 O :    1.269864
   7 F :    0.781703
   8 H :   -0.324823
   9 H :   -0.328351
  10 H :   -0.324786
  11 H :   -0.329090
  12 H :   -0.841681

  Mayer bond orders larger than 0.100000
B(  0-C ,  1-C ) :   1.2559 B(  0-C ,  2-C ) :   1.2646 B(  0-C ,  4-C ) :  -0.1946
B(  0-C ,  5-C ) :   0.1087 B(  0-C ,  8-H ) :   1.1019 B(  1-C ,  3-C ) :   1.2258
B(  1-C ,  5-C ) :  -0.1661 B(  1-C ,  9-H ) :   1.0930 B(  2-C ,  4-C ) :   1.1805
B(  2-C ,  6-O ) :   0.2190 B(  2-C ,  8-H ) :  -0.1081 B(  2-C , 10-H ) :   0.8966
B(  3-C ,  5-C ) :   1.2868 B(  3-C ,  7-F ) :   0.1093 B(  3-C ,  9-H ) :  -0.1038
B(  3-C , 11-H ) :   0.8302 B(  4-C ,  5-C ) :   1.5187 B(  4-C ,  6-O ) :   0.1190
B(  4-C ,  7-F ) :   0.2129 B(  5-C ,  6-O ) :   0.2488 B(  6-O , 12-H ) :   0.8710

MP2 TOTAL ENERGY:     -406.126470456 Eh
FINAL SINGLE POINT ENERGY      -406.126470456206

DIPOLE MOMENT
-------------
                                X             Y             Z
Electronic contribution:      3.16788       5.05726      -0.00000
Nuclear contribution   :     -3.60818      -5.16190       0.00000
                        -----------------------------------------
Total Dipole Moment    :     -0.44030      -0.10464      -0.00000
                        -----------------------------------------
Magnitude (a.u.)       :      0.45257
Magnitude (Debye)      :      1.15033

Rotational constants in cm-1:     0.111740     0.074559     0.044720
Rotational constants in MHz :  3349.887404  2235.211615  1340.657920

                             ****ORCA TERMINATED NORMALLY****
TOTAL RUN TIME: 0 days 0 hours 30 minutes 15 seconds 699 msec
