                         Program Version 5.0.4 -  RELEASE  -
|  1> !ri-mp2 aug-cc-pvqz aug-cc-pvqz/c tightscf
|  2> %pal nprocs 16 end
|  3>
|  4> * xyz 0 1
|  5> F    -2.432062   -0.840581   -0.001430
|  6> O    -1.549974    1.772119    0.004185
|  7> N     0.623463    1.045644   -0.000115
|  8> N     1.145451   -1.283249    0.004540
|  9> N     2.809376    0.312221   -0.053279
| 10> C    -0.665617    0.765530   -0.000417
| 11> C    -1.116639   -0.556241   -0.001881
| 12> C     1.480636    0.009952   -0.004752
| 13> C    -0.163020   -1.546056    0.003960
| 14> H    -1.037104    2.592592    0.000511
| 15> H     3.451036   -0.430928    0.156545
| 16> H     3.081893    1.251498    0.171878
| 17> H    -0.467661   -2.586310    0.010977
| 18> *
| 19>
| 20>                          ****END OF INPUT****

CARTESIAN COORDINATES (ANGSTROEM)
---------------------------------
  F     -2.432062   -0.840581   -0.001430
  O     -1.549974    1.772119    0.004185
  N      0.623463    1.045644   -0.000115
  N      1.145451   -1.283249    0.004540
  N      2.809376    0.312221   -0.053279
  C     -0.665617    0.765530   -0.000417
  C     -1.116639   -0.556241   -0.001881
  C      1.480636    0.009952   -0.004752
  C     -0.163020   -1.546056    0.003960
  H     -1.037104    2.592592    0.000511
  H      3.451036   -0.430928    0.156545
  H      3.081893    1.251498    0.171878
  H     -0.467661   -2.586310    0.010977

 Total Charge           Charge          ....    0
 Multiplicity           Mult            ....    1
 Number of Electrons    NEL             ....   66
 Basis Dimension        Dim             ....  904

ORBITAL ENERGIES
----------------

  NO   OCC          E(Eh)            E(eV)
   0   2.0000     -26.310034      -715.9324
   1   2.0000     -20.619311      -561.0800
   2   2.0000     -15.582033      -424.0087
   3   2.0000     -15.571145      -423.7124
   4   2.0000     -15.561488      -423.4496
   5   2.0000     -11.374236      -309.5087
   6   2.0000     -11.364998      -309.2573
   7   2.0000     -11.316746      -307.9443
   8   2.0000     -11.305054      -307.6262
   9   2.0000      -1.627769       -44.2939
  10   2.0000      -1.452794       -39.5325
  11   2.0000      -1.337692       -36.4004
  12   2.0000      -1.214696       -33.0536
  13   2.0000      -1.201520       -32.6950
  14   2.0000      -1.055956       -28.7340
  15   2.0000      -0.923135       -25.1198
  16   2.0000      -0.885583       -24.0979
  17   2.0000      -0.799258       -21.7489
  18   2.0000      -0.766507       -20.8577
  19   2.0000      -0.748526       -20.3684
  20   2.0000      -0.704835       -19.1795
  21   2.0000      -0.701485       -19.0884
  22   2.0000      -0.688638       -18.7388
  23   2.0000      -0.637740       -17.3538
  24   2.0000      -0.628756       -17.1093
  25   2.0000      -0.618149       -16.8207
  26   2.0000      -0.592069       -16.1110
  27   2.0000      -0.579055       -15.7569
  28   2.0000      -0.515749       -14.0342
  29   2.0000      -0.468639       -12.7523
  30   2.0000      -0.425789       -11.5863
  31   2.0000      -0.424579       -11.5534
  32   2.0000      -0.334069        -9.0905
  33   0.0000       0.021201         0.5769
  34   0.0000       0.030433         0.8281
  35   0.0000       0.032696         0.8897
  36   0.0000       0.047172         1.2836
  37   0.0000       0.058347         1.5877

MULLIKEN ATOMIC CHARGES
-----------------------
   0 F :   -0.762132
   1 O :   -0.768698
   2 N :   -0.658572
   3 N :   -0.550451
   4 N :   -0.761452
   5 C :    0.919299
   6 C :    0.717841
   7 C :    0.770351
   8 C :   -0.345719
   9 H :    0.380648
  10 H :    0.290728
  11 H :    0.285084
  12 H :    0.483072
Sum of atomic charges:   -0.0000000

LOEWDIN ATOMIC CHARGES
----------------------
   0 F :    0.754541
   1 O :    1.270762
   2 N :    0.585725
   3 N :    0.580627
   4 N :    1.229824
   5 C :   -0.763784
   6 C :   -0.723568
   7 C :   -0.778965
   8 C :    0.019195
   9 H :   -0.811602
  10 H :   -0.510149
  11 H :   -0.507921
  12 H :   -0.344684

  Mayer bond orders larger than 0.100000
B(  0-F ,  5-C ) :   0.1573 B(  1-O ,  2-N ) :   0.1285 B(  1-O ,  5-C ) :   0.5242
B(  1-O ,  6-C ) :   0.1914 B(  1-O ,  9-H ) :   0.8566 B(  2-N ,  5-C ) :   1.3198
B(  2-N ,  7-C ) :   1.2999 B(  3-N ,  7-C ) :   1.3577 B(  3-N ,  8-C ) :   1.1808
B(  4-N ,  7-C ) :   1.1409 B(  4-N , 10-H ) :   0.9034 B(  4-N , 11-H ) :   0.9124
B(  5-C ,  6-C ) :   1.3478 B(  6-C ,  8-C ) :   1.3641 B(  8-C , 12-H ) :   0.8150

MP2 TOTAL ENERGY:     -493.511155098 Eh
FINAL SINGLE POINT ENERGY      -493.511155098377

DIPOLE MOMENT
-------------
                                X             Y             Z
Electronic contribution:     -6.23339      -1.13444      -0.07071
Nuclear contribution   :      7.13648       1.61825       0.32752
                        -----------------------------------------
Total Dipole Moment    :      0.90309       0.48382       0.25680
                        -----------------------------------------
Magnitude (a.u.)       :      1.05622
Magnitude (Debye)      :      2.68470

Rotational constants in cm-1:     0.106541     0.047528     0.032878
Rotational constants in MHz :  3194.024533  1424.840614   985.652438

                             ****ORCA TERMINATED NORMALLY****
TOTAL RUN TIME: 0 days 0 hours 28 minutes 35 seconds 963 msec
