                         Program Version 5.0.4 -  RELEASE  -
|  1> !ri-mp2 aug-cc-pvqz aug-cc-pvqz/c tightscf
|  2> %pal nprocs 16 end
|  3>
|  4> * xyz 0 1
|  5> O     -1.068209    2.068569   -0.000013
|  6> O     -1.835661   -1.349617    0.000009
|  7> N      2.746608   -0.160912    0.000000
|  8> C      0.178758   -0.075978    0.000000
|  9> C     -0.472691    1.094157   -0.000007
| 10> C     -0.632050   -1.322264    0.000009
| 11> C      1.595368   -0.094455    0.000000
| 12> H     -0.011614   -2.233995    0.000017
| 13> *
| 14>
| 15>                          ****END OF INPUT****

CARTESIAN COORDINATES (ANGSTROEM)
---------------------------------
  O     -1.068209    2.068569   -0.000013
  O     -1.835661   -1.349617    0.000009
  N      2.746608   -0.160912    0.000000
  C      0.178758   -0.075978    0.000000
  C     -0.472691    1.094157   -0.000007
  C     -0.632050   -1.322264    0.000009
  C      1.595368   -0.094455    0.000000
  H     -0.011614   -2.233995    0.000017

 Total Charge           Charge          ....    0
 Multiplicity           Mult            ....    1
 Number of Electrons    NEL             ....   48
 Basis Dimension        Dim             ....  606

ORBITAL ENERGIES
----------------

  NO   OCC          E(Eh)            E(eV)
   0   2.0000     -20.713131      -563.6329
   1   2.0000     -20.589711      -560.2745
   2   2.0000     -15.599699      -424.4894
   3   2.0000     -11.468082      -312.0624
   4   2.0000     -11.386710      -309.8481
   5   2.0000     -11.325886      -308.1930
   6   2.0000     -11.311198      -307.7934
   7   2.0000      -1.563513       -42.5454
   8   2.0000      -1.435091       -39.0508
   9   2.0000      -1.254811       -34.1451
  10   2.0000      -1.156262       -31.4635
  11   2.0000      -0.923044       -25.1173
  12   2.0000      -0.853587       -23.2273
  13   2.0000      -0.807345       -21.9690
  14   2.0000      -0.736421       -20.0390
  15   2.0000      -0.721508       -19.6332
  16   2.0000      -0.680474       -18.5166
  17   2.0000      -0.664420       -18.0798
  18   2.0000      -0.594367       -16.1736
  19   2.0000      -0.587254       -15.9800
  20   2.0000      -0.537383       -14.6229
  21   2.0000      -0.510022       -13.8784
  22   2.0000      -0.470162       -12.7938
  23   2.0000      -0.406127       -11.0513
  24   0.0000       0.023320         0.6346
  25   0.0000       0.036936         1.0051
  26   0.0000       0.047935         1.3044
  27   0.0000       0.052069         1.4169
  28   0.0000       0.056676         1.5422

MULLIKEN ATOMIC CHARGES
-----------------------
   0 O :   -0.579918
   1 O :   -0.693068
   2 N :   -0.636260
   3 C :   -0.537632
   4 C :    1.134818
   5 C :    0.388562
   6 C :    0.498595
   7 H :    0.424902
Sum of atomic charges:    0.0000000

LOEWDIN ATOMIC CHARGES
----------------------
   0 O :    0.731073
   1 O :    0.694106
   2 N :    0.406425
   3 C :   -0.284271
   4 C :   -0.436700
   5 C :   -0.348851
   6 C :   -0.400242
   7 H :   -0.361541

  Mayer bond orders larger than 0.100000
B(  0-O ,  3-C ) :   0.1717 B(  0-O ,  4-C ) :   1.6915 B(  1-O ,  3-C ) :   0.2109
B(  1-O ,  5-C ) :   1.6197 B(  2-N ,  6-C ) :   2.4951 B(  3-C ,  4-C ) :   1.6646
B(  3-C ,  5-C ) :   0.8316 B(  3-C ,  6-C ) :   1.1919 B(  3-C ,  7-H ) :  -0.1014
B(  5-C ,  7-H ) :   0.8374

MP2 TOTAL ENERGY:     -357.664703425 Eh
FINAL SINGLE POINT ENERGY      -357.664703425313

DIPOLE MOMENT
-------------
                                X             Y             Z
Electronic contribution:     -0.24984       2.30889      -0.00002
Nuclear contribution   :     -0.03914      -2.10876       0.00002
                        -----------------------------------------
Total Dipole Moment    :     -0.28898       0.20013      -0.00000
                        -----------------------------------------
Magnitude (a.u.)       :      0.35151
Magnitude (Debye)      :      0.89347

Rotational constants in cm-1:     0.121717     0.077947     0.047517
Rotational constants in MHz :  3648.986536  2336.797942  1424.532450

                             ****ORCA TERMINATED NORMALLY****
TOTAL RUN TIME: 0 days 0 hours 8 minutes 18 seconds 790 msec
