                         Program Version 5.0.4 -  RELEASE  -
|  1> !ri-mp2 aug-cc-pvqz aug-cc-pvqz/c tightscf
|  2> %pal nprocs 16 end
|  3>
|  4> * xyz 0 1
|  5> O      4.066762    0.495957    0.360134
|  6> O     -4.066767    0.495911   -0.360185
|  7> C      0.673589   -0.167678   -0.057506
|  8> C     -0.673588   -0.167673    0.057516
|  9> C      1.882141   -0.160213   -0.149051
| 10> C     -1.882140   -0.160196    0.149061
| 11> C      3.314251   -0.185757   -0.295724
| 12> C     -3.314249   -0.185720    0.295752
| 13> H      3.682946   -0.885828   -1.064540
| 14> H     -3.682935   -0.885690    1.064664
| 15> *
| 16>
| 17>                          ****END OF INPUT****

CARTESIAN COORDINATES (ANGSTROEM)
---------------------------------
  O      4.066762    0.495957    0.360134
  O     -4.066767    0.495911   -0.360185
  C      0.673589   -0.167678   -0.057506
  C     -0.673588   -0.167673    0.057516
  C      1.882141   -0.160213   -0.149051
  C     -1.882140   -0.160196    0.149061
  C      3.314251   -0.185757   -0.295724
  C     -3.314249   -0.185720    0.295752
  H      3.682946   -0.885828   -1.064540
  H     -3.682935   -0.885690    1.064664

 Total Charge           Charge          ....    0
 Multiplicity           Mult            ....    1
 Number of Electrons    NEL             ....   54
 Basis Dimension        Dim             ....  732

ORBITAL ENERGIES
----------------

  NO   OCC          E(Eh)            E(eV)
   0   2.0000     -20.593695      -560.3829
   1   2.0000     -20.593695      -560.3829
   2   2.0000     -11.382853      -309.7432
   3   2.0000     -11.382853      -309.7432
   4   2.0000     -11.309814      -307.7557
   5   2.0000     -11.308470      -307.7191
   6   2.0000     -11.295342      -307.3619
   7   2.0000     -11.295321      -307.3613
   8   2.0000      -1.428679       -38.8763
   9   2.0000      -1.428668       -38.8760
  10   2.0000      -1.140888       -31.0451
  11   2.0000      -1.081112       -29.4186
  12   2.0000      -0.975163       -26.5355
  13   2.0000      -0.924221       -25.1493
  14   2.0000      -0.843601       -22.9555
  15   2.0000      -0.749168       -20.3859
  16   2.0000      -0.742301       -20.1990
  17   2.0000      -0.682688       -18.5769
  18   2.0000      -0.681951       -18.5568
  19   2.0000      -0.584026       -15.8922
  20   2.0000      -0.583524       -15.8785
  21   2.0000      -0.519425       -14.1343
  22   2.0000      -0.518456       -14.1079
  23   2.0000      -0.481132       -13.0923
  24   2.0000      -0.480110       -13.0644
  25   2.0000      -0.400192       -10.8898
  26   2.0000      -0.400181       -10.8895
  27   0.0000       0.018153         0.4940
  28   0.0000       0.022587         0.6146
  29   0.0000       0.023241         0.6324
  30   0.0000       0.026743         0.7277
  31   0.0000       0.051554         1.4029

MULLIKEN ATOMIC CHARGES
-----------------------
   0 O :   -0.678896
   1 O :   -0.678891
   2 C :   -0.709842
   3 C :   -0.709896
   4 C :    0.348542
   5 C :    0.348694
   6 C :    0.637717
   7 C :    0.637724
   8 H :    0.402423
   9 H :    0.402425
Sum of atomic charges:    0.0000000

LOEWDIN ATOMIC CHARGES
----------------------
   0 O :    0.669289
   1 O :    0.669288
   2 C :   -0.002288
   3 C :   -0.002288
   4 C :    0.074698
   5 C :    0.074699
   6 C :   -0.353468
   7 C :   -0.353467
   8 H :   -0.388231
   9 H :   -0.388232

  Mayer bond orders larger than 0.100000
B(  0-O ,  4-C ) :   0.2389 B(  0-O ,  6-C ) :   1.4526 B(  1-O ,  5-C ) :   0.2388
B(  1-O ,  7-C ) :   1.4526 B(  2-C ,  3-C ) :   0.1722 B(  2-C ,  4-C ) :   2.9788
B(  2-C ,  5-C ) :  -0.4832 B(  2-C ,  6-C ) :   0.1296 B(  2-C ,  7-C ) :   0.1028
B(  3-C ,  4-C ) :  -0.4833 B(  3-C ,  5-C ) :   2.9785 B(  3-C ,  6-C ) :   0.1029
B(  3-C ,  7-C ) :   0.1296 B(  4-C ,  5-C ) :   0.5044 B(  4-C ,  6-C ) :   0.7900
B(  4-C ,  7-C ) :  -0.1057 B(  4-C ,  8-H ) :  -0.1009 B(  5-C ,  6-C ) :  -0.1057
B(  5-C ,  7-C ) :   0.7901 B(  5-C ,  9-H ) :  -0.1009 B(  6-C ,  8-H ) :   0.8852
B(  7-C ,  9-H ) :   0.8852

MP2 TOTAL ENERGY:     -379.550591215 Eh
FINAL SINGLE POINT ENERGY      -379.550591215384

DIPOLE MOMENT
-------------
                                X             Y             Z
Electronic contribution:     -0.00000       0.45865      -0.00004
Nuclear contribution   :      0.00001      -1.67868       0.00012
                        -----------------------------------------
Total Dipole Moment    :      0.00001      -1.22003       0.00007
                        -----------------------------------------
Magnitude (a.u.)       :      1.22003
Magnitude (Debye)      :      3.10107

Rotational constants in cm-1:     0.817259     0.018214     0.018165
Rotational constants in MHz : 24500.800877   546.028054   544.580603

                             ****ORCA TERMINATED NORMALLY****
TOTAL RUN TIME: 0 days 0 hours 14 minutes 6 seconds 164 msec
