                         Program Version 5.0.4 -  RELEASE  -
|  1> !ri-mp2 aug-cc-pvqz aug-cc-pvqz/c tightscf
|  2> %pal nprocs 16 end
|  3>
|  4> * xyz 0 1
|  5> C     -1.639261    1.150479    0.000000
|  6> H     -2.490302    0.487611    0.000000
|  7> H     -1.809141    2.216402    0.000000
|  8> C     -0.417478    0.652524    0.000000
|  9> F      0.670083    1.440552    0.000000
| 10> C     -0.079576   -0.806625    0.000000
| 11> H     -0.974900   -1.428241    0.000000
| 12> F      0.670083   -1.123278    1.097373
| 13> F      0.670083   -1.123278   -1.097373
| 14> *
| 15>
| 16>                          ****END OF INPUT****

CARTESIAN COORDINATES (ANGSTROEM)
---------------------------------
  C     -1.639261    1.150479    0.000000
  H     -2.490302    0.487611    0.000000
  H     -1.809141    2.216402    0.000000
  C     -0.417478    0.652524    0.000000
  F      0.670083    1.440552    0.000000
  C     -0.079576   -0.806625    0.000000
  H     -0.974900   -1.428241    0.000000
  F      0.670083   -1.123278    1.097373
  F      0.670083   -1.123278   -1.097373

 Total Charge           Charge          ....    0
 Multiplicity           Mult            ....    1
 Number of Electrons    NEL             ....   48
 Basis Dimension        Dim             ....  618

ORBITAL ENERGIES
----------------

  NO   OCC          E(Eh)            E(eV)
   0   2.0000     -26.324979      -716.3391
   1   2.0000     -26.318106      -716.1521
   2   2.0000     -26.318088      -716.1516
   3   2.0000     -11.431337      -311.0625
   4   2.0000     -11.353398      -308.9417
   5   2.0000     -11.263479      -306.4948
   6   2.0000      -1.670801       -45.4648
   7   2.0000      -1.642320       -44.6898
   8   2.0000      -1.606512       -43.7154
   9   2.0000      -1.109057       -30.1790
  10   2.0000      -0.981258       -26.7014
  11   2.0000      -0.856984       -23.3197
  12   2.0000      -0.788466       -21.4553
  13   2.0000      -0.779651       -21.2154
  14   2.0000      -0.767696       -20.8901
  15   2.0000      -0.710381       -19.3305
  16   2.0000      -0.706973       -19.2377
  17   2.0000      -0.686736       -18.6870
  18   2.0000      -0.670240       -18.2382
  19   2.0000      -0.639323       -17.3969
  20   2.0000      -0.618524       -16.8309
  21   2.0000      -0.600657       -16.3447
  22   2.0000      -0.545309       -14.8386
  23   2.0000      -0.413468       -11.2510
  24   0.0000       0.021261         0.5785
  25   0.0000       0.031619         0.8604
  26   0.0000       0.042018         1.1434
  27   0.0000       0.061794         1.6815
  28   0.0000       0.067235         1.8296

MULLIKEN ATOMIC CHARGES
-----------------------
   0 C :   -0.876694
   1 H :    0.259965
   2 H :    0.454796
   3 C :    0.619376
   4 F :   -0.656128
   5 C :    1.092263
   6 H :    0.368731
   7 F :   -0.631155
   8 F :   -0.631155
Sum of atomic charges:   -0.0000000

LOEWDIN ATOMIC CHARGES
----------------------
   0 C :    0.742352
   1 H :   -0.369663
   2 H :   -0.358721
   3 C :   -0.737064
   4 F :    0.762585
   5 C :   -1.125719
   6 H :   -0.425006
   7 F :    0.755618
   8 F :    0.755618

  Mayer bond orders larger than 0.100000
B(  0-C ,  1-H ) :   0.9996 B(  0-C ,  2-H ) :   0.7990 B(  0-C ,  3-C ) :   1.6569
B(  3-C ,  4-F ) :   0.3769 B(  3-C ,  5-C ) :   0.8555 B(  5-C ,  6-H ) :   0.8334
B(  5-C ,  7-F ) :   0.4535 B(  5-C ,  8-F ) :   0.4535

MP2 TOTAL ENERGY:     -415.165559383 Eh
FINAL SINGLE POINT ENERGY      -415.165559382769

DIPOLE MOMENT
-------------
                                X             Y             Z
Electronic contribution:      5.43086      -1.84993       0.00000
Nuclear contribution   :     -6.81345       1.94444       0.00000
                        -----------------------------------------
Total Dipole Moment    :     -1.38259       0.09451       0.00000
                        -----------------------------------------
Magnitude (a.u.)       :      1.38582
Magnitude (Debye)      :      3.52248

Rotational constants in cm-1:     0.177276     0.088810     0.087165
Rotational constants in MHz :  5314.590791  2662.447088  2613.146449

                             ****ORCA TERMINATED NORMALLY****
TOTAL RUN TIME: 0 days 0 hours 8 minutes 1 seconds 392 msec
