                         Program Version 5.0.4 -  RELEASE  -
|  1> !ri-mp2 aug-cc-pvqz aug-cc-pvqz/c tightscf
|  2> %pal nprocs 16 end
|  3>
|  4> * xyz 0 1
|  5> C     1.685700   -1.598566    0.155043
|  6> C     1.000120   -0.422584   -0.529065
|  7> C     1.568891    0.929035   -0.216112
|  8> C     0.733478    1.900514    0.142277
|  9> C    -0.724568    1.573344    0.203570
| 10> S    -0.774100   -0.249045   -0.007386
| 11> O    -0.956176   -0.865654    1.303800
| 12> O    -1.661019   -0.613275   -1.108479
| 13> H     1.194401   -2.537785   -0.094112
| 14> H     2.721514   -1.657362   -0.182632
| 15> H     1.674864   -1.482978    1.236789
| 16> H     0.941234   -0.587664   -1.606882
| 17> H     2.639629    1.076501   -0.276618
| 18> H     1.070634    2.897063    0.393682
| 19> H    -1.307196    2.010364   -0.607179
| 20> H    -1.193646    1.807560    1.158274
| 21> *
| 22>
| 23>                          ****END OF INPUT****

CARTESIAN COORDINATES (ANGSTROEM)
---------------------------------
  C      1.685700   -1.598566    0.155043
  C      1.000120   -0.422584   -0.529065
  C      1.568891    0.929035   -0.216112
  C      0.733478    1.900514    0.142277
  C     -0.724568    1.573344    0.203570
  S     -0.774100   -0.249045   -0.007386
  O     -0.956176   -0.865654    1.303800
  O     -1.661019   -0.613275   -1.108479
  H      1.194401   -2.537785   -0.094112
  H      2.721514   -1.657362   -0.182632
  H      1.674864   -1.482978    1.236789
  H      0.941234   -0.587664   -1.606882
  H      2.639629    1.076501   -0.276618
  H      1.070634    2.897063    0.393682
  H     -1.307196    2.010364   -0.607179
  H     -1.193646    1.807560    1.158274

 Total Charge           Charge          ....    0
 Multiplicity           Mult            ....    1
 Number of Electrons    NEL             ....   70
 Basis Dimension        Dim             .... 1012

ORBITAL ENERGIES
----------------

  NO   OCC          E(Eh)            E(eV)
   0   2.0000     -92.166586     -2507.9803
   1   2.0000     -20.541340      -558.9583
   2   2.0000     -20.540568      -558.9373
   3   2.0000     -11.289115      -307.1924
   4   2.0000     -11.283339      -307.0353
   5   2.0000     -11.270041      -306.6734
   6   2.0000     -11.266991      -306.5904
   7   2.0000     -11.240349      -305.8654
   8   2.0000      -9.137216      -248.6363
   9   2.0000      -6.822348      -185.6455
  10   2.0000      -6.821532      -185.6233
  11   2.0000      -6.821276      -185.6164
  12   2.0000      -1.436934       -39.1010
  13   2.0000      -1.327517       -36.1236
  14   2.0000      -1.164278       -31.6816
  15   2.0000      -1.061483       -28.8844
  16   2.0000      -0.986091       -26.8329
  17   2.0000      -0.920171       -25.0391
  18   2.0000      -0.801800       -21.8181
  19   2.0000      -0.781105       -21.2549
  20   2.0000      -0.707017       -19.2389
  21   2.0000      -0.665724       -18.1153
  22   2.0000      -0.650995       -17.7145
  23   2.0000      -0.635110       -17.2822
  24   2.0000      -0.621421       -16.9097
  25   2.0000      -0.607420       -16.5287
  26   2.0000      -0.585705       -15.9378
  27   2.0000      -0.561408       -15.2767
  28   2.0000      -0.553677       -15.0663
  29   2.0000      -0.522827       -14.2268
  30   2.0000      -0.489644       -13.3239
  31   2.0000      -0.484147       -13.1743
  32   2.0000      -0.467291       -12.7156
  33   2.0000      -0.419335       -11.4107
  34   2.0000      -0.392341       -10.6761
  35   0.0000       0.018142         0.4937
  36   0.0000       0.024950         0.6789
  37   0.0000       0.033299         0.9061
  38   0.0000       0.035184         0.9574
  39   0.0000       0.043626         1.1871

MULLIKEN ATOMIC CHARGES
-----------------------
   0 C :   -0.894662
   1 C :    0.047004
   2 C :   -0.582934
   3 C :   -0.418867
   4 C :   -0.556930
   5 S :    2.438666
   6 O :   -1.295271
   7 O :   -1.335635
   8 H :    0.240034
   9 H :    0.294566
  10 H :    0.239023
  11 H :    0.390555
  12 H :    0.405676
  13 H :    0.392105
  14 H :    0.331274
  15 H :    0.305395
Sum of atomic charges:   -0.0000000

LOEWDIN ATOMIC CHARGES
----------------------
   0 C :    0.886050
   1 C :    0.005316
   2 C :    0.338431
   3 C :    0.353970
   4 C :    0.426289
   5 S :   -0.149851
   6 O :    0.303539
   7 O :    0.285033
   8 H :   -0.280580
   9 H :   -0.280043
  10 H :   -0.299710
  11 H :   -0.330169
  12 H :   -0.302176
  13 H :   -0.307208
  14 H :   -0.324285
  15 H :   -0.324607

  Mayer bond orders larger than 0.100000
B(  0-C ,  1-C ) :   0.8980 B(  0-C ,  8-H ) :   0.9862 B(  0-C ,  9-H ) :   0.9488
B(  0-C , 10-H ) :   0.9578 B(  1-C ,  2-C ) :   0.7621 B(  1-C ,  3-C ) :  -0.1512
B(  1-C ,  5-S ) :   0.8108 B(  1-C ,  6-O ) :  -0.1298 B(  1-C , 11-H ) :   0.7436
B(  2-C ,  3-C ) :   1.6935 B(  2-C , 12-H ) :   0.8642 B(  3-C ,  4-C ) :   0.9223
B(  3-C , 13-H ) :   0.8771 B(  4-C ,  5-S ) :   0.9477 B(  4-C , 14-H ) :   0.8498
B(  4-C , 15-H ) :   0.8848 B(  5-S ,  6-O ) :   0.9212 B(  5-S ,  7-O ) :   0.8516

MP2 TOTAL ENERGY:     -742.979000675 Eh
FINAL SINGLE POINT ENERGY      -742.979000675468

DIPOLE MOMENT
-------------
                                X             Y             Z
Electronic contribution:     -6.02574      -0.17754      -0.24977
Nuclear contribution   :      7.68246       1.50194       0.02450
                        -----------------------------------------
Total Dipole Moment    :      1.65672       1.32440      -0.22527
                        -----------------------------------------
Magnitude (a.u.)       :      2.13295
Magnitude (Debye)      :      5.42154

Rotational constants in cm-1:     0.076624     0.067171     0.047471
Rotational constants in MHz :  2297.129332  2013.720992  1423.138732

                             ****ORCA TERMINATED NORMALLY****
TOTAL RUN TIME: 0 days 0 hours 51 minutes 7 seconds 657 msec
