                         Program Version 5.0.4 -  RELEASE  -
|  1> !ri-mp2 aug-cc-pvqz aug-cc-pvqz/c tightscf
|  2> %pal nprocs 16 end
|  3>
|  4> * xyz 0 1
|  5> C      2.814804   -0.001719   -0.301389
|  6> C      2.134649   -1.200607   -0.119441
|  7> C      2.136199    1.201043   -0.142617
|  8> C      0.785938   -1.194095    0.216238
|  9> C      0.787279    1.201961    0.193344
| 10> C      0.091182    0.006113    0.377674
| 11> C     -1.382308    0.006570    0.699381
| 12> C     -2.252301   -0.022112   -0.563342
| 13> O     -3.645434   -0.085015   -0.273276
| 14> H      3.864982   -0.004812   -0.560108
| 15> H      2.655224   -2.142017   -0.234918
| 16> H      2.657691    2.139541   -0.276374
| 17> H      0.266470   -2.133322    0.361844
| 18> H      0.269747    2.144962    0.321584
| 19> H     -1.634273    0.897699    1.281212
| 20> H     -1.639570   -0.859511    1.311331
| 21> H     -2.033440   -0.917594   -1.144566
| 22> H     -2.023001    0.842586   -1.195287
| 23> H     -3.913002    0.729665    0.162405
| 24> *
| 25>
| 26>                          ****END OF INPUT****

CARTESIAN COORDINATES (ANGSTROEM)
---------------------------------
  C      2.814804   -0.001719   -0.301389
  C      2.134649   -1.200607   -0.119441
  C      2.136199    1.201043   -0.142617
  C      0.785938   -1.194095    0.216238
  C      0.787279    1.201961    0.193344
  C      0.091182    0.006113    0.377674
  C     -1.382308    0.006570    0.699381
  C     -2.252301   -0.022112   -0.563342
  O     -3.645434   -0.085015   -0.273276
  H      3.864982   -0.004812   -0.560108
  H      2.655224   -2.142017   -0.234918
  H      2.657691    2.139541   -0.276374
  H      0.266470   -2.133322    0.361844
  H      0.269747    2.144962    0.321584
  H     -1.634273    0.897699    1.281212
  H     -1.639570   -0.859511    1.311331
  H     -2.033440   -0.917594   -1.144566
  H     -2.023001    0.842586   -1.195287
  H     -3.913002    0.729665    0.162405

 Total Charge           Charge          ....    0
 Multiplicity           Mult            ....    1
 Number of Electrons    NEL             ....   66
 Basis Dimension        Dim             .... 1180

ORBITAL ENERGIES
----------------

  NO   OCC          E(Eh)            E(eV)
   0   2.0000     -20.556391      -559.3678
   1   2.0000     -11.277009      -306.8630
   2   2.0000     -11.243107      -305.9405
   3   2.0000     -11.235785      -305.7413
   4   2.0000     -11.235429      -305.7316
   5   2.0000     -11.232975      -305.6648
   6   2.0000     -11.232399      -305.6491
   7   2.0000     -11.232128      -305.6418
   8   2.0000     -11.230702      -305.6029
   9   2.0000      -1.358512       -36.9670
  10   2.0000      -1.159679       -31.5565
  11   2.0000      -1.063899       -28.9502
  12   2.0000      -1.017069       -27.6759
  13   2.0000      -0.976256       -26.5653
  14   2.0000      -0.864781       -23.5319
  15   2.0000      -0.830666       -22.6036
  16   2.0000      -0.797859       -21.7108
  17   2.0000      -0.700261       -19.0551
  18   2.0000      -0.693858       -18.8808
  19   2.0000      -0.645599       -17.5677
  20   2.0000      -0.639436       -17.3999
  21   2.0000      -0.609111       -16.5747
  22   2.0000      -0.598941       -16.2980
  23   2.0000      -0.588081       -16.0025
  24   2.0000      -0.556987       -15.1564
  25   2.0000      -0.543546       -14.7906
  26   2.0000      -0.510159       -13.8821
  27   2.0000      -0.494504       -13.4561
  28   2.0000      -0.490034       -13.3345
  29   2.0000      -0.478328       -13.0160
  30   2.0000      -0.446855       -12.1595
  31   2.0000      -0.339788        -9.2461
  32   2.0000      -0.330739        -8.9999
  33   0.0000       0.023528         0.6402
  34   0.0000       0.026752         0.7280
  35   0.0000       0.029847         0.8122
  36   0.0000       0.037593         1.0230
  37   0.0000       0.039447         1.0734

MULLIKEN ATOMIC CHARGES
-----------------------
   0 C :   -0.316583
   1 C :   -0.289643
   2 C :   -0.295097
   3 C :   -0.575037
   4 C :   -0.535028
   5 C :    0.496992
   6 C :   -0.373652
   7 C :    0.150043
   8 O :   -0.889303
   9 H :    0.330903
  10 H :    0.248125
  11 H :    0.242901
  12 H :    0.261568
  13 H :    0.279095
  14 H :    0.187560
  15 H :    0.251266
  16 H :    0.284907
  17 H :    0.198465
  18 H :    0.342518
Sum of atomic charges:   -0.0000000

LOEWDIN ATOMIC CHARGES
----------------------
   0 C :    0.336649
   1 C :    0.345633
   2 C :    0.344538
   3 C :    0.346881
   4 C :    0.345244
   5 C :   -0.085535
   6 C :    0.482040
   7 C :    0.196778
   8 O :    1.271426
   9 H :   -0.325786
  10 H :   -0.322423
  11 H :   -0.322832
  12 H :   -0.314669
  13 H :   -0.316282
  14 H :   -0.293423
  15 H :   -0.291414
  16 H :   -0.312872
  17 H :   -0.289433
  18 H :   -0.794518

  Mayer bond orders larger than 0.100000
B(  0-C ,  1-C ) :   1.1240 B(  0-C ,  2-C ) :   1.1335 B(  0-C ,  9-H ) :   1.0004
B(  0-C , 10-H ) :  -0.1013 B(  0-C , 11-H ) :  -0.1016 B(  1-C ,  3-C ) :   1.3803
B(  1-C ,  4-C ) :   0.1535 B(  1-C ,  5-C ) :  -0.3092 B(  1-C , 10-H ) :   1.1225
B(  2-C ,  3-C ) :   0.1546 B(  2-C ,  4-C ) :   1.3765 B(  2-C ,  5-C ) :  -0.3259
B(  2-C , 11-H ) :   1.1300 B(  3-C ,  5-C ) :   0.9781 B(  3-C ,  6-C ) :  -0.2131
B(  3-C , 10-H ) :  -0.1264 B(  3-C , 12-H ) :   1.0012 B(  4-C ,  5-C ) :   0.9644
B(  4-C ,  6-C ) :  -0.2076 B(  4-C , 11-H ) :  -0.1287 B(  4-C , 13-H ) :   0.9725
B(  5-C ,  6-C ) :   0.8003 B(  6-C ,  7-C ) :   0.9888 B(  6-C , 14-H ) :   0.9837
B(  6-C , 15-H ) :   0.9460 B(  7-C ,  8-O ) :   0.5593 B(  7-C , 16-H ) :   0.8871
B(  7-C , 17-H ) :   0.9382 B(  8-O , 18-H ) :   0.8735

MP2 TOTAL ENERGY:     -385.431446831 Eh
FINAL SINGLE POINT ENERGY      -385.431446831329

DIPOLE MOMENT
-------------
                                X             Y             Z
Electronic contribution:      1.99847      -0.21916       0.15109
Nuclear contribution   :     -1.60983       0.70603       0.02315
                        -----------------------------------------
Total Dipole Moment    :      0.38864       0.48686       0.17424
                        -----------------------------------------
Magnitude (a.u.)       :      0.64687
Magnitude (Debye)      :      1.64421

Rotational constants in cm-1:     0.148796     0.028252     0.025309
Rotational constants in MHz :  4460.778956   846.972594   758.735299

                             ****ORCA TERMINATED NORMALLY****
TOTAL RUN TIME: 0 days 1 hours 18 minutes 11 seconds 684 msec
