                         Program Version 5.0.4 -  RELEASE  -
|  1> !ri-mp2 aug-cc-pvqz aug-cc-pvqz/c tightscf
|  2> %pal nprocs 16 end
|  3>
|  4> * xyz 0 1
|  5> C      2.666741    0.979974    0.000000
|  6> C      1.486493    0.014956    0.000000
|  7> C     -1.390067   -1.170055    1.269098
|  8> C     -1.390067   -1.170055   -1.269098
|  9> S     -0.074320    0.976753    0.000000
| 10> C     -1.390067   -0.320258    0.000000
| 11> H      3.605889    0.424701    0.000000
| 12> H     -2.287687    0.301951    0.000000
| 13> H     -1.434533   -0.547568    2.161409
| 14> H     -1.434533   -0.547568   -2.161409
| 15> H      2.652471    1.620505    0.882058
| 16> H      2.652471    1.620505   -0.882058
| 17> H      1.518737   -0.621415   -0.883489
| 18> H      1.518737   -0.621415    0.883489
| 19> H     -2.253602   -1.839615    1.272426
| 20> H     -2.253602   -1.839615   -1.272426
| 21> H     -0.496721   -1.792940    1.332175
| 22> H     -0.496721   -1.792940   -1.332175
| 23> *
| 24>
| 25>                          ****END OF INPUT****

CARTESIAN COORDINATES (ANGSTROEM)
---------------------------------
  C      2.666741    0.979974    0.000000
  C      1.486493    0.014956    0.000000
  C     -1.390067   -1.170055    1.269098
  C     -1.390067   -1.170055   -1.269098
  S     -0.074320    0.976753    0.000000
  C     -1.390067   -0.320258    0.000000
  H      3.605889    0.424701    0.000000
  H     -2.287687    0.301951    0.000000
  H     -1.434533   -0.547568    2.161409
  H     -1.434533   -0.547568   -2.161409
  H      2.652471    1.620505    0.882058
  H      2.652471    1.620505   -0.882058
  H      1.518737   -0.621415   -0.883489
  H      1.518737   -0.621415    0.883489
  H     -2.253602   -1.839615    1.272426
  H     -2.253602   -1.839615   -1.272426
  H     -0.496721   -1.792940    1.332175
  H     -0.496721   -1.792940   -1.332175

 Total Charge           Charge          ....    0
 Multiplicity           Mult            ....    1
 Number of Electrons    NEL             ....   58
 Basis Dimension        Dim             .... 1036

ORBITAL ENERGIES
----------------

  NO   OCC          E(Eh)            E(eV)
   0   2.0000     -91.931019     -2501.5702
   1   2.0000     -11.260293      -306.4082
   2   2.0000     -11.250876      -306.1519
   3   2.0000     -11.219695      -305.3034
   4   2.0000     -11.218235      -305.2637
   5   2.0000     -11.218218      -305.2632
   6   2.0000      -8.932918      -243.0771
   7   2.0000      -6.614432      -179.9878
   8   2.0000      -6.613492      -179.9623
   9   2.0000      -6.612710      -179.9410
  10   2.0000      -1.094717       -29.7888
  11   2.0000      -1.042480       -28.3673
  12   2.0000      -0.938379       -25.5346
  13   2.0000      -0.921965       -25.0879
  14   2.0000      -0.832848       -22.6629
  15   2.0000      -0.753171       -20.4948
  16   2.0000      -0.627814       -17.0837
  17   2.0000      -0.624933       -17.0053
  18   2.0000      -0.611161       -16.6305
  19   2.0000      -0.570990       -15.5374
  20   2.0000      -0.565556       -15.3896
  21   2.0000      -0.543659       -14.7937
  22   2.0000      -0.524565       -14.2741
  23   2.0000      -0.504690       -13.7333
  24   2.0000      -0.503192       -13.6926
  25   2.0000      -0.491309       -13.3692
  26   2.0000      -0.444834       -12.1045
  27   2.0000      -0.410377       -11.1669
  28   2.0000      -0.331413        -9.0182
  29   0.0000       0.025573         0.6959
  30   0.0000       0.029270         0.7965
  31   0.0000       0.034010         0.9255
  32   0.0000       0.034750         0.9456
  33   0.0000       0.045940         1.2501

MULLIKEN ATOMIC CHARGES
-----------------------
   0 C :   -0.796553
   1 C :   -0.411935
   2 C :   -0.943112
   3 C :   -0.943112
   4 S :   -0.152797
   5 C :    0.038926
   6 H :    0.264675
   7 H :    0.311226
   8 H :    0.261983
   9 H :    0.261983
  10 H :    0.234632
  11 H :    0.234632
  12 H :    0.271721
  13 H :    0.271721
  14 H :    0.310403
  15 H :    0.310403
  16 H :    0.237603
  17 H :    0.237603
Sum of atomic charges:    0.0000000

LOEWDIN ATOMIC CHARGES
----------------------
   0 C :    0.822526
   1 C :    0.149708
   2 C :    0.842716
   3 C :    0.842716
   4 S :    1.368090
   5 C :   -0.239002
   6 H :   -0.290563
   7 H :   -0.390160
   8 H :   -0.295073
   9 H :   -0.295073
  10 H :   -0.306000
  11 H :   -0.306000
  12 H :   -0.362032
  13 H :   -0.362032
  14 H :   -0.282772
  15 H :   -0.282772
  16 H :   -0.307138
  17 H :   -0.307138

  Mayer bond orders larger than 0.100000
B(  0-C ,  1-C ) :   0.7755 B(  0-C ,  6-H ) :   0.9927 B(  0-C , 10-H ) :   0.9753
B(  0-C , 11-H ) :   0.9753 B(  1-C ,  4-S ) :   0.8601 B(  1-C ,  6-H ) :  -0.1017
B(  1-C , 12-H ) :   0.8719 B(  1-C , 13-H ) :   0.8719 B(  2-C ,  5-C ) :   0.8654
B(  2-C ,  8-H ) :   0.9862 B(  2-C , 14-H ) :   0.9106 B(  2-C , 16-H ) :   0.9503
B(  3-C ,  5-C ) :   0.8654 B(  3-C ,  9-H ) :   0.9862 B(  3-C , 15-H ) :   0.9106
B(  3-C , 17-H ) :   0.9503 B(  4-S ,  5-C ) :   0.8882 B(  5-C ,  7-H ) :   0.8129

MP2 TOTAL ENERGY:     -595.106444809 Eh
FINAL SINGLE POINT ENERGY      -595.106444809122

DIPOLE MOMENT
-------------
                                X             Y             Z
Electronic contribution:     -1.29075       5.21320       0.00000
Nuclear contribution   :      1.35174      -5.92201       0.00000
                        -----------------------------------------
Total Dipole Moment    :      0.06099      -0.70881       0.00000
                        -----------------------------------------
Magnitude (a.u.)       :      0.71143
Magnitude (Debye)      :      1.80832

Rotational constants in cm-1:     0.157134     0.051078     0.049736
Rotational constants in MHz :  4710.765123  1531.281551  1491.061803

                             ****ORCA TERMINATED NORMALLY****
TOTAL RUN TIME: 0 days 0 hours 49 minutes 6 seconds 475 msec
