                         Program Version 5.0.4 -  RELEASE  -
|  1> !ri-mp2 aug-cc-pvqz aug-cc-pvqz/c tightscf
|  2> %pal nprocs 16 end
|  3> %maxcore 3800
|  4>
|  5> * xyz 0 1
|  6> O      1.156985    1.267774    1.230191
|  7> S      0.843996    0.000062    0.585576
|  8> C      1.650805   -0.000061   -1.080985
|  9> C      3.089778   -0.000082   -0.968083
| 10> C      4.283059   -0.000104   -0.864662
| 11> O      1.157003   -1.267545    1.230387
| 12> C     -0.900255    0.000015    0.152344
| 13> C     -1.559782   -1.213746   -0.004980
| 14> C     -2.908652   -1.207188   -0.338370
| 15> C     -3.579238   -0.000063   -0.507878
| 16> C     -2.908689    1.207101   -0.338507
| 17> C     -1.559819    1.213738   -0.005118
| 18> H      1.278876    0.889853   -1.588820
| 19> H      1.278846   -0.890027   -1.588706
| 20> H      5.340191   -0.000125   -0.768376
| 21> H     -1.026919   -2.140103    0.154686
| 22> H     -3.436604   -2.143231   -0.457340
| 23> H     -4.629833   -0.000093   -0.764710
| 24> H     -3.436669    2.143114   -0.457585
| 25> H     -1.026981    2.140129    0.154442
| 26> *
| 27>
| 28>                          ****END OF INPUT****

CARTESIAN COORDINATES (ANGSTROEM)
---------------------------------
  O      1.156985    1.267774    1.230191
  S      0.843996    0.000062    0.585576
  C      1.650805   -0.000061   -1.080985
  C      3.089778   -0.000082   -0.968083
  C      4.283059   -0.000104   -0.864662
  O      1.157003   -1.267545    1.230387
  C     -0.900255    0.000015    0.152344
  C     -1.559782   -1.213746   -0.004980
  C     -2.908652   -1.207188   -0.338370
  C     -3.579238   -0.000063   -0.507878
  C     -2.908689    1.207101   -0.338507
  C     -1.559819    1.213738   -0.005118
  H      1.278876    0.889853   -1.588820
  H      1.278846   -0.890027   -1.588706
  H      5.340191   -0.000125   -0.768376
  H     -1.026919   -2.140103    0.154686
  H     -3.436604   -2.143231   -0.457340
  H     -4.629833   -0.000093   -0.764710
  H     -3.436669    2.143114   -0.457585
  H     -1.026981    2.140129    0.154442

 Total Charge           Charge          ....    0
 Multiplicity           Mult            ....    1
 Number of Electrons    NEL             ....   94
 Basis Dimension        Dim             .... 1332

ORBITAL ENERGIES
----------------

  NO   OCC          E(Eh)            E(eV)
   0   2.0000     -92.180504     -2508.3590
   1   2.0000     -20.545632      -559.0751
   2   2.0000     -20.545612      -559.0745
   3   2.0000     -11.305860      -307.6481
   4   2.0000     -11.284043      -307.0544
   5   2.0000     -11.270697      -306.6913
   6   2.0000     -11.270624      -306.6893
   7   2.0000     -11.267274      -306.5981
   8   2.0000     -11.260942      -306.4258
   9   2.0000     -11.260812      -306.4223
  10   2.0000     -11.250376      -306.1383
  11   2.0000     -11.241109      -305.8861
  12   2.0000      -9.149408      -248.9681
  13   2.0000      -6.834736      -185.9826
  14   2.0000      -6.834195      -185.9679
  15   2.0000      -6.833668      -185.9535
  16   2.0000      -1.445399       -39.3313
  17   2.0000      -1.336005       -36.3545
  18   2.0000      -1.189575       -32.3700
  19   2.0000      -1.101842       -29.9826
  20   2.0000      -1.061886       -28.8954
  21   2.0000      -1.049210       -28.5505
  22   2.0000      -1.000157       -27.2156
  23   2.0000      -0.901502       -24.5311
  24   2.0000      -0.860964       -23.4280
  25   2.0000      -0.815274       -22.1847
  26   2.0000      -0.741536       -20.1782
  27   2.0000      -0.740850       -20.1596
  28   2.0000      -0.688899       -18.7459
  29   2.0000      -0.678769       -18.4702
  30   2.0000      -0.672289       -18.2939
  31   2.0000      -0.652198       -17.7472
  32   2.0000      -0.651333       -17.7237
  33   2.0000      -0.637329       -17.3426
  34   2.0000      -0.620968       -16.8974
  35   2.0000      -0.615811       -16.7571
  36   2.0000      -0.551226       -14.9996
  37   2.0000      -0.537957       -14.6386
  38   2.0000      -0.527764       -14.3612
  39   2.0000      -0.501962       -13.6591
  40   2.0000      -0.499861       -13.6019
  41   2.0000      -0.474718       -12.9177
  42   2.0000      -0.456243       -12.4150
  43   2.0000      -0.406606       -11.0643
  44   2.0000      -0.398525       -10.8444
  45   2.0000      -0.375277       -10.2118
  46   2.0000      -0.367054        -9.9881
  47   0.0000       0.017089         0.4650
  48   0.0000       0.025524         0.6946
  49   0.0000       0.026636         0.7248
  50   0.0000       0.031812         0.8656
  51   0.0000       0.037913         1.0317

MULLIKEN ATOMIC CHARGES
-----------------------
   0 O :   -1.373997
   1 S :    2.928696
   2 C :   -0.256606
   3 C :    0.006722
   4 C :   -0.888731
   5 O :   -1.373980
   6 C :   -0.102202
   7 C :   -0.414275
   8 C :   -0.302787
   9 C :   -0.326663
  10 C :   -0.302976
  11 C :   -0.414626
  12 H :    0.415694
  13 H :    0.415691
  14 H :    0.391757
  15 H :    0.384124
  16 H :    0.235605
  17 H :    0.358860
  18 H :    0.235552
  19 H :    0.384142
Sum of atomic charges:   -0.0000000

LOEWDIN ATOMIC CHARGES
----------------------
   0 O :    0.315630
   1 S :   -0.209769
   2 C :    0.331870
   3 C :    0.042195
   4 C :    0.579573
   5 O :    0.315630
   6 C :   -0.235489
   7 C :    0.288165
   8 C :    0.358468
   9 C :    0.351828
  10 C :    0.358468
  11 C :    0.288167
  12 H :   -0.348265
  13 H :   -0.348267
  14 H :   -0.451688
  15 H :   -0.341982
  16 H :   -0.318655
  17 H :   -0.315241
  18 H :   -0.318655
  19 H :   -0.341982

  Mayer bond orders larger than 0.100000
B(  0-O ,  1-S ) :   0.7760 B(  0-O , 11-C ) :   0.1015 B(  1-S ,  2-C ) :   1.0035
B(  1-S ,  3-C ) :  -0.1344 B(  1-S ,  5-O ) :   0.7761 B(  1-S ,  6-C ) :   0.8826
B(  1-S ,  7-C ) :  -0.1608 B(  1-S , 11-C ) :  -0.1607 B(  2-C ,  3-C ) :   0.6157
B(  2-C ,  4-C ) :  -0.4852 B(  2-C ,  6-C ) :  -0.1289 B(  2-C , 12-H ) :   0.7497
B(  2-C , 13-H ) :   0.7497 B(  3-C ,  4-C ) :   2.6848 B(  3-C , 14-H ) :  -0.1230
B(  4-C , 14-H ) :   1.0438 B(  5-O ,  7-C ) :   0.1016 B(  6-C ,  7-C ) :   0.9250
B(  6-C ,  8-C ) :  -0.3209 B(  6-C , 10-C ) :  -0.3208 B(  6-C , 11-C ) :   0.9251
B(  6-C , 15-H ) :  -0.1091 B(  6-C , 19-H ) :  -0.1092 B(  7-C ,  8-C ) :   1.3776
B(  7-C , 10-C ) :   0.1187 B(  7-C , 15-H ) :   0.8510 B(  7-C , 16-H ) :  -0.1192
B(  8-C ,  9-C ) :   1.1353 B(  8-C , 11-C ) :   0.1187 B(  8-C , 16-H ) :   1.1351
B(  9-C , 10-C ) :   1.1355 B(  9-C , 16-H ) :  -0.1086 B(  9-C , 17-H ) :   0.9696
B(  9-C , 18-H ) :  -0.1086 B( 10-C , 11-C ) :   1.3779 B( 10-C , 18-H ) :   1.1351
B( 11-C , 18-H ) :  -0.1192 B( 11-C , 19-H ) :   0.8509

MP2 TOTAL ENERGY:     -895.077091083 Eh
FINAL SINGLE POINT ENERGY      -895.077091082648

DIPOLE MOMENT
-------------
                                X             Y             Z
Electronic contribution:      4.18591       0.00032       3.46868
Nuclear contribution   :     -5.53325      -0.00047      -5.18749
                        -----------------------------------------
Total Dipole Moment    :     -1.34734      -0.00015      -1.71881
                        -----------------------------------------
Magnitude (a.u.)       :      2.18395
Magnitude (Debye)      :      5.55115

Rotational constants in cm-1:     0.067888     0.016139     0.015609
Rotational constants in MHz :  2035.227937   483.839398   467.940154

                             ****ORCA TERMINATED NORMALLY****
TOTAL RUN TIME: 0 days 2 hours 1 minutes 42 seconds 747 msec
