                         Program Version 5.0.4 -  RELEASE  -
|  1> !ri-mp2 aug-cc-pvqz aug-cc-pvqz/c tightscf
|  2> %pal nprocs 16 end
|  3>
|  4> * xyz 0 1
|  5> C     -1.368345   -0.812936    0.080163
|  6> H     -1.906003   -1.388570   -0.670058
|  7> H     -1.661689   -1.161174    1.072427
|  8> O      0.046311   -1.092004   -0.079668
|  9> C     -1.532303    0.714437   -0.061297
| 10> H     -2.174500    1.121723    0.721203
| 11> H     -1.979486    0.993680   -1.020378
| 12> C     -0.096949    1.168984    0.041568
| 13> H      0.227483    2.195282    0.084198
| 14> C      2.190006    0.000476    0.008583
| 15> H      2.539202   -0.503258   -0.895119
| 16> H      2.646994    0.986271    0.059826
| 17> H      2.528636   -0.591735    0.860936
| 18> C      0.709071    0.109674    0.001700
| 19> *
| 20>
| 21>                          ****END OF INPUT****

CARTESIAN COORDINATES (ANGSTROEM)
---------------------------------
  C     -1.368345   -0.812936    0.080163
  H     -1.906003   -1.388570   -0.670058
  H     -1.661689   -1.161174    1.072427
  O      0.046311   -1.092004   -0.079668
  C     -1.532303    0.714437   -0.061297
  H     -2.174500    1.121723    0.721203
  H     -1.979486    0.993680   -1.020378
  C     -0.096949    1.168984    0.041568
  H      0.227483    2.195282    0.084198
  C      2.190006    0.000476    0.008583
  H      2.539202   -0.503258   -0.895119
  H      2.646994    0.986271    0.059826
  H      2.528636   -0.591735    0.860936
  C      0.709071    0.109674    0.001700

 Total Charge           Charge          ....    0
 Multiplicity           Mult            ....    1
 Number of Electrons    NEL             ....   46
 Basis Dimension        Dim             ....  848

ORBITAL ENERGIES
----------------

  NO   OCC          E(Eh)            E(eV)
   0   2.0000     -20.565062      -559.6038
   1   2.0000     -11.284466      -307.0659
   2   2.0000     -11.277349      -306.8723
   3   2.0000     -11.228075      -305.5315
   4   2.0000     -11.224488      -305.4338
   5   2.0000     -11.204497      -304.8899
   6   2.0000      -1.395286       -37.9677
   7   2.0000      -1.063327       -28.9346
   8   2.0000      -1.035056       -28.1653
   9   2.0000      -0.928750       -25.2726
  10   2.0000      -0.825471       -22.4622
  11   2.0000      -0.738006       -20.0822
  12   2.0000      -0.673684       -18.3319
  13   2.0000      -0.665788       -18.1170
  14   2.0000      -0.601167       -16.3586
  15   2.0000      -0.578594       -15.7443
  16   2.0000      -0.546483       -14.8706
  17   2.0000      -0.540487       -14.7074
  18   2.0000      -0.526870       -14.3369
  19   2.0000      -0.511487       -13.9183
  20   2.0000      -0.485834       -13.2202
  21   2.0000      -0.480344       -13.0708
  22   2.0000      -0.316949        -8.6246
  23   0.0000       0.027230         0.7410
  24   0.0000       0.030718         0.8359
  25   0.0000       0.034391         0.9358
  26   0.0000       0.037107         1.0097
  27   0.0000       0.047731         1.2988

MULLIKEN ATOMIC CHARGES
-----------------------
   0 C :   -0.262650
   1 H :    0.334815
   2 H :    0.282526
   3 O :   -0.752352
   4 C :   -0.503337
   5 H :    0.253761
   6 H :    0.292780
   7 C :   -0.636066
   8 H :    0.348078
   9 C :   -0.626829
  10 H :    0.264766
  11 H :    0.215134
  12 H :    0.253958
  13 C :    0.535417
Sum of atomic charges:   -0.0000000

LOEWDIN ATOMIC CHARGES
----------------------
   0 C :    0.202576
   1 H :   -0.296027
   2 H :   -0.295057
   3 O :    0.873456
   4 C :    0.475344
   5 H :   -0.285474
   6 H :   -0.281368
   7 C :    0.366408
   8 H :   -0.320721
   9 C :    0.896042
  10 H :   -0.293235
  11 H :   -0.309449
  12 H :   -0.293086
  13 C :   -0.439409

  Mayer bond orders larger than 0.100000
B(  0-C ,  1-H ) :   0.8690 B(  0-C ,  2-H ) :   0.8829 B(  0-C ,  3-O ) :   0.7969
B(  0-C ,  4-C ) :   1.1437 B(  3-O ,  7-C ) :   0.1445 B(  3-O , 13-C ) :   0.6718
B(  4-C ,  5-H ) :   0.9410 B(  4-C ,  6-H ) :   0.8570 B(  4-C ,  7-C ) :   1.0227
B(  4-C , 13-C ) :  -0.2634 B(  7-C ,  8-H ) :   0.8883 B(  7-C , 13-C ) :   1.4321
B(  9-C , 10-H ) :   0.9760 B(  9-C , 11-H ) :   1.0545 B(  9-C , 12-H ) :   0.9857
B(  9-C , 13-C ) :   0.5896 B( 11-H , 13-C ) :  -0.1273

MP2 TOTAL ENERGY:     -270.091389940 Eh
FINAL SINGLE POINT ENERGY      -270.091389939726

DIPOLE MOMENT
-------------
                                X             Y             Z
Electronic contribution:     -0.40690      -1.35929      -0.17323
Nuclear contribution   :      0.22735       1.67919       0.21750
                        -----------------------------------------
Total Dipole Moment    :     -0.17955       0.31990       0.04427
                        -----------------------------------------
Magnitude (a.u.)       :      0.36951
Magnitude (Debye)      :      0.93921

Rotational constants in cm-1:     0.252817     0.108970     0.079747
Rotational constants in MHz :  7579.262614  3266.844335  2390.742277

                             ****ORCA TERMINATED NORMALLY****
TOTAL RUN TIME: 0 days 0 hours 26 minutes 57 seconds 713 msec
