                         Program Version 5.0.4 -  RELEASE  -
|  1> !ri-mp2 aug-cc-pvqz aug-cc-pvqz/c tightscf
|  2> %pal nprocs 16 end
|  3>
|  4> * xyz 0 1
|  5> S    -0.132326   -1.067056   -0.000002
|  6> S     2.794229   -0.264794   -0.000005
|  7> N     0.642381    1.397235    0.000001
|  8> N    -3.851613   -0.306271    0.000006
|  9> C    -1.339600    0.198368    0.000002
| 10> C     1.094765    0.176601   -0.000002
| 11> C    -0.717729    1.417421    0.000003
| 12> C    -2.720759   -0.076305    0.000004
| 13> H     3.213634    1.014221   -0.000004
| 14> H    -1.239521    2.362120    0.000006
| 15> *
| 16>
| 17>                          ****END OF INPUT****

CARTESIAN COORDINATES (ANGSTROEM)
---------------------------------
  S     -0.132326   -1.067056   -0.000002
  S      2.794229   -0.264794   -0.000005
  N      0.642381    1.397235    0.000001
  N     -3.851613   -0.306271    0.000006
  C     -1.339600    0.198368    0.000002
  C      1.094765    0.176601   -0.000002
  C     -0.717729    1.417421    0.000003
  C     -2.720759   -0.076305    0.000004
  H      3.213634    1.014221   -0.000004
  H     -1.239521    2.362120    0.000006

 Total Charge           Charge          ....    0
 Multiplicity           Mult            ....    1
 Number of Electrons    NEL             ....   72
 Basis Dimension        Dim             ....  740

ORBITAL ENERGIES
----------------

  NO   OCC          E(Eh)            E(eV)
   0   2.0000     -92.033417     -2504.3566
   1   2.0000     -92.011296     -2503.7546
   2   2.0000     -15.601656      -424.5426
   3   2.0000     -15.584758      -424.0828
   4   2.0000     -11.381840      -309.7156
   5   2.0000     -11.320417      -308.0442
   6   2.0000     -11.317369      -307.9613
   7   2.0000     -11.292176      -307.2757
   8   2.0000      -9.034611      -245.8443
   9   2.0000      -9.013665      -245.2743
  10   2.0000      -6.715672      -182.7427
  11   2.0000      -6.715128      -182.7279
  12   2.0000      -6.714320      -182.7059
  13   2.0000      -6.695214      -182.1860
  14   2.0000      -6.694187      -182.1581
  15   2.0000      -6.693266      -182.1330
  16   2.0000      -1.327910       -36.1343
  17   2.0000      -1.235470       -33.6188
  18   2.0000      -1.115457       -30.3531
  19   2.0000      -1.092008       -29.7150
  20   2.0000      -0.994849       -27.0712
  21   2.0000      -0.887680       -24.1550
  22   2.0000      -0.787065       -21.4171
  23   2.0000      -0.750935       -20.4340
  24   2.0000      -0.664700       -18.0874
  25   2.0000      -0.616988       -16.7891
  26   2.0000      -0.606712       -16.5095
  27   2.0000      -0.569953       -15.5092
  28   2.0000      -0.558186       -15.1890
  29   2.0000      -0.536734       -14.6053
  30   2.0000      -0.524512       -14.2727
  31   2.0000      -0.482110       -13.1189
  32   2.0000      -0.458718       -12.4823
  33   2.0000      -0.443640       -12.0721
  34   2.0000      -0.424646       -11.5552
  35   2.0000      -0.345943        -9.4136
  36   0.0000       0.021919         0.5964
  37   0.0000       0.031596         0.8598
  38   0.0000       0.040121         1.0917
  39   0.0000       0.043266         1.1773
  40   0.0000       0.055656         1.5145

MULLIKEN ATOMIC CHARGES
-----------------------
   0 S :    0.504138
   1 S :    0.076576
   2 N :   -0.557982
   3 N :   -0.703842
   4 C :   -0.534929
   5 C :   -0.120110
   6 C :   -0.024413
   7 C :    0.754306
   8 H :    0.081822
   9 H :    0.524433
Sum of atomic charges:    0.0000000

LOEWDIN ATOMIC CHARGES
----------------------
   0 S :    1.272050
   1 S :    1.521648
   2 N :    0.391098
   3 N :    0.392033
   4 C :   -0.654676
   5 C :   -1.291613
   6 C :   -0.083237
   7 C :   -0.428392
   8 H :   -0.785211
   9 H :   -0.333700

  Mayer bond orders larger than 0.100000
B(  0-S ,  4-C ) :   0.9848 B(  0-S ,  5-C ) :   1.1111 B(  1-S ,  5-C ) :   0.7686
B(  1-S ,  8-H ) :   1.0830 B(  2-N ,  5-C ) :   1.4018 B(  2-N ,  6-C ) :   1.1475
B(  3-N ,  7-C ) :   2.3955 B(  4-C ,  5-C ) :  -0.2153 B(  4-C ,  6-C ) :   1.4547
B(  4-C ,  7-C ) :   1.2531 B(  6-C ,  7-C ) :  -0.1105 B(  6-C ,  9-H ) :   0.7359

MP2 TOTAL ENERGY:    -1058.161129238 Eh
FINAL SINGLE POINT ENERGY     -1058.161129237997

DIPOLE MOMENT
-------------
                                X             Y             Z
Electronic contribution:     -0.16721      -2.94748      -0.00001
Nuclear contribution   :      1.78129       3.25595       0.00000
                        -----------------------------------------
Total Dipole Moment    :      1.61408       0.30846      -0.00000
                        -----------------------------------------
Magnitude (a.u.)       :      1.64329
Magnitude (Debye)      :      4.17691

Rotational constants in cm-1:     0.170213     0.027752     0.023862
Rotational constants in MHz :  5102.853976   831.992534   715.357407

                             ****ORCA TERMINATED NORMALLY****
TOTAL RUN TIME: 0 days 0 hours 16 minutes 54 seconds 154 msec
