                         Program Version 5.0.4 -  RELEASE  -
|  1> !ri-mp2 aug-cc-pvqz aug-cc-pvqz/c tightscf
|  2> %pal nprocs 16 end
|  3>
|  4> * xyz 0 1
|  5> C      3.005568   -0.234641   -0.075870
|  6> C     -1.946912   -1.107066   -0.387839
|  7> C     -1.238412    1.280682   -0.728586
|  8> C      1.632830    0.413030    0.105069
|  9> C      0.492710   -0.535387   -0.269388
| 10> C     -0.931821   -0.029161    0.003653
| 11> O     -0.996264    0.187836    1.428670
| 12> H      3.165367   -0.547167   -1.110366
| 13> H      3.109196   -1.119822    0.554911
| 14> H      3.807682    0.455938    0.188183
| 15> H     -2.963517   -0.784311   -0.150713
| 16> H     -1.747156   -2.030635    0.155349
| 17> H     -1.906985   -1.318328   -1.457633
| 18> H     -0.578207    2.078717   -0.394031
| 19> H     -2.268050    1.591351   -0.535843
| 20> H     -1.124654    1.164869   -1.807771
| 21> H      1.507934    0.728735    1.141736
| 22> H      1.583749    1.318038   -0.504908
| 23> H      0.564713   -0.793340   -1.330153
| 24> H      0.615355   -1.469442    0.286075
| 25> H     -1.879090    0.497967    1.653569
| 26> *
| 27>
| 28>                          ****END OF INPUT****

CARTESIAN COORDINATES (ANGSTROEM)
---------------------------------
  C      3.005568   -0.234641   -0.075870
  C     -1.946912   -1.107066   -0.387839
  C     -1.238412    1.280682   -0.728586
  C      1.632830    0.413030    0.105069
  C      0.492710   -0.535387   -0.269388
  C     -0.931821   -0.029161    0.003653
  O     -0.996264    0.187836    1.428670
  H      3.165367   -0.547167   -1.110366
  H      3.109196   -1.119822    0.554911
  H      3.807682    0.455938    0.188183
  H     -2.963517   -0.784311   -0.150713
  H     -1.747156   -2.030635    0.155349
  H     -1.906985   -1.318328   -1.457633
  H     -0.578207    2.078717   -0.394031
  H     -2.268050    1.591351   -0.535843
  H     -1.124654    1.164869   -1.807771
  H      1.507934    0.728735    1.141736
  H      1.583749    1.318038   -0.504908
  H      0.564713   -0.793340   -1.330153
  H      0.615355   -1.469442    0.286075
  H     -1.879090    0.497967    1.653569

 Total Charge           Charge          ....    0
 Multiplicity           Mult            ....    1
 Number of Electrons    NEL             ....   58
 Basis Dimension        Dim             .... 1204

ORBITAL ENERGIES
----------------

  NO   OCC          E(Eh)            E(eV)
   0   2.0000     -20.545972      -559.0843
   1   2.0000     -11.283171      -307.0307
   2   2.0000     -11.212828      -305.1166
   3   2.0000     -11.212501      -305.1077
   4   2.0000     -11.211515      -305.0808
   5   2.0000     -11.208272      -304.9926
   6   2.0000     -11.205049      -304.9049
   7   2.0000      -1.351993       -36.7896
   8   2.0000      -1.079398       -29.3719
   9   2.0000      -1.024565       -27.8798
  10   2.0000      -0.940251       -25.5855
  11   2.0000      -0.923653       -25.1339
  12   2.0000      -0.814373       -22.1602
  13   2.0000      -0.761352       -20.7174
  14   2.0000      -0.669983       -18.2312
  15   2.0000      -0.633567       -17.2402
  16   2.0000      -0.612976       -16.6799
  17   2.0000      -0.603345       -16.4179
  18   2.0000      -0.579670       -15.7736
  19   2.0000      -0.557065       -15.1585
  20   2.0000      -0.545547       -14.8451
  21   2.0000      -0.524018       -14.2593
  22   2.0000      -0.515027       -14.0146
  23   2.0000      -0.509835       -13.8733
  24   2.0000      -0.498018       -13.5518
  25   2.0000      -0.471818       -12.8388
  26   2.0000      -0.461723       -12.5641
  27   2.0000      -0.443894       -12.0790
  28   2.0000      -0.427654       -11.6371
  29   0.0000       0.024239         0.6596
  30   0.0000       0.029493         0.8026
  31   0.0000       0.031615         0.8603
  32   0.0000       0.034710         0.9445
  33   0.0000       0.045875         1.2483

MULLIKEN ATOMIC CHARGES
-----------------------
   0 C :   -0.889648
   1 C :   -1.082443
   2 C :   -1.079108
   3 C :   -0.382803
   4 C :   -0.472968
   5 C :    1.659690
   6 O :   -1.075057
   7 H :    0.217576
   8 H :    0.210064
   9 H :    0.254115
  10 H :    0.249679
  11 H :    0.262446
  12 H :    0.213914
  13 H :    0.274457
  14 H :    0.261893
  15 H :    0.184363
  16 H :    0.235247
  17 H :    0.194616
  18 H :    0.235576
  19 H :    0.254335
  20 H :    0.274057
Sum of atomic charges:    0.0000000

LOEWDIN ATOMIC CHARGES
----------------------
   0 C :    0.933014
   1 C :    0.903397
   2 C :    0.907671
   3 C :    0.512530
   4 C :    0.474558
   5 C :   -0.604311
   6 O :    1.300061
   7 H :   -0.282894
   8 H :   -0.284080
   9 H :   -0.283154
  10 H :   -0.280954
  11 H :   -0.278943
  12 H :   -0.272874
  13 H :   -0.293950
  14 H :   -0.279428
  15 H :   -0.266749
  16 H :   -0.279224
  17 H :   -0.285467
  18 H :   -0.270305
  19 H :   -0.281686
  20 H :   -0.787213

  Mayer bond orders larger than 0.100000
B(  0-C ,  3-C ) :   0.9444 B(  0-C ,  7-H ) :   0.9602 B(  0-C ,  8-H ) :   0.9907
B(  0-C ,  9-H ) :   1.0457 B(  1-C ,  2-C ) :   0.1376 B(  1-C ,  5-C ) :   0.5563
B(  1-C ,  6-O ) :   0.1253 B(  1-C , 10-H ) :   1.0165 B(  1-C , 11-H ) :   1.0067
B(  1-C , 12-H ) :   1.0442 B(  2-C ,  5-C ) :   0.5495 B(  2-C ,  6-O ) :   0.1553
B(  2-C , 13-H ) :   0.9999 B(  2-C , 14-H ) :   0.9803 B(  2-C , 15-H ) :   1.0586
B(  3-C ,  4-C ) :   0.7943 B(  3-C ,  9-H ) :  -0.1208 B(  3-C , 16-H ) :   0.8918
B(  3-C , 17-H ) :   0.8872 B(  4-C ,  5-C ) :   0.6646 B(  4-C ,  6-O ) :   0.2841
B(  4-C , 18-H ) :   0.9370 B(  4-C , 19-H ) :   0.9185 B(  5-C ,  6-O ) :  -0.3739
B(  5-C , 12-H ) :  -0.1091 B(  6-O , 20-H ) :   0.9762

MP2 TOTAL ENERGY:     -311.760085866 Eh
FINAL SINGLE POINT ENERGY      -311.760085866396

DIPOLE MOMENT
-------------
                                X             Y             Z
Electronic contribution:     -2.45217       0.34706       3.06509
Nuclear contribution   :      1.99423      -0.23930      -3.50639
                        -----------------------------------------
Total Dipole Moment    :     -0.45794       0.10776      -0.44130
                        -----------------------------------------
Magnitude (a.u.)       :      0.64503
Magnitude (Debye)      :      1.63955

Rotational constants in cm-1:     0.142178     0.047473     0.046477
Rotational constants in MHz :  4262.398686  1423.207531  1393.333253

                             ****ORCA TERMINATED NORMALLY****
TOTAL RUN TIME: 0 days 1 hours 19 minutes 33 seconds 526 msec
