                         Program Version 5.0.4 -  RELEASE  -
|  1> !ri-mp2 aug-cc-pvqz aug-cc-pvqz/c tightscf
|  2> %pal nprocs 16 end
|  3>
|  4> * xyz 0 1
|  5> C      2.147973   -1.066945    0.000000
|  6> H      2.507268   -2.095782    0.000000
|  7> H      2.554206   -0.572788    0.882885
|  8> H      2.554206   -0.572788   -0.882885
|  9> C      0.621595   -1.051458    0.000000
| 10> H      0.241625   -1.595107   -0.869387
| 11> H      0.241625   -1.595107    0.869387
| 12> C      0.604486    1.490130    0.000000
| 13> H      1.683307    1.546561    0.000000
| 14> C      0.000000    0.312724    0.000000
| 15> Cl    -1.769241    0.256602    0.000000
| 16> H      0.050536    2.416069    0.000000
| 17> *
| 18>
| 19>                          ****END OF INPUT****

CARTESIAN COORDINATES (ANGSTROEM)
---------------------------------
  C      2.147973   -1.066945    0.000000
  H      2.507268   -2.095782    0.000000
  H      2.554206   -0.572788    0.882885
  H      2.554206   -0.572788   -0.882885
  C      0.621595   -1.051458    0.000000
  H      0.241625   -1.595107   -0.869387
  H      0.241625   -1.595107    0.869387
  C      0.604486    1.490130    0.000000
  H      1.683307    1.546561    0.000000
  C      0.000000    0.312724    0.000000
  Cl    -1.769241    0.256602    0.000000
  H      0.050536    2.416069    0.000000

 Total Charge           Charge          ....    0
 Multiplicity           Mult            ....    1
 Number of Electrons    NEL             ....   48
 Basis Dimension        Dim             ....  726

ORBITAL ENERGIES
----------------

  NO   OCC          E(Eh)            E(eV)
   0   2.0000    -104.830421     -2852.5808
   1   2.0000     -11.303344      -307.5796
   2   2.0000     -11.244315      -305.9734
   3   2.0000     -11.232978      -305.6649
   4   2.0000     -11.226639      -305.4924
   5   2.0000     -10.555842      -287.2391
   6   2.0000      -8.022893      -218.3140
   7   2.0000      -8.021261      -218.2696
   8   2.0000      -8.021234      -218.2689
   9   2.0000      -1.159933       -31.5634
  10   2.0000      -1.053939       -28.6791
  11   2.0000      -0.992263       -27.0009
  12   2.0000      -0.885897       -24.1065
  13   2.0000      -0.732508       -19.9326
  14   2.0000      -0.653570       -17.7845
  15   2.0000      -0.631707       -17.1896
  16   2.0000      -0.609659       -16.5897
  17   2.0000      -0.562505       -15.3065
  18   2.0000      -0.527078       -14.3425
  19   2.0000      -0.514406       -13.9977
  20   2.0000      -0.498654       -13.5691
  21   2.0000      -0.476509       -12.9665
  22   2.0000      -0.444871       -12.1055
  23   2.0000      -0.363325        -9.8866
  24   0.0000       0.025380         0.6906
  25   0.0000       0.030256         0.8233
  26   0.0000       0.037290         1.0147
  27   0.0000       0.037839         1.0297
  28   0.0000       0.050601         1.3769

MULLIKEN ATOMIC CHARGES
-----------------------
   0 C :   -0.808084
   1 H :    0.284155
   2 H :    0.211490
   3 H :    0.211490
   4 C :   -0.083951
   5 H :    0.271076
   6 H :    0.271076
   7 C :   -0.691137
   8 H :    0.316340
   9 C :   -0.065457
  10 Cl:   -0.325617
  11 H :    0.408619
Sum of atomic charges:    0.0000000

LOEWDIN ATOMIC CHARGES
----------------------
   0 C :    0.896030
   1 H :   -0.279762
   2 H :   -0.287184
   3 H :   -0.287184
   4 C :    0.339123
   5 H :   -0.318715
   6 H :   -0.318715
   7 C :    0.647619
   8 H :   -0.382311
   9 C :   -0.772111
  10 Cl:    1.152011
  11 H :   -0.388801

  Mayer bond orders larger than 0.100000
B(  0-C ,  1-H ) :   0.9592 B(  0-C ,  2-H ) :   0.9632 B(  0-C ,  3-H ) :   0.9632
B(  0-C ,  4-C ) :   0.9929 B(  4-C ,  5-H ) :   0.8975 B(  4-C ,  6-H ) :   0.8975
B(  4-C ,  9-C ) :   0.5852 B(  4-C , 10-Cl) :  -0.1129 B(  7-C ,  8-H ) :   0.8935
B(  7-C ,  9-C ) :   1.7577 B(  7-C , 11-H ) :   0.8928 B(  9-C , 10-Cl) :   0.8427

MP2 TOTAL ENERGY:     -616.051939632 Eh
FINAL SINGLE POINT ENERGY      -616.051939631893

DIPOLE MOMENT
-------------
                                X             Y             Z
Electronic contribution:    -11.51520       2.67130      -0.00000
Nuclear contribution   :     12.30858      -2.82335       0.00000
                        -----------------------------------------
Total Dipole Moment    :      0.79338      -0.15205      -0.00000
                        -----------------------------------------
Magnitude (a.u.)       :      0.80782
Magnitude (Debye)      :      2.05331

Rotational constants in cm-1:     0.268505     0.078341     0.062028
Rotational constants in MHz :  8049.567123  2348.600494  1859.542311

                             ****ORCA TERMINATED NORMALLY****
TOTAL RUN TIME: 0 days 0 hours 16 minutes 56 seconds 709 msec
