                         Program Version 5.0.4 -  RELEASE  -
|  1> !ri-mp2 aug-cc-pvqz aug-cc-pvqz/c tightscf
|  2> %pal nprocs 16 end
|  3>
|  4> * xyz 0 1
|  5> C      0.903475    0.760982   -0.089733
|  6> C     -0.418912    0.014271    0.005675
|  7> O      2.010756   -0.082096    0.112517
|  8> F     -0.478794   -0.982705   -0.908971
|  9> F     -1.449314    0.849658   -0.237742
| 10> F     -0.616843   -0.540066    1.211194
| 11> H      0.924062    1.263938   -1.060758
| 12> H      0.919466    1.514977    0.695005
| 13> H      2.067608   -0.715645   -0.610367
| 14> *
| 15>
| 16>                          ****END OF INPUT****

CARTESIAN COORDINATES (ANGSTROEM)
---------------------------------
  C      0.903475    0.760982   -0.089733
  C     -0.418912    0.014271    0.005675
  O      2.010756   -0.082096    0.112517
  F     -0.478794   -0.982705   -0.908971
  F     -1.449314    0.849658   -0.237742
  F     -0.616843   -0.540066    1.211194
  H      0.924062    1.263938   -1.060758
  H      0.919466    1.514977    0.695005
  H      2.067608   -0.715645   -0.610367

 Total Charge           Charge          ....    0
 Multiplicity           Mult            ....    1
 Number of Electrons    NEL             ....   50
 Basis Dimension        Dim             ....  618

ORBITAL ENERGIES
----------------

  NO   OCC          E(Eh)            E(eV)
   0   2.0000     -26.341795      -716.7967
   1   2.0000     -26.341018      -716.7755
   2   2.0000     -26.338115      -716.6965
   3   2.0000     -20.592545      -560.3516
   4   2.0000     -11.509211      -313.1815
   5   2.0000     -11.322151      -308.0914
   6   2.0000      -1.729015       -47.0489
   7   2.0000      -1.636908       -44.5425
   8   2.0000      -1.635109       -44.4936
   9   2.0000      -1.400175       -38.1007
  10   2.0000      -1.052086       -28.6287
  11   2.0000      -0.923749       -25.1365
  12   2.0000      -0.827621       -22.5207
  13   2.0000      -0.825638       -22.4668
  14   2.0000      -0.803218       -21.8567
  15   2.0000      -0.728670       -19.8281
  16   2.0000      -0.716183       -19.4883
  17   2.0000      -0.700740       -19.0681
  18   2.0000      -0.671005       -18.2590
  19   2.0000      -0.666873       -18.1465
  20   2.0000      -0.653656       -17.7869
  21   2.0000      -0.632132       -17.2012
  22   2.0000      -0.622828       -16.9480
  23   2.0000      -0.541252       -14.7282
  24   2.0000      -0.492892       -13.4123
  25   0.0000       0.024363         0.6629
  26   0.0000       0.036402         0.9905
  27   0.0000       0.041629         1.1328
  28   0.0000       0.055064         1.4984
  29   0.0000       0.082203         2.2369

MULLIKEN ATOMIC CHARGES
-----------------------
   0 C :   -0.199254
   1 C :    1.825563
   2 O :   -0.763517
   3 F :   -0.633545
   4 F :   -0.629069
   5 F :   -0.600992
   6 H :    0.285177
   7 H :    0.359854
   8 H :    0.355783
Sum of atomic charges:    0.0000000

LOEWDIN ATOMIC CHARGES
----------------------
   0 C :    0.064173
   1 C :   -2.123778
   2 O :    1.262420
   3 F :    0.743819
   4 F :    0.753104
   5 F :    0.757339
   6 H :   -0.321339
   7 H :   -0.341011
   8 H :   -0.794728

  Mayer bond orders larger than 0.100000
B(  0-C ,  1-C ) :   1.0169 B(  0-C ,  2-O ) :   0.7785 B(  0-C ,  6-H ) :   0.8899
B(  0-C ,  7-H ) :   0.8225 B(  1-C ,  3-F ) :   0.4470 B(  1-C ,  4-F ) :   0.4840
B(  1-C ,  5-F ) :   0.4601 B(  2-O ,  8-H ) :   0.8677

MP2 TOTAL ENERGY:     -452.324951851 Eh
FINAL SINGLE POINT ENERGY      -452.324951851221

DIPOLE MOMENT
-------------
                                X             Y             Z
Electronic contribution:     -5.63377      -2.16927       0.42602
Nuclear contribution   :      6.06025       2.55951      -0.97437
                        -----------------------------------------
Total Dipole Moment    :      0.42647       0.39024      -0.54835
                        -----------------------------------------
Magnitude (a.u.)       :      0.79677
Magnitude (Debye)      :      2.02523

Rotational constants in cm-1:     0.175792     0.093314     0.092236
Rotational constants in MHz :  5270.103005  2797.474434  2765.152956

                             ****ORCA TERMINATED NORMALLY****
TOTAL RUN TIME: 0 days 0 hours 7 minutes 58 seconds 985 msec
