                         Program Version 5.0.4 -  RELEASE  -
|  1> !ri-mp2 aug-cc-pvqz aug-cc-pvqz/c tightscf
|  2> %pal nprocs 16 end
|  3>
|  4> * xyz 0 1
|  5> S      2.003409    0.770859    0.144997
|  6> S      0.824434   -1.874911   -0.296043
|  7> N     -2.788831   -1.286739    0.056249
|  8> N     -1.196262    2.646561   -0.557680
|  9> C     -0.747144    0.287249    0.481702
| 10> C      0.630661   -0.307408    0.072187
| 11> C     -1.869388   -0.620646    0.224187
| 12> C     -1.016190    1.603166   -0.112117
| 13> H     -0.695773    0.434643    1.567730
| 14> H      1.358300    1.937262    0.363284
| 15> *
| 16>
| 17>                          ****END OF INPUT****

CARTESIAN COORDINATES (ANGSTROEM)
---------------------------------
  S      2.003409    0.770859    0.144997
  S      0.824434   -1.874911   -0.296043
  N     -2.788831   -1.286739    0.056249
  N     -1.196262    2.646561   -0.557680
  C     -0.747144    0.287249    0.481702
  C      0.630661   -0.307408    0.072187
  C     -1.869388   -0.620646    0.224187
  C     -1.016190    1.603166   -0.112117
  H     -0.695773    0.434643    1.567730
  H      1.358300    1.937262    0.363284

 Total Charge           Charge          ....    0
 Multiplicity           Mult            ....    1
 Number of Electrons    NEL             ....   72
 Basis Dimension        Dim             ....  740

ORBITAL ENERGIES
----------------

  NO   OCC          E(Eh)            E(eV)
   0   2.0000     -92.026958     -2504.1808
   1   2.0000     -91.977673     -2502.8397
   2   2.0000     -15.621722      -425.0887
   3   2.0000     -15.607534      -424.7026
   4   2.0000     -11.404993      -310.3456
   5   2.0000     -11.389498      -309.9240
   6   2.0000     -11.324602      -308.1581
   7   2.0000     -11.310782      -307.7820
   8   2.0000      -9.029092      -245.6941
   9   2.0000      -8.981061      -244.3871
  10   2.0000      -6.710348      -182.5979
  11   2.0000      -6.709341      -182.5704
  12   2.0000      -6.708552      -182.5490
  13   2.0000      -6.661995      -181.2821
  14   2.0000      -6.661275      -181.2625
  15   2.0000      -6.659876      -181.2244
  16   2.0000      -1.281299       -34.8659
  17   2.0000      -1.257545       -34.2195
  18   2.0000      -1.191962       -32.4349
  19   2.0000      -1.088070       -29.6079
  20   2.0000      -1.011725       -27.5304
  21   2.0000      -0.814318       -22.1587
  22   2.0000      -0.805541       -21.9199
  23   2.0000      -0.740347       -20.1459
  24   2.0000      -0.692530       -18.8447
  25   2.0000      -0.608780       -16.5657
  26   2.0000      -0.595710       -16.2101
  27   2.0000      -0.570681       -15.5290
  28   2.0000      -0.544995       -14.8301
  29   2.0000      -0.529974       -14.4213
  30   2.0000      -0.521418       -14.1885
  31   2.0000      -0.504001       -13.7146
  32   2.0000      -0.498664       -13.5693
  33   2.0000      -0.491423       -13.3723
  34   2.0000      -0.388990       -10.5850
  35   2.0000      -0.384094       -10.4517
  36   0.0000       0.004936         0.1343
  37   0.0000       0.019204         0.5226
  38   0.0000       0.032458         0.8832
  39   0.0000       0.045258         1.2315
  40   0.0000       0.050751         1.3810

MULLIKEN ATOMIC CHARGES
-----------------------
   0 S :    0.144796
   1 S :    0.033048
   2 N :   -0.648907
   3 N :   -0.646055
   4 C :    0.116718
   5 C :   -0.436263
   6 C :    0.493105
   7 C :    0.517768
   8 H :    0.385815
   9 H :    0.039976
Sum of atomic charges:    0.0000000

LOEWDIN ATOMIC CHARGES
----------------------
   0 S :    1.533719
   1 S :    1.084134
   2 N :    0.448027
   3 N :    0.464798
   4 C :   -0.284622
   5 C :   -1.337089
   6 C :   -0.398761
   7 C :   -0.365098
   8 H :   -0.357856
   9 H :   -0.787252

  Mayer bond orders larger than 0.100000
B(  0-S ,  5-C ) :   0.9492 B(  0-S ,  9-H ) :   1.0501 B(  1-S ,  5-C ) :   1.7234
B(  2-N ,  6-C ) :   2.4731 B(  3-N ,  7-C ) :   2.4795 B(  4-C ,  5-C ) :   0.6868
B(  4-C ,  6-C ) :   1.0907 B(  4-C ,  7-C ) :   1.0592 B(  4-C ,  8-H ) :   0.7549
B(  6-C ,  7-C ) :  -0.1334

MP2 TOTAL ENERGY:    -1058.119954440 Eh
FINAL SINGLE POINT ENERGY     -1058.119954440058

DIPOLE MOMENT
-------------
                                X             Y             Z
Electronic contribution:      0.58901      -1.76685      -0.86920
Nuclear contribution   :      0.52482       2.29558       1.83796
                        -----------------------------------------
Total Dipole Moment    :      1.11382       0.52873       0.96876
                        -----------------------------------------
Magnitude (a.u.)       :      1.56801
Magnitude (Debye)      :      3.98556

Rotational constants in cm-1:     0.054630     0.046590     0.026247
Rotational constants in MHz :  1637.773291  1396.745289   786.860970

                             ****ORCA TERMINATED NORMALLY****
TOTAL RUN TIME: 0 days 0 hours 16 minutes 35 seconds 915 msec
