                         Program Version 5.0.4 -  RELEASE  -
|  1> !ri-mp2 aug-cc-pvqz aug-cc-pvqz/c tightscf
|  2> %pal nprocs 16 end
|  3>
|  4> * xyz 0 1
|  5> C      1.212934   -2.830317    0.000000
|  6> C     -1.715980    2.860634    0.000000
|  7> C      0.924480   -0.299270    0.000000
|  8> C      0.000000    0.830193    0.000000
|  9> C      0.223042   -1.668570    0.000000
| 10> C     -0.778310    1.745812    0.000000
| 11> H      0.694512   -3.789693    0.000000
| 12> H     -2.748510    2.506561    0.000000
| 13> H      1.857339   -2.802347    0.881179
| 14> H      1.857339   -2.802347   -0.881179
| 15> H     -0.428117   -1.730803   -0.874251
| 16> H     -0.428117   -1.730803    0.874251
| 17> H      1.579877   -0.230796   -0.873928
| 18> H      1.579877   -0.230796    0.873928
| 19> H     -1.580599    3.490066    0.881436
| 20> H     -1.580599    3.490066   -0.881436
| 21> *
| 22>
| 23>                          ****END OF INPUT****

CARTESIAN COORDINATES (ANGSTROEM)
---------------------------------
  C      1.212934   -2.830317    0.000000
  C     -1.715980    2.860634    0.000000
  C      0.924480   -0.299270    0.000000
  C      0.000000    0.830193    0.000000
  C      0.223042   -1.668570    0.000000
  C     -0.778310    1.745812    0.000000
  H      0.694512   -3.789693    0.000000
  H     -2.748510    2.506561    0.000000
  H      1.857339   -2.802347    0.881179
  H      1.857339   -2.802347   -0.881179
  H     -0.428117   -1.730803   -0.874251
  H     -0.428117   -1.730803    0.874251
  H      1.579877   -0.230796   -0.873928
  H      1.579877   -0.230796    0.873928
  H     -1.580599    3.490066    0.881436
  H     -1.580599    3.490066   -0.881436

 Total Charge           Charge          ....    0
 Multiplicity           Mult            ....    1
 Number of Electrons    NEL             ....   46
 Basis Dimension        Dim             ....  940

ORBITAL ENERGIES
----------------

  NO   OCC          E(Eh)            E(eV)
   0   2.0000     -11.240704      -305.8751
   1   2.0000     -11.239569      -305.8442
   2   2.0000     -11.223191      -305.3985
   3   2.0000     -11.213743      -305.1415
   4   2.0000     -11.213360      -305.1310
   5   2.0000     -11.208742      -305.0054
   6   2.0000      -1.085071       -29.5263
   7   2.0000      -1.039425       -28.2842
   8   2.0000      -0.974964       -26.5301
   9   2.0000      -0.911499       -24.8032
  10   2.0000      -0.815642       -22.1947
  11   2.0000      -0.660778       -17.9807
  12   2.0000      -0.639131       -17.3916
  13   2.0000      -0.609454       -16.5841
  14   2.0000      -0.584206       -15.8971
  15   2.0000      -0.582325       -15.8459
  16   2.0000      -0.569256       -15.4902
  17   2.0000      -0.550637       -14.9836
  18   2.0000      -0.507390       -13.8068
  19   2.0000      -0.489555       -13.3215
  20   2.0000      -0.479417       -13.0456
  21   2.0000      -0.360486        -9.8093
  22   2.0000      -0.360254        -9.8030
  23   0.0000       0.025830         0.7029
  24   0.0000       0.028532         0.7764
  25   0.0000       0.035249         0.9592
  26   0.0000       0.036551         0.9946
  27   0.0000       0.044830         1.2199

MULLIKEN ATOMIC CHARGES
-----------------------
   0 C :   -0.820093
   1 C :   -0.594295
   2 C :   -0.063580
   3 C :   -0.256473
   4 C :   -0.398407
   5 C :   -0.129323
   6 H :    0.274743
   7 H :    0.202371
   8 H :    0.230212
   9 H :    0.230211
  10 H :    0.238928
  11 H :    0.238926
  12 H :    0.223516
  13 H :    0.223514
  14 H :    0.199875
  15 H :    0.199874
Sum of atomic charges:   -0.0000000

LOEWDIN ATOMIC CHARGES
----------------------
   0 C :    0.922855
   1 C :    0.826425
   2 C :    0.414081
   3 C :    0.162028
   4 C :    0.486395
   5 C :    0.167571
   6 H :   -0.284204
   7 H :   -0.320662
   8 H :   -0.285242
   9 H :   -0.285242
  10 H :   -0.277290
  11 H :   -0.277290
  12 H :   -0.303625
  13 H :   -0.303625
  14 H :   -0.321087
  15 H :   -0.321087

  Mayer bond orders larger than 0.100000
B(  0-C ,  4-C ) :   1.0043 B(  0-C ,  6-H ) :   0.9875 B(  0-C ,  8-H ) :   0.9483
B(  0-C ,  9-H ) :   0.9483 B(  1-C ,  5-C ) :   0.6973 B(  1-C ,  7-H ) :   1.0295
B(  1-C , 14-H ) :   1.0370 B(  1-C , 15-H ) :   1.0370 B(  2-C ,  3-C ) :   0.6132
B(  2-C ,  4-C ) :   0.9790 B(  2-C ,  5-C ) :  -0.1011 B(  2-C , 12-H ) :   0.9419
B(  2-C , 13-H ) :   0.9419 B(  3-C ,  4-C ) :  -0.1639 B(  3-C ,  5-C ) :   3.0345
B(  4-C , 10-H ) :   0.8779 B(  4-C , 11-H ) :   0.8779 B(  5-C ,  7-H ) :  -0.1084
B(  5-C , 14-H ) :  -0.1046 B(  5-C , 15-H ) :  -0.1046

MP2 TOTAL ENERGY:     -234.146709513 Eh
FINAL SINGLE POINT ENERGY      -234.146709513448

DIPOLE MOMENT
-------------
                                X             Y             Z
Electronic contribution:     -0.89380       3.98095       0.00000
Nuclear contribution   :      0.84450      -4.02887       0.00000
                        -----------------------------------------
Total Dipole Moment    :     -0.04930      -0.04792       0.00000
                        -----------------------------------------
Magnitude (a.u.)       :      0.06875
Magnitude (Debye)      :      0.17476

Rotational constants in cm-1:     0.603832     0.039924     0.038511
Rotational constants in MHz : 18102.419163  1196.888311  1154.525630

                             ****ORCA TERMINATED NORMALLY****
TOTAL RUN TIME: 0 days 0 hours 28 minutes 59 seconds 596 msec
