                         Program Version 5.0.4 -  RELEASE  -
|  1> !ri-mp2 aug-cc-pvqz aug-cc-pvqz/c tightscf
|  2> %pal nprocs 16 end
|  3>
|  4> * xyz 0 1
|  5> O     0.662791    2.150274   -1.440821
|  6> O    -0.662791   -2.150274   -1.440821
|  7> N    -1.126502    1.290107    1.322386
|  8> N     1.126502   -1.290107    1.322386
|  9> C    -0.235728    0.702221    0.369706
| 10> C     0.235728   -0.702221    0.369706
| 11> C     0.235728    1.488873   -0.589450
| 12> C    -0.235728   -1.488873   -0.589450
| 13> H    -0.752204    1.293584    2.261984
| 14> H    -2.038657    0.851873    1.326339
| 15> H     0.752204   -1.293584    2.261984
| 16> H     2.038657   -0.851873    1.326339
| 17> *
| 18>
| 19>                          ****END OF INPUT****

CARTESIAN COORDINATES (ANGSTROEM)
---------------------------------
  O      0.662791    2.150274   -1.440821
  O     -0.662791   -2.150274   -1.440821
  N     -1.126502    1.290107    1.322386
  N      1.126502   -1.290107    1.322386
  C     -0.235728    0.702221    0.369706
  C      0.235728   -0.702221    0.369706
  C      0.235728    1.488873   -0.589450
  C     -0.235728   -1.488873   -0.589450
  H     -0.752204    1.293584    2.261984
  H     -2.038657    0.851873    1.326339
  H      0.752204   -1.293584    2.261984
  H      2.038657   -0.851873    1.326339

 Total Charge           Charge          ....    0
 Multiplicity           Mult            ....    1
 Number of Electrons    NEL             ....   58
 Basis Dimension        Dim             ....  824

ORBITAL ENERGIES
----------------

  NO   OCC          E(Eh)            E(eV)
   0   2.0000     -20.632147      -561.4293
   1   2.0000     -20.632146      -561.4292
   2   2.0000     -15.575174      -423.8220
   3   2.0000     -15.575173      -423.8220
   4   2.0000     -11.385017      -309.8020
   5   2.0000     -11.385014      -309.8020
   6   2.0000     -11.286922      -307.1328
   7   2.0000     -11.286216      -307.1136
   8   2.0000      -1.479801       -40.2674
   9   2.0000      -1.479008       -40.2458
  10   2.0000      -1.238185       -33.6927
  11   2.0000      -1.200607       -32.6702
  12   2.0000      -1.059963       -28.8431
  13   2.0000      -0.978096       -26.6153
  14   2.0000      -0.778181       -21.1754
  15   2.0000      -0.748558       -20.3693
  16   2.0000      -0.713433       -19.4135
  17   2.0000      -0.700083       -19.0502
  18   2.0000      -0.696886       -18.9632
  19   2.0000      -0.676851       -18.4181
  20   2.0000      -0.664458       -18.0808
  21   2.0000      -0.642320       -17.4784
  22   2.0000      -0.639900       -17.4126
  23   2.0000      -0.601914       -16.3789
  24   2.0000      -0.584369       -15.9015
  25   2.0000      -0.462062       -12.5733
  26   2.0000      -0.424343       -11.5470
  27   2.0000      -0.381856       -10.3908
  28   2.0000      -0.341091        -9.2816
  29   0.0000       0.015737         0.4282
  30   0.0000       0.029774         0.8102
  31   0.0000       0.039025         1.0619
  32   0.0000       0.039248         1.0680
  33   0.0000       0.056158         1.5281

MULLIKEN ATOMIC CHARGES
-----------------------
   0 O :   -0.761009
   1 O :   -0.761009
   2 N :   -0.769757
   3 N :   -0.769757
   4 C :    0.037840
   5 C :    0.037840
   6 C :    0.890747
   7 C :    0.890747
   8 H :    0.295112
   9 H :    0.307067
  10 H :    0.295112
  11 H :    0.307067
Sum of atomic charges:   -0.0000000

LOEWDIN ATOMIC CHARGES
----------------------
   0 O :    0.653376
   1 O :    0.653376
   2 N :    1.200154
   3 N :    1.200154
   4 C :   -0.373610
   5 C :   -0.373610
   6 C :   -0.444211
   7 C :   -0.444211
   8 H :   -0.518918
   9 H :   -0.516792
  10 H :   -0.518918
  11 H :   -0.516792

  Mayer bond orders larger than 0.100000
B(  0-O ,  4-C ) :   0.2807 B(  0-O ,  6-C ) :   1.4145 B(  1-O ,  5-C ) :   0.2807
B(  1-O ,  7-C ) :   1.4145 B(  2-N ,  4-C ) :   0.7578 B(  2-N ,  8-H ) :   0.8663
B(  2-N ,  9-H ) :   0.8716 B(  3-N ,  5-C ) :   0.7578 B(  3-N , 10-H ) :   0.8663
B(  3-N , 11-H ) :   0.8716 B(  4-C ,  5-C ) :   0.8542 B(  4-C ,  6-C ) :   1.9408
B(  4-C ,  7-C ) :  -0.1081 B(  5-C ,  6-C ) :  -0.1081 B(  5-C ,  7-C ) :   1.9408

MP2 TOTAL ENERGY:     -414.113894758 Eh
FINAL SINGLE POINT ENERGY      -414.113894757622

DIPOLE MOMENT
-------------
                                X             Y             Z
Electronic contribution:     -0.00000      -0.00000      -5.53510
Nuclear contribution   :      0.00000       0.00000       6.94528
                        -----------------------------------------
Total Dipole Moment    :     -0.00000      -0.00000       1.41018
                        -----------------------------------------
Magnitude (a.u.)       :      1.41018
Magnitude (Debye)      :      3.58439

Rotational constants in cm-1:     0.083380     0.051663     0.041620
Rotational constants in MHz :  2499.682586  1548.806713  1247.735039

                             ****ORCA TERMINATED NORMALLY****
TOTAL RUN TIME: 0 days 0 hours 23 minutes 32 seconds 312 msec
