                         Program Version 5.0.4 -  RELEASE  -
|  1> !ri-mp2 aug-cc-pvqz aug-cc-pvqz/c tightscf
|  2> %pal nprocs 16 end
|  3>
|  4> * xyz 0 1
|  5> C     -2.236267   -0.829238   -0.168845
|  6> C     -0.460692    1.802331   -0.023240
|  7> C     -0.836105   -0.683283    0.427209
|  8> C      1.500792    0.264459    0.201369
|  9> C      0.043139    0.374428   -0.255318
| 10> O      2.109917   -0.991421   -0.095886
| 11> H     -2.822588    0.085548   -0.074475
| 12> H     -2.186814   -1.082790   -1.230252
| 13> H     -2.790772   -1.623663    0.332395
| 14> H     -0.462102    2.045466    1.042320
| 15> H     -1.476626    1.936066   -0.392815
| 16> H      0.171194    2.533818   -0.530269
| 17> H     -0.321864   -1.644079    0.373767
| 18> H     -0.914617   -0.436619    1.491531
| 19> H      1.558959    0.362361    1.287435
| 20> H      2.087287    1.082323   -0.232344
| 21> H      0.027882    0.181040   -1.336643
| 22> H      2.185520   -1.080283   -1.050612
| 23> *
| 24>
| 25>                          ****END OF INPUT****

CARTESIAN COORDINATES (ANGSTROEM)
---------------------------------
  C     -2.236267   -0.829238   -0.168845
  C     -0.460692    1.802331   -0.023240
  C     -0.836105   -0.683283    0.427209
  C      1.500792    0.264459    0.201369
  C      0.043139    0.374428   -0.255318
  O      2.109917   -0.991421   -0.095886
  H     -2.822588    0.085548   -0.074475
  H     -2.186814   -1.082790   -1.230252
  H     -2.790772   -1.623663    0.332395
  H     -0.462102    2.045466    1.042320
  H     -1.476626    1.936066   -0.392815
  H      0.171194    2.533818   -0.530269
  H     -0.321864   -1.644079    0.373767
  H     -0.914617   -0.436619    1.491531
  H      1.558959    0.362361    1.287435
  H      2.087287    1.082323   -0.232344
  H      0.027882    0.181040   -1.336643
  H      2.185520   -1.080283   -1.050612

 Total Charge           Charge          ....    0
 Multiplicity           Mult            ....    1
 Number of Electrons    NEL             ....   50
 Basis Dimension        Dim             .... 1032

ORBITAL ENERGIES
----------------

  NO   OCC          E(Eh)            E(eV)
   0   2.0000     -20.551874      -559.2449
   1   2.0000     -11.269448      -306.6573
   2   2.0000     -11.225604      -305.4642
   3   2.0000     -11.214389      -305.1590
   4   2.0000     -11.212373      -305.1042
   5   2.0000     -11.209256      -305.0194
   6   2.0000      -1.353847       -36.8401
   7   2.0000      -1.088082       -29.6082
   8   2.0000      -0.991772       -26.9875
   9   2.0000      -0.917306       -24.9612
  10   2.0000      -0.856502       -23.3066
  11   2.0000      -0.775564       -21.1042
  12   2.0000      -0.680049       -18.5051
  13   2.0000      -0.638584       -17.3768
  14   2.0000      -0.621497       -16.9118
  15   2.0000      -0.590496       -16.0682
  16   2.0000      -0.582119       -15.8403
  17   2.0000      -0.549458       -14.9515
  18   2.0000      -0.537261       -14.6196
  19   2.0000      -0.505414       -13.7530
  20   2.0000      -0.501880       -13.6569
  21   2.0000      -0.488485       -13.2923
  22   2.0000      -0.463108       -12.6018
  23   2.0000      -0.450454       -12.2575
  24   2.0000      -0.427714       -11.6387
  25   0.0000       0.025207         0.6859
  26   0.0000       0.030662         0.8344
  27   0.0000       0.031666         0.8617
  28   0.0000       0.035470         0.9652
  29   0.0000       0.048724         1.3258

MULLIKEN ATOMIC CHARGES
-----------------------
   0 C :   -0.869274
   1 C :   -0.985649
   2 C :   -0.481075
   3 C :    0.068094
   4 C :    0.266775
   5 O :   -0.931372
   6 H :    0.230214
   7 H :    0.208354
   8 H :    0.262903
   9 H :    0.198032
  10 H :    0.259623
  11 H :    0.264797
  12 H :    0.304532
  13 H :    0.186459
  14 H :    0.244764
  15 H :    0.215055
  16 H :    0.208929
  17 H :    0.348840
Sum of atomic charges:    0.0000000

LOEWDIN ATOMIC CHARGES
----------------------
   0 C :    0.934206
   1 C :    0.921033
   2 C :    0.502981
   3 C :    0.185398
   4 C :    0.091730
   5 O :    1.281888
   6 H :   -0.295849
   7 H :   -0.278462
   8 H :   -0.280212
   9 H :   -0.269520
  10 H :   -0.288759
  11 H :   -0.275497
  12 H :   -0.291638
  13 H :   -0.270431
  14 H :   -0.306551
  15 H :   -0.293895
  16 H :   -0.281055
  17 H :   -0.785367

  Mayer bond orders larger than 0.100000
B(  0-C ,  2-C ) :   0.9368 B(  0-C ,  6-H ) :   0.9610 B(  0-C ,  7-H ) :   0.9641
B(  0-C ,  8-H ) :   1.0190 B(  1-C ,  3-C ) :   0.1136 B(  1-C ,  4-C ) :   0.5966
B(  1-C ,  9-H ) :   1.0022 B(  1-C , 10-H ) :   1.0399 B(  1-C , 11-H ) :   0.9920
B(  2-C ,  4-C ) :   0.7139 B(  2-C , 12-H ) :   0.8813 B(  2-C , 13-H ) :   0.9410
B(  3-C ,  4-C ) :   0.6606 B(  3-C ,  5-O ) :   0.5189 B(  3-C , 14-H ) :   0.9577
B(  3-C , 15-H ) :   1.0165 B(  4-C , 10-H ) :  -0.1083 B(  4-C , 16-H ) :   0.9198
B(  5-O , 17-H ) :   0.8645

MP2 TOTAL ENERGY:     -272.513912127 Eh
FINAL SINGLE POINT ENERGY      -272.513912127243

DIPOLE MOMENT
-------------
                                X             Y             Z
Electronic contribution:      4.97269      -2.06184      -0.10568
Nuclear contribution   :     -5.23184       2.49653      -0.34246
                        -----------------------------------------
Total Dipole Moment    :     -0.25915       0.43469      -0.44814
                        -----------------------------------------
Magnitude (a.u.)       :      0.67597
Magnitude (Debye)      :      1.71819

Rotational constants in cm-1:     0.154947     0.076932     0.056264
Rotational constants in MHz :  4645.187819  2306.369820  1686.737339

                             ****ORCA TERMINATED NORMALLY****
TOTAL RUN TIME: 0 days 0 hours 48 minutes 33 seconds 327 msec
