                         Program Version 5.0.4 -  RELEASE  -
|  1> !ri-mp2 aug-cc-pvqz aug-cc-pvqz/c tightscf
|  2> %pal nprocs 16 end
|  3>
|  4> * xyz 0 1
|  5> C      0.000000    0.890610        0.000000
|  6> C      1.213082    0.212929        0.000000
|  7> C      1.150826   -1.170346        0.000000
|  8> C     -0.094041   -1.795003        0.000000
|  9> C     -1.228714   -0.999639        0.000000
| 10> N     -1.183800    0.338362        0.000000
| 11> F      0.025740    2.234588        0.000000
| 12> H      2.146052    0.755943        0.000000
| 13> H      2.060970   -1.754404        0.000000
| 14> H     -0.181364   -2.871685        0.000000
| 15> H     -2.217635   -1.440986        0.000000
| 16> *
| 17>
| 18>                          ****END OF INPUT****

CARTESIAN COORDINATES (ANGSTROEM)
---------------------------------
  C      0.000000    0.890610    0.000000
  C      1.213082    0.212929    0.000000
  C      1.150826   -1.170346    0.000000
  C     -0.094041   -1.795003    0.000000
  C     -1.228714   -0.999639    0.000000
  N     -1.183800    0.338362    0.000000
  F      0.025740    2.234588    0.000000
  H      2.146052    0.755943    0.000000
  H      2.060970   -1.754404    0.000000
  H     -0.181364   -2.871685    0.000000
  H     -2.217635   -1.440986    0.000000

 Total Charge           Charge          ....    0
 Multiplicity           Mult            ....    1
 Number of Electrons    NEL             ....   50
 Basis Dimension        Dim             ....  744

ORBITAL ENERGIES
----------------

  NO   OCC          E(Eh)            E(eV)
   0   2.0000     -26.311623      -715.9757
   1   2.0000     -15.576302      -423.8527
   2   2.0000     -11.369388      -309.3768
   3   2.0000     -11.292160      -307.2753
   4   2.0000     -11.275164      -306.8128
   5   2.0000     -11.254315      -306.2455
   6   2.0000     -11.248258      -306.0807
   7   2.0000      -1.634613       -44.4801
   8   2.0000      -1.283924       -34.9374
   9   2.0000      -1.109921       -30.2025
  10   2.0000      -1.046785       -28.4845
  11   2.0000      -0.892035       -24.2735
  12   2.0000      -0.874464       -23.7954
  13   2.0000      -0.765485       -20.8299
  14   2.0000      -0.725378       -19.7385
  15   2.0000      -0.702590       -19.1184
  16   2.0000      -0.694055       -18.8862
  17   2.0000      -0.638207       -17.3665
  18   2.0000      -0.629611       -17.1326
  19   2.0000      -0.585477       -15.9316
  20   2.0000      -0.554810       -15.0972
  21   2.0000      -0.551878       -15.0174
  22   2.0000      -0.446187       -12.1414
  23   2.0000      -0.402912       -10.9638
  24   2.0000      -0.356933        -9.7126
  25   0.0000       0.020633         0.5615
  26   0.0000       0.027865         0.7583
  27   0.0000       0.034447         0.9374
  28   0.0000       0.044816         1.2195
  29   0.0000       0.063639         1.7317

MULLIKEN ATOMIC CHARGES
-----------------------
   0 C :    0.960242
   1 C :   -0.441770
   2 C :   -0.268000
   3 C :   -0.345657
   4 C :   -0.259147
   5 N :   -0.437253
   6 F :   -0.733674
   7 H :    0.434838
   8 H :    0.296258
   9 H :    0.325202
  10 H :    0.468963
Sum of atomic charges:    0.0000000

LOEWDIN ATOMIC CHARGES
----------------------
   0 C :   -0.972905
   1 C :    0.290685
   2 C :    0.317916
   3 C :    0.328615
   4 C :    0.064443
   5 N :    0.540588
   6 F :    0.756406
   7 H :   -0.336054
   8 H :   -0.311019
   9 H :   -0.331327
  10 H :   -0.347348

  Mayer bond orders larger than 0.100000
B(  0-C ,  1-C ) :   1.3779 B(  0-C ,  2-C ) :  -0.1230 B(  0-C ,  5-N ) :   1.3913
B(  0-C ,  6-F ) :   0.4421 B(  1-C ,  2-C ) :   1.2528 B(  1-C ,  4-C ) :   0.1244
B(  1-C ,  7-H ) :   0.8202 B(  2-C ,  3-C ) :   1.1885 B(  2-C ,  8-H ) :   1.0310
B(  3-C ,  4-C ) :   1.2729 B(  3-C ,  9-H ) :   0.9809 B(  4-C ,  5-N ) :   1.2193
B(  4-C , 10-H ) :   0.8590

MP2 TOTAL ENERGY:     -347.019209259 Eh
FINAL SINGLE POINT ENERGY      -347.019209258547

DIPOLE MOMENT
-------------
                                X             Y             Z
Electronic contribution:     -0.96860       6.04818      -0.00000
Nuclear contribution   :      1.71734      -7.26919       0.00000
                        -----------------------------------------
Total Dipole Moment    :      0.74875      -1.22100      -0.00000
                        -----------------------------------------
Magnitude (a.u.)       :      1.43230
Magnitude (Debye)      :      3.64061

Rotational constants in cm-1:     0.197547     0.090045     0.061852
Rotational constants in MHz :  5922.295142  2699.477762  1854.271066

                             ****ORCA TERMINATED NORMALLY****
TOTAL RUN TIME: 0 days 0 hours 16 minutes 54 seconds 233 msec
