                         Program Version 5.0.4 -  RELEASE  -
|  1> !ri-mp2 aug-cc-pvqz aug-cc-pvqz/c tightscf
|  2> %pal nprocs 16 end
|  3>
|  4> * xyz 0 1
|  5> C      0.590555    1.457337    0.129753
|  6> C      1.694739   -0.815651    0.002549
|  7> C     -0.789368   -0.654893    0.262196
|  8> C      0.447978    0.006154   -0.333326
|  9> O     -1.954191    0.041487   -0.185733
| 10> H      1.450174    1.933176   -0.344932
| 11> H      0.740265    1.505313    1.211861
| 12> H     -0.298201    2.037207   -0.113238
| 13> H      2.583805   -0.370690   -0.445730
| 14> H      1.613928   -1.840373   -0.364710
| 15> H      1.858337   -0.858604    1.082387
| 16> H     -0.832465   -1.704406   -0.050526
| 17> H     -0.727572   -0.631330    1.357984
| 18> H      0.314167    0.004019   -1.419727
| 19> H     -2.732335   -0.363889    0.205458
| 20> *
| 21>
| 22>                          ****END OF INPUT****

CARTESIAN COORDINATES (ANGSTROEM)
---------------------------------
  C      0.590555    1.457337    0.129753
  C      1.694739   -0.815651    0.002549
  C     -0.789368   -0.654893    0.262196
  C      0.447978    0.006154   -0.333326
  O     -1.954191    0.041487   -0.185733
  H      1.450174    1.933176   -0.344932
  H      0.740265    1.505313    1.211861
  H     -0.298201    2.037207   -0.113238
  H      2.583805   -0.370690   -0.445730
  H      1.613928   -1.840373   -0.364710
  H      1.858337   -0.858604    1.082387
  H     -0.832465   -1.704406   -0.050526
  H     -0.727572   -0.631330    1.357984
  H      0.314167    0.004019   -1.419727
  H     -2.732335   -0.363889    0.205458

 Total Charge           Charge          ....    0
 Multiplicity           Mult            ....    1
 Number of Electrons    NEL             ....   42
 Basis Dimension        Dim             ....  860

ORBITAL ENERGIES
----------------

  NO   OCC          E(Eh)            E(eV)
   0   2.0000     -20.552025      -559.2490
   1   2.0000     -11.270199      -306.6777
   2   2.0000     -11.222244      -305.3728
   3   2.0000     -11.211648      -305.0845
   4   2.0000     -11.202472      -304.8348
   5   2.0000      -1.353738       -36.8371
   6   2.0000      -1.076658       -29.2974
   7   2.0000      -0.927283       -25.2327
   8   2.0000      -0.912948       -24.8426
   9   2.0000      -0.770022       -20.9534
  10   2.0000      -0.691206       -18.8087
  11   2.0000      -0.649117       -17.6634
  12   2.0000      -0.605743       -16.4831
  13   2.0000      -0.585843       -15.9416
  14   2.0000      -0.542184       -14.7536
  15   2.0000      -0.533154       -14.5079
  16   2.0000      -0.527777       -14.3616
  17   2.0000      -0.476239       -12.9591
  18   2.0000      -0.471953       -12.8425
  19   2.0000      -0.456938       -12.4339
  20   2.0000      -0.439956       -11.9718
  21   0.0000       0.025875         0.7041
  22   0.0000       0.031679         0.8620
  23   0.0000       0.034983         0.9519
  24   0.0000       0.035962         0.9786
  25   0.0000       0.051395         1.3985

MULLIKEN ATOMIC CHARGES
-----------------------
   0 C :   -0.916928
   1 C :   -0.872712
   2 C :    0.046515
   3 C :    0.127168
   4 O :   -0.836430
   5 H :    0.267997
   6 H :    0.191118
   7 H :    0.288841
   8 H :    0.236701
   9 H :    0.247787
  10 H :    0.195981
  11 H :    0.247401
  12 H :    0.201163
  13 H :    0.274535
  14 H :    0.300863
Sum of atomic charges:   -0.0000000

LOEWDIN ATOMIC CHARGES
----------------------
   0 C :    0.912849
   1 C :    0.910556
   2 C :    0.168139
   3 C :    0.063978
   4 O :    1.274645
   5 H :   -0.279048
   6 H :   -0.279256
   7 H :   -0.290977
   8 H :   -0.278452
   9 H :   -0.278382
  10 H :   -0.277426
  11 H :   -0.293083
  12 H :   -0.289126
  13 H :   -0.280314
  14 H :   -0.784103

  Mayer bond orders larger than 0.100000
B(  0-C ,  3-C ) :   0.7249 B(  0-C ,  5-H ) :   0.9909 B(  0-C ,  6-H ) :   0.9789
B(  0-C ,  7-H ) :   0.9743 B(  1-C ,  3-C ) :   0.7332 B(  1-C ,  8-H ) :   1.0254
B(  1-C ,  9-H ) :   0.9839 B(  1-C , 10-H ) :   0.9758 B(  2-C ,  3-C ) :   0.8082
B(  2-C ,  4-O ) :   0.6803 B(  2-C , 11-H ) :   0.9625 B(  2-C , 12-H ) :   0.9363
B(  3-C , 13-H ) :   0.8670 B(  4-O , 14-H ) :   0.9506

MP2 TOTAL ENERGY:     -233.278695012 Eh
FINAL SINGLE POINT ENERGY      -233.278695012414

DIPOLE MOMENT
-------------
                                X             Y             Z
Electronic contribution:     -4.18581      -0.18848      -0.83590
Nuclear contribution   :      4.19206      -0.30746       1.18750
                        -----------------------------------------
Total Dipole Moment    :      0.00625      -0.49594       0.35160
                        -----------------------------------------
Magnitude (a.u.)       :      0.60797
Magnitude (Debye)      :      1.54533

Rotational constants in cm-1:     0.253051     0.117153     0.088440
Rotational constants in MHz :  7586.275560  3512.161150  2651.378020

                             ****ORCA TERMINATED NORMALLY****
TOTAL RUN TIME: 0 days 0 hours 25 minutes 30 seconds 446 msec
