                         Program Version 5.0.4 -  RELEASE  -
|  1> !ri-mp2 aug-cc-pvqz aug-cc-pvqz/c tightscf
|  2> %pal nprocs 16 end
|  3>
|  4> * xyz 0 1
|  5> C     -0.370784   -1.943846    0.000000
|  6> C     -0.590876    1.724659    0.000000
|  7> C     -0.821447   -0.687962    0.000000
|  8> C      0.000000    0.523640    0.000000
|  9> C      1.497508    0.383184    0.000000
| 10> H     -1.054523   -2.781159    0.000000
| 11> H      0.684570   -2.180530    0.000000
| 12> H     -0.016812    2.641330    0.000000
| 13> H     -1.668879    1.820992    0.000000
| 14> H     -1.893631   -0.520009    0.000000
| 15> H      1.840844   -0.168419    0.877918
| 16> H      1.981179    1.358162    0.000000
| 17> H      1.840844   -0.168419   -0.877918
| 18> *
| 19>
| 20>                          ****END OF INPUT****

CARTESIAN COORDINATES (ANGSTROEM)
---------------------------------
  C     -0.370784   -1.943846    0.000000
  C     -0.590876    1.724659    0.000000
  C     -0.821447   -0.687962    0.000000
  C      0.000000    0.523640    0.000000
  C      1.497508    0.383184    0.000000
  H     -1.054523   -2.781159    0.000000
  H      0.684570   -2.180530    0.000000
  H     -0.016812    2.641330    0.000000
  H     -1.668879    1.820992    0.000000
  H     -1.893631   -0.520009    0.000000
  H      1.840844   -0.168419    0.877918
  H      1.981179    1.358162    0.000000
  H      1.840844   -0.168419   -0.877918

 Total Charge           Charge          ....    0
 Multiplicity           Mult            ....    1
 Number of Electrons    NEL             ....   38
 Basis Dimension        Dim             ....  768

ORBITAL ENERGIES
----------------

  NO   OCC          E(Eh)            E(eV)
   0   2.0000     -11.243042      -305.9387
   1   2.0000     -11.235053      -305.7213
   2   2.0000     -11.224987      -305.4474
   3   2.0000     -11.220909      -305.3365
   4   2.0000     -11.220606      -305.3282
   5   2.0000      -1.109929       -30.2027
   6   2.0000      -1.010047       -27.4848
   7   2.0000      -0.939754       -25.5720
   8   2.0000      -0.820922       -22.3384
   9   2.0000      -0.716934       -19.5088
  10   2.0000      -0.651307       -17.7230
  11   2.0000      -0.632102       -17.2004
  12   2.0000      -0.574088       -15.6217
  13   2.0000      -0.559578       -15.2269
  14   2.0000      -0.543770       -14.7967
  15   2.0000      -0.522961       -14.2305
  16   2.0000      -0.482744       -13.1361
  17   2.0000      -0.425005       -11.5650
  18   2.0000      -0.322058        -8.7636
  19   0.0000       0.027127         0.7382
  20   0.0000       0.030191         0.8215
  21   0.0000       0.032544         0.8856
  22   0.0000       0.043404         1.1811
  23   0.0000       0.045900         1.2490

MULLIKEN ATOMIC CHARGES
-----------------------
   0 C :   -0.763406
   1 C :   -0.766307
   2 C :   -0.448849
   3 C :    0.263651
   4 C :   -0.562450
   5 H :    0.310968
   6 H :    0.383324
   7 H :    0.280068
   8 H :    0.245724
   9 H :    0.383166
  10 H :    0.200492
  11 H :    0.273129
  12 H :    0.200492
Sum of atomic charges:   -0.0000000

LOEWDIN ATOMIC CHARGES
----------------------
   0 C :    0.796500
   1 C :    0.792290
   2 C :    0.311741
   3 C :   -0.099227
   4 C :    0.861359
   5 H :   -0.349869
   6 H :   -0.367368
   7 H :   -0.346891
   8 H :   -0.353476
   9 H :   -0.359670
  10 H :   -0.287594
  11 H :   -0.310200
  12 H :   -0.287594

  Mayer bond orders larger than 0.100000
B(  0-C ,  2-C ) :   1.7919 B(  0-C ,  3-C ) :  -0.1689 B(  0-C ,  5-H ) :   1.0126
B(  0-C ,  6-H ) :   0.8161 B(  1-C ,  3-C ) :   1.4025 B(  1-C ,  7-H ) :   0.9954
B(  1-C ,  8-H ) :   1.0810 B(  2-C ,  3-C ) :   0.8070 B(  2-C ,  9-H ) :   0.8304
B(  3-C ,  4-C ) :   0.6938 B(  3-C ,  7-H ) :  -0.1300 B(  3-C ,  8-H ) :  -0.1239
B(  4-C , 10-H ) :   1.0017 B(  4-C , 11-H ) :   0.9685 B(  4-C , 12-H ) :   1.0017

MP2 TOTAL ENERGY:     -194.925194865 Eh
FINAL SINGLE POINT ENERGY      -194.925194865011

DIPOLE MOMENT
-------------
                                X             Y             Z
Electronic contribution:     -1.68754      -0.01018       0.00000
Nuclear contribution   :      1.79529       0.00204       0.00000
                        -----------------------------------------
Total Dipole Moment    :      0.10776      -0.00814       0.00000
                        -----------------------------------------
Magnitude (a.u.)       :      0.10806
Magnitude (Debye)      :      0.27468

Rotational constants in cm-1:     0.285858     0.139566     0.095429
Rotational constants in MHz :  8569.798578  4184.076005  2860.893392

                             ****ORCA TERMINATED NORMALLY****
TOTAL RUN TIME: 0 days 0 hours 17 minutes 6 seconds 876 msec
