                         Program Version 5.0.4 -  RELEASE  -
|  1> !ri-mp2 aug-cc-pvqz aug-cc-pvqz/c tightscf
|  2> %pal nprocs 16 end
|  3>
|  4> * xyz 0 1
|  5> C      0.585236   -1.371153    0.000000
|  6> C      0.000000    0.803622    0.000000
|  7> N     -0.706083   -1.394643    0.000000
|  8> N      1.075996   -0.090990    0.000000
|  9> N     -1.065835   -0.067566    0.000000
| 10> O      0.019362    2.016386    0.000000
| 11> H      1.203231   -2.252103    0.000000
| 12> H      2.035972    0.202774    0.000000
| 13> H     -2.034065    0.195812    0.000000
| 14> *
| 15>
| 16>                          ****END OF INPUT****

CARTESIAN COORDINATES (ANGSTROEM)
---------------------------------
  C      0.585236   -1.371153    0.000000
  C      0.000000    0.803622    0.000000
  N     -0.706083   -1.394643    0.000000
  N      1.075996   -0.090990    0.000000
  N     -1.065835   -0.067566    0.000000
  O      0.019362    2.016386    0.000000
  H      1.203231   -2.252103    0.000000
  H      2.035972    0.202774    0.000000
  H     -2.034065    0.195812    0.000000

 Total Charge           Charge          ....    0
 Multiplicity           Mult            ....    1
 Number of Electrons    NEL             ....   44
 Basis Dimension        Dim             ....  618

ORBITAL ENERGIES
----------------

  NO   OCC          E(Eh)            E(eV)
   0   2.0000     -20.523369      -558.4693
   1   2.0000     -15.632652      -425.3861
   2   2.0000     -15.630560      -425.3292
   3   2.0000     -15.615076      -424.9078
   4   2.0000     -11.393453      -310.0316
   5   2.0000     -11.333303      -308.3949
   6   2.0000      -1.440494       -39.1978
   7   2.0000      -1.362308       -37.0703
   8   2.0000      -1.239770       -33.7359
   9   2.0000      -1.122093       -30.5337
  10   2.0000      -0.891033       -24.2462
  11   2.0000      -0.876111       -23.8402
  12   2.0000      -0.762053       -20.7365
  13   2.0000      -0.696530       -18.9535
  14   2.0000      -0.672746       -18.3063
  15   2.0000      -0.653021       -17.7696
  16   2.0000      -0.632637       -17.2149
  17   2.0000      -0.523159       -14.2359
  18   2.0000      -0.521754       -14.1976
  19   2.0000      -0.484228       -13.1765
  20   2.0000      -0.442829       -12.0500
  21   2.0000      -0.354049        -9.6342
  22   0.0000       0.017519         0.4767
  23   0.0000       0.033125         0.9014
  24   0.0000       0.036618         0.9964
  25   0.0000       0.054695         1.4883
  26   0.0000       0.067027         1.8239

MULLIKEN ATOMIC CHARGES
-----------------------
   0 C :   -0.008180
   1 C :    1.114786
   2 N :   -0.420267
   3 N :   -0.552465
   4 N :   -0.381779
   5 O :   -0.735266
   6 H :    0.545843
   7 H :    0.163376
   8 H :    0.273952
Sum of atomic charges:    0.0000000

LOEWDIN ATOMIC CHARGES
----------------------
   0 C :   -0.078447
   1 C :   -1.054078
   2 N :    0.463711
   3 N :    0.787924
   4 N :    0.547820
   5 O :    0.627105
   6 H :   -0.327277
   7 H :   -0.466422
   8 H :   -0.500335

  Mayer bond orders larger than 0.100000
B(  0-C ,  2-N ) :   1.7616 B(  0-C ,  3-N ) :   1.0877 B(  0-C ,  6-H ) :   0.7427
B(  1-C ,  3-N ) :   1.1777 B(  1-C ,  4-N ) :   1.2194 B(  1-C ,  5-O ) :   1.3531
B(  2-N ,  4-N ) :   0.5613 B(  3-N ,  5-O ) :   0.1752 B(  3-N ,  7-H ) :   1.0448
B(  4-N ,  5-O ) :   0.1894 B(  4-N ,  8-H ) :   0.9892

MP2 TOTAL ENERGY:     -317.057392678 Eh
FINAL SINGLE POINT ENERGY      -317.057392678266

DIPOLE MOMENT
-------------
                                X             Y             Z
Electronic contribution:     -0.37710       0.65383       0.00000
Nuclear contribution   :      1.16703      -1.77853       0.00000
                        -----------------------------------------
Total Dipole Moment    :      0.78993      -1.12470       0.00000
                        -----------------------------------------
Magnitude (a.u.)       :      1.37439
Magnitude (Debye)      :      3.49342

Rotational constants in cm-1:     0.318167     0.131696     0.093142
Rotational constants in MHz :  9538.411490  3948.137981  2792.335042

                             ****ORCA TERMINATED NORMALLY****
TOTAL RUN TIME: 0 days 0 hours 8 minutes 2 seconds 119 msec
