                         Program Version 5.0.4 -  RELEASE  -
|  1> !ri-mp2 aug-cc-pvqz aug-cc-pvqz/c tightscf
|  2> %pal nprocs 16 end
|  3>
|  4> * xyz 0 1
|  5> Cl     2.782522   -0.268531    0.000000
|  6> S     -0.110760   -1.024111   -0.000001
|  7> N     -3.828995   -0.415531   -0.000002
|  8> C     -0.790124    1.468188    0.000000
|  9> C      0.622911    1.455790    0.000000
| 10> C     -1.342826    0.212106    0.000000
| 11> C      1.123743    0.185775    0.000000
| 12> C     -2.711030   -0.129258   -0.000001
| 13> H     -1.387679    2.366653    0.000000
| 14> H      1.243873    2.337262    0.000002
| 15> *
| 16>
| 17>                          ****END OF INPUT****

CARTESIAN COORDINATES (ANGSTROEM)
---------------------------------
  Cl     2.782522   -0.268531    0.000000
  S     -0.110760   -1.024111   -0.000001
  N     -3.828995   -0.415531   -0.000002
  C     -0.790124    1.468188    0.000000
  C      0.622911    1.455790    0.000000
  C     -1.342826    0.212106    0.000000
  C      1.123743    0.185775    0.000000
  C     -2.711030   -0.129258   -0.000001
  H     -1.387679    2.366653    0.000000
  H      1.243873    2.337262    0.000002

 Total Charge           Charge          ....    0
 Multiplicity           Mult            ....    1
 Number of Electrons    NEL             ....   72
 Basis Dimension        Dim             ....  740

ORBITAL ENERGIES
----------------

  NO   OCC          E(Eh)            E(eV)
   0   2.0000    -104.880056     -2853.9314
   1   2.0000     -92.029765     -2504.2572
   2   2.0000     -15.584477      -424.0752
   3   2.0000     -11.360089      -309.1237
   4   2.0000     -11.320907      -308.0575
   5   2.0000     -11.292056      -307.2725
   6   2.0000     -11.290815      -307.2387
   7   2.0000     -11.276748      -306.8559
   8   2.0000     -10.604795      -288.5711
   9   2.0000      -9.030472      -245.7316
  10   2.0000      -8.071993      -219.6501
  11   2.0000      -8.070037      -219.5969
  12   2.0000      -8.069987      -219.5955
  13   2.0000      -6.711540      -182.6303
  14   2.0000      -6.711048      -182.6169
  15   2.0000      -6.710204      -182.5939
  16   2.0000      -1.246918       -33.9304
  17   2.0000      -1.226400       -33.3720
  18   2.0000      -1.159177       -31.5428
  19   2.0000      -1.040682       -28.3184
  20   2.0000      -1.016949       -27.6726
  21   2.0000      -0.865534       -23.5524
  22   2.0000      -0.780056       -21.2264
  23   2.0000      -0.743245       -20.2247
  24   2.0000      -0.650397       -17.6982
  25   2.0000      -0.610452       -16.6113
  26   2.0000      -0.598445       -16.2845
  27   2.0000      -0.595546       -16.2056
  28   2.0000      -0.571188       -15.5428
  29   2.0000      -0.535573       -14.5737
  30   2.0000      -0.529826       -14.4173
  31   2.0000      -0.486395       -13.2355
  32   2.0000      -0.479965       -13.0605
  33   2.0000      -0.472699       -12.8628
  34   2.0000      -0.390890       -10.6367
  35   2.0000      -0.350037        -9.5250
  36   0.0000       0.019835         0.5397
  37   0.0000       0.033245         0.9047
  38   0.0000       0.038403         1.0450
  39   0.0000       0.044239         1.2038
  40   0.0000       0.056444         1.5359

MULLIKEN ATOMIC CHARGES
-----------------------
   0 Cl:   -0.184379
   1 S :    0.493255
   2 N :   -0.700597
   3 C :   -0.139284
   4 C :   -0.123395
   5 C :   -0.354977
   6 C :   -0.386557
   7 C :    0.639201
   8 H :    0.378527
   9 H :    0.378205
Sum of atomic charges:    0.0000000

LOEWDIN ATOMIC CHARGES
----------------------
   0 Cl:    1.124704
   1 S :    1.261406
   2 N :    0.395473
   3 C :    0.177498
   4 C :    0.086465
   5 C :   -0.635108
   6 C :   -1.329777
   7 C :   -0.422027
   8 H :   -0.310018
   9 H :   -0.348617

  Mayer bond orders larger than 0.100000
B(  0-Cl,  4-C ) :  -0.1429 B(  0-Cl,  6-C ) :   0.8854 B(  1-S ,  5-C ) :   1.0353
B(  1-S ,  6-C ) :   1.0673 B(  2-N ,  7-C ) :   2.3847 B(  3-C ,  4-C ) :   1.2145
B(  3-C ,  5-C ) :   1.1873 B(  3-C ,  6-C ) :  -0.1336 B(  3-C ,  7-C ) :  -0.1475
B(  3-C ,  8-H ) :   0.8842 B(  4-C ,  5-C ) :  -0.2498 B(  4-C ,  6-C ) :   1.2945
B(  4-C ,  9-H ) :   0.8885 B(  5-C ,  6-C ) :  -0.1969 B(  5-C ,  7-C ) :   1.3560

MP2 TOTAL ENERGY:    -1103.516395093 Eh
FINAL SINGLE POINT ENERGY     -1103.516395092702

DIPOLE MOMENT
-------------
                                X             Y             Z
Electronic contribution:      5.27231      -3.94467      -0.00000
Nuclear contribution   :     -3.90216       4.81897       0.00000
                        -----------------------------------------
Total Dipole Moment    :      1.37015       0.87430       0.00000
                        -----------------------------------------
Magnitude (a.u.)       :      1.62533
Magnitude (Debye)      :      4.13127

Rotational constants in cm-1:     0.165153     0.027151     0.023317
Rotational constants in MHz :  4951.172425   813.960207   699.039829

                             ****ORCA TERMINATED NORMALLY****
TOTAL RUN TIME: 0 days 0 hours 18 minutes 34 seconds 818 msec
