                         Program Version 5.0.4 -  RELEASE  -
|  1> !ri-mp2 aug-cc-pvqz aug-cc-pvqz/c tightscf
|  2> %pal nprocs 16 end
|  3>
|  4> * xyz 0 1
|  5> S     -1.667961   -0.117975   -0.000019
|  6> O      2.177698   -0.373093    0.000025
|  7> C     -0.141968    0.236010   -0.000001
|  8> C      1.136462    0.528571    0.000012
|  9> H      1.833657   -1.273070    0.000026
| 10> H      1.465171    1.557929    0.000014
| 11> *
| 12>
| 13>                          ****END OF INPUT****

CARTESIAN COORDINATES (ANGSTROEM)
---------------------------------
  S     -1.667961   -0.117975   -0.000019
  O      2.177698   -0.373093    0.000025
  C     -0.141968    0.236010   -0.000001
  C      1.136462    0.528571    0.000012
  H      1.833657   -1.273070    0.000026
  H      1.465171    1.557929    0.000014

 Total Charge           Charge          ....    0
 Multiplicity           Mult            ....    1
 Number of Electrons    NEL             ....   38
 Basis Dimension        Dim             ....  416

ORBITAL ENERGIES
----------------

  NO   OCC          E(Eh)            E(eV)
   0   2.0000     -91.976559     -2502.8094
   1   2.0000     -20.610517      -560.8407
   2   2.0000     -11.326902      -308.2207
   3   2.0000     -11.320862      -308.0563
   4   2.0000      -8.979139      -244.3348
   5   2.0000      -6.660356      -181.2375
   6   2.0000      -6.659499      -181.2142
   7   2.0000      -6.657978      -181.1728
   8   2.0000      -1.416749       -38.5517
   9   2.0000      -1.102458       -29.9994
  10   2.0000      -0.980870       -26.6908
  11   2.0000      -0.805848       -21.9282
  12   2.0000      -0.670694       -18.2505
  13   2.0000      -0.623475       -16.9656
  14   2.0000      -0.604795       -16.4573
  15   2.0000      -0.570489       -15.5238
  16   2.0000      -0.483463       -13.1557
  17   2.0000      -0.433664       -11.8006
  18   2.0000      -0.315638        -8.5890
  19   0.0000       0.021918         0.5964
  20   0.0000       0.034198         0.9306
  21   0.0000       0.037630         1.0240
  22   0.0000       0.050354         1.3702
  23   0.0000       0.067932         1.8485

MULLIKEN ATOMIC CHARGES
-----------------------
   0 S :    0.139609
   1 O :   -0.678105
   2 C :   -0.515941
   3 C :    0.216397
   4 H :    0.341789
   5 H :    0.496251
Sum of atomic charges:    0.0000000

LOEWDIN ATOMIC CHARGES
----------------------
   0 S :    0.981857
   1 O :    1.200491
   2 C :   -0.752183
   3 C :   -0.190260
   4 H :   -0.822355
   5 H :   -0.417551

  Mayer bond orders larger than 0.100000
B(  0-S ,  2-C ) :   1.8426 B(  1-O ,  2-C ) :   0.1117 B(  1-O ,  3-C ) :   0.8115
B(  1-O ,  4-H ) :   0.8799 B(  2-C ,  3-C ) :   1.7438 B(  3-C ,  5-H ) :   0.7344

MP2 TOTAL ENERGY:     -550.080881492 Eh
FINAL SINGLE POINT ENERGY      -550.080881491615

DIPOLE MOMENT
-------------
                                X             Y             Z
Electronic contribution:     -3.03422      -0.38418      -0.00003
Nuclear contribution   :      3.25991       0.27220       0.00004
                        -----------------------------------------
Total Dipole Moment    :      0.22570      -0.11198       0.00000
                        -----------------------------------------
Magnitude (a.u.)       :      0.25195
Magnitude (Debye)      :      0.64040

Rotational constants in cm-1:     1.564204     0.090524     0.085572
Rotational constants in MHz : 46893.650861  2713.849971  2565.384889

                             ****ORCA TERMINATED NORMALLY****
TOTAL RUN TIME: 0 days 0 hours 3 minutes 1 seconds 694 msec
