                         Program Version 5.0.4 -  RELEASE  -
|  1> !ri-mp2 aug-cc-pvqz aug-cc-pvqz/c tightscf
|  2> %pal nprocs 16 end
|  3>
|  4> * xyz 0 1
|  5> O      2.347421   -0.187082   -0.656389
|  6> C      1.620033    0.221901    0.509756
|  7> C      0.166572    0.196034    0.229739
|  8> C     -0.747500    1.169251   -0.020672
|  9> C     -2.002371    0.514222   -0.220304
| 10> C     -1.758701   -0.811172   -0.075955
| 11> O     -0.446384   -1.026217    0.202246
| 12> H      3.264764   -0.337168   -0.408291
| 13> H      1.894901    1.240412    0.798884
| 14> H      1.842877   -0.446236    1.347719
| 15> H     -0.548601    2.226247   -0.064386
| 16> H     -2.952138    0.969176   -0.441152
| 17> H     -2.378300   -1.687460   -0.135014
| 18> *
| 19>
| 20>                          ****END OF INPUT****

CARTESIAN COORDINATES (ANGSTROEM)
---------------------------------
  O      2.347421   -0.187082   -0.656389
  C      1.620033    0.221901    0.509756
  C      0.166572    0.196034    0.229739
  C     -0.747500    1.169251   -0.020672
  C     -2.002371    0.514222   -0.220304
  C     -1.758701   -0.811172   -0.075955
  O     -0.446384   -1.026217    0.202246
  H      3.264764   -0.337168   -0.408291
  H      1.894901    1.240412    0.798884
  H      1.842877   -0.446236    1.347719
  H     -0.548601    2.226247   -0.064386
  H     -2.952138    0.969176   -0.441152
  H     -2.378300   -1.687460   -0.135014

 Total Charge           Charge          ....    0
 Multiplicity           Mult            ....    1
 Number of Electrons    NEL             ....   52
 Basis Dimension        Dim             ....  836

ORBITAL ENERGIES
----------------

  NO   OCC          E(Eh)            E(eV)
   0   2.0000     -20.616480      -561.0029
   1   2.0000     -20.561478      -559.5063
   2   2.0000     -11.293544      -307.3129
   3   2.0000     -11.286768      -307.1286
   4   2.0000     -11.285313      -307.0890
   5   2.0000     -11.227882      -305.5262
   6   2.0000     -11.226180      -305.4799
   7   2.0000      -1.455541       -39.6073
   8   2.0000      -1.361016       -37.0351
   9   2.0000      -1.085017       -29.5248
  10   2.0000      -1.039206       -28.2782
  11   2.0000      -0.920990       -25.0614
  12   2.0000      -0.808847       -22.0098
  13   2.0000      -0.763521       -20.7765
  14   2.0000      -0.719140       -19.5688
  15   2.0000      -0.700650       -19.0657
  16   2.0000      -0.639146       -17.3921
  17   2.0000      -0.626863       -17.0578
  18   2.0000      -0.598681       -16.2909
  19   2.0000      -0.573967       -15.6184
  20   2.0000      -0.562467       -15.3055
  21   2.0000      -0.543308       -14.7842
  22   2.0000      -0.513310       -13.9679
  23   2.0000      -0.459739       -12.5101
  24   2.0000      -0.397101       -10.8057
  25   2.0000      -0.316582        -8.6146
  26   0.0000       0.024277         0.6606
  27   0.0000       0.028209         0.7676
  28   0.0000       0.032187         0.8759
  29   0.0000       0.041493         1.1291
  30   0.0000       0.043459         1.1826

MULLIKEN ATOMIC CHARGES
-----------------------
   0 O :   -0.751537
   1 C :    0.267961
   2 C :    0.385430
   3 C :   -0.623694
   4 C :   -0.403058
   5 C :   -0.388681
   6 O :   -0.634027
   7 H :    0.311285
   8 H :    0.218952
   9 H :    0.244268
  10 H :    0.356063
  11 H :    0.446827
  12 H :    0.570210
Sum of atomic charges:    0.0000000

LOEWDIN ATOMIC CHARGES
----------------------
   0 O :    1.253273
   1 C :    0.165554
   2 C :   -0.464285
   3 C :    0.304547
   4 C :    0.301144
   5 C :   -0.002967
   6 O :    0.858488
   7 H :   -0.797209
   8 H :   -0.320686
   9 H :   -0.311909
  10 H :   -0.318363
  11 H :   -0.332463
  12 H :   -0.335124

  Mayer bond orders larger than 0.100000
B(  0-O ,  1-C ) :   0.6560 B(  0-O ,  7-H ) :   0.9321 B(  1-C ,  2-C ) :   0.7874
B(  1-C ,  3-C ) :  -0.1183 B(  1-C ,  8-H ) :   1.0385 B(  1-C ,  9-H ) :   0.9319
B(  2-C ,  3-C ) :   1.3778 B(  2-C ,  4-C ) :  -0.3656 B(  2-C ,  6-O ) :   0.5817
B(  2-C ,  8-H ) :  -0.1165 B(  3-C ,  4-C ) :   1.1428 B(  3-C , 10-H ) :   0.9212
B(  4-C ,  5-C ) :   1.6985 B(  4-C , 11-H ) :   0.8370 B(  5-C ,  6-O ) :   0.9785
B(  5-C , 12-H ) :   0.7435

MP2 TOTAL ENERGY:     -344.040209953 Eh
FINAL SINGLE POINT ENERGY      -344.040209953244

DIPOLE MOMENT
-------------
                                X             Y             Z
Electronic contribution:     -0.97608      -1.60527      -0.51423
Nuclear contribution   :      1.14828       1.93709       1.08570
                        -----------------------------------------
Total Dipole Moment    :      0.17220       0.33182       0.57146
                        -----------------------------------------
Magnitude (a.u.)       :      0.68288
Magnitude (Debye)      :      1.73575

Rotational constants in cm-1:     0.236325     0.064196     0.055367
Rotational constants in MHz :  7084.853970  1924.551138  1659.865156

                             ****ORCA TERMINATED NORMALLY****
TOTAL RUN TIME: 0 days 0 hours 25 minutes 0 seconds 543 msec
