                         Program Version 5.0.4 -  RELEASE  -
|  1> !ri-mp2 aug-cc-pvqz aug-cc-pvqz/c tightscf
|  2> %pal nprocs 16 end
|  3>
|  4> * xyz 0 1
|  5> Cl    1.196824   -1.594182   -0.748571
|  6> Cl   -0.018487    1.607823   -0.809981
|  7> O     1.639322    1.360355    1.198885
|  8> O    -2.947869   -0.058570   -0.171301
|  9> C     0.488767   -0.684550    0.702596
| 10> C     0.860125    0.779605    0.528686
| 11> C    -0.940974   -0.958589    0.955829
| 12> C    -1.982431   -0.450327    0.322211
| 13> H     1.078224   -1.040998    1.539221
| 14> H    -1.194497   -1.722002    1.679561
| 15> *
| 16>
| 17>                          ****END OF INPUT****

CARTESIAN COORDINATES (ANGSTROEM)
---------------------------------
  Cl     1.196824   -1.594182   -0.748571
  Cl    -0.018487    1.607823   -0.809981
  O      1.639322    1.360355    1.198885
  O     -2.947869   -0.058570   -0.171301
  C      0.488767   -0.684550    0.702596
  C      0.860125    0.779605    0.528686
  C     -0.940974   -0.958589    0.955829
  C     -1.982431   -0.450327    0.322211
  H      1.078224   -1.040998    1.539221
  H     -1.194497   -1.722002    1.679561

 Total Charge           Charge          ....    0
 Multiplicity           Mult            ....    1
 Number of Electrons    NEL             ....   76
 Basis Dimension        Dim             ....  740

ORBITAL ENERGIES
----------------

  NO   OCC          E(Eh)            E(eV)
   0   2.0000    -104.866537     -2853.5635
   1   2.0000    -104.851659     -2853.1587
   2   2.0000     -20.659864      -562.1835
   3   2.0000     -20.615215      -560.9685
   4   2.0000     -11.433295      -311.1158
   5   2.0000     -11.417691      -310.6912
   6   2.0000     -11.368367      -309.3490
   7   2.0000     -11.279122      -306.9205
   8   2.0000     -10.592242      -288.2296
   9   2.0000     -10.576708      -287.8068
  10   2.0000      -8.059092      -219.2991
  11   2.0000      -8.057446      -219.2542
  12   2.0000      -8.057372      -219.2522
  13   2.0000      -8.043600      -218.8775
  14   2.0000      -8.041878      -218.8306
  15   2.0000      -8.041819      -218.8290
  16   2.0000      -1.509988       -41.0889
  17   2.0000      -1.473570       -40.0979
  18   2.0000      -1.193638       -32.4805
  19   2.0000      -1.135736       -30.9049
  20   2.0000      -1.089804       -29.6551
  21   2.0000      -0.981400       -26.7053
  22   2.0000      -0.825815       -22.4716
  23   2.0000      -0.773933       -21.0598
  24   2.0000      -0.733212       -19.9517
  25   2.0000      -0.715222       -19.4622
  26   2.0000      -0.678707       -18.4685
  27   2.0000      -0.678511       -18.4632
  28   2.0000      -0.652401       -17.7527
  29   2.0000      -0.623214       -16.9585
  30   2.0000      -0.608130       -16.5481
  31   2.0000      -0.562342       -15.3021
  32   2.0000      -0.501742       -13.6531
  33   2.0000      -0.489263       -13.3135
  34   2.0000      -0.485410       -13.2087
  35   2.0000      -0.466620       -12.6974
  36   2.0000      -0.455722       -12.4008
  37   2.0000      -0.386957       -10.5296
  38   0.0000       0.018665         0.5079
  39   0.0000       0.035297         0.9605
  40   0.0000       0.046289         1.2596
  41   0.0000       0.050999         1.3877
  42   0.0000       0.062294         1.6951

MULLIKEN ATOMIC CHARGES
-----------------------
   0 Cl:   -0.350533
   1 Cl:   -0.192754
   2 O :   -0.657686
   3 O :   -0.682435
   4 C :    0.173238
   5 C :    0.765305
   6 C :   -0.808232
   7 C :    1.005249
   8 H :    0.310568
   9 H :    0.437281
Sum of atomic charges:   -0.0000000

LOEWDIN ATOMIC CHARGES
----------------------
   0 Cl:    1.087782
   1 Cl:    1.092571
   2 O :    0.614369
   3 O :    0.669817
   4 C :   -0.739827
   5 C :   -1.496609
   6 C :    0.138498
   7 C :   -0.502172
   8 H :   -0.476074
   9 H :   -0.388356

  Mayer bond orders larger than 0.100000
B(  0-Cl,  4-C ) :   0.7815 B(  1-Cl,  4-C ) :  -0.1083 B(  1-Cl,  5-C ) :   0.9157
B(  2-O ,  5-C ) :   1.5590 B(  3-O ,  6-C ) :   0.2309 B(  3-O ,  7-C ) :   1.5502
B(  4-C ,  5-C ) :   0.8962 B(  4-C ,  6-C ) :   0.9444 B(  4-C ,  8-H ) :   0.8748
B(  6-C ,  7-C ) :   1.9128 B(  6-C ,  9-H ) :   0.7808

MP2 TOTAL ENERGY:    -1223.080699836 Eh
FINAL SINGLE POINT ENERGY     -1223.080699835789

DIPOLE MOMENT
-------------
                                X             Y             Z
Electronic contribution:      1.29022       1.79193      -4.45734
Nuclear contribution   :     -1.70079      -2.57727       5.09924
                        -----------------------------------------
Total Dipole Moment    :     -0.41057      -0.78534       0.64190
                        -----------------------------------------
Magnitude (a.u.)       :      1.09424
Magnitude (Debye)      :      2.78133

Rotational constants in cm-1:     0.050358     0.042331     0.030819
Rotational constants in MHz :  1509.705171  1269.045673   923.945047

                             ****ORCA TERMINATED NORMALLY****
TOTAL RUN TIME: 0 days 0 hours 19 minutes 3 seconds 356 msec
