                         Program Version 5.0.4 -  RELEASE  -
|  1> !ri-mp2 aug-cc-pvqz aug-cc-pvqz/c tightscf
|  2> %pal nprocs 16 end
|  3> %maxcore 3800
|  4>
|  5> * xyz 0 1
|  6> C      0.261359    2.728775    1.263761
|  7> C      0.261359    2.728775   -1.263761
|  8> C      0.261359   -2.190212   -1.255251
|  9> C      0.261359   -2.190212    1.255251
| 10> C     -1.897219   -2.110279    0.000000
| 11> C      0.930924    0.602207    0.000000
| 12> C     -0.435871   -0.089408    0.000000
| 13> C      0.902632    2.145688    0.000000
| 14> C     -0.433736   -1.639048    0.000000
| 15> H      0.722844    2.323751    2.166617
| 16> H     -0.807615    2.513614    1.310589
| 17> H      0.375647    3.813898    1.290358
| 18> H     -0.807615    2.513614   -1.310589
| 19> H      0.375647    3.813898   -1.290358
| 20> H      0.722844    2.323751   -2.166617
| 21> H     -0.197356   -1.795095   -2.164364
| 22> H      1.321852   -1.937870   -1.278005
| 23> H      0.183154   -3.278767   -1.290423
| 24> H      1.321852   -1.937870    1.278005
| 25> H     -0.197356   -1.795095    2.164364
| 26> H      0.183154   -3.278767    1.290423
| 27> H     -2.428479   -1.746411   -0.882025
| 28> H     -2.428479   -1.746411    0.882025
| 29> H     -1.958193   -3.200485    0.000000
| 30> H      1.502655    0.279924   -0.874023
| 31> H      1.502655    0.279924    0.874023
| 32> H     -1.005955    0.238235   -0.873903
| 33> H     -1.005955    0.238235    0.873903
| 34> H      1.951716    2.460219    0.000000
| 35> *
| 36>
| 37>                          ****END OF INPUT****

CARTESIAN COORDINATES (ANGSTROEM)
---------------------------------
  C      0.261359    2.728775    1.263761
  C      0.261359    2.728775   -1.263761
  C      0.261359   -2.190212   -1.255251
  C      0.261359   -2.190212    1.255251
  C     -1.897219   -2.110279    0.000000
  C      0.930924    0.602207    0.000000
  C     -0.435871   -0.089408    0.000000
  C      0.902632    2.145688    0.000000
  C     -0.433736   -1.639048    0.000000
  H      0.722844    2.323751    2.166617
  H     -0.807615    2.513614    1.310589
  H      0.375647    3.813898    1.290358
  H     -0.807615    2.513614   -1.310589
  H      0.375647    3.813898   -1.290358
  H      0.722844    2.323751   -2.166617
  H     -0.197356   -1.795095   -2.164364
  H      1.321852   -1.937870   -1.278005
  H      0.183154   -3.278767   -1.290423
  H      1.321852   -1.937870    1.278005
  H     -0.197356   -1.795095    2.164364
  H      0.183154   -3.278767    1.290423
  H     -2.428479   -1.746411   -0.882025
  H     -2.428479   -1.746411    0.882025
  H     -1.958193   -3.200485    0.000000
  H      1.502655    0.279924   -0.874023
  H      1.502655    0.279924    0.874023
  H     -1.005955    0.238235   -0.873903
  H     -1.005955    0.238235    0.873903
  H      1.951716    2.460219    0.000000

 Total Charge           Charge          ....    0
 Multiplicity           Mult            ....    1
 Number of Electrons    NEL             ....   74
 Basis Dimension        Dim             .... 1640

ORBITAL ENERGIES
----------------

  NO   OCC          E(Eh)            E(eV)
   0   2.0000     -11.228642      -305.5469
   1   2.0000     -11.220944      -305.3374
   2   2.0000     -11.209347      -305.0218
   3   2.0000     -11.208426      -304.9968
   4   2.0000     -11.205475      -304.9165
   5   2.0000     -11.205452      -304.9159
   6   2.0000     -11.204577      -304.8920
   7   2.0000     -11.204568      -304.8918
   8   2.0000     -11.204544      -304.8911
   9   2.0000      -1.110685       -30.2233
  10   2.0000      -1.073943       -29.2235
  11   2.0000      -0.972313       -26.4580
  12   2.0000      -0.927358       -25.2347
  13   2.0000      -0.926633       -25.2150
  14   2.0000      -0.925015       -25.1709
  15   2.0000      -0.864922       -23.5357
  16   2.0000      -0.755488       -20.5579
  17   2.0000      -0.720355       -19.6019
  18   2.0000      -0.635494       -17.2927
  19   2.0000      -0.628139       -17.0925
  20   2.0000      -0.602133       -16.3849
  21   2.0000      -0.593044       -16.1375
  22   2.0000      -0.592070       -16.1110
  23   2.0000      -0.578588       -15.7442
  24   2.0000      -0.550824       -14.9887
  25   2.0000      -0.541840       -14.7442
  26   2.0000      -0.531444       -14.4613
  27   2.0000      -0.514877       -14.0105
  28   2.0000      -0.509255       -13.8575
  29   2.0000      -0.508115       -13.8265
  30   2.0000      -0.486620       -13.2416
  31   2.0000      -0.473951       -12.8969
  32   2.0000      -0.465124       -12.6567
  33   2.0000      -0.458501       -12.4765
  34   2.0000      -0.443849       -12.0778
  35   2.0000      -0.432060       -11.7569
  36   2.0000      -0.425238       -11.5713
  37   0.0000       0.024790         0.6746
  38   0.0000       0.028318         0.7706
  39   0.0000       0.030243         0.8230
  40   0.0000       0.030796         0.8380
  41   0.0000       0.041006         1.1158

MULLIKEN ATOMIC CHARGES
-----------------------
   0 C :   -0.968057
   1 C :   -0.968068
   2 C :   -1.128539
   3 C :   -1.128625
   4 C :   -1.171743
   5 C :   -0.223275
   6 C :   -0.010892
   7 C :    0.087229
   8 C :    1.380126
   9 H :    0.186042
  10 H :    0.170689
  11 H :    0.263965
  12 H :    0.170706
  13 H :    0.263994
  14 H :    0.186021
  15 H :    0.174023
  16 H :    0.182622
  17 H :    0.225165
  18 H :    0.182643
  19 H :    0.174020
  20 H :    0.225130
  21 H :    0.211251
  22 H :    0.211249
  23 H :    0.231438
  24 H :    0.202830
  25 H :    0.202880
  26 H :    0.207995
  27 H :    0.208142
  28 H :    0.251036
Sum of atomic charges:   -0.0000000

LOEWDIN ATOMIC CHARGES
----------------------
   0 C :    0.928019
   1 C :    0.928019
   2 C :    0.916537
   3 C :    0.916537
   4 C :    0.908164
   5 C :    0.538856
   6 C :    0.512831
   7 C :    0.128536
   8 C :   -0.270647
   9 H :   -0.269608
  10 H :   -0.286504
  11 H :   -0.275000
  12 H :   -0.286504
  13 H :   -0.275000
  14 H :   -0.269608
  15 H :   -0.262635
  16 H :   -0.283261
  17 H :   -0.270338
  18 H :   -0.283261
  19 H :   -0.262635
  20 H :   -0.270338
  21 H :   -0.268412
  22 H :   -0.268412
  23 H :   -0.272143
  24 H :   -0.280081
  25 H :   -0.280081
  26 H :   -0.282496
  27 H :   -0.282496
  28 H :   -0.278036

  Mayer bond orders larger than 0.100000
B(  0-C ,  1-C ) :   0.1131 B(  0-C ,  7-C ) :   0.7304 B(  0-C ,  9-H ) :   1.0520
B(  0-C , 10-H ) :   1.0141 B(  0-C , 11-H ) :   1.0359 B(  1-C ,  7-C ) :   0.7304
B(  1-C , 12-H ) :   1.0141 B(  1-C , 13-H ) :   1.0359 B(  1-C , 14-H ) :   1.0520
B(  2-C ,  3-C ) :   0.1393 B(  2-C ,  4-C ) :   0.1752 B(  2-C ,  8-C ) :   0.2353
B(  2-C , 15-H ) :   1.1278 B(  2-C , 16-H ) :   1.0995 B(  2-C , 17-H ) :   1.0838
B(  3-C ,  4-C ) :   0.1751 B(  3-C ,  8-C ) :   0.2354 B(  3-C , 18-H ) :   1.0994
B(  3-C , 19-H ) :   1.1278 B(  3-C , 20-H ) :   1.0839 B(  4-C ,  6-C ) :  -0.1365
B(  4-C ,  8-C ) :   0.3528 B(  4-C , 21-H ) :   1.0936 B(  4-C , 22-H ) :   1.0936
B(  4-C , 23-H ) :   1.0672 B(  5-C ,  6-C ) :   0.5724 B(  5-C ,  7-C ) :   0.8162
B(  5-C , 24-H ) :   0.9136 B(  5-C , 25-H ) :   0.9136 B(  5-C , 28-H ) :  -0.1035
B(  6-C ,  7-C ) :  -0.2493 B(  6-C ,  8-C ) :   0.7773 B(  6-C , 26-H ) :   0.9110
B(  6-C , 27-H ) :   0.9110 B(  7-C , 11-H ) :  -0.1002 B(  7-C , 13-H ) :  -0.1001
B(  7-C , 28-H ) :   0.9646 B(  8-C , 15-H ) :  -0.1189 B(  8-C , 16-H ) :  -0.1581
B(  8-C , 17-H ) :  -0.1302 B(  8-C , 18-H ) :  -0.1581 B(  8-C , 19-H ) :  -0.1189
B(  8-C , 20-H ) :  -0.1302 B(  8-C , 21-H ) :  -0.1494 B(  8-C , 22-H ) :  -0.1494
B(  8-C , 23-H ) :  -0.1186

MP2 TOTAL ENERGY:     -354.320343050 Eh
FINAL SINGLE POINT ENERGY      -354.320343050196

DIPOLE MOMENT
-------------
                                X             Y             Z
Electronic contribution:      0.78336      -0.06950       0.00000
Nuclear contribution   :     -0.72923       0.08917       0.00000
                        -----------------------------------------
Total Dipole Moment    :      0.05413       0.01967       0.00000
                        -----------------------------------------
Magnitude (a.u.)       :      0.05759
Magnitude (Debye)      :      0.14639

Rotational constants in cm-1:     0.087484     0.025741     0.024478
Rotational constants in MHz :  2622.708656   771.685710   733.826736

                             ****ORCA TERMINATED NORMALLY****
TOTAL RUN TIME: 0 days 3 hours 55 minutes 12 seconds 159 msec
