                         Program Version 5.0.4 -  RELEASE  -
|  1> !ri-mp2 aug-cc-pvqz aug-cc-pvqz/c tightscf
|  2> %pal nprocs 16 end
|  3>
|  4> * xyz 0 1
|  5> S     2.376125   -1.341871    -0.155715
|  6> S    -2.376123   -1.341874    -0.155714
|  7> O    -0.000002    2.271956    -1.220927
|  8> O    -0.000002    2.134769     1.026292
|  9> C     0.000000    0.080610    -0.199333
| 10> C     0.000000    1.613145    -0.221280
| 11> C     1.234770   -0.423018     0.519041
| 12> C    -1.234769   -0.423020     0.519042
| 13> H    -0.000002    3.100348     0.941425
| 14> H     0.000000   -0.255540    -1.230687
| 15> H     1.305553   -0.122487     1.562193
| 16> H    -1.305552   -0.122490     1.562194
| 17> *
| 18>
| 19>                          ****END OF INPUT****

CARTESIAN COORDINATES (ANGSTROEM)
---------------------------------
  S      2.376125   -1.341871   -0.155715
  S     -2.376123   -1.341874   -0.155714
  O     -0.000002    2.271956   -1.220927
  O     -0.000002    2.134769    1.026292
  C      0.000000    0.080610   -0.199333
  C      0.000000    1.613145   -0.221280
  C      1.234770   -0.423018    0.519041
  C     -1.234769   -0.423020    0.519042
  H     -0.000002    3.100348    0.941425
  H      0.000000   -0.255540   -1.230687
  H      1.305553   -0.122487    1.562193
  H     -1.305552   -0.122490    1.562194

 Total Charge           Charge          ....    0
 Multiplicity           Mult            ....    1
 Number of Electrons    NEL             ....   76
 Basis Dimension        Dim             ....  832

ORBITAL ENERGIES
----------------

  NO   OCC          E(Eh)            E(eV)
   0   2.0000     -91.967578     -2502.5650
   1   2.0000     -91.967578     -2502.5650
   2   2.0000     -20.644404      -561.7628
   3   2.0000     -20.581082      -560.0397
   4   2.0000     -11.422101      -310.8112
   5   2.0000     -11.344832      -308.7086
   6   2.0000     -11.344830      -308.7085
   7   2.0000     -11.301450      -307.5281
   8   2.0000      -8.970516      -244.1002
   9   2.0000      -8.970516      -244.1001
  10   2.0000      -6.651316      -180.9915
  11   2.0000      -6.651316      -180.9915
  12   2.0000      -6.651074      -180.9849
  13   2.0000      -6.651074      -180.9849
  14   2.0000      -6.649318      -180.9372
  15   2.0000      -6.649318      -180.9372
  16   2.0000      -1.499338       -40.7991
  17   2.0000      -1.398190       -38.0467
  18   2.0000      -1.167898       -31.7801
  19   2.0000      -1.078310       -29.3423
  20   2.0000      -1.006048       -27.3759
  21   2.0000      -0.869866       -23.6703
  22   2.0000      -0.817514       -22.2457
  23   2.0000      -0.812392       -22.1063
  24   2.0000      -0.734588       -19.9892
  25   2.0000      -0.717518       -19.5247
  26   2.0000      -0.675316       -18.3763
  27   2.0000      -0.638682       -17.3794
  28   2.0000      -0.625280       -17.0147
  29   2.0000      -0.600421       -16.3383
  30   2.0000      -0.551106       -14.9964
  31   2.0000      -0.542374       -14.7587
  32   2.0000      -0.517192       -14.0735
  33   2.0000      -0.501076       -13.6350
  34   2.0000      -0.429583       -11.6896
  35   2.0000      -0.421621       -11.4729
  36   2.0000      -0.371722       -10.1151
  37   2.0000      -0.360076        -9.7982
  38   0.0000       0.009932         0.2703
  39   0.0000       0.018289         0.4977
  40   0.0000       0.032386         0.8813
  41   0.0000       0.035745         0.9727
  42   0.0000       0.038659         1.0520

MULLIKEN ATOMIC CHARGES
-----------------------
   0 S :   -0.000467
   1 S :   -0.000467
   2 O :   -0.766375
   3 O :   -0.732583
   4 C :    0.076706
   5 C :    1.160699
   6 C :   -0.642526
   7 C :   -0.642528
   8 H :    0.323275
   9 H :    0.457847
  10 H :    0.383209
  11 H :    0.383209
Sum of atomic charges:    0.0000000

LOEWDIN ATOMIC CHARGES
----------------------
   0 S :    1.187382
   1 S :    1.187382
   2 O :    0.728599
   3 O :    1.259022
   4 C :   -0.269569
   5 C :   -1.064780
   6 C :   -0.444558
   7 C :   -0.444557
   8 H :   -0.788326
   9 H :   -0.451471
  10 H :   -0.449562
  11 H :   -0.449562

  Mayer bond orders larger than 0.100000
B(  0-S ,  6-C ) :   1.7737 B(  1-S ,  7-C ) :   1.7737 B(  2-O ,  3-O ) :   0.1024
B(  2-O ,  5-C ) :   1.3126 B(  3-O ,  5-C ) :   0.8932 B(  3-O ,  8-H ) :   0.9310
B(  4-C ,  5-C ) :   1.0264 B(  4-C ,  6-C ) :   0.8154 B(  4-C ,  7-C ) :   0.8154
B(  4-C ,  9-H ) :   0.7803 B(  6-C , 10-H ) :   0.8431 B(  7-C , 11-H ) :   0.8431

MP2 TOTAL ENERGY:    -1100.280809630 Eh
FINAL SINGLE POINT ENERGY     -1100.280809630478

DIPOLE MOMENT
-------------
                                X             Y             Z
Electronic contribution:      0.00000      -1.98790      -1.56736
Nuclear contribution   :     -0.00000       2.65070       2.73696
                        -----------------------------------------
Total Dipole Moment    :      0.00000       0.66281       1.16960
                        -----------------------------------------
Magnitude (a.u.)       :      1.34435
Magnitude (Debye)      :      3.41706

Rotational constants in cm-1:     0.045147     0.036717     0.023465
Rotational constants in MHz :  1353.469081  1100.738788   703.450161

                             ****ORCA TERMINATED NORMALLY****
TOTAL RUN TIME: 0 days 0 hours 27 minutes 45 seconds 219 msec
