                         Program Version 5.0.4 -  RELEASE  -
|  1> !ri-mp2 aug-cc-pvqz aug-cc-pvqz/c tightscf
|  2> %pal nprocs 16 end
|  3> %maxcore 3800
|  4>
|  5> * xyz 0 1
|  6> C     4.003632    0.781182   -0.318561
|  7> C     2.827443    1.218501    0.371503
|  8> C    -2.371864    1.192790   -0.026218
|  9> C     3.730184   -0.458141   -0.785971
| 10> C    -4.074244   -0.047206   -0.382089
| 11> C    -1.871478   -0.079363   -0.130780
| 12> C     1.920234    0.210847    0.273998
| 13> C     0.008227   -1.281057    1.209323
| 14> C    -0.510143   -0.639727   -0.057973
| 15> C     0.549025    0.058342    0.769007
| 16> N    -3.738614    1.201606   -0.180938
| 17> N    -2.984446   -0.866017   -0.361682
| 18> O     2.461749   -0.825836   -0.433788
| 19> H     4.925307    1.321844   -0.446217
| 20> H     2.677596    2.159109    0.872631
| 21> H    -1.821739    2.102483    0.144386
| 22> H     4.287911   -1.179392   -1.354371
| 23> H    -5.072787   -0.417046   -0.546593
| 24> H    -0.640952   -1.290605    2.073149
| 25> H     0.657884   -2.137778    1.105053
| 26> H    -0.139037   -1.085527   -0.973867
| 27> H     0.211409    0.911932    1.338833
| 28> H    -2.984259   -1.864464   -0.477790
| 29> *
| 30>
| 31>                          ****END OF INPUT****

CARTESIAN COORDINATES (ANGSTROEM)
---------------------------------
  C      4.003632    0.781182   -0.318561
  C      2.827443    1.218501    0.371503
  C     -2.371864    1.192790   -0.026218
  C      3.730184   -0.458141   -0.785971
  C     -4.074244   -0.047206   -0.382089
  C     -1.871478   -0.079363   -0.130780
  C      1.920234    0.210847    0.273998
  C      0.008227   -1.281057    1.209323
  C     -0.510143   -0.639727   -0.057973
  C      0.549025    0.058342    0.769007
  N     -3.738614    1.201606   -0.180938
  N     -2.984446   -0.866017   -0.361682
  O      2.461749   -0.825836   -0.433788
  H      4.925307    1.321844   -0.446217
  H      2.677596    2.159109    0.872631
  H     -1.821739    2.102483    0.144386
  H      4.287911   -1.179392   -1.354371
  H     -5.072787   -0.417046   -0.546593
  H     -0.640952   -1.290605    2.073149
  H      0.657884   -2.137778    1.105053
  H     -0.139037   -1.085527   -0.973867
  H      0.211409    0.911932    1.338833
  H     -2.984259   -1.864464   -0.477790

 Total Charge           Charge          ....    0
 Multiplicity           Mult            ....    1
 Number of Electrons    NEL             ....   92
 Basis Dimension        Dim             .... 1500

ORBITAL ENERGIES
----------------

  NO   OCC          E(Eh)            E(eV)
   0   2.0000     -20.619427      -561.0831
   1   2.0000     -15.615301      -424.9139
   2   2.0000     -15.540078      -422.8670
   3   2.0000     -11.296342      -307.3891
   4   2.0000     -11.292778      -307.2921
   5   2.0000     -11.284319      -307.0619
   6   2.0000     -11.264889      -306.5332
   7   2.0000     -11.255182      -306.2691
   8   2.0000     -11.254337      -306.2461
   9   2.0000     -11.241077      -305.8853
  10   2.0000     -11.237161      -305.7787
  11   2.0000     -11.229340      -305.5659
  12   2.0000     -11.223740      -305.4135
  13   2.0000      -1.457337       -39.6562
  14   2.0000      -1.339728       -36.4558
  15   2.0000      -1.177723       -32.0475
  16   2.0000      -1.159656       -31.5558
  17   2.0000      -1.084827       -29.5196
  18   2.0000      -1.026719       -27.9384
  19   2.0000      -0.999283       -27.1919
  20   2.0000      -0.872530       -23.7428
  21   2.0000      -0.855345       -23.2751
  22   2.0000      -0.822079       -22.3699
  23   2.0000      -0.811224       -22.0745
  24   2.0000      -0.790341       -21.5063
  25   2.0000      -0.759151       -20.6575
  26   2.0000      -0.733950       -19.9718
  27   2.0000      -0.724399       -19.7119
  28   2.0000      -0.645965       -17.5776
  29   2.0000      -0.642281       -17.4774
  30   2.0000      -0.637400       -17.3445
  31   2.0000      -0.609821       -16.5941
  32   2.0000      -0.597282       -16.2529
  33   2.0000      -0.581043       -15.8110
  34   2.0000      -0.569542       -15.4980
  35   2.0000      -0.564262       -15.3543
  36   2.0000      -0.548014       -14.9122
  37   2.0000      -0.544578       -14.8187
  38   2.0000      -0.535743       -14.5783
  39   2.0000      -0.465276       -12.6608
  40   2.0000      -0.458545       -12.4777
  41   2.0000      -0.425471       -11.5777
  42   2.0000      -0.398249       -10.8369
  43   2.0000      -0.397053       -10.8044
  44   2.0000      -0.312284        -8.4977
  45   2.0000      -0.304187        -8.2773
  46   0.0000       0.019168         0.5216
  47   0.0000       0.023619         0.6427
  48   0.0000       0.028389         0.7725
  49   0.0000       0.031625         0.8606
  50   0.0000       0.037177         1.0116

MULLIKEN ATOMIC CHARGES
-----------------------
   0 C :   -0.373274
   1 C :   -0.752664
   2 C :   -0.222975
   3 C :   -0.546882
   4 C :   -0.202350
   5 C :    0.604321
   6 C :    0.608970
   7 C :   -0.807328
   8 C :    0.054871
   9 C :   -0.010395
  10 N :   -0.885025
  11 N :   -0.644432
  12 O :   -0.795274
  13 H :    0.422724
  14 H :    0.323661
  15 H :    0.447418
  16 H :    0.511433
  17 H :    0.593380
  18 H :    0.313513
  19 H :    0.347584
  20 H :    0.436699
  21 H :    0.382590
  22 H :    0.193433
Sum of atomic charges:   -0.0000000

LOEWDIN ATOMIC CHARGES
----------------------
   0 C :    0.301064
   1 C :    0.317966
   2 C :    0.070026
   3 C :    0.010617
   4 C :   -0.061394
   5 C :   -0.220911
   6 C :   -0.415727
   7 C :    0.632378
   8 C :    0.164929
   9 C :    0.144082
  10 N :    0.559466
  11 N :    0.813664
  12 O :    0.865098
  13 H :   -0.330257
  14 H :   -0.318991
  15 H :   -0.337643
  16 H :   -0.336677
  17 H :   -0.322949
  18 H :   -0.259115
  19 H :   -0.269059
  20 H :   -0.276792
  21 H :   -0.293009
  22 H :   -0.436766

  Mayer bond orders larger than 0.100000
B(  0-C ,  1-C ) :   1.2397 B(  0-C ,  3-C ) :   1.7299 B(  0-C ,  6-C ) :  -0.5824
B(  0-C , 13-H ) :   0.8977 B(  1-C ,  3-C ) :   0.1418 B(  1-C ,  6-C ) :   1.2510
B(  1-C ,  9-C ) :  -0.4087 B(  1-C , 14-H ) :   0.9687 B(  2-C ,  4-C ) :   0.1459
B(  2-C ,  5-C ) :   1.6220 B(  2-C ,  8-C ) :  -0.2362 B(  2-C , 10-N ) :   0.6776
B(  2-C , 15-H ) :   0.8657 B(  3-C ,  6-C ) :  -0.1851 B(  3-C , 12-O ) :   1.1057
B(  3-C , 16-H ) :   0.8110 B(  4-C ,  5-C ) :  -0.1814 B(  4-C , 10-N ) :   1.7023
B(  4-C , 11-N ) :   1.4014 B(  4-C , 17-H ) :   0.6562 B(  5-C ,  8-C ) :   0.7498
B(  5-C , 11-N ) :   0.4672 B(  5-C , 22-H ) :  -0.1213 B(  6-C ,  8-C ) :  -0.1839
B(  6-C ,  9-C ) :   0.6895 B(  6-C , 12-O ) :   0.3647 B(  7-C ,  8-C ) :   0.9534
B(  7-C ,  9-C ) :   0.8114 B(  7-C , 18-H ) :   0.9327 B(  7-C , 19-H ) :   0.9357
B(  8-C ,  9-C ) :   0.6947 B(  8-C , 20-H ) :   0.7677 B(  9-C , 21-H ) :   0.8992
B( 11-N , 22-H ) :   1.0755

MP2 TOTAL ENERGY:     -570.822850626 Eh
FINAL SINGLE POINT ENERGY      -570.822850626014

DIPOLE MOMENT
-------------
                                X             Y             Z
Electronic contribution:     -1.55066       0.23653      -1.68839
Nuclear contribution   :      2.08355      -1.47834       1.71112
                        -----------------------------------------
Total Dipole Moment    :      0.53289      -1.24181       0.02273
                        -----------------------------------------
Magnitude (a.u.)       :      1.35151
Magnitude (Debye)      :      3.43526

Rotational constants in cm-1:     0.088367     0.012238     0.011557
Rotational constants in MHz :  2649.175028   366.880849   346.476543

                             ****ORCA TERMINATED NORMALLY****
TOTAL RUN TIME: 0 days 2 hours 10 minutes 49 seconds 966 msec
