                         Program Version 5.0.4 -  RELEASE  -
|  1> !ri-mp2 aug-cc-pvqz aug-cc-pvqz/c tightscf
|  2> %pal nprocs 16 end
|  3>
|  4> * xyz 0 1
|  5> C      1.176464   -1.121040   -0.130625
|  6> C      0.378337    0.070180    0.381926
|  7> O      0.913379    1.242348   -0.219964
|  8> H      0.423642    2.014994    0.081178
|  9> H      0.813225   -2.045334    0.315541
| 10> H      1.091458   -1.191726   -1.213368
| 11> H      2.223270   -0.983889    0.134284
| 12> C     -1.060337   -0.071096    0.078798
| 13> H      0.468455    0.125994    1.472411
| 14> N     -2.184838   -0.161013   -0.144418
| 15> *
| 16>
| 17>                          ****END OF INPUT****

CARTESIAN COORDINATES (ANGSTROEM)
---------------------------------
  C      1.176464   -1.121040   -0.130625
  C      0.378337    0.070180    0.381926
  O      0.913379    1.242348   -0.219964
  H      0.423642    2.014994    0.081178
  H      0.813225   -2.045334    0.315541
  H      1.091458   -1.191726   -1.213368
  H      2.223270   -0.983889    0.134284
  C     -1.060337   -0.071096    0.078798
  H      0.468455    0.125994    1.472411
  N     -2.184838   -0.161013   -0.144418

 Total Charge           Charge          ....    0
 Multiplicity           Mult            ....    1
 Number of Electrons    NEL             ....   38
 Basis Dimension        Dim             ....  630

ORBITAL ENERGIES
----------------

  NO   OCC          E(Eh)            E(eV)
   0   2.0000     -20.593484      -560.3772
   1   2.0000     -15.579232      -423.9324
   2   2.0000     -11.347752      -308.7880
   3   2.0000     -11.276753      -306.8561
   4   2.0000     -11.246109      -306.0222
   5   2.0000      -1.401261       -38.1303
   6   2.0000      -1.229254       -33.4497
   7   2.0000      -1.067916       -29.0595
   8   2.0000      -0.909555       -24.7503
   9   2.0000      -0.762015       -20.7355
  10   2.0000      -0.723507       -19.6876
  11   2.0000      -0.624258       -16.9869
  12   2.0000      -0.586069       -15.9478
  13   2.0000      -0.569560       -15.4985
  14   2.0000      -0.564008       -15.3474
  15   2.0000      -0.548359       -14.9216
  16   2.0000      -0.505071       -13.7437
  17   2.0000      -0.477499       -12.9934
  18   2.0000      -0.465903       -12.6779
  19   0.0000       0.020523         0.5585
  20   0.0000       0.031680         0.8621
  21   0.0000       0.035661         0.9704
  22   0.0000       0.041823         1.1381
  23   0.0000       0.053804         1.4641

MULLIKEN ATOMIC CHARGES
-----------------------
   0 C :   -0.893583
   1 C :    0.579872
   2 O :   -0.791746
   3 H :    0.324545
   4 H :    0.266428
   5 H :    0.257646
   6 H :    0.307079
   7 C :    0.243531
   8 H :    0.336841
   9 N :   -0.630612
Sum of atomic charges:    0.0000000

LOEWDIN ATOMIC CHARGES
----------------------
   0 C :    0.889013
   1 C :   -0.326721
   2 O :    1.268782
   3 H :   -0.779436
   4 H :   -0.284177
   5 H :   -0.285725
   6 H :   -0.284439
   7 C :   -0.285882
   8 H :   -0.322959
   9 N :    0.411544

  Mayer bond orders larger than 0.100000
B(  0-C ,  1-C ) :   0.9396 B(  0-C ,  4-H ) :   0.9536 B(  0-C ,  5-H ) :   0.9187
B(  0-C ,  6-H ) :   0.9171 B(  1-C ,  2-O ) :   0.5119 B(  1-C ,  7-C ) :   0.9062
B(  1-C ,  8-H ) :   0.8281 B(  2-O ,  3-H ) :   0.9172 B(  2-O ,  7-C ) :   0.1413
B(  7-C ,  9-N ) :   2.5665

MP2 TOTAL ENERGY:     -246.911430825 Eh
FINAL SINGLE POINT ENERGY      -246.911430824505

DIPOLE MOMENT
-------------
                                X             Y             Z
Electronic contribution:     -3.94574       2.12558      -0.10874
Nuclear contribution   :      5.04195      -2.06967       0.78891
                        -----------------------------------------
Total Dipole Moment    :      1.09621       0.05591       0.68017
                        -----------------------------------------
Magnitude (a.u.)       :      1.29130
Magnitude (Debye)      :      3.28221

Rotational constants in cm-1:     0.292906     0.133689     0.099206
Rotational constants in MHz :  8781.104332  4007.889318  2974.117603

                             ****ORCA TERMINATED NORMALLY****
TOTAL RUN TIME: 0 days 0 hours 7 minutes 13 seconds 377 msec
