                         Program Version 5.0.4 -  RELEASE  -
|  1> !ri-mp2 aug-cc-pvqz aug-cc-pvqz/c tightscf
|  2> %pal nprocs 16 end
|  3>
|  4> * xyz 0 1
|  5> O    -1.386694   -0.955842   -0.030927
|  6> O     1.673838   -1.363612    1.177598
|  7> O     1.760784   -1.318632   -1.074923
|  8> O     2.466034    1.540093   -0.013587
|  9> N     1.079600    1.577817   -0.028311
| 10> N    -2.776900   -0.886607   -0.040218
| 11> C    -0.883578    0.294634    0.005329
| 12> C     0.564807    0.409695    0.011606
| 13> C     1.394065   -0.855428    0.129539
| 14> C    -1.901139    1.199961    0.020623
| 15> C    -3.059097    0.390299   -0.009356
| 16> H     2.283422   -2.124288   -0.935669
| 17> H     2.715908    2.470145   -0.038919
| 18> H    -1.826555    2.270621    0.050855
| 19> H    -4.093711    0.694019   -0.008296
| 20> *
| 21>
| 22>                          ****END OF INPUT****

CARTESIAN COORDINATES (ANGSTROEM)
---------------------------------
  O     -1.386694   -0.955842   -0.030927
  O      1.673838   -1.363612    1.177598
  O      1.760784   -1.318632   -1.074923
  O      2.466034    1.540093   -0.013587
  N      1.079600    1.577817   -0.028311
  N     -2.776900   -0.886607   -0.040218
  C     -0.883578    0.294634    0.005329
  C      0.564807    0.409695    0.011606
  C      1.394065   -0.855428    0.129539
  C     -1.901139    1.199961    0.020623
  C     -3.059097    0.390299   -0.009356
  H      2.283422   -2.124288   -0.935669
  H      2.715908    2.470145   -0.038919
  H     -1.826555    2.270621    0.050855
  H     -4.093711    0.694019   -0.008296

 Total Charge           Charge          ....    0
 Multiplicity           Mult            ....    1
 Number of Electrons    NEL             ....   80
 Basis Dimension        Dim             .... 1064

ORBITAL ENERGIES
----------------

  NO   OCC          E(Eh)            E(eV)
   0   2.0000     -20.661298      -562.2225
   1   2.0000     -20.635085      -561.5092
   2   2.0000     -20.632147      -561.4293
   3   2.0000     -20.572599      -559.8089
   4   2.0000     -15.672074      -426.4588
   5   2.0000     -15.638017      -425.5321
   6   2.0000     -11.417983      -310.6991
   7   2.0000     -11.342786      -308.6529
   8   2.0000     -11.331396      -308.3430
   9   2.0000     -11.293405      -307.3092
  10   2.0000     -11.256819      -306.3136
  11   2.0000      -1.513084       -41.1731
  12   2.0000      -1.491334       -40.5813
  13   2.0000      -1.467396       -39.9299
  14   2.0000      -1.388947       -37.7952
  15   2.0000      -1.219410       -33.1818
  16   2.0000      -1.180313       -32.1180
  17   2.0000      -1.088151       -29.6101
  18   2.0000      -0.963262       -26.2117
  19   2.0000      -0.877731       -23.8843
  20   2.0000      -0.842156       -22.9162
  21   2.0000      -0.796169       -21.6649
  22   2.0000      -0.768256       -20.9053
  23   2.0000      -0.725713       -19.7477
  24   2.0000      -0.721878       -19.6433
  25   2.0000      -0.709839       -19.3157
  26   2.0000      -0.678509       -18.4632
  27   2.0000      -0.649257       -17.6672
  28   2.0000      -0.634187       -17.2571
  29   2.0000      -0.631867       -17.1940
  30   2.0000      -0.629130       -17.1195
  31   2.0000      -0.597951       -16.2711
  32   2.0000      -0.584312       -15.8999
  33   2.0000      -0.519846       -14.1457
  34   2.0000      -0.504352       -13.7241
  35   2.0000      -0.495597       -13.4859
  36   2.0000      -0.473282       -12.8787
  37   2.0000      -0.458617       -12.4796
  38   2.0000      -0.442778       -12.0486
  39   2.0000      -0.359783        -9.7902
  40   0.0000       0.019764         0.5378
  41   0.0000       0.026761         0.7282
  42   0.0000       0.030917         0.8413
  43   0.0000       0.040149         1.0925
  44   0.0000       0.050986         1.3874

MULLIKEN ATOMIC CHARGES
-----------------------
   0 O :   -0.436139
   1 O :   -0.838090
   2 O :   -0.737864
   3 O :   -0.550680
   4 N :   -0.265621
   5 N :   -0.484342
   6 C :    0.544732
   7 C :    0.281851
   8 C :    1.629512
   9 C :   -0.712570
  10 C :    0.014137
  11 H :    0.351282
  12 H :    0.312553
  13 H :    0.411975
  14 H :    0.479262
Sum of atomic charges:   -0.0000000

LOEWDIN ATOMIC CHARGES
----------------------
   0 O :    0.604252
   1 O :    0.711560
   2 O :    1.257430
   3 O :    1.025268
   4 N :    0.293756
   5 N :    0.303573
   6 C :   -0.604711
   7 C :   -0.469504
   8 C :   -1.117214
   9 C :    0.298385
  10 C :    0.007095
  11 H :   -0.793697
  12 H :   -0.847795
  13 H :   -0.321409
  14 H :   -0.346990

  Mayer bond orders larger than 0.100000
B(  0-O ,  5-N ) :   0.6684 B(  0-O ,  6-C ) :   0.6226 B(  0-O ,  7-C ) :   0.1765
B(  0-O ,  9-C ) :   0.1119 B(  1-O ,  2-O ) :   0.1609 B(  1-O ,  7-C ) :   0.1572
B(  1-O ,  8-C ) :   1.2186 B(  2-O ,  8-C ) :   0.7905 B(  2-O , 11-H ) :   0.9106
B(  3-O ,  4-N ) :   0.8491 B(  3-O , 12-H ) :   0.9494 B(  4-N ,  6-C ) :   0.1311
B(  4-N ,  7-C ) :   1.4150 B(  5-N ,  9-C ) :   0.1447 B(  5-N , 10-C ) :   1.4027
B(  6-C ,  7-C ) :   0.9298 B(  6-C ,  9-C ) :   1.3785 B(  6-C , 10-C ) :  -0.4131
B(  7-C ,  8-C ) :   1.0160 B(  7-C ,  9-C ) :  -0.2421 B(  9-C , 10-C ) :   1.3501
B(  9-C , 13-H ) :   0.8469 B( 10-C , 14-H ) :   0.8112

MP2 TOTAL ENERGY:     -602.433262937 Eh
FINAL SINGLE POINT ENERGY      -602.433262936924

DIPOLE MOMENT
-------------
                                X             Y             Z
Electronic contribution:      1.00631      -1.78998       0.30096
Nuclear contribution   :     -0.82751       3.15848      -0.89660
                        -----------------------------------------
Total Dipole Moment    :      0.17880       1.36849      -0.59564
                        -----------------------------------------
Magnitude (a.u.)       :      1.50317
Magnitude (Debye)      :      3.82076

Rotational constants in cm-1:     0.068797     0.027456     0.021739
Rotational constants in MHz :  2062.472089   823.108494   651.713989

                             ****ORCA TERMINATED NORMALLY****
TOTAL RUN TIME: 0 days 0 hours 41 minutes 11 seconds 879 msec
