                         Program Version 5.0.4 -  RELEASE  -
|  1> !ri-mp2 aug-cc-pvqz aug-cc-pvqz/c tightscf
|  2> %pal nprocs 16 end
|  3>
|  4> * xyz 0 1
|  5> O      2.164676   -0.539196        0.000000
|  6> O      0.084580    2.775541        0.000000
|  7> N     -1.331579    0.475000        0.000000
|  8> N      0.726390    1.750983        0.000000
|  9> C      0.000000    0.522358        0.000000
| 10> C      0.824411   -0.616949        0.000000
| 11> C      0.204822   -1.870177        0.000000
| 12> C     -1.905774   -0.710961        0.000000
| 13> C     -1.171952   -1.910799        0.000000
| 14> H      2.405510    0.402858        0.000000
| 15> H      0.809768   -2.765739        0.000000
| 16> H     -2.988888   -0.732364        0.000000
| 17> H     -1.693161   -2.858226        0.000000
| 18> *
| 19>
| 20>                          ****END OF INPUT****

CARTESIAN COORDINATES (ANGSTROEM)
---------------------------------
  O      2.164676   -0.539196    0.000000
  O      0.084580    2.775541    0.000000
  N     -1.331579    0.475000    0.000000
  N      0.726390    1.750983    0.000000
  C      0.000000    0.522358    0.000000
  C      0.824411   -0.616949    0.000000
  C      0.204822   -1.870177    0.000000
  C     -1.905774   -0.710961    0.000000
  C     -1.171952   -1.910799    0.000000
  H      2.405510    0.402858    0.000000
  H      0.809768   -2.765739    0.000000
  H     -2.988888   -0.732364    0.000000
  H     -1.693161   -2.858226    0.000000

 Total Charge           Charge          ....    0
 Multiplicity           Mult            ....    1
 Number of Electrons    NEL             ....   64
 Basis Dimension        Dim             ....  904

ORBITAL ENERGIES
----------------

  NO   OCC          E(Eh)            E(eV)
   0   2.0000     -20.631810      -561.4201
   1   2.0000     -20.614475      -560.9484
   2   2.0000     -15.707283      -427.4169
   3   2.0000     -15.596602      -424.4051
   4   2.0000     -11.343016      -308.6592
   5   2.0000     -11.311316      -307.7966
   6   2.0000     -11.290228      -307.2227
   7   2.0000     -11.276225      -306.8417
   8   2.0000     -11.272883      -306.7508
   9   2.0000      -1.519445       -41.3462
  10   2.0000      -1.441534       -39.2261
  11   2.0000      -1.291454       -35.1422
  12   2.0000      -1.114931       -30.3388
  13   2.0000      -1.102435       -29.9988
  14   2.0000      -0.986466       -26.8431
  15   2.0000      -0.882789       -24.0219
  16   2.0000      -0.856283       -23.3007
  17   2.0000      -0.783570       -21.3220
  18   2.0000      -0.743526       -20.2324
  19   2.0000      -0.713771       -19.4227
  20   2.0000      -0.672074       -18.2881
  21   2.0000      -0.646974       -17.6051
  22   2.0000      -0.644132       -17.5277
  23   2.0000      -0.615555       -16.7501
  24   2.0000      -0.596395       -16.2287
  25   2.0000      -0.595948       -16.2166
  26   2.0000      -0.581673       -15.8281
  27   2.0000      -0.538297       -14.6478
  28   2.0000      -0.451215       -12.2782
  29   2.0000      -0.417867       -11.3707
  30   2.0000      -0.404638       -11.0108
  31   2.0000      -0.349540        -9.5115
  32   0.0000       0.019255         0.5239
  33   0.0000       0.022995         0.6257
  34   0.0000       0.028392         0.7726
  35   0.0000       0.033728         0.9178
  36   0.0000       0.044649         1.2150

MULLIKEN ATOMIC CHARGES
-----------------------
   0 O :   -0.802372
   1 O :   -0.466041
   2 N :   -0.467648
   3 N :    0.033903
   4 C :    0.282301
   5 C :    0.919186
   6 C :   -0.371773
   7 C :   -0.200084
   8 C :   -0.411766
   9 H :    0.365527
  10 H :    0.347841
  11 H :    0.457371
  12 H :    0.313556
Sum of atomic charges:   -0.0000000

LOEWDIN ATOMIC CHARGES
----------------------
   0 O :    1.281869
   1 O :    0.433889
   2 N :    0.556635
   3 N :   -0.022351
   4 C :   -0.650305
   5 C :   -0.500436
   6 C :    0.339459
   7 C :    0.086540
   8 C :    0.343068
   9 H :   -0.882782
  10 H :   -0.314754
  11 H :   -0.352728
  12 H :   -0.318103

  Mayer bond orders larger than 0.100000
B(  0-O ,  4-C ) :   0.2407 B(  0-O ,  5-C ) :   0.2796 B(  0-O ,  6-C ) :   0.1771
B(  0-O ,  9-H ) :   0.8622 B(  1-O ,  3-N ) :   1.5818 B(  2-N ,  4-C ) :   1.1537
B(  2-N ,  7-C ) :   1.3598 B(  3-N ,  4-C ) :   0.9614 B(  4-C ,  5-C ) :   1.3476
B(  4-C ,  6-C ) :  -0.1615 B(  5-C ,  6-C ) :   1.1438 B(  5-C ,  8-C ) :  -0.1695
B(  6-C ,  7-C ) :  -0.1056 B(  6-C ,  8-C ) :   1.3897 B(  6-C , 10-H ) :   0.9314
B(  7-C ,  8-C ) :   1.1654 B(  7-C , 11-H ) :   0.8728 B(  8-C , 12-H ) :   1.0070

MP2 TOTAL ENERGY:     -452.146682169 Eh
FINAL SINGLE POINT ENERGY      -452.146682169439

DIPOLE MOMENT
-------------
                                X             Y             Z
Electronic contribution:      1.33425       4.14674       0.00000
Nuclear contribution   :     -1.38975      -5.71946       0.00000
                        -----------------------------------------
Total Dipole Moment    :     -0.05550      -1.57272       0.00000
                        -----------------------------------------
Magnitude (a.u.)       :      1.57370
Magnitude (Debye)      :      4.00003

Rotational constants in cm-1:     0.091308     0.056191     0.034784
Rotational constants in MHz :  2737.359170  1684.552289  1042.812526

                             ****ORCA TERMINATED NORMALLY****
TOTAL RUN TIME: 0 days 0 hours 35 minutes 42 seconds 567 msec
