                         Program Version 5.0.4 -  RELEASE  -
|  1> !ri-mp2 aug-cc-pvqz aug-cc-pvqz/c tightscf
|  2> %pal nprocs 16 end
|  3>
|  4> * xyz 0 1
|  5> O      0.216355   -1.131231   -0.000019
|  6> N     -1.034393   -0.361708    0.000007
|  7> C      1.141200   -0.042903    0.000000
|  8> C     -1.003508    0.912444    0.000005
|  9> C      0.486277    1.267077   -0.000055
| 10> H     -1.812094   -1.012004    0.000017
| 11> H      1.788873   -0.112783    0.883419
| 12> H      1.789317   -0.113121   -0.883034
| 13> *
| 14>
| 15>                          ****END OF INPUT****

CARTESIAN COORDINATES (ANGSTROEM)
---------------------------------
  O      0.216355   -1.131231   -0.000019
  N     -1.034393   -0.361708    0.000007
  C      1.141200   -0.042903    0.000000
  C     -1.003508    0.912444    0.000005
  C      0.486277    1.267077   -0.000055
  H     -1.812094   -1.012004    0.000017
  H      1.788873   -0.112783    0.883419
  H      1.789317   -0.113121   -0.883034

 Total Charge           Charge          ....    0
 Multiplicity           Mult            ....    1
 Number of Electrons    NEL             ....   36
 Basis Dimension        Dim             ....  538

ORBITAL ENERGIES
----------------

  NO   OCC          E(Eh)            E(eV)
   0   2.0000     -20.636691      -561.5529
   1   2.0000     -15.706821      -427.4043
   2   2.0000     -11.306716      -307.6714
   3   2.0000     -11.290928      -307.2418
   4   2.0000     -11.268162      -306.6223
   5   2.0000      -1.467368       -39.9291
   6   2.0000      -1.227122       -33.3917
   7   2.0000      -1.069581       -29.1048
   8   2.0000      -0.883166       -24.0322
   9   2.0000      -0.808019       -21.9873
  10   2.0000      -0.702262       -19.1095
  11   2.0000      -0.699990       -19.0477
  12   2.0000      -0.628315       -17.0973
  13   2.0000      -0.564571       -15.3628
  14   2.0000      -0.561340       -15.2748
  15   2.0000      -0.462966       -12.5979
  16   2.0000      -0.398061       -10.8318
  17   2.0000      -0.368048       -10.0151
  18   0.0000       0.015569         0.4236
  19   0.0000       0.021579         0.5872
  20   0.0000       0.032370         0.8808
  21   0.0000       0.037845         1.0298
  22   0.0000       0.059317         1.6141

MULLIKEN ATOMIC CHARGES
-----------------------
   0 O :   -0.623185
   1 N :   -0.102011
   2 C :   -0.177398
   3 C :   -0.031669
   4 C :   -0.126617
   5 H :    0.344600
   6 H :    0.358067
   7 H :    0.358212
Sum of atomic charges:   -0.0000000

LOEWDIN ATOMIC CHARGES
----------------------
   0 O :    0.725050
   1 N :    0.390973
   2 C :   -0.069481
   3 C :   -0.024182
   4 C :    0.215328
   5 H :   -0.537687
   6 H :   -0.350017
   7 H :   -0.349983

  Mayer bond orders larger than 0.100000
B(  0-O ,  1-N ) :   0.7053 B(  0-O ,  2-C ) :   0.8401 B(  1-N ,  3-C ) :   1.5594
B(  1-N ,  5-H ) :   0.8608 B(  2-C ,  4-C ) :   1.0564 B(  2-C ,  6-H ) :   0.8278
B(  2-C ,  7-H ) :   0.8278 B(  3-C ,  4-C ) :   0.8094

MP2 TOTAL ENERGY:     -245.441853746 Eh
FINAL SINGLE POINT ENERGY      -245.441853746213

DIPOLE MOMENT
-------------
                                X             Y             Z
Electronic contribution:     -1.47466      -0.03822      -0.00032
Nuclear contribution   :      1.72635      -1.23141       0.00039
                        -----------------------------------------
Total Dipole Moment    :      0.25169      -1.26963       0.00007
                        -----------------------------------------
Magnitude (a.u.)       :      1.29434
Magnitude (Debye)      :      3.28994

Rotational constants in cm-1:     0.313784     0.290144     0.155114
Rotational constants in MHz :  9407.008007  8698.291749  4650.186256

                             ****ORCA TERMINATED NORMALLY****
TOTAL RUN TIME: 0 days 0 hours 7 minutes 12 seconds 301 msec
