                         Program Version 5.0.4 -  RELEASE  -
|  1> !ri-mp2 aug-cc-pvqz aug-cc-pvqz/c tightscf
|  2> %pal nprocs 16 end
|  3>
|  4> * xyz 0 1
|  5> C      1.592286   -1.728677        0.000000
|  6> C      2.181509   -0.467693        0.000000
|  7> C      0.212578   -1.863151        0.000000
|  8> C      1.379088    0.665360        0.000000
|  9> C     -0.604239   -0.733979        0.000000
| 10> C      0.000000    0.525088        0.000000
| 11> O     -1.948598   -0.906903        0.000000
| 12> Cl    -1.036509    1.945558        0.000000
| 13> H      2.211530   -2.615032        0.000000
| 14> H      3.256995   -0.363392        0.000000
| 15> H     -0.258879   -2.835831        0.000000
| 16> H      1.812238    1.655014        0.000000
| 17> H     -2.379775   -0.041703        0.000000
| 18> *
| 19>
| 20>                          ****END OF INPUT****

CARTESIAN COORDINATES (ANGSTROEM)
---------------------------------
  C      1.592286   -1.728677    0.000000
  C      2.181509   -0.467693    0.000000
  C      0.212578   -1.863151    0.000000
  C      1.379088    0.665360    0.000000
  C     -0.604239   -0.733979    0.000000
  C      0.000000    0.525088    0.000000
  O     -1.948598   -0.906903    0.000000
  Cl    -1.036509    1.945558    0.000000
  H      2.211530   -2.615032    0.000000
  H      3.256995   -0.363392    0.000000
  H     -0.258879   -2.835831    0.000000
  H      1.812238    1.655014    0.000000
  H     -2.379775   -0.041703    0.000000

 Total Charge           Charge          ....    0
 Multiplicity           Mult            ....    1
 Number of Electrons    NEL             ....   66
 Basis Dimension        Dim             ....  874

ORBITAL ENERGIES
----------------

  NO   OCC          E(Eh)            E(eV)
   0   2.0000    -104.853542     -2853.2099
   1   2.0000     -20.597496      -560.4864
   2   2.0000     -11.320548      -308.0478
   3   2.0000     -11.303136      -307.5740
   4   2.0000     -11.257301      -306.3267
   5   2.0000     -11.250549      -306.1430
   6   2.0000     -11.241465      -305.8958
   7   2.0000     -11.240833      -305.8786
   8   2.0000     -10.578785      -287.8634
   9   2.0000      -8.045876      -218.9394
  10   2.0000      -8.044292      -218.8963
  11   2.0000      -8.044142      -218.8922
  12   2.0000      -1.419666       -38.6311
  13   2.0000      -1.189111       -32.3574
  14   2.0000      -1.127853       -30.6904
  15   2.0000      -1.028969       -27.9997
  16   2.0000      -1.001194       -27.2439
  17   2.0000      -0.851303       -23.1651
  18   2.0000      -0.840605       -22.8740
  19   2.0000      -0.747282       -20.3346
  20   2.0000      -0.699179       -19.0256
  21   2.0000      -0.662807       -18.0359
  22   2.0000      -0.624431       -16.9916
  23   2.0000      -0.611036       -16.6271
  24   2.0000      -0.596103       -16.2208
  25   2.0000      -0.585515       -15.9327
  26   2.0000      -0.538915       -14.6646
  27   2.0000      -0.524688       -14.2775
  28   2.0000      -0.510413       -13.8890
  29   2.0000      -0.476651       -12.9703
  30   2.0000      -0.472908       -12.8685
  31   2.0000      -0.350575        -9.5396
  32   2.0000      -0.327225        -8.9042
  33   0.0000       0.024963         0.6793
  34   0.0000       0.029775         0.8102
  35   0.0000       0.032279         0.8783
  36   0.0000       0.044202         1.2028
  37   0.0000       0.046953         1.2777

MULLIKEN ATOMIC CHARGES
-----------------------
   0 C :   -0.295079
   1 C :   -0.332738
   2 C :   -0.433554
   3 C :   -0.205964
   4 C :    1.134918
   5 C :   -0.390370
   6 O :   -0.744839
   7 Cl:   -0.384848
   8 H :    0.267281
   9 H :    0.252756
  10 H :    0.323928
  11 H :    0.427803
  12 H :    0.380707
Sum of atomic charges:   -0.0000000

LOEWDIN ATOMIC CHARGES
----------------------
   0 C :    0.328020
   1 C :    0.324445
   2 C :    0.313624
   3 C :    0.196771
   4 C :   -0.576307
   5 C :   -0.803208
   6 O :    1.253472
   7 Cl:    1.238056
   8 H :   -0.321210
   9 H :   -0.328748
  10 H :   -0.327260
  11 H :   -0.355163
  12 H :   -0.942491

  Mayer bond orders larger than 0.100000
B(  0-C ,  1-C ) :   1.1944 B(  0-C ,  2-C ) :   1.2350 B(  0-C ,  4-C ) :  -0.1942
B(  0-C ,  8-H ) :   1.0750 B(  1-C ,  3-C ) :   1.2036 B(  1-C ,  5-C ) :  -0.1112
B(  1-C ,  9-H ) :   1.0908 B(  2-C ,  3-C ) :   0.1089 B(  2-C ,  4-C ) :   1.2540
B(  2-C ,  5-C ) :  -0.1052 B(  2-C ,  6-O ) :   0.2365 B(  2-C ,  8-H ) :  -0.1094
B(  2-C , 10-H ) :   0.9510 B(  3-C ,  5-C ) :   1.1686 B(  3-C ,  9-H ) :  -0.1247
B(  3-C , 11-H ) :   0.8525 B(  4-C ,  5-C ) :   1.1750 B(  4-C ,  6-O ) :   0.1371
B(  4-C ,  7-Cl) :  -0.2064 B(  5-C ,  6-O ) :   0.2396 B(  5-C ,  7-Cl) :   0.8860
B(  6-O , 12-H ) :   0.8914

MP2 TOTAL ENERGY:     -766.109214458 Eh
FINAL SINGLE POINT ENERGY      -766.109214457508

DIPOLE MOMENT
-------------
                                X             Y             Z
Electronic contribution:     -5.37933       6.70036       0.00000
Nuclear contribution   :      5.87597      -6.74796       0.00000
                        -----------------------------------------
Total Dipole Moment    :      0.49664      -0.04760       0.00000
                        -----------------------------------------
Magnitude (a.u.)       :      0.49892
Magnitude (Debye)      :      1.26815

Rotational constants in cm-1:     0.099799     0.051097     0.033794
Rotational constants in MHz :  2991.893072  1531.835209  1013.121670

                             ****ORCA TERMINATED NORMALLY****
TOTAL RUN TIME: 0 days 0 hours 32 minutes 0 seconds 813 msec
