                         Program Version 5.0.4 -  RELEASE  -
|  1> !ri-mp2 aug-cc-pvqz aug-cc-pvqz/c tightscf
|  2> %pal nprocs 16 end
|  3>
|  4> * xyz 0 1
|  5> C     -1.668271    0.461239   -0.765783
|  6> C     -0.367440    1.210024   -0.479394
|  7> C      0.689515    0.089265   -0.593294
|  8> C     -1.400343   -0.953458   -0.265482
|  9> C      1.856173    0.212999    0.364984
| 10> O     -0.004904   -1.155032   -0.396645
| 11> O     -0.459865    1.805275    0.814836
| 12> O     -1.823763   -1.057773    1.077424
| 13> O      2.879640   -0.684977   -0.054645
| 14> H     -2.518456    0.921796   -0.270321
| 15> H     -1.851125    0.435667   -1.839895
| 16> H     -0.178406    1.985616   -1.225571
| 17> H      1.093392    0.077484   -1.611423
| 18> H     -1.886026   -1.728437   -0.864473
| 19> H      1.515337   -0.010936    1.377193
| 20> H      2.231369    1.245733    0.342390
| 21> H      0.267278    2.422971    0.931773
| 22> H     -1.567425   -1.926770    1.403733
| 23> H      3.507392   -0.803481    0.662654
| 24> *
| 25>
| 26>                          ****END OF INPUT****

CARTESIAN COORDINATES (ANGSTROEM)
---------------------------------
  C     -1.668271    0.461239   -0.765783
  C     -0.367440    1.210024   -0.479394
  C      0.689515    0.089265   -0.593294
  C     -1.400343   -0.953458   -0.265482
  C      1.856173    0.212999    0.364984
  O     -0.004904   -1.155032   -0.396645
  O     -0.459865    1.805275    0.814836
  O     -1.823763   -1.057773    1.077424
  O      2.879640   -0.684977   -0.054645
  H     -2.518456    0.921796   -0.270321
  H     -1.851125    0.435667   -1.839895
  H     -0.178406    1.985616   -1.225571
  H      1.093392    0.077484   -1.611423
  H     -1.886026   -1.728437   -0.864473
  H      1.515337   -0.010936    1.377193
  H      2.231369    1.245733    0.342390
  H      0.267278    2.422971    0.931773
  H     -1.567425   -1.926770    1.403733
  H      3.507392   -0.803481    0.662654

 Total Charge           Charge          ....    0
 Multiplicity           Mult            ....    1
 Number of Electrons    NEL             ....   72
 Basis Dimension        Dim             .... 1180

ORBITAL ENERGIES
----------------

  NO   OCC          E(Eh)            E(eV)
   0   2.0000     -20.561825      -559.5157
   1   2.0000     -20.557845      -559.4074
   2   2.0000     -20.553630      -559.2927
   3   2.0000     -20.552463      -559.2610
   4   2.0000     -11.329680      -308.2963
   5   2.0000     -11.292119      -307.2742
   6   2.0000     -11.282164      -307.0033
   7   2.0000     -11.280422      -306.9559
   8   2.0000     -11.226142      -305.4789
   9   2.0000      -1.410106       -38.3709
  10   2.0000      -1.366382       -37.1811
  11   2.0000      -1.360944       -37.0332
  12   2.0000      -1.332003       -36.2456
  13   2.0000      -1.056497       -28.7487
  14   2.0000      -1.024727       -27.8842
  15   2.0000      -0.906445       -24.6656
  16   2.0000      -0.812001       -22.0957
  17   2.0000      -0.797677       -21.7059
  18   2.0000      -0.741387       -20.1742
  19   2.0000      -0.716600       -19.4997
  20   2.0000      -0.685122       -18.6431
  21   2.0000      -0.676317       -18.4035
  22   2.0000      -0.643169       -17.5015
  23   2.0000      -0.630834       -17.1659
  24   2.0000      -0.601660       -16.3720
  25   2.0000      -0.575749       -15.6669
  26   2.0000      -0.560631       -15.2555
  27   2.0000      -0.550885       -14.9904
  28   2.0000      -0.541238       -14.7278
  29   2.0000      -0.516612       -14.0577
  30   2.0000      -0.497620       -13.5409
  31   2.0000      -0.484699       -13.1893
  32   2.0000      -0.462203       -12.5772
  33   2.0000      -0.451870       -12.2960
  34   2.0000      -0.440290       -11.9809
  35   2.0000      -0.425818       -11.5871
  36   0.0000       0.021705         0.5906
  37   0.0000       0.028329         0.7709
  38   0.0000       0.031067         0.8454
  39   0.0000       0.036417         0.9909
  40   0.0000       0.044143         1.2012

MULLIKEN ATOMIC CHARGES
-----------------------
   0 C :   -0.946785
   1 C :    0.471953
   2 C :    0.177397
   3 C :    0.631053
   4 C :    0.035584
   5 O :   -0.864996
   6 O :   -0.928161
   7 O :   -0.869160
   8 O :   -0.847738
   9 H :    0.347931
  10 H :    0.271011
  11 H :    0.377335
  12 H :    0.298509
  13 H :    0.412686
  14 H :    0.241331
  15 H :    0.240488
  16 H :    0.324583
  17 H :    0.324834
  18 H :    0.302147
Sum of atomic charges:   -0.0000000

LOEWDIN ATOMIC CHARGES
----------------------
   0 C :    0.489165
   1 C :   -0.205780
   2 C :   -0.231490
   3 C :   -0.559212
   4 C :    0.163139
   5 O :    0.910132
   6 O :    1.303349
   7 O :    1.276851
   8 O :    1.275824
   9 H :   -0.280930
  10 H :   -0.269865
  11 H :   -0.281038
  12 H :   -0.304085
  13 H :   -0.321226
  14 H :   -0.300237
  15 H :   -0.299095
  16 H :   -0.792439
  17 H :   -0.787293
  18 H :   -0.785771

  Mayer bond orders larger than 0.100000
B(  0-C ,  1-C ) :   0.8753 B(  0-C ,  3-C ) :   0.9725 B(  0-C ,  6-O ) :   0.2202
B(  0-C ,  7-O ) :   0.1898 B(  0-C ,  9-H ) :   0.8805 B(  0-C , 10-H ) :   0.9557
B(  1-C ,  2-C ) :   0.8137 B(  1-C ,  5-O ) :   0.1051 B(  1-C ,  6-O ) :   0.3027
B(  1-C , 11-H ) :   0.8543 B(  2-C ,  4-C ) :   0.9165 B(  2-C ,  5-O ) :   0.5143
B(  2-C ,  6-O ) :   0.1127 B(  2-C , 12-H ) :   0.8790 B(  3-C ,  5-O ) :   0.7981
B(  3-C ,  7-O ) :   0.4219 B(  3-C , 13-H ) :   0.8275 B(  4-C ,  8-O ) :   0.6119
B(  4-C , 14-H ) :   0.8787 B(  4-C , 15-H ) :   0.9989 B(  6-O , 16-H ) :   0.9127
B(  7-O , 17-H ) :   0.9243 B(  8-O , 18-H ) :   0.9487

MP2 TOTAL ENERGY:     -496.753788049 Eh
FINAL SINGLE POINT ENERGY      -496.753788048679

DIPOLE MOMENT
-------------
                                X             Y             Z
Electronic contribution:     -0.19212      -2.06031       0.91915
Nuclear contribution   :      0.62771       2.62357      -1.07993
                        -----------------------------------------
Total Dipole Moment    :      0.43559       0.56327      -0.16078
                        -----------------------------------------
Magnitude (a.u.)       :      0.72997
Magnitude (Debye)      :      1.85544

Rotational constants in cm-1:     0.079470     0.042803     0.034928
Rotational constants in MHz :  2382.439851  1283.209840  1047.107365

                             ****ORCA TERMINATED NORMALLY****
TOTAL RUN TIME: 0 days 1 hours 16 minutes 58 seconds 531 msec
