                         Program Version 5.0.4 -  RELEASE  -
|  1> !ri-mp2 aug-cc-pvqz aug-cc-pvqz/c tightscf
|  2> %pal nprocs 16 end
|  3> %maxcore 3800
|  4>
|  5> * xyz 0 1
|  6> C     -1.643780   -0.744140    1.267860
|  7> C     -2.416221    0.092866   -0.979081
|  8> C      1.568432   -1.626417   -0.343229
|  9> C      2.566669    0.643816   -0.042519
| 10> C     -0.183821    1.829717    0.314524
| 11> C     -1.228311   -0.457857   -0.180043
| 12> C      1.328673   -0.222989    0.228474
| 13> C      0.031928    0.441798   -0.307623
| 14> H     -2.484667   -1.439569    1.291217
| 15> H     -0.835389   -1.189503    1.848803
| 16> H     -1.961332    0.164639    1.782113
| 17> H     -2.136078    0.303073   -2.013245
| 18> H     -2.813834    1.012725   -0.547434
| 19> H     -3.231892   -0.632223   -0.997675
| 20> H      2.532205   -2.012895   -0.007877
| 21> H      0.808890   -2.343326   -0.035097
| 22> H      1.585518   -1.607030   -1.436276
| 23> H      2.520811    1.609052    0.458909
| 24> H      2.684972    0.828086   -1.113860
| 25> H      3.469540    0.139486    0.305210
| 26> H     -1.127132    2.269864   -0.006227
| 27> H      0.602929    2.524328    0.025850
| 28> H     -0.194597    1.779952    1.405178
| 29> H     -0.977247   -1.415409   -0.640316
| 30> H      1.230226   -0.318172    1.315434
| 31> H      0.185662    0.586165   -1.384882
| 32> *
| 33>
| 34>                          ****END OF INPUT****

CARTESIAN COORDINATES (ANGSTROEM)
---------------------------------
  C     -1.643780   -0.744140    1.267860
  C     -2.416221    0.092866   -0.979081
  C      1.568432   -1.626417   -0.343229
  C      2.566669    0.643816   -0.042519
  C     -0.183821    1.829717    0.314524
  C     -1.228311   -0.457857   -0.180043
  C      1.328673   -0.222989    0.228474
  C      0.031928    0.441798   -0.307623
  H     -2.484667   -1.439569    1.291217
  H     -0.835389   -1.189503    1.848803
  H     -1.961332    0.164639    1.782113
  H     -2.136078    0.303073   -2.013245
  H     -2.813834    1.012725   -0.547434
  H     -3.231892   -0.632223   -0.997675
  H      2.532205   -2.012895   -0.007877
  H      0.808890   -2.343326   -0.035097
  H      1.585518   -1.607030   -1.436276
  H      2.520811    1.609052    0.458909
  H      2.684972    0.828086   -1.113860
  H      3.469540    0.139486    0.305210
  H     -1.127132    2.269864   -0.006227
  H      0.602929    2.524328    0.025850
  H     -0.194597    1.779952    1.405178
  H     -0.977247   -1.415409   -0.640316
  H      1.230226   -0.318172    1.315434
  H      0.185662    0.586165   -1.384882

 Total Charge           Charge          ....    0
 Multiplicity           Mult            ....    1
 Number of Electrons    NEL             ....   66
 Basis Dimension        Dim             .... 1468

ORBITAL ENERGIES
----------------

  NO   OCC          E(Eh)            E(eV)
   0   2.0000     -11.220294      -305.3197
   1   2.0000     -11.218666      -305.2754
   2   2.0000     -11.218078      -305.2594
   3   2.0000     -11.205582      -304.9194
   4   2.0000     -11.205158      -304.9078
   5   2.0000     -11.205077      -304.9057
   6   2.0000     -11.204988      -304.9032
   7   2.0000     -11.203342      -304.8584
   8   2.0000      -1.109415       -30.1887
   9   2.0000      -1.045220       -28.4419
  10   2.0000      -0.977509       -26.5994
  11   2.0000      -0.925688       -25.1892
  12   2.0000      -0.922775       -25.1100
  13   2.0000      -0.864140       -23.5144
  14   2.0000      -0.790400       -21.5079
  15   2.0000      -0.728851       -19.8331
  16   2.0000      -0.645376       -17.5616
  17   2.0000      -0.618526       -16.8309
  18   2.0000      -0.601220       -16.3600
  19   2.0000      -0.590365       -16.0646
  20   2.0000      -0.563871       -15.3437
  21   2.0000      -0.553850       -15.0710
  22   2.0000      -0.543489       -14.7891
  23   2.0000      -0.532264       -14.4836
  24   2.0000      -0.526158       -14.3175
  25   2.0000      -0.515005       -14.0140
  26   2.0000      -0.500521       -13.6199
  27   2.0000      -0.486486       -13.2380
  28   2.0000      -0.477829       -13.0024
  29   2.0000      -0.466116       -12.6837
  30   2.0000      -0.442238       -12.0339
  31   2.0000      -0.429664       -11.6918
  32   2.0000      -0.424443       -11.5497
  33   0.0000       0.025883         0.7043
  34   0.0000       0.029337         0.7983
  35   0.0000       0.030047         0.8176
  36   0.0000       0.031941         0.8692
  37   0.0000       0.043466         1.1828

MULLIKEN ATOMIC CHARGES
-----------------------
   0 C :   -1.064397
   1 C :   -0.951463
   2 C :   -1.041339
   3 C :   -1.010011
   4 C :   -1.188942
   5 C :    0.324869
   6 C :    0.511342
   7 C :    0.841054
   8 H :    0.255091
   9 H :    0.246153
  10 H :    0.140954
  11 H :    0.187744
  12 H :    0.153071
  13 H :    0.252059
  14 H :    0.242885
  15 H :    0.193088
  16 H :    0.144085
  17 H :    0.216350
  18 H :    0.151344
  19 H :    0.245223
  20 H :    0.248427
  21 H :    0.224872
  22 H :    0.164236
  23 H :    0.214669
  24 H :    0.164922
  25 H :    0.133715
Sum of atomic charges:   -0.0000000

LOEWDIN ATOMIC CHARGES
----------------------
   0 C :    0.935528
   1 C :    0.935068
   2 C :    0.933493
   3 C :    0.929652
   4 C :    0.934904
   5 C :    0.121653
   6 C :    0.123915
   7 C :    0.141707
   8 H :   -0.269027
   9 H :   -0.280245
  10 H :   -0.279399
  11 H :   -0.265710
  12 H :   -0.290177
  13 H :   -0.271407
  14 H :   -0.276174
  15 H :   -0.290717
  16 H :   -0.257734
  17 H :   -0.294557
  18 H :   -0.263058
  19 H :   -0.277644
  20 H :   -0.291111
  21 H :   -0.289074
  22 H :   -0.266563
  23 H :   -0.323798
  24 H :   -0.285126
  25 H :   -0.284398

  Mayer bond orders larger than 0.100000
B(  0-C ,  1-C ) :   0.1139 B(  0-C ,  5-C ) :   0.5674 B(  0-C ,  8-H ) :   1.0514
B(  0-C ,  9-H ) :   1.0194 B(  0-C , 10-H ) :   1.0916 B(  1-C ,  5-C ) :   0.4168
B(  1-C ,  7-C ) :  -0.1059 B(  1-C , 11-H ) :   1.1043 B(  1-C , 12-H ) :   1.1091
B(  1-C , 13-H ) :   1.0622 B(  2-C ,  3-C ) :   0.1903 B(  2-C ,  6-C ) :   0.4273
B(  2-C , 14-H ) :   1.0869 B(  2-C , 15-H ) :   1.0803 B(  2-C , 16-H ) :   1.1173
B(  3-C ,  6-C ) :   0.4166 B(  3-C ,  7-C ) :  -0.1532 B(  3-C , 17-H ) :   1.0742
B(  3-C , 18-H ) :   1.1032 B(  3-C , 19-H ) :   1.0776 B(  4-C ,  7-C ) :   0.2058
B(  4-C , 20-H ) :   1.1035 B(  4-C , 21-H ) :   1.1070 B(  4-C , 22-H ) :   1.1450
B(  5-C ,  7-C ) :   0.8489 B(  5-C ,  8-H ) :  -0.1101 B(  5-C , 11-H ) :  -0.1090
B(  5-C , 12-H ) :  -0.1427 B(  5-C , 13-H ) :  -0.1722 B(  5-C , 23-H ) :   0.9301
B(  6-C ,  7-C ) :   0.5916 B(  6-C , 14-H ) :  -0.1547 B(  6-C , 16-H ) :  -0.1381
B(  6-C , 18-H ) :  -0.1329 B(  6-C , 19-H ) :  -0.1661 B(  6-C , 24-H ) :   1.0036
B(  7-C , 20-H ) :  -0.1361 B(  7-C , 21-H ) :  -0.1363 B(  7-C , 22-H ) :  -0.1985
B(  7-C , 25-H ) :   1.0411

MP2 TOTAL ENERGY:     -315.080186590 Eh
FINAL SINGLE POINT ENERGY      -315.080186590048

DIPOLE MOMENT
-------------
                                X             Y             Z
Electronic contribution:      0.16404      -0.31570      -0.27124
Nuclear contribution   :     -0.15345       0.28130       0.27108
                        -----------------------------------------
Total Dipole Moment    :      0.01059      -0.03440      -0.00016
                        -----------------------------------------
Magnitude (a.u.)       :      0.03599
Magnitude (Debye)      :      0.09149

Rotational constants in cm-1:     0.090583     0.043945     0.037325
Rotational constants in MHz :  2715.596917  1317.425097  1118.973464

                             ****ORCA TERMINATED NORMALLY****
TOTAL RUN TIME: 0 days 2 hours 44 minutes 5 seconds 500 msec
