                         Program Version 5.0.4 -  RELEASE  -
|  1> !ri-mp2 aug-cc-pvqz aug-cc-pvqz/c tightscf
|  2> %pal nprocs 16 end
|  3>
|  4> * xyz 0 1
|  5> C      1.713767    0.184314   -0.006094
|  6> C      2.992613   -0.627337    0.018624
|  7> C     -3.398174    0.257813    0.014447
|  8> C      0.415711   -0.605242   -0.018955
|  9> C     -2.129427   -0.592675   -0.013892
| 10> C     -0.849467    0.243536    0.010725
| 11> O      1.732799    1.394734   -0.012565
| 12> H      3.048893   -1.205545    0.943733
| 13> H      3.010172   -1.344276   -0.804455
| 14> H      3.853628    0.032351   -0.047922
| 15> H     -3.440169    0.930013   -0.844742
| 16> H     -4.294888   -0.362918   -0.005028
| 17> H     -3.439164    0.873178    0.915292
| 18> H      0.440487   -1.300663    0.827754
| 19> H      0.432242   -1.246871   -0.907744
| 20> H     -2.134229   -1.223254   -0.908517
| 21> H     -2.132488   -1.278680    0.838933
| 22> H     -0.837342    0.875293    0.901856
| 23> H     -0.839678    0.931040   -0.837776
| 24> *
| 25>
| 26>                          ****END OF INPUT****

CARTESIAN COORDINATES (ANGSTROEM)
---------------------------------
  C      1.713767    0.184314   -0.006094
  C      2.992613   -0.627337    0.018624
  C     -3.398174    0.257813    0.014447
  C      0.415711   -0.605242   -0.018955
  C     -2.129427   -0.592675   -0.013892
  C     -0.849467    0.243536    0.010725
  O      1.732799    1.394734   -0.012565
  H      3.048893   -1.205545    0.943733
  H      3.010172   -1.344276   -0.804455
  H      3.853628    0.032351   -0.047922
  H     -3.440169    0.930013   -0.844742
  H     -4.294888   -0.362918   -0.005028
  H     -3.439164    0.873178    0.915292
  H      0.440487   -1.300663    0.827754
  H      0.432242   -1.246871   -0.907744
  H     -2.134229   -1.223254   -0.908517
  H     -2.132488   -1.278680    0.838933
  H     -0.837342    0.875293    0.901856
  H     -0.839678    0.931040   -0.837776

 Total Charge           Charge          ....    0
 Multiplicity           Mult            ....    1
 Number of Electrons    NEL             ....   56
 Basis Dimension        Dim             .... 1112

ORBITAL ENERGIES
----------------

  NO   OCC          E(Eh)            E(eV)
   0   2.0000     -20.540424      -558.9334
   1   2.0000     -11.327223      -308.2294
   2   2.0000     -11.235251      -305.7267
   3   2.0000     -11.232033      -305.6392
   4   2.0000     -11.220450      -305.3240
   5   2.0000     -11.218102      -305.2601
   6   2.0000     -11.211045      -305.0680
   7   2.0000      -1.384635       -37.6778
   8   2.0000      -1.085904       -29.5490
   9   2.0000      -1.030480       -28.0408
  10   2.0000      -0.983251       -26.7556
  11   2.0000      -0.885930       -24.1074
  12   2.0000      -0.800234       -21.7755
  13   2.0000      -0.732927       -19.9439
  14   2.0000      -0.655016       -17.8239
  15   2.0000      -0.649797       -17.6819
  16   2.0000      -0.626324       -17.0432
  17   2.0000      -0.610081       -16.6012
  18   2.0000      -0.580798       -15.8043
  19   2.0000      -0.568537       -15.4707
  20   2.0000      -0.555475       -15.1153
  21   2.0000      -0.530057       -14.4236
  22   2.0000      -0.509546       -13.8654
  23   2.0000      -0.485369       -13.2075
  24   2.0000      -0.479336       -13.0434
  25   2.0000      -0.474140       -12.9020
  26   2.0000      -0.467960       -12.7338
  27   2.0000      -0.407286       -11.0828
  28   0.0000       0.022070         0.6006
  29   0.0000       0.026977         0.7341
  30   0.0000       0.032269         0.8781
  31   0.0000       0.036176         0.9844
  32   0.0000       0.043186         1.1751

MULLIKEN ATOMIC CHARGES
-----------------------
   0 C :    0.664738
   1 C :   -0.945087
   2 C :   -0.892006
   3 C :   -0.364060
   4 C :   -0.478597
   5 C :   -0.197719
   6 O :   -0.805918
   7 H :    0.289513
   8 H :    0.265512
   9 H :    0.289172
  10 H :    0.227937
  11 H :    0.258691
  12 H :    0.228153
  13 H :    0.263597
  14 H :    0.268988
  15 H :    0.233133
  16 H :    0.235323
  17 H :    0.235355
  18 H :    0.223276
Sum of atomic charges:   -0.0000000

LOEWDIN ATOMIC CHARGES
----------------------
   0 C :   -0.622622
   1 C :    0.897073
   2 C :    0.928626
   3 C :    0.474628
   4 C :    0.507579
   5 C :    0.483400
   6 O :    0.747752
   7 H :   -0.292656
   8 H :   -0.295152
   9 H :   -0.318294
  10 H :   -0.284193
  11 H :   -0.284202
  12 H :   -0.284182
  13 H :   -0.280367
  14 H :   -0.280019
  15 H :   -0.273626
  16 H :   -0.273534
  17 H :   -0.273889
  18 H :   -0.276322

  Mayer bond orders larger than 0.100000
B(  0-C ,  1-C ) :   1.0644 B(  0-C ,  3-C ) :   0.8204 B(  0-C ,  5-C ) :  -0.1898
B(  0-C ,  6-O ) :   1.0784 B(  1-C ,  7-H ) :   0.9053 B(  1-C ,  8-H ) :   0.9451
B(  1-C ,  9-H ) :   1.0070 B(  2-C ,  4-C ) :   1.0445 B(  2-C , 10-H ) :   0.9545
B(  2-C , 11-H ) :   1.0202 B(  2-C , 12-H ) :   0.9540 B(  3-C ,  5-C ) :   0.9683
B(  3-C ,  6-O ) :   0.2858 B(  3-C , 13-H ) :   0.8675 B(  3-C , 14-H ) :   0.8651
B(  4-C ,  5-C ) :   0.9815 B(  4-C , 15-H ) :   0.8730 B(  4-C , 16-H ) :   0.8686
B(  5-C , 17-H ) :   0.8550 B(  5-C , 18-H ) :   0.8737

MP2 TOTAL ENERGY:     -310.554016743 Eh
FINAL SINGLE POINT ENERGY      -310.554016742727

DIPOLE MOMENT
-------------
                                X             Y             Z
Electronic contribution:      6.53611       3.25956      -0.06579
Nuclear contribution   :     -6.62067      -4.51339       0.07475
                        -----------------------------------------
Total Dipole Moment    :     -0.08456      -1.25383       0.00896
                        -----------------------------------------
Magnitude (a.u.)       :      1.25671
Magnitude (Debye)      :      3.19431

Rotational constants in cm-1:     0.252114     0.034459     0.031181
Rotational constants in MHz :  7558.177167  1033.047633   934.797385

                             ****ORCA TERMINATED NORMALLY****
TOTAL RUN TIME: 0 days 0 hours 58 minutes 24 seconds 404 msec
