                         Program Version 5.0.4 -  RELEASE  -
|  1> !ri-mp2 aug-cc-pvqz aug-cc-pvqz/c tightscf
|  2> %pal nprocs 16 end
|  3>
|  4> * xyz 0 1
|  5> C     -1.883170   -0.506701    0.017217
|  6> H     -2.671790    0.234445   -0.081330
|  7> H     -2.008340   -1.043418    0.960588
|  8> H     -1.965083   -1.246251   -0.781367
|  9> C      2.019993   -0.020927    0.024676
| 10> H      2.107093    0.570058    0.935544
| 11> H      2.127700    0.662992   -0.815819
| 12> C      0.683365   -0.747236   -0.030294
| 13> H      0.608044   -1.363355   -0.932946
| 14> H      0.580955   -1.453175    0.800501
| 15> C     -0.528385    0.169660   -0.010123
| 16> O     -0.421739    1.375414   -0.011414
| 17> H      2.844518   -0.733384   -0.002718
| 18> *
| 19>
| 20>                          ****END OF INPUT****

CARTESIAN COORDINATES (ANGSTROEM)
---------------------------------
  C     -1.883170   -0.506701    0.017217
  H     -2.671790    0.234445   -0.081330
  H     -2.008340   -1.043418    0.960588
  H     -1.965083   -1.246251   -0.781367
  C      2.019993   -0.020927    0.024676
  H      2.107093    0.570058    0.935544
  H      2.127700    0.662992   -0.815819
  C      0.683365   -0.747236   -0.030294
  H      0.608044   -1.363355   -0.932946
  H      0.580955   -1.453175    0.800501
  C     -0.528385    0.169660   -0.010123
  O     -0.421739    1.375414   -0.011414
  H      2.844518   -0.733384   -0.002718

 Total Charge           Charge          ....    0
 Multiplicity           Mult            ....    1
 Number of Electrons    NEL             ....   40
 Basis Dimension        Dim             ....  768

ORBITAL ENERGIES
----------------

  NO   OCC          E(Eh)            E(eV)
   0   2.0000     -20.541244      -558.9557
   1   2.0000     -11.327666      -308.2415
   2   2.0000     -11.238365      -305.8115
   3   2.0000     -11.232747      -305.6586
   4   2.0000     -11.215705      -305.1949
   5   2.0000      -1.385490       -37.7011
   6   2.0000      -1.062484       -28.9117
   7   2.0000      -1.000622       -27.2283
   8   2.0000      -0.878175       -23.8964
   9   2.0000      -0.731973       -19.9180
  10   2.0000      -0.657132       -17.8815
  11   2.0000      -0.639186       -17.3931
  12   2.0000      -0.622262       -16.9326
  13   2.0000      -0.582024       -15.8377
  14   2.0000      -0.570585       -15.5264
  15   2.0000      -0.521540       -14.1918
  16   2.0000      -0.514273       -13.9941
  17   2.0000      -0.506886       -13.7931
  18   2.0000      -0.484768       -13.1912
  19   2.0000      -0.409787       -11.1509
  20   0.0000       0.022976         0.6252
  21   0.0000       0.030083         0.8186
  22   0.0000       0.034477         0.9382
  23   0.0000       0.039733         1.0812
  24   0.0000       0.050629         1.3777

MULLIKEN ATOMIC CHARGES
-----------------------
   0 C :   -0.861188
   1 H :    0.286666
   2 H :    0.286834
   3 H :    0.259613
   4 C :   -0.789848
   5 H :    0.224951
   6 H :    0.228275
   7 C :   -0.410006
   8 H :    0.276832
   9 H :    0.261718
  10 C :    0.740067
  11 O :   -0.774488
  12 H :    0.270574
Sum of atomic charges:    0.0000000

LOEWDIN ATOMIC CHARGES
----------------------
   0 C :    0.893212
   1 H :   -0.318246
   2 H :   -0.292821
   3 H :   -0.296528
   4 C :    0.898142
   5 H :   -0.289542
   6 H :   -0.292358
   7 C :    0.458333
   8 H :   -0.287897
   9 H :   -0.288724
  10 C :   -0.639732
  11 O :    0.741797
  12 H :   -0.285636

  Mayer bond orders larger than 0.100000
B(  0-C ,  1-H ) :   0.9869 B(  0-C ,  2-H ) :   0.9038 B(  0-C ,  3-H ) :   0.9504
B(  0-C , 10-C ) :   0.8994 B(  4-C ,  5-H ) :   0.9572 B(  4-C ,  6-H ) :   0.9554
B(  4-C ,  7-C ) :   0.9442 B(  4-C , 12-H ) :   0.9903 B(  7-C ,  8-H ) :   0.8659
B(  7-C ,  9-H ) :   0.8861 B(  7-C , 10-C ) :   0.8542 B(  7-C , 11-O ) :   0.1422
B( 10-C , 11-O ) :   1.2496

MP2 TOTAL ENERGY:     -232.081813401 Eh
FINAL SINGLE POINT ENERGY      -232.081813401079

DIPOLE MOMENT
-------------
                                X             Y             Z
Electronic contribution:     -1.76431       3.25794      -0.08072
Nuclear contribution   :      1.68406      -4.53236       0.08571
                        -----------------------------------------
Total Dipole Moment    :     -0.08026      -1.27442       0.00500
                        -----------------------------------------
Magnitude (a.u.)       :      1.27695
Magnitude (Debye)      :      3.24576

Rotational constants in cm-1:     0.319539     0.119413     0.091310
Rotational constants in MHz :  9579.550563  3579.913541  2737.409436

                             ****ORCA TERMINATED NORMALLY****
TOTAL RUN TIME: 0 days 0 hours 18 minutes 40 seconds 814 msec
