                         Program Version 5.0.4 -  RELEASE  -
|  1> !ri-mp2 aug-cc-pvqz aug-cc-pvqz/c tightscf
|  2> %pal nprocs 16 end
|  3>
|  4> * xyz 0 1
|  5> N     -1.176140    0.295001        0.000000
|  6> C      0.000000    0.900809        0.000000
|  7> C      1.223975    0.226351        0.000000
|  8> C      1.190077   -1.154667        0.000000
|  9> C     -0.039417   -1.813282        0.000000
| 10> C     -1.189267   -1.042689        0.000000
| 11> O      0.005822    2.254025        0.000000
| 12> H      2.149101    0.783058        0.000000
| 13> H      2.113772   -1.717700        0.000000
| 14> H     -0.101257   -2.891524        0.000000
| 15> H     -2.168354   -1.506394        0.000000
| 16> H     -0.919060    2.536214        0.000000
| 17> *
| 18>
| 19>                          ****END OF INPUT****

CARTESIAN COORDINATES (ANGSTROEM)
---------------------------------
  N     -1.176140    0.295001    0.000000
  C      0.000000    0.900809    0.000000
  C      1.223975    0.226351    0.000000
  C      1.190077   -1.154667    0.000000
  C     -0.039417   -1.813282    0.000000
  C     -1.189267   -1.042689    0.000000
  O      0.005822    2.254025    0.000000
  H      2.149101    0.783058    0.000000
  H      2.113772   -1.717700    0.000000
  H     -0.101257   -2.891524    0.000000
  H     -2.168354   -1.506394    0.000000
  H     -0.919060    2.536214    0.000000

 Total Charge           Charge          ....    0
 Multiplicity           Mult            ....    1
 Number of Electrons    NEL             ....   50
 Basis Dimension        Dim             ....  790

ORBITAL ENERGIES
----------------

  NO   OCC          E(Eh)            E(eV)
   0   2.0000     -20.593174      -560.3688
   1   2.0000     -15.562312      -423.4720
   2   2.0000     -11.341321      -308.6130
   3   2.0000     -11.281579      -306.9874
   4   2.0000     -11.263303      -306.4901
   5   2.0000     -11.237028      -305.7751
   6   2.0000     -11.233011      -305.6658
   7   2.0000      -1.424048       -38.7503
   8   2.0000      -1.256498       -34.1911
   9   2.0000      -1.094820       -29.7916
  10   2.0000      -1.028263       -27.9805
  11   2.0000      -0.879153       -23.9230
  12   2.0000      -0.855088       -23.2681
  13   2.0000      -0.749032       -20.3822
  14   2.0000      -0.708793       -19.2872
  15   2.0000      -0.667453       -18.1623
  16   2.0000      -0.622706       -16.9447
  17   2.0000      -0.613179       -16.6855
  18   2.0000      -0.596883       -16.2420
  19   2.0000      -0.572704       -15.5841
  20   2.0000      -0.535303       -14.5663
  21   2.0000      -0.512306       -13.9406
  22   2.0000      -0.433572       -11.7981
  23   2.0000      -0.391771       -10.6606
  24   2.0000      -0.332003        -9.0343
  25   0.0000       0.023912         0.6507
  26   0.0000       0.030088         0.8187
  27   0.0000       0.031768         0.8644
  28   0.0000       0.044196         1.2026
  29   0.0000       0.046393         1.2624

MULLIKEN ATOMIC CHARGES
-----------------------
   0 N :   -0.564906
   1 C :    0.984522
   2 C :   -0.582453
   3 C :   -0.233794
   4 C :   -0.407228
   5 C :   -0.230785
   6 O :   -0.803312
   7 H :    0.392401
   8 H :    0.269542
   9 H :    0.319528
  10 H :    0.482600
  11 H :    0.373885
Sum of atomic charges:    0.0000000

LOEWDIN ATOMIC CHARGES
----------------------
   0 N :    0.586810
   1 C :   -0.718201
   2 C :    0.320015
   3 C :    0.317271
   4 C :    0.324820
   5 C :    0.071689
   6 O :    1.255462
   7 H :   -0.331923
   8 H :   -0.312678
   9 H :   -0.336647
  10 H :   -0.349620
  11 H :   -0.826999

  Mayer bond orders larger than 0.100000
B(  0-N ,  1-C ) :   1.3782 B(  0-N ,  5-C ) :   1.1885 B(  0-N ,  6-O ) :   0.1047
B(  1-C ,  2-C ) :   1.2641 B(  1-C ,  3-C ) :  -0.2285 B(  1-C ,  6-O ) :   0.5547
B(  2-C ,  3-C ) :   1.3204 B(  2-C ,  5-C ) :   0.1301 B(  2-C ,  6-O ) :   0.2250
B(  2-C ,  7-H ) :   0.8519 B(  3-C ,  4-C ) :   1.1730 B(  3-C ,  8-H ) :   1.0868
B(  4-C ,  5-C ) :   1.3231 B(  4-C ,  9-H ) :   0.9908 B(  5-C , 10-H ) :   0.8453
B(  6-O , 11-H ) :   0.8431

MP2 TOTAL ENERGY:     -323.013323180 Eh
FINAL SINGLE POINT ENERGY      -323.013323180014

DIPOLE MOMENT
-------------
                                X             Y             Z
Electronic contribution:     -0.85312       2.16600      -0.00000
Nuclear contribution   :      1.05395      -2.72434       0.00000
                        -----------------------------------------
Total Dipole Moment    :      0.20083      -0.55835      -0.00000
                        -----------------------------------------
Magnitude (a.u.)       :      0.59336
Magnitude (Debye)      :      1.50821

Rotational constants in cm-1:     0.195890     0.092512     0.062836
Rotational constants in MHz :  5872.636094  2773.429428  1883.786529

                             ****ORCA TERMINATED NORMALLY****
TOTAL RUN TIME: 0 days 0 hours 18 minutes 47 seconds 926 msec
