                         Program Version 5.0.4 -  RELEASE  -
|  1> !ri-mp2 aug-cc-pvqz aug-cc-pvqz/c tightscf
|  2> %pal nprocs 16 end
|  3>
|  4> * xyz 0 1
|  5> C      1.261707   -1.038161        0.000000
|  6> C      1.243130    0.321689        0.000000
|  7> C      0.059615   -1.797793        0.000000
|  8> C     -1.119466   -1.125244        0.000000
|  9> C      0.000000    1.062865        0.000000
| 10> N     -1.136850    0.234049        0.000000
| 11> O     -0.131026    2.279065        0.000000
| 12> H      2.211330   -1.558148        0.000000
| 13> H      2.150199    0.907306        0.000000
| 14> H      0.072270   -2.875784        0.000000
| 15> H     -2.082206   -1.615153        0.000000
| 16> H     -2.015349    0.730776        0.000000
| 17> *
| 18>
| 19>                          ****END OF INPUT****

CARTESIAN COORDINATES (ANGSTROEM)
---------------------------------
  C      1.261707   -1.038161    0.000000
  C      1.243130    0.321689    0.000000
  C      0.059615   -1.797793    0.000000
  C     -1.119466   -1.125244    0.000000
  C      0.000000    1.062865    0.000000
  N     -1.136850    0.234049    0.000000
  O     -0.131026    2.279065    0.000000
  H      2.211330   -1.558148    0.000000
  H      2.150199    0.907306    0.000000
  H      0.072270   -2.875784    0.000000
  H     -2.082206   -1.615153    0.000000
  H     -2.015349    0.730776    0.000000

 Total Charge           Charge          ....    0
 Multiplicity           Mult            ....    1
 Number of Electrons    NEL             ....   50
 Basis Dimension        Dim             ....  790

ORBITAL ENERGIES
----------------

  NO   OCC          E(Eh)            E(eV)
   0   2.0000     -20.509331      -558.0873
   1   2.0000     -15.623616      -425.1402
   2   2.0000     -11.353356      -308.9405
   3   2.0000     -11.311796      -307.8096
   4   2.0000     -11.271994      -306.7265
   5   2.0000     -11.240517      -305.8700
   6   2.0000     -11.238592      -305.8176
   7   2.0000      -1.378943       -37.5230
   8   2.0000      -1.277349       -34.7584
   9   2.0000      -1.110819       -30.2269
  10   2.0000      -1.032879       -28.1061
  11   2.0000      -0.889476       -24.2039
  12   2.0000      -0.863415       -23.4947
  13   2.0000      -0.758848       -20.6493
  14   2.0000      -0.698104       -18.9964
  15   2.0000      -0.680079       -18.5059
  16   2.0000      -0.641555       -17.4576
  17   2.0000      -0.615350       -16.7445
  18   2.0000      -0.608135       -16.5482
  19   2.0000      -0.562272       -15.3002
  20   2.0000      -0.540629       -14.7113
  21   2.0000      -0.489317       -13.3150
  22   2.0000      -0.427417       -11.6306
  23   2.0000      -0.427365       -11.6292
  24   2.0000      -0.316305        -8.6071
  25   0.0000       0.017743         0.4828
  26   0.0000       0.024875         0.6769
  27   0.0000       0.032960         0.8969
  28   0.0000       0.045706         1.2437
  29   0.0000       0.049823         1.3557

MULLIKEN ATOMIC CHARGES
-----------------------
   0 C :   -0.207025
   1 C :   -0.547548
   2 C :   -0.339904
   3 C :   -0.190048
   4 C :    1.141302
   5 N :   -0.496533
   6 O :   -0.829917
   7 H :    0.290722
   8 H :    0.259793
   9 H :    0.334465
  10 H :    0.454173
  11 H :    0.130520
Sum of atomic charges:   -0.0000000

LOEWDIN ATOMIC CHARGES
----------------------
   0 C :    0.324697
   1 C :    0.323576
   2 C :    0.341593
   3 C :    0.223070
   4 C :   -0.867675
   5 N :    0.801534
   6 O :    0.656970
   7 H :   -0.315433
   8 H :   -0.347627
   9 H :   -0.343134
  10 H :   -0.301625
  11 H :   -0.495948

  Mayer bond orders larger than 0.100000
B(  0-C ,  1-C ) :   1.4833 B(  0-C ,  2-C ) :   0.9667 B(  0-C ,  3-C ) :  -0.1353
B(  0-C ,  4-C ) :  -0.1860 B(  0-C ,  7-H ) :   1.0212 B(  1-C ,  4-C ) :   1.1865
B(  1-C ,  6-O ) :   0.2446 B(  1-C ,  8-H ) :   1.0052 B(  2-C ,  3-C ) :   1.4733
B(  2-C ,  9-H ) :   0.9883 B(  3-C ,  5-N ) :   0.9670 B(  3-C ,  9-H ) :  -0.1011
B(  3-C , 10-H ) :   0.8635 B(  4-C ,  5-N ) :   1.0195 B(  4-C ,  6-O ) :   1.0691
B(  5-N ,  6-O ) :   0.1707 B(  5-N , 11-H ) :   1.1465

MP2 TOTAL ENERGY:     -323.009459546 Eh
FINAL SINGLE POINT ENERGY      -323.009459545977

DIPOLE MOMENT
-------------
                                X             Y             Z
Electronic contribution:     -0.76306       2.48269       0.00000
Nuclear contribution   :      0.32338      -4.31864       0.00000
                        -----------------------------------------
Total Dipole Moment    :     -0.43968      -1.83595       0.00000
                        -----------------------------------------
Magnitude (a.u.)       :      1.88786
Magnitude (Debye)      :      4.79857

Rotational constants in cm-1:     0.189636     0.093366     0.062564
Rotational constants in MHz :  5685.146571  2799.055001  1875.608189

                             ****ORCA TERMINATED NORMALLY****
TOTAL RUN TIME: 0 days 0 hours 20 minutes 3 seconds 343 msec
