                         Program Version 5.0.4 -  RELEASE  -
|  1> !ri-mp2 aug-cc-pvqz aug-cc-pvqz/c tightscf
|  2> %pal nprocs 16 end
|  3>
|  4> * xyz 0 1
|  5> O    -0.632058    0.672130   -0.429729
|  6> O    -3.588830   -0.935067   -0.145234
|  7> O     3.802898   -0.381162   -0.172489
|  8> N     0.433297    0.185855    0.340131
|  9> C    -1.809404    0.727301    0.307417
| 10> C     1.516191    0.170796   -0.329905
| 11> C    -2.745700   -0.171725    0.074575
| 12> C     2.724311   -0.315122    0.366593
| 13> H    -1.953915    1.509033    1.036401
| 14> H     1.584308    0.490399   -1.366547
| 15> H     2.568061   -0.615137    1.416763
| 16> *
| 17>
| 18>                          ****END OF INPUT****

CARTESIAN COORDINATES (ANGSTROEM)
---------------------------------
  O     -0.632058    0.672130   -0.429729
  O     -3.588830   -0.935067   -0.145234
  O      3.802898   -0.381162   -0.172489
  N      0.433297    0.185855    0.340131
  C     -1.809404    0.727301    0.307417
  C      1.516191    0.170796   -0.329905
  C     -2.745700   -0.171725    0.074575
  C      2.724311   -0.315122    0.366593
  H     -1.953915    1.509033    1.036401
  H      1.584308    0.490399   -1.366547
  H      2.568061   -0.615137    1.416763

 Total Charge           Charge          ....    0
 Multiplicity           Mult            ....    1
 Number of Electrons    NEL             ....   58
 Basis Dimension        Dim             ....  778

ORBITAL ENERGIES
----------------

  NO   OCC          E(Eh)            E(eV)
   0   2.0000     -20.652529      -561.9839
   1   2.0000     -20.648843      -561.8836
   2   2.0000     -20.583286      -560.0997
   3   2.0000     -15.678041      -426.6212
   4   2.0000     -11.397530      -310.1426
   5   2.0000     -11.357478      -309.0527
   6   2.0000     -11.310572      -307.7763
   7   2.0000     -11.309703      -307.7527
   8   2.0000      -1.495462       -40.6936
   9   2.0000      -1.481397       -40.3109
  10   2.0000      -1.419335       -38.6221
  11   2.0000      -1.226491       -33.3745
  12   2.0000      -1.050084       -28.5742
  13   2.0000      -0.934354       -25.4251
  14   2.0000      -0.816122       -22.2078
  15   2.0000      -0.786804       -21.4100
  16   2.0000      -0.742254       -20.1978
  17   2.0000      -0.738921       -20.1071
  18   2.0000      -0.717283       -19.5183
  19   2.0000      -0.665775       -18.1166
  20   2.0000      -0.655890       -17.8477
  21   2.0000      -0.647928       -17.6310
  22   2.0000      -0.618335       -16.8258
  23   2.0000      -0.596821       -16.2403
  24   2.0000      -0.558931       -15.2093
  25   2.0000      -0.499942       -13.6041
  26   2.0000      -0.458938       -12.4883
  27   2.0000      -0.437406       -11.9024
  28   2.0000      -0.374344       -10.1864
  29   0.0000       0.021764         0.5922
  30   0.0000       0.033087         0.9003
  31   0.0000       0.034338         0.9344
  32   0.0000       0.043308         1.1785
  33   0.0000       0.051480         1.4008

MULLIKEN ATOMIC CHARGES
-----------------------
   0 O :   -0.615697
   1 O :   -0.626208
   2 O :   -0.680663
   3 N :   -0.136150
   4 C :   -0.211178
   5 C :   -0.358445
   6 C :    0.773593
   7 C :    0.344220
   8 H :    0.457177
   9 H :    0.542104
  10 H :    0.511247
Sum of atomic charges:   -0.0000000

LOEWDIN ATOMIC CHARGES
----------------------
   0 O :    0.511794
   1 O :    0.630642
   2 O :    0.682968
   3 N :    0.253595
   4 C :   -0.146821
   5 C :    0.003475
   6 C :   -0.456554
   7 C :   -0.318855
   8 H :   -0.416107
   9 H :   -0.359041
  10 H :   -0.385095

  Mayer bond orders larger than 0.100000
B(  0-O ,  3-N ) :   0.8516 B(  0-O ,  4-C ) :   0.7699 B(  1-O ,  4-C ) :   0.1869
B(  1-O ,  6-C ) :   1.6931 B(  2-O ,  5-C ) :   0.1789 B(  2-O ,  7-C ) :   1.5988
B(  3-N ,  4-C ) :  -0.1221 B(  3-N ,  5-C ) :   1.6896 B(  4-C ,  6-C ) :   1.8785
B(  4-C ,  8-H ) :   0.7895 B(  5-C ,  7-C ) :   1.0472 B(  5-C ,  9-H ) :   0.6579
B(  7-C , 10-H ) :   0.7104

MP2 TOTAL ENERGY:     -433.917663886 Eh
FINAL SINGLE POINT ENERGY      -433.917663886393

DIPOLE MOMENT
-------------
                                X             Y             Z
Electronic contribution:     -2.64198      -0.81226      -0.62415
Nuclear contribution   :      2.11399       1.32483       1.03737
                        -----------------------------------------
Total Dipole Moment    :     -0.52799       0.51257       0.41322
                        -----------------------------------------
Magnitude (a.u.)       :      0.84395
Magnitude (Debye)      :      2.14515

Rotational constants in cm-1:     0.339547     0.023394     0.022742
Rotational constants in MHz : 10179.354016   701.347125   681.791352

                             ****ORCA TERMINATED NORMALLY****
TOTAL RUN TIME: 0 days 0 hours 13 minutes 43 seconds 371 msec
