                         Program Version 5.0.4 -  RELEASE  -
|  1> !ri-mp2 aug-cc-pvqz aug-cc-pvqz/c tightscf
|  2> %pal nprocs 16 end
|  3>
|  4> * xyz 0 1
|  5> C     0.336343    2.129295    0.000000
|  6> C     0.540978   -1.506450    0.000000
|  7> C    -0.989729   -1.289163    0.000000
|  8> N    -1.159293    0.170312    0.000000
|  9> O     1.078204   -0.160300    0.000000
| 10> C     0.000000    0.680984    0.000000
| 11> H     0.910587   -2.017738    0.887540
| 12> H     0.910587   -2.017738   -0.887540
| 13> H    -1.473240   -1.716662    0.879292
| 14> H    -1.473240   -1.716662   -0.879292
| 15> H     0.932661    2.376888    0.879004
| 16> H     0.932661    2.376888   -0.879004
| 17> H    -0.576148    2.717242    0.000000
| 18> *
| 19>
| 20>                          ****END OF INPUT****

CARTESIAN COORDINATES (ANGSTROEM)
---------------------------------
  C      0.336343    2.129295    0.000000
  C      0.540978   -1.506450    0.000000
  C     -0.989729   -1.289163    0.000000
  N     -1.159293    0.170312    0.000000
  O      1.078204   -0.160300    0.000000
  C      0.000000    0.680984    0.000000
  H      0.910587   -2.017738    0.887540
  H      0.910587   -2.017738   -0.887540
  H     -1.473240   -1.716662    0.879292
  H     -1.473240   -1.716662   -0.879292
  H      0.932661    2.376888    0.879004
  H      0.932661    2.376888   -0.879004
  H     -0.576148    2.717242    0.000000

 Total Charge           Charge          ....    0
 Multiplicity           Mult            ....    1
 Number of Electrons    NEL             ....   46
 Basis Dimension        Dim             ....  802

ORBITAL ENERGIES
----------------

  NO   OCC          E(Eh)            E(eV)
   0   2.0000     -20.586078      -560.1757
   1   2.0000     -15.536412      -422.7673
   2   2.0000     -11.329331      -308.2868
   3   2.0000     -11.287520      -307.1490
   4   2.0000     -11.255825      -306.2866
   5   2.0000     -11.232845      -305.6613
   6   2.0000      -1.428098       -38.8605
   7   2.0000      -1.206185       -32.8220
   8   2.0000      -1.052688       -28.6451
   9   2.0000      -0.961045       -26.1514
  10   2.0000      -0.858274       -23.3548
  11   2.0000      -0.753855       -20.5134
  12   2.0000      -0.686703       -18.6862
  13   2.0000      -0.680883       -18.5278
  14   2.0000      -0.621122       -16.9016
  15   2.0000      -0.591897       -16.1063
  16   2.0000      -0.562384       -15.3032
  17   2.0000      -0.551209       -14.9992
  18   2.0000      -0.544176       -14.8078
  19   2.0000      -0.512277       -13.9398
  20   2.0000      -0.505631       -13.7589
  21   2.0000      -0.428184       -11.6515
  22   2.0000      -0.374202       -10.1826
  23   0.0000       0.026215         0.7134
  24   0.0000       0.030270         0.8237
  25   0.0000       0.035673         0.9707
  26   0.0000       0.038585         1.0499
  27   0.0000       0.050871         1.3843

MULLIKEN ATOMIC CHARGES
-----------------------
   0 C :   -0.658013
   1 C :   -0.249804
   2 C :   -0.409224
   3 N :   -0.607471
   4 O :   -0.725592
   5 C :    0.672286
   6 H :    0.297135
   7 H :    0.297135
   8 H :    0.288986
   9 H :    0.288986
  10 H :    0.262461
  11 H :    0.262461
  12 H :    0.280655
Sum of atomic charges:    0.0000000

LOEWDIN ATOMIC CHARGES
----------------------
   0 C :    0.888699
   1 C :    0.203592
   2 C :    0.263504
   3 N :    0.612250
   4 O :    0.872398
   5 C :   -0.722023
   6 H :   -0.298611
   7 H :   -0.298611
   8 H :   -0.307038
   9 H :   -0.307038
  10 H :   -0.295201
  11 H :   -0.295201
  12 H :   -0.316720

  Mayer bond orders larger than 0.100000
B(  0-C ,  5-C ) :   0.6656 B(  0-C , 10-H ) :   0.9634 B(  0-C , 11-H ) :   0.9634
B(  0-C , 12-H ) :   1.0043 B(  1-C ,  2-C ) :   1.2406 B(  1-C ,  3-N ) :   0.1005
B(  1-C ,  4-O ) :   0.6793 B(  1-C ,  6-H ) :   0.8742 B(  1-C ,  7-H ) :   0.8742
B(  2-C ,  3-N ) :   0.7787 B(  2-C ,  4-O ) :   0.1009 B(  2-C ,  8-H ) :   0.8941
B(  2-C ,  9-H ) :   0.8941 B(  3-N ,  5-C ) :   1.6841 B(  4-O ,  5-C ) :   0.8995
B(  5-C , 12-H ) :  -0.1138

MP2 TOTAL ENERGY:     -286.151425756 Eh
FINAL SINGLE POINT ENERGY      -286.151425756174

DIPOLE MOMENT
-------------
                                X             Y             Z
Electronic contribution:      0.23491      -0.34658      -0.00000
Nuclear contribution   :      0.17669       0.00070       0.00000
                        -----------------------------------------
Total Dipole Moment    :      0.41160      -0.34587      -0.00000
                        -----------------------------------------
Magnitude (a.u.)       :      0.53763
Magnitude (Debye)      :      1.36654

Rotational constants in cm-1:     0.259956     0.114055     0.082943
Rotational constants in MHz :  7793.284750  3419.271235  2486.583027

                             ****ORCA TERMINATED NORMALLY****
TOTAL RUN TIME: 0 days 0 hours 18 minutes 24 seconds 111 msec
