                         Program Version 5.0.4 -  RELEASE  -
|  1> !ri-mp2 aug-cc-pvqz aug-cc-pvqz/c tightscf
|  2> %pal nprocs 16 end
|  3>
|  4> * xyz 0 1
|  5> C     -0.678099    1.442161   -0.097723
|  6> C     -1.602385   -0.909150   -0.006698
|  7> C      1.963999   -0.107579    0.092089
|  8> C     -0.421488   -0.006587    0.311499
|  9> O      0.708102   -0.560944   -0.366728
| 10> H     -1.546873    1.837096    0.431111
| 11> H      0.169074    2.086994    0.135299
| 12> H     -0.870837    1.501789   -1.170041
| 13> H     -2.500908   -0.561297    0.503988
| 14> H     -1.397458   -1.932194    0.306542
| 15> H     -1.795646   -0.912336   -1.080473
| 16> H      2.130121    0.953843   -0.119355
| 17> H      2.722137   -0.686882   -0.431688
| 18> H      2.076887   -0.270336    1.171121
| 19> H     -0.223479   -0.042199    1.392313
| 20> *
| 21>
| 22>                          ****END OF INPUT****

CARTESIAN COORDINATES (ANGSTROEM)
---------------------------------
  C     -0.678099    1.442161   -0.097723
  C     -1.602385   -0.909150   -0.006698
  C      1.963999   -0.107579    0.092089
  C     -0.421488   -0.006587    0.311499
  O      0.708102   -0.560944   -0.366728
  H     -1.546873    1.837096    0.431111
  H      0.169074    2.086994    0.135299
  H     -0.870837    1.501789   -1.170041
  H     -2.500908   -0.561297    0.503988
  H     -1.397458   -1.932194    0.306542
  H     -1.795646   -0.912336   -1.080473
  H      2.130121    0.953843   -0.119355
  H      2.722137   -0.686882   -0.431688
  H      2.076887   -0.270336    1.171121
  H     -0.223479   -0.042199    1.392313

 Total Charge           Charge          ....    0
 Multiplicity           Mult            ....    1
 Number of Electrons    NEL             ....   42
 Basis Dimension        Dim             ....  860

ORBITAL ENERGIES
----------------

  NO   OCC          E(Eh)            E(eV)
   0   2.0000     -20.545658      -559.0758
   1   2.0000     -11.276554      -306.8506
   2   2.0000     -11.264785      -306.5304
   3   2.0000     -11.211625      -305.0838
   4   2.0000     -11.207794      -304.9796
   5   2.0000      -1.364396       -37.1271
   6   2.0000      -1.050359       -28.5817
   7   2.0000      -0.940338       -25.5879
   8   2.0000      -0.911978       -24.8162
   9   2.0000      -0.790899       -21.5215
  10   2.0000      -0.667497       -18.1635
  11   2.0000      -0.635306       -17.2875
  12   2.0000      -0.632348       -17.2071
  13   2.0000      -0.587386       -15.9836
  14   2.0000      -0.549157       -14.9433
  15   2.0000      -0.541337       -14.7305
  16   2.0000      -0.527888       -14.3646
  17   2.0000      -0.498259       -13.5583
  18   2.0000      -0.489892       -13.3306
  19   2.0000      -0.458416       -12.4741
  20   2.0000      -0.415184       -11.2977
  21   0.0000       0.026900         0.7320
  22   0.0000       0.033504         0.9117
  23   0.0000       0.034905         0.9498
  24   0.0000       0.036583         0.9955
  25   0.0000       0.049944         1.3591

MULLIKEN ATOMIC CHARGES
-----------------------
   0 C :   -0.948095
   1 C :   -0.915277
   2 C :   -0.663169
   3 C :    0.655826
   4 O :   -0.829326
   5 H :    0.297690
   6 H :    0.262557
   7 H :    0.241838
   8 H :    0.255742
   9 H :    0.255704
  10 H :    0.215191
  11 H :    0.269371
  12 H :    0.406788
  13 H :    0.251051
  14 H :    0.244109
Sum of atomic charges:    0.0000000

LOEWDIN ATOMIC CHARGES
----------------------
   0 C :    0.909006
   1 C :    0.895900
   2 C :    0.563523
   3 C :   -0.266820
   4 O :    0.884227
   5 H :   -0.282116
   6 H :   -0.302294
   7 H :   -0.281028
   8 H :   -0.286554
   9 H :   -0.285606
  10 H :   -0.287466
  11 H :   -0.320283
  12 H :   -0.325484
  13 H :   -0.307294
  14 H :   -0.307711

  Mayer bond orders larger than 0.100000
B(  0-C ,  3-C ) :   0.8280 B(  0-C ,  5-H ) :   0.9316 B(  0-C ,  6-H ) :   0.9673
B(  0-C ,  7-H ) :   0.9347 B(  1-C ,  3-C ) :   0.6706 B(  1-C ,  8-H ) :   1.0092
B(  1-C ,  9-H ) :   0.9718 B(  1-C , 10-H ) :   0.9774 B(  2-C ,  3-C ) :  -0.1036
B(  2-C ,  4-O ) :   0.9499 B(  2-C , 11-H ) :   0.9098 B(  2-C , 12-H ) :   0.8644
B(  2-C , 13-H ) :   0.9247 B(  3-C ,  4-O ) :   0.4645 B(  3-C , 14-H ) :   0.8970

MP2 TOTAL ENERGY:     -233.264103144 Eh
FINAL SINGLE POINT ENERGY      -233.264103143696

DIPOLE MOMENT
-------------
                                X             Y             Z
Electronic contribution:      1.31724      -1.72060      -0.79799
Nuclear contribution   :     -1.30447       2.09176       1.20574
                        -----------------------------------------
Total Dipole Moment    :      0.01277       0.37116       0.40775
                        -----------------------------------------
Magnitude (a.u.)       :      0.55153
Magnitude (Debye)      :      1.40187

Rotational constants in cm-1:     0.253098     0.125625     0.093390
Rotational constants in MHz :  7587.700887  3766.134166  2799.758971

                             ****ORCA TERMINATED NORMALLY****
TOTAL RUN TIME: 0 days 0 hours 23 minutes 13 seconds 505 msec
