                         Program Version 5.0.4 -  RELEASE  -
|  1> !ri-mp2 aug-cc-pvqz aug-cc-pvqz/c tightscf
|  2> %pal nprocs 16 end
|  3>
|  4> * xyz 0 1
|  5> C      2.233334   -0.116230    0.218263
|  6> C      1.430378   -1.225938   -0.017669
|  7> C      0.433277    1.226506   -0.053715
|  8> C     -0.386763    0.119094   -0.289925
|  9> C     -2.716909   -0.220171    0.627717
| 10> C     -1.861257    0.258329   -0.552378
| 11> N      1.734306    1.117813    0.199732
| 12> N      0.129285   -1.113947   -0.269666
| 13> H      3.291804   -0.223926    0.422137
| 14> H      1.847245   -2.226480   -0.005825
| 15> H      0.020691    2.228991   -0.073988
| 16> H     -2.497551   -1.261629    0.860291
| 17> H     -3.777994   -0.138114    0.391141
| 18> H     -2.522970    0.375105    1.521205
| 19> H     -2.091480    1.300250   -0.781301
| 20> H     -2.107242   -0.330802   -1.437880
| 21> *
| 22>
| 23>                          ****END OF INPUT****

CARTESIAN COORDINATES (ANGSTROEM)
---------------------------------
  C      2.233334   -0.116230    0.218263
  C      1.430378   -1.225938   -0.017669
  C      0.433277    1.226506   -0.053715
  C     -0.386763    0.119094   -0.289925
  C     -2.716909   -0.220171    0.627717
  C     -1.861257    0.258329   -0.552378
  N      1.734306    1.117813    0.199732
  N      0.129285   -1.113947   -0.269666
  H      3.291804   -0.223926    0.422137
  H      1.847245   -2.226480   -0.005825
  H      0.020691    2.228991   -0.073988
  H     -2.497551   -1.261629    0.860291
  H     -3.777994   -0.138114    0.391141
  H     -2.522970    0.375105    1.521205
  H     -2.091480    1.300250   -0.781301
  H     -2.107242   -0.330802   -1.437880

 Total Charge           Charge          ....    0
 Multiplicity           Mult            ....    1
 Number of Electrons    NEL             ....   58
 Basis Dimension        Dim             .... 1008

ORBITAL ENERGIES
----------------

  NO   OCC          E(Eh)            E(eV)
   0   2.0000     -15.586801      -424.1384
   1   2.0000     -15.581828      -424.0031
   2   2.0000     -11.283714      -307.0455
   3   2.0000     -11.279133      -306.9208
   4   2.0000     -11.274676      -306.7995
   5   2.0000     -11.274562      -306.7964
   6   2.0000     -11.235195      -305.7252
   7   2.0000     -11.219916      -305.3094
   8   2.0000      -1.306064       -35.5398
   9   2.0000      -1.217071       -33.1182
  10   2.0000      -1.084306       -29.5055
  11   2.0000      -1.012515       -27.5519
  12   2.0000      -0.906437       -24.6654
  13   2.0000      -0.891360       -24.2551
  14   2.0000      -0.827040       -22.5049
  15   2.0000      -0.714240       -19.4355
  16   2.0000      -0.708645       -19.2832
  17   2.0000      -0.659420       -17.9437
  18   2.0000      -0.613256       -16.6876
  19   2.0000      -0.602627       -16.3983
  20   2.0000      -0.580005       -15.7828
  21   2.0000      -0.560295       -15.2464
  22   2.0000      -0.523669       -14.2498
  23   2.0000      -0.507558       -13.8113
  24   2.0000      -0.500837       -13.6285
  25   2.0000      -0.491993       -13.3878
  26   2.0000      -0.429816       -11.6959
  27   2.0000      -0.403329       -10.9751
  28   2.0000      -0.346992        -9.4421
  29   0.0000       0.025394         0.6910
  30   0.0000       0.028363         0.7718
  31   0.0000       0.032540         0.8855
  32   0.0000       0.036564         0.9950
  33   0.0000       0.041455         1.1281

MULLIKEN ATOMIC CHARGES
-----------------------
   0 C :   -0.151105
   1 C :   -0.461362
   2 C :   -0.109694
   3 C :    0.342340
   4 C :   -0.856118
   5 C :   -0.269888
   6 N :   -0.768672
   7 N :   -0.544084
   8 H :    0.511320
   9 H :    0.488670
  10 H :    0.506305
  11 H :    0.251843
  12 H :    0.319343
  13 H :    0.249849
  14 H :    0.242731
  15 H :    0.248521
Sum of atomic charges:    0.0000000

LOEWDIN ATOMIC CHARGES
----------------------
   0 C :    0.071858
   1 C :    0.082598
   2 C :    0.086543
   3 C :   -0.349979
   4 C :    0.927932
   5 C :    0.469121
   6 N :    0.597089
   7 N :    0.614871
   8 H :   -0.356561
   9 H :   -0.351517
  10 H :   -0.347624
  11 H :   -0.290995
  12 H :   -0.282237
  13 H :   -0.280623
  14 H :   -0.302779
  15 H :   -0.287695

  Mayer bond orders larger than 0.100000
B(  0-C ,  1-C ) :   1.2537 B(  0-C ,  6-N ) :   1.2308 B(  0-C ,  8-H ) :   0.8140
B(  1-C ,  2-C ) :   0.1422 B(  1-C ,  6-N ) :   0.1584 B(  1-C ,  7-N ) :   1.2414
B(  1-C ,  8-H ) :  -0.1057 B(  1-C ,  9-H ) :   0.8606 B(  2-C ,  3-C ) :   1.2865
B(  2-C ,  5-C ) :  -0.1419 B(  2-C ,  6-N ) :   0.9670 B(  2-C ,  7-N ) :   0.1126
B(  2-C , 10-H ) :   0.8044 B(  3-C ,  5-C ) :   0.7593 B(  3-C ,  6-N ) :   0.1006
B(  3-C ,  7-N ) :   0.8372 B(  4-C ,  5-C ) :   1.0082 B(  4-C , 11-H ) :   0.9317
B(  4-C , 12-H ) :   0.9330 B(  4-C , 13-H ) :   0.9331 B(  5-C , 14-H ) :   0.9882
B(  5-C , 15-H ) :   0.9222 B(  6-N ,  8-H ) :  -0.1193 B(  6-N , 10-H ) :  -0.1341
B(  7-N ,  9-H ) :  -0.1051

MP2 TOTAL ENERGY:     -342.360989741 Eh
FINAL SINGLE POINT ENERGY      -342.360989740867

DIPOLE MOMENT
-------------
                                X             Y             Z
Electronic contribution:      7.62463       0.21958      -0.92612
Nuclear contribution   :     -7.88331      -0.27859       0.90186
                        -----------------------------------------
Total Dipole Moment    :     -0.25869      -0.05901      -0.02426
                        -----------------------------------------
Magnitude (a.u.)       :      0.26644
Magnitude (Debye)      :      0.67723

Rotational constants in cm-1:     0.162126     0.051286     0.042427
Rotational constants in MHz :  4860.417498  1537.506069  1271.921699

                             ****ORCA TERMINATED NORMALLY****
TOTAL RUN TIME: 0 days 0 hours 42 minutes 10 seconds 805 msec
