                         Program Version 5.0.4 -  RELEASE  -
|  1> !ri-mp2 aug-cc-pvqz aug-cc-pvqz/c tightscf
|  2> %pal nprocs 16 end
|  3>
|  4> * xyz 0 1
|  5> S      0.000000    0.000000    2.086086
|  6> C      0.000000    0.000000    0.422971
|  7> N      0.000000    1.095429   -0.390077
|  8> C     -0.231274    0.733283   -1.785169
|  9> C      0.231274   -0.733283   -1.785169
| 10> N      0.000000   -1.095429   -0.390077
| 11> H     -0.275915    1.980156   -0.001574
| 12> H      0.347846    1.354361   -2.465670
| 13> H     -1.290782    0.811565   -2.048808
| 14> H      1.290782   -0.811565   -2.048808
| 15> H     -0.347846   -1.354361   -2.465670
| 16> H      0.275915   -1.980156   -0.001574
| 17> *
| 18>
| 19>                          ****END OF INPUT****

CARTESIAN COORDINATES (ANGSTROEM)
---------------------------------
  S      0.000000    0.000000    2.086086
  C      0.000000    0.000000    0.422971
  N      0.000000    1.095429   -0.390077
  C     -0.231274    0.733283   -1.785169
  C      0.231274   -0.733283   -1.785169
  N      0.000000   -1.095429   -0.390077
  H     -0.275915    1.980156   -0.001574
  H      0.347846    1.354361   -2.465670
  H     -1.290782    0.811565   -2.048808
  H      1.290782   -0.811565   -2.048808
  H     -0.347846   -1.354361   -2.465670
  H      0.275915   -1.980156   -0.001574

 Total Charge           Charge          ....    0
 Multiplicity           Mult            ....    1
 Number of Electrons    NEL             ....   54
 Basis Dimension        Dim             ....  760

ORBITAL ENERGIES
----------------

  NO   OCC          E(Eh)            E(eV)
   0   2.0000     -91.884105     -2500.2936
   1   2.0000     -15.598922      -424.4682
   2   2.0000     -15.598893      -424.4674
   3   2.0000     -11.368406      -309.3501
   4   2.0000     -11.293985      -307.3250
   5   2.0000     -11.293382      -307.3086
   6   2.0000      -8.888300      -241.8629
   7   2.0000      -6.570189      -178.7839
   8   2.0000      -6.568304      -178.7326
   9   2.0000      -6.567778      -178.7183
  10   2.0000      -1.345030       -36.6001
  11   2.0000      -1.196492       -32.5582
  12   2.0000      -1.064742       -28.9731
  13   2.0000      -0.935195       -25.4479
  14   2.0000      -0.877218       -23.8703
  15   2.0000      -0.840171       -22.8622
  16   2.0000      -0.703181       -19.1345
  17   2.0000      -0.691357       -18.8128
  18   2.0000      -0.660253       -17.9664
  19   2.0000      -0.617057       -16.7910
  20   2.0000      -0.581296       -15.8179
  21   2.0000      -0.550493       -14.9797
  22   2.0000      -0.536031       -14.5862
  23   2.0000      -0.506467       -13.7817
  24   2.0000      -0.404454       -11.0057
  25   2.0000      -0.321478        -8.7479
  26   2.0000      -0.318511        -8.6671
  27   0.0000       0.016970         0.4618
  28   0.0000       0.026689         0.7262
  29   0.0000       0.030182         0.8213
  30   0.0000       0.037300         1.0150
  31   0.0000       0.049082         1.3356

MULLIKEN ATOMIC CHARGES
-----------------------
   0 S :   -0.234733
   1 C :    0.090269
   2 N :   -0.375535
   3 C :   -0.460431
   4 C :   -0.460431
   5 N :   -0.375535
   6 H :    0.263657
   7 H :    0.373295
   8 H :    0.271247
   9 H :    0.271247
  10 H :    0.373295
  11 H :    0.263657
Sum of atomic charges:   -0.0000000

LOEWDIN ATOMIC CHARGES
----------------------
   0 S :    0.974769
   1 C :   -1.203882
   2 N :    0.761318
   3 C :    0.390591
   4 C :    0.390591
   5 N :    0.761318
   6 H :   -0.505675
   7 H :   -0.268848
   8 H :   -0.262829
   9 H :   -0.262829
  10 H :   -0.268848
  11 H :   -0.505675

  Mayer bond orders larger than 0.100000
B(  0-S ,  1-C ) :   1.4322 B(  1-C ,  2-N ) :   1.1401 B(  1-C ,  5-N ) :   1.1401
B(  2-N ,  3-C ) :   0.8290 B(  2-N ,  6-H ) :   0.9426 B(  3-C ,  4-C ) :   1.1608
B(  3-C ,  7-H ) :   0.8303 B(  3-C ,  8-H ) :   0.9147 B(  4-C ,  5-N ) :   0.8290
B(  4-C ,  9-H ) :   0.9147 B(  4-C , 10-H ) :   0.8303 B(  5-N , 11-H ) :   0.9426

MP2 TOTAL ENERGY:     -624.807003042 Eh
FINAL SINGLE POINT ENERGY      -624.807003041891

DIPOLE MOMENT
-------------
                                X             Y             Z
Electronic contribution:      0.00000      -0.00000       6.59486
Nuclear contribution   :      0.00000      -0.00000      -9.03521
                        -----------------------------------------
Total Dipole Moment    :      0.00000      -0.00000      -2.44035
                        -----------------------------------------
Magnitude (a.u.)       :      2.44035
Magnitude (Debye)      :      6.20288

Rotational constants in cm-1:     0.261342     0.068329     0.055711
Rotational constants in MHz :  7834.825997  2048.446868  1670.168735

                             ****ORCA TERMINATED NORMALLY****
TOTAL RUN TIME: 0 days 0 hours 16 minutes 16 seconds 692 msec
