                         Program Version 5.0.4 -  RELEASE  -
|  1> !ri-mp2 aug-cc-pvqz aug-cc-pvqz/c tightscf
|  2> %pal nprocs 16 end
|  3>
|  4> * xyz 0 1
|  5> C     -1.835597   -1.471168    0.106759
|  6> C     -2.531726   -0.267314    0.040621
|  7> C     -0.452973   -1.452868    0.080538
|  8> C     -1.850063    0.934346   -0.048731
|  9> C      0.235671   -0.246214    0.013147
| 10> C     -0.453434    0.973310   -0.060215
| 11> N      1.703827   -0.306080    0.022093
| 12> O      2.221476   -1.316606   -0.438893
| 13> O      2.315378    0.632295    0.504570
| 14> O      0.220545    2.138083   -0.177817
| 15> H     -2.364482   -2.410267    0.175643
| 16> H     -3.612989   -0.262929    0.054068
| 17> H      0.123142   -2.364653    0.116206
| 18> H     -2.397052    1.867174   -0.114478
| 19> H     -0.405869    2.862503   -0.281682
| 20> *
| 21>
| 22>                          ****END OF INPUT****

CARTESIAN COORDINATES (ANGSTROEM)
---------------------------------
  C     -1.835597   -1.471168    0.106759
  C     -2.531726   -0.267314    0.040621
  C     -0.452973   -1.452868    0.080538
  C     -1.850063    0.934346   -0.048731
  C      0.235671   -0.246214    0.013147
  C     -0.453434    0.973310   -0.060215
  N      1.703827   -0.306080    0.022093
  O      2.221476   -1.316606   -0.438893
  O      2.315378    0.632295    0.504570
  O      0.220545    2.138083   -0.177817
  H     -2.364482   -2.410267    0.175643
  H     -3.612989   -0.262929    0.054068
  H      0.123142   -2.364653    0.116206
  H     -2.397052    1.867174   -0.114478
  H     -0.405869    2.862503   -0.281682

 Total Charge           Charge          ....    0
 Multiplicity           Mult            ....    1
 Number of Electrons    NEL             ....   72
 Basis Dimension        Dim             .... 1030

ORBITAL ENERGIES
----------------

  NO   OCC          E(Eh)            E(eV)
   0   2.0000     -20.617417      -561.0284
   1   2.0000     -20.595138      -560.4222
   2   2.0000     -20.590633      -560.2996
   3   2.0000     -15.847470      -431.2316
   4   2.0000     -11.351409      -308.8875
   5   2.0000     -11.307320      -307.6878
   6   2.0000     -11.277015      -306.8632
   7   2.0000     -11.276767      -306.8564
   8   2.0000     -11.263002      -306.4819
   9   2.0000     -11.255185      -306.2691
  10   2.0000      -1.600375       -43.5484
  11   2.0000      -1.441259       -39.2186
  12   2.0000      -1.392406       -37.8893
  13   2.0000      -1.195631       -32.5348
  14   2.0000      -1.096211       -29.8294
  15   2.0000      -1.045564       -28.4512
  16   2.0000      -0.958985       -26.0953
  17   2.0000      -0.884121       -24.0582
  18   2.0000      -0.834785       -22.7156
  19   2.0000      -0.780129       -21.2284
  20   2.0000      -0.758708       -20.6455
  21   2.0000      -0.724944       -19.7267
  22   2.0000      -0.719090       -19.5674
  23   2.0000      -0.689766       -18.7695
  24   2.0000      -0.670740       -18.2518
  25   2.0000      -0.638721       -17.3805
  26   2.0000      -0.622295       -16.9335
  27   2.0000      -0.605973       -16.4894
  28   2.0000      -0.561483       -15.2787
  29   2.0000      -0.544135       -14.8067
  30   2.0000      -0.518950       -14.1213
  31   2.0000      -0.490393       -13.3443
  32   2.0000      -0.484659       -13.1882
  33   2.0000      -0.446052       -12.1377
  34   2.0000      -0.382027       -10.3955
  35   2.0000      -0.350394        -9.5347
  36   0.0000       0.014912         0.4058
  37   0.0000       0.022684         0.6173
  38   0.0000       0.031003         0.8436
  39   0.0000       0.043282         1.1778
  40   0.0000       0.047660         1.2969

MULLIKEN ATOMIC CHARGES
-----------------------
   0 C :   -0.440145
   1 C :   -0.310140
   2 C :   -0.260873
   3 C :   -0.525454
   4 C :    0.016041
   5 C :    1.241471
   6 N :    0.721065
   7 O :   -0.626834
   8 O :   -0.567407
   9 O :   -0.744884
  10 H :    0.241512
  11 H :    0.272441
  12 H :    0.384747
  13 H :    0.235521
  14 H :    0.362938
Sum of atomic charges:    0.0000000

LOEWDIN ATOMIC CHARGES
----------------------
   0 C :    0.360204
   1 C :    0.349800
   2 C :    0.303050
   3 C :    0.341547
   4 C :   -0.316834
   5 C :   -0.444351
   6 N :   -0.854504
   7 O :    0.535719
   8 O :    0.541109
   9 O :    1.281171
  10 H :   -0.323727
  11 H :   -0.310875
  12 H :   -0.348310
  13 H :   -0.324085
  14 H :   -0.789913

  Mayer bond orders larger than 0.100000
B(  0-C ,  1-C ) :   1.2358 B(  0-C ,  2-C ) :   1.2799 B(  0-C ,  4-C ) :  -0.2061
B(  0-C , 10-H ) :   1.1134 B(  1-C ,  3-C ) :   1.2082 B(  1-C ,  5-C ) :  -0.1398
B(  1-C , 11-H ) :   1.0743 B(  2-C ,  3-C ) :   0.1076 B(  2-C ,  4-C ) :   1.0724
B(  2-C , 10-H ) :  -0.1172 B(  2-C , 12-H ) :   0.8444 B(  3-C ,  4-C ) :  -0.1931
B(  3-C ,  5-C ) :   1.2250 B(  3-C ,  9-O ) :   0.2192 B(  3-C , 11-H ) :  -0.1376
B(  3-C , 13-H ) :   1.0628 B(  4-C ,  5-C ) :   1.2170 B(  4-C ,  6-N ) :   0.8071
B(  4-C ,  8-O ) :   0.1150 B(  4-C ,  9-O ) :   0.3622 B(  5-C , 13-H ) :  -0.1031
B(  5-C , 14-H ) :  -0.1070 B(  6-N ,  7-O ) :   1.2263 B(  6-N ,  8-O ) :   1.3026
B(  7-O ,  8-O ) :   0.1168 B(  9-O , 14-H ) :   0.8949

MP2 TOTAL ENERGY:     -511.245485709 Eh
FINAL SINGLE POINT ENERGY      -511.245485709444

DIPOLE MOMENT
-------------
                                X             Y             Z
Electronic contribution:      5.85221       0.67794       0.00486
Nuclear contribution   :     -8.33262      -0.27903      -0.05043
                        -----------------------------------------
Total Dipole Moment    :     -2.48041       0.39891      -0.04557
                        -----------------------------------------
Magnitude (a.u.)       :      2.51270
Magnitude (Debye)      :      6.38676

Rotational constants in cm-1:     0.078470     0.041863     0.028035
Rotational constants in MHz :  2352.475536  1255.029034   840.467767

                             ****ORCA TERMINATED NORMALLY****
TOTAL RUN TIME: 0 days 0 hours 49 minutes 32 seconds 803 msec
