                         Program Version 5.0.4 -  RELEASE  -
|  1> !ri-mp2 aug-cc-pvqz aug-cc-pvqz/c tightscf
|  2> %pal nprocs 16 end
|  3>
|  4> * xyz 0 1
|  5> Cl    -2.515817   -0.128816    0.000007
|  6> S      0.326747   -1.096199   -0.000007
|  7> F      2.880120   -0.361130   -0.000011
|  8> C     -0.231182    1.433389    0.000009
|  9> C      1.195500    1.353571    0.000004
| 10> C     -0.825108    0.213609    0.000004
| 11> C      1.617947    0.069156   -0.000005
| 12> H     -0.784651    2.359095    0.000016
| 13> H      1.861563    2.201781    0.000006
| 14> *
| 15>
| 16>                          ****END OF INPUT****

CARTESIAN COORDINATES (ANGSTROEM)
---------------------------------
  Cl    -2.515817   -0.128816    0.000007
  S      0.326747   -1.096199   -0.000007
  F      2.880120   -0.361130   -0.000011
  C     -0.231182    1.433389    0.000009
  C      1.195500    1.353571    0.000004
  C     -0.825108    0.213609    0.000004
  C      1.617947    0.069156   -0.000005
  H     -0.784651    2.359095    0.000016
  H      1.861563    2.201781    0.000006

 Total Charge           Charge          ....    0
 Multiplicity           Mult            ....    1
 Number of Electrons    NEL             ....   68
 Basis Dimension        Dim             ....  660

ORBITAL ENERGIES
----------------

  NO   OCC          E(Eh)            E(eV)
   0   2.0000    -104.862278     -2853.4477
   1   2.0000     -92.012586     -2503.7897
   2   2.0000     -26.338132      -716.6970
   3   2.0000     -11.368231      -309.3453
   4   2.0000     -11.332817      -308.3816
   5   2.0000     -11.264738      -306.5291
   6   2.0000     -11.256671      -306.3096
   7   2.0000     -10.586969      -288.0861
   8   2.0000      -9.013748      -245.2766
   9   2.0000      -8.054178      -219.1653
  10   2.0000      -8.052302      -219.1143
  11   2.0000      -8.052194      -219.1113
  12   2.0000      -6.694893      -182.1773
  13   2.0000      -6.694498      -182.1665
  14   2.0000      -6.693516      -182.1398
  15   2.0000      -1.657200       -45.0947
  16   2.0000      -1.215704       -33.0810
  17   2.0000      -1.137080       -30.9415
  18   2.0000      -1.016261       -27.6539
  19   2.0000      -0.982330       -26.7306
  20   2.0000      -0.823603       -22.4114
  21   2.0000      -0.784113       -21.3368
  22   2.0000      -0.730864       -19.8878
  23   2.0000      -0.723777       -19.6950
  24   2.0000      -0.691320       -18.8118
  25   2.0000      -0.640020       -17.4158
  26   2.0000      -0.593719       -16.1559
  27   2.0000      -0.568217       -15.4620
  28   2.0000      -0.548939       -14.9374
  29   2.0000      -0.510716       -13.8973
  30   2.0000      -0.486492       -13.2381
  31   2.0000      -0.467672       -12.7260
  32   2.0000      -0.377273       -10.2661
  33   2.0000      -0.333769        -9.0823
  34   0.0000       0.024941         0.6787
  35   0.0000       0.034836         0.9479
  36   0.0000       0.046892         1.2760
  37   0.0000       0.059699         1.6245
  38   0.0000       0.063286         1.7221

MULLIKEN ATOMIC CHARGES
-----------------------
   0 Cl:   -0.183017
   1 S :    0.486560
   2 F :   -0.675601
   3 C :   -0.210826
   4 C :   -0.496071
   5 C :   -0.313550
   6 C :    0.591685
   7 H :    0.421888
   8 H :    0.378933
Sum of atomic charges:    0.0000000

LOEWDIN ATOMIC CHARGES
----------------------
   0 Cl:    1.091499
   1 S :    1.209182
   2 F :    0.697421
   3 C :    0.041224
   4 C :    0.147139
   5 C :   -1.353488
   6 C :   -1.140902
   7 H :   -0.352760
   8 H :   -0.339314

  Mayer bond orders larger than 0.100000
B(  0-Cl,  3-C ) :  -0.1012 B(  0-Cl,  5-C ) :   0.8432 B(  1-S ,  5-C ) :   1.0076
B(  1-S ,  6-C ) :   1.1779 B(  2-F ,  4-C ) :   0.2081 B(  2-F ,  6-C ) :   0.2064
B(  3-C ,  4-C ) :   1.0845 B(  3-C ,  5-C ) :   1.2922 B(  3-C ,  6-C ) :  -0.1473
B(  3-C ,  7-H ) :   0.8561 B(  4-C ,  5-C ) :  -0.1752 B(  4-C ,  6-C ) :   1.6558
B(  4-C ,  8-H ) :   0.8903 B(  5-C ,  6-C ) :  -0.1190

MP2 TOTAL ENERGY:    -1110.556795695 Eh
FINAL SINGLE POINT ENERGY     -1110.556795695454

DIPOLE MOMENT
-------------
                                X             Y             Z
Electronic contribution:     -1.69151      -4.22312      -0.00002
Nuclear contribution   :      1.70351       4.80239       0.00002
                        -----------------------------------------
Total Dipole Moment    :      0.01200       0.57927       0.00000
                        -----------------------------------------
Magnitude (a.u.)       :      0.57940
Magnitude (Debye)      :      1.47271

Rotational constants in cm-1:     0.170001     0.037717     0.030869
Rotational constants in MHz :  5096.491608  1130.735367   925.417257

                             ****ORCA TERMINATED NORMALLY****
TOTAL RUN TIME: 0 days 0 hours 13 minutes 57 seconds 221 msec
