                         Program Version 5.0.4 -  RELEASE  -
|  1> !ri-mp2 aug-cc-pvqz aug-cc-pvqz/c tightscf
|  2> %pal nprocs 16 end
|  3>
|  4> * xyz 0 1
|  5> C     -2.743598    0.279380    0.263321
|  6> C      1.527637    1.583398    0.042847
|  7> C      2.226050   -0.822775    0.228502
|  8> C     -1.371578    0.649289   -0.298578
|  9> C      1.159473    0.137171   -0.308936
| 10> C     -0.242383   -0.258067    0.197134
| 11> O     -0.529559   -1.629626   -0.112600
| 12> H     -3.515575    0.944672   -0.125339
| 13> H     -2.752787    0.361074    1.352137
| 14> H     -3.015995   -0.743733    0.008715
| 15> H      0.893332    2.312783   -0.458542
| 16> H      1.450647    1.753470    1.119924
| 17> H      2.558304    1.792091   -0.246918
| 18> H      3.203847   -0.588092   -0.194843
| 19> H      1.989120   -1.858593   -0.004759
| 20> H      2.306790   -0.736724    1.315244
| 21> H     -1.393282    0.611750   -1.394424
| 22> H     -1.144600    1.683054   -0.034580
| 23> H      1.140378    0.049342   -1.403355
| 24> H     -0.228904   -0.235027    1.291831
| 25> H     -0.588412   -1.719433   -1.070029
| 26> *
| 27>
| 28>                          ****END OF INPUT****

CARTESIAN COORDINATES (ANGSTROEM)
---------------------------------
  C     -2.743598    0.279380    0.263321
  C      1.527637    1.583398    0.042847
  C      2.226050   -0.822775    0.228502
  C     -1.371578    0.649289   -0.298578
  C      1.159473    0.137171   -0.308936
  C     -0.242383   -0.258067    0.197134
  O     -0.529559   -1.629626   -0.112600
  H     -3.515575    0.944672   -0.125339
  H     -2.752787    0.361074    1.352137
  H     -3.015995   -0.743733    0.008715
  H      0.893332    2.312783   -0.458542
  H      1.450647    1.753470    1.119924
  H      2.558304    1.792091   -0.246918
  H      3.203847   -0.588092   -0.194843
  H      1.989120   -1.858593   -0.004759
  H      2.306790   -0.736724    1.315244
  H     -1.393282    0.611750   -1.394424
  H     -1.144600    1.683054   -0.034580
  H      1.140378    0.049342   -1.403355
  H     -0.228904   -0.235027    1.291831
  H     -0.588412   -1.719433   -1.070029

 Total Charge           Charge          ....    0
 Multiplicity           Mult            ....    1
 Number of Electrons    NEL             ....   58
 Basis Dimension        Dim             .... 1204

ORBITAL ENERGIES
----------------

  NO   OCC          E(Eh)            E(eV)
   0   2.0000     -20.547577      -559.1280
   1   2.0000     -11.273131      -306.7575
   2   2.0000     -11.226556      -305.4901
   3   2.0000     -11.219118      -305.2877
   4   2.0000     -11.213442      -305.1333
   5   2.0000     -11.207684      -304.9766
   6   2.0000     -11.204380      -304.8867
   7   2.0000      -1.352770       -36.8107
   8   2.0000      -1.084920       -29.5222
   9   2.0000      -1.031728       -28.0748
  10   2.0000      -0.928111       -25.2552
  11   2.0000      -0.913482       -24.8571
  12   2.0000      -0.818958       -22.2850
  13   2.0000      -0.782876       -21.3032
  14   2.0000      -0.655559       -17.8387
  15   2.0000      -0.641970       -17.4689
  16   2.0000      -0.625889       -17.0313
  17   2.0000      -0.609524       -16.5860
  18   2.0000      -0.571573       -15.5533
  19   2.0000      -0.553890       -15.0721
  20   2.0000      -0.544065       -14.8047
  21   2.0000      -0.533691       -14.5225
  22   2.0000      -0.516074       -14.0431
  23   2.0000      -0.503078       -13.6895
  24   2.0000      -0.486930       -13.2500
  25   2.0000      -0.478414       -13.0183
  26   2.0000      -0.471506       -12.8303
  27   2.0000      -0.448019       -12.1912
  28   2.0000      -0.421306       -11.4643
  29   0.0000       0.024599         0.6694
  30   0.0000       0.029103         0.7919
  31   0.0000       0.030990         0.8433
  32   0.0000       0.034025         0.9259
  33   0.0000       0.045956         1.2505

MULLIKEN ATOMIC CHARGES
-----------------------
   0 C :   -0.843618
   1 C :   -0.918809
   2 C :   -0.982467
   3 C :   -0.618342
   4 C :    0.101675
   5 C :    1.176672
   6 O :   -1.110143
   7 H :    0.248650
   8 H :    0.215037
   9 H :    0.217120
  10 H :    0.214558
  11 H :    0.169399
  12 H :    0.272206
  13 H :    0.246664
  14 H :    0.262145
  15 H :    0.196010
  16 H :    0.188049
  17 H :    0.283791
  18 H :    0.186528
  19 H :    0.140275
  20 H :    0.354600
Sum of atomic charges:    0.0000000

LOEWDIN ATOMIC CHARGES
----------------------
   0 C :    0.934996
   1 C :    0.924319
   2 C :    0.918900
   3 C :    0.499620
   4 C :    0.095833
   5 C :   -0.207235
   6 O :    1.303195
   7 H :   -0.282447
   8 H :   -0.279795
   9 H :   -0.295305
  10 H :   -0.291581
  11 H :   -0.265031
  12 H :   -0.276895
  13 H :   -0.278766
  14 H :   -0.294446
  15 H :   -0.273094
  16 H :   -0.266024
  17 H :   -0.304226
  18 H :   -0.276453
  19 H :   -0.309013
  20 H :   -0.776553

  Mayer bond orders larger than 0.100000
B(  0-C ,  3-C ) :   0.8738 B(  0-C ,  5-C ) :  -0.1092 B(  0-C ,  7-H ) :   1.0488
B(  0-C ,  8-H ) :   0.9596 B(  0-C ,  9-H ) :   0.9959 B(  1-C ,  2-C ) :   0.1352
B(  1-C ,  4-C ) :   0.5803 B(  1-C , 10-H ) :   1.0406 B(  1-C , 11-H ) :   1.0229
B(  1-C , 12-H ) :   1.0266 B(  2-C ,  4-C ) :   0.6178 B(  2-C , 13-H ) :   1.0473
B(  2-C , 14-H ) :   1.0089 B(  2-C , 15-H ) :   1.0199 B(  3-C ,  5-C ) :   0.6460
B(  3-C ,  6-O ) :   0.1539 B(  3-C ,  7-H ) :  -0.1300 B(  3-C , 16-H ) :   0.9519
B(  3-C , 17-H ) :   0.8835 B(  4-C ,  5-C ) :   0.6694 B(  4-C ,  6-O ) :   0.1472
B(  4-C , 12-H ) :  -0.1093 B(  4-C , 13-H ) :  -0.1236 B(  4-C , 18-H ) :   0.9710
B(  5-C , 19-H ) :   1.0403 B(  6-O , 20-H ) :   0.8789

MP2 TOTAL ENERGY:     -311.754986775 Eh
FINAL SINGLE POINT ENERGY      -311.754986775385

DIPOLE MOMENT
-------------
                                X             Y             Z
Electronic contribution:     -0.86669      -3.31506      -0.59787
Nuclear contribution   :      0.95362       3.83887       0.16341
                        -----------------------------------------
Total Dipole Moment    :      0.08693       0.52382      -0.43445
                        -----------------------------------------
Magnitude (a.u.)       :      0.68607
Magnitude (Debye)      :      1.74385

Rotational constants in cm-1:     0.131792     0.055874     0.042466
Rotational constants in MHz :  3951.032334  1675.063165  1273.103875

                             ****ORCA TERMINATED NORMALLY****
TOTAL RUN TIME: 0 days 1 hours 17 minutes 54 seconds 335 msec
