                         Program Version 5.0.4 -  RELEASE  -
|  1> !ri-mp2 aug-cc-pvqz aug-cc-pvqz/c tightscf
|  2> %pal nprocs 16 end
|  3>
|  4> * xyz 0 1
|  5> C     1.309093    1.172916    0.000000
|  6> C    -1.309093   -1.172916    0.000000
|  7> C     2.068867    0.039777    0.000000
|  8> C    -2.068867   -0.039777    0.000000
|  9> C    -0.023065    0.680222    0.000000
| 10> C     0.023065   -0.680222    0.000000
| 11> O     1.309093   -1.111529    0.000000
| 12> O    -1.309093    1.111529    0.000000
| 13> H     1.675271    2.183812    0.000000
| 14> H    -1.675271   -2.183812    0.000000
| 15> H     3.132307   -0.112935    0.000000
| 16> H    -3.132307    0.112935    0.000000
| 17> *
| 18>
| 19>                          ****END OF INPUT****

CARTESIAN COORDINATES (ANGSTROEM)
---------------------------------
  C      1.309093    1.172916    0.000000
  C     -1.309093   -1.172916    0.000000
  C      2.068867    0.039777    0.000000
  C     -2.068867   -0.039777    0.000000
  C     -0.023065    0.680222    0.000000
  C      0.023065   -0.680222    0.000000
  O      1.309093   -1.111529    0.000000
  O     -1.309093    1.111529    0.000000
  H      1.675271    2.183812    0.000000
  H     -1.675271   -2.183812    0.000000
  H      3.132307   -0.112935    0.000000
  H     -3.132307    0.112935    0.000000

 Total Charge           Charge          ....    0
 Multiplicity           Mult            ....    1
 Number of Electrons    NEL             ....   56
 Basis Dimension        Dim             ....  824

ORBITAL ENERGIES
----------------

  NO   OCC          E(Eh)            E(eV)
   0   2.0000     -20.627922      -561.3143
   1   2.0000     -20.627918      -561.3142
   2   2.0000     -11.300089      -307.4911
   3   2.0000     -11.300087      -307.4910
   4   2.0000     -11.281319      -306.9803
   5   2.0000     -11.279802      -306.9390
   6   2.0000     -11.247461      -306.0590
   7   2.0000     -11.247459      -306.0589
   8   2.0000      -1.470638       -40.0181
   9   2.0000      -1.448141       -39.4059
  10   2.0000      -1.098898       -29.9025
  11   2.0000      -1.084571       -29.5127
  12   2.0000      -0.984901       -26.8005
  13   2.0000      -0.849857       -23.1258
  14   2.0000      -0.812284       -22.1034
  15   2.0000      -0.777236       -21.1497
  16   2.0000      -0.717936       -19.5360
  17   2.0000      -0.668188       -18.1823
  18   2.0000      -0.663858       -18.0645
  19   2.0000      -0.647858       -17.6291
  20   2.0000      -0.610816       -16.6212
  21   2.0000      -0.591012       -16.0822
  22   2.0000      -0.586014       -15.9463
  23   2.0000      -0.566318       -15.4103
  24   2.0000      -0.513996       -13.9866
  25   2.0000      -0.411284       -11.1916
  26   2.0000      -0.388934       -10.5834
  27   2.0000      -0.289076        -7.8662
  28   0.0000       0.025839         0.7031
  29   0.0000       0.026553         0.7225
  30   0.0000       0.031564         0.8589
  31   0.0000       0.040001         1.0885
  32   0.0000       0.065733         1.7887

MULLIKEN ATOMIC CHARGES
-----------------------
   0 C :   -0.551872
   1 C :   -0.551869
   2 C :   -0.319442
   3 C :   -0.319449
   4 C :    0.605126
   5 C :    0.605124
   6 O :   -0.753314
   7 O :   -0.753314
   8 H :    0.460580
   9 H :    0.460575
  10 H :    0.558926
  11 H :    0.558929
Sum of atomic charges:    0.0000000

LOEWDIN ATOMIC CHARGES
----------------------
   0 C :    0.364693
   1 C :    0.364693
   2 C :    0.010248
   3 C :    0.010248
   4 C :   -0.565031
   5 C :   -0.565031
   6 O :    0.857256
   7 O :    0.857256
   8 H :   -0.329549
   9 H :   -0.329549
  10 H :   -0.337617
  11 H :   -0.337617

  Mayer bond orders larger than 0.100000
B(  0-C ,  2-C ) :   1.8277 B(  0-C ,  4-C ) :   1.0743 B(  0-C ,  5-C ) :  -0.3092
B(  0-C ,  6-O ) :   0.1034 B(  0-C ,  8-H ) :   0.8321 B(  1-C ,  3-C ) :   1.8278
B(  1-C ,  4-C ) :  -0.3092 B(  1-C ,  5-C ) :   1.0743 B(  1-C ,  7-O ) :   0.1034
B(  1-C ,  9-H ) :   0.8321 B(  2-C ,  4-C ) :  -0.2549 B(  2-C ,  6-O ) :   0.8654
B(  2-C , 10-H ) :   0.7161 B(  3-C ,  5-C ) :  -0.2549 B(  3-C ,  7-O ) :   0.8654
B(  3-C , 11-H ) :   0.7161 B(  4-C ,  5-C ) :   1.1162 B(  4-C ,  7-O ) :   0.6046
B(  5-C ,  6-O ) :   0.6046

MP2 TOTAL ENERGY:     -380.849792330 Eh
FINAL SINGLE POINT ENERGY      -380.849792329967

DIPOLE MOMENT
-------------
                                X             Y             Z
Electronic contribution:      0.00000       0.00000      -0.00000
Nuclear contribution   :      0.00000       0.00000       0.00000
                        -----------------------------------------
Total Dipole Moment    :      0.00000       0.00000      -0.00000
                        -----------------------------------------
Magnitude (a.u.)       :      0.00000
Magnitude (Debye)      :      0.00000

Rotational constants in cm-1:     0.180568     0.075161     0.053070
Rotational constants in MHz :  5413.284238  2253.263902  1591.010418

                             ****ORCA TERMINATED NORMALLY****
TOTAL RUN TIME: 0 days 0 hours 25 minutes 16 seconds 928 msec
