                         Program Version 5.0.4 -  RELEASE  -
|  1> !ri-mp2 aug-cc-pvqz aug-cc-pvqz/c tightscf
|  2> %pal nprocs 16 end
|  3>
|  4> * xyz 0 1
|  5> S      0.486424   -1.562232    0.000000
|  6> C      1.185552    0.135916    0.000000
|  7> C      0.000000    1.049246    0.000000
|  8> C     -1.213614    0.503766    0.000000
|  9> C     -1.274556   -0.989952    0.000000
| 10> O      0.322895    2.373917    0.000000
| 11> H      1.804678    0.296812    0.883239
| 12> H     -2.125549    1.088447    0.000000
| 13> H     -1.777269   -1.389274   -0.882273
| 14> H      1.804678    0.296812   -0.883239
| 15> H     -1.777269   -1.389274    0.882273
| 16> H     -0.479502    2.906985    0.000000
| 17> *
| 18>
| 19>                          ****END OF INPUT****

CARTESIAN COORDINATES (ANGSTROEM)
---------------------------------
  S      0.486424   -1.562232    0.000000
  C      1.185552    0.135916    0.000000
  C      0.000000    1.049246    0.000000
  C     -1.213614    0.503766    0.000000
  C     -1.274556   -0.989952    0.000000
  O      0.322895    2.373917    0.000000
  H      1.804678    0.296812    0.883239
  H     -2.125549    1.088447    0.000000
  H     -1.777269   -1.389274   -0.882273
  H      1.804678    0.296812   -0.883239
  H     -1.777269   -1.389274    0.882273
  H     -0.479502    2.906985    0.000000

 Total Charge           Charge          ....    0
 Multiplicity           Mult            ....    1
 Number of Electrons    NEL             ....   54
 Basis Dimension        Dim             ....  760

ORBITAL ENERGIES
----------------

  NO   OCC          E(Eh)            E(eV)
   0   2.0000     -91.943404     -2501.9072
   1   2.0000     -20.598133      -560.5037
   2   2.0000     -11.308302      -307.7145
   3   2.0000     -11.263215      -306.4877
   4   2.0000     -11.262638      -306.4719
   5   2.0000     -11.227142      -305.5061
   6   2.0000      -8.944873      -243.4024
   7   2.0000      -6.626320      -180.3113
   8   2.0000      -6.625564      -180.2908
   9   2.0000      -6.624597      -180.2645
  10   2.0000      -1.413510       -38.4636
  11   2.0000      -1.130043       -30.7500
  12   2.0000      -0.991826       -26.9889
  13   2.0000      -0.964589       -26.2478
  14   2.0000      -0.817813       -22.2538
  15   2.0000      -0.782141       -21.2831
  16   2.0000      -0.691788       -18.8245
  17   2.0000      -0.649202       -17.6657
  18   2.0000      -0.638906       -17.3855
  19   2.0000      -0.588450       -16.0125
  20   2.0000      -0.560283       -15.2461
  21   2.0000      -0.549056       -14.9406
  22   2.0000      -0.537024       -14.6132
  23   2.0000      -0.493410       -13.4264
  24   2.0000      -0.435084       -11.8392
  25   2.0000      -0.351202        -9.5567
  26   2.0000      -0.332898        -9.0586
  27   0.0000       0.021400         0.5823
  28   0.0000       0.032230         0.8770
  29   0.0000       0.036418         0.9910
  30   0.0000       0.039006         1.0614
  31   0.0000       0.049325         1.3422

MULLIKEN ATOMIC CHARGES
-----------------------
   0 S :   -0.084501
   1 C :   -0.508633
   2 C :    0.642083
   3 C :   -0.576797
   4 C :   -0.519058
   5 O :   -0.805203
   6 H :    0.286387
   7 H :    0.389699
   8 H :    0.263062
   9 H :    0.286387
  10 H :    0.263062
  11 H :    0.363513
Sum of atomic charges:    0.0000000

LOEWDIN ATOMIC CHARGES
----------------------
   0 S :    1.295063
   1 C :    0.117309
   2 C :   -0.506483
   3 C :    0.269170
   4 C :    0.130595
   5 O :    1.274385
   6 H :   -0.361869
   7 H :   -0.322875
   8 H :   -0.368950
   9 H :   -0.361869
  10 H :   -0.368950
  11 H :   -0.795527

  Mayer bond orders larger than 0.100000
B(  0-S ,  1-C ) :   0.9820 B(  0-S ,  4-C ) :   0.9129 B(  1-C ,  2-C ) :   0.8431
B(  1-C ,  6-H ) :   0.8992 B(  1-C ,  9-H ) :   0.8992 B(  2-C ,  3-C ) :   1.7673
B(  2-C ,  5-O ) :   0.5145 B(  3-C ,  4-C ) :   0.9121 B(  3-C ,  5-O ) :   0.1791
B(  3-C ,  7-H ) :   0.8082 B(  4-C ,  8-H ) :   0.9114 B(  4-C , 10-H ) :   0.9114
B(  5-O , 11-H ) :   0.8873

MP2 TOTAL ENERGY:     -628.605219674 Eh
FINAL SINGLE POINT ENERGY      -628.605219673895

DIPOLE MOMENT
-------------
                                X             Y             Z
Electronic contribution:      1.80709      -1.20862      -0.00000
Nuclear contribution   :     -2.54173       1.88249       0.00000
                        -----------------------------------------
Total Dipole Moment    :     -0.73465       0.67387      -0.00000
                        -----------------------------------------
Magnitude (a.u.)       :      0.99690
Magnitude (Debye)      :      2.53392

Rotational constants in cm-1:     0.200362     0.078937     0.057848
Rotational constants in MHz :  6006.690427  2366.463917  1734.249383

                             ****ORCA TERMINATED NORMALLY****
TOTAL RUN TIME: 0 days 0 hours 19 minutes 34 seconds 0 msec
