                         Program Version 5.0.4 -  RELEASE  -
|  1> !ri-mp2 aug-cc-pvqz aug-cc-pvqz/c tightscf
|  2> %pal nprocs 16 end
|  3>
|  4> * xyz 0 1
|  5> C    -1.022816    0.186174   -0.000039
|  6> C    -0.513038   -1.102920   -0.000143
|  7> C    -0.116583    1.240174    0.000005
|  8> C     1.559349   -0.205422    0.000000
|  9> C    -1.388160   -2.314502    0.000022
| 10> N     0.818742   -1.284102   -0.000133
| 11> N     1.178216    1.060469    0.000038
| 12> F    -2.341445    0.427343    0.000001
| 13> F    -0.566309    2.486423    0.000014
| 14> F     2.872628   -0.397773    0.000055
| 15> H    -1.162280   -2.925605   -0.874234
| 16> H    -1.170278   -2.919635    0.880532
| 17> H    -2.442518   -2.054287   -0.005320
| 18> *
| 19>
| 20>                          ****END OF INPUT****

CARTESIAN COORDINATES (ANGSTROEM)
---------------------------------
  C     -1.022816    0.186174   -0.000039
  C     -0.513038   -1.102920   -0.000143
  C     -0.116583    1.240174    0.000005
  C      1.559349   -0.205422    0.000000
  C     -1.388160   -2.314502    0.000022
  N      0.818742   -1.284102   -0.000133
  N      1.178216    1.060469    0.000038
  F     -2.341445    0.427343    0.000001
  F     -0.566309    2.486423    0.000014
  F      2.872628   -0.397773    0.000055
  H     -1.162280   -2.925605   -0.874234
  H     -1.170278   -2.919635    0.880532
  H     -2.442518   -2.054287   -0.005320

 Total Charge           Charge          ....    0
 Multiplicity           Mult            ....    1
 Number of Electrons    NEL             ....   74
 Basis Dimension        Dim             ....  938

ORBITAL ENERGIES
----------------

  NO   OCC          E(Eh)            E(eV)
   0   2.0000     -26.356752      -717.2037
   1   2.0000     -26.342761      -716.8230
   2   2.0000     -26.338245      -716.7001
   3   2.0000     -15.608644      -424.7328
   4   2.0000     -15.599754      -424.4909
   5   2.0000     -11.431303      -311.0616
   6   2.0000     -11.423243      -310.8422
   7   2.0000     -11.356758      -309.0331
   8   2.0000     -11.346119      -308.7436
   9   2.0000     -11.258185      -306.3508
  10   2.0000      -1.685760       -45.8719
  11   2.0000      -1.668705       -45.4078
  12   2.0000      -1.660283       -45.1786
  13   2.0000      -1.362769       -37.0828
  14   2.0000      -1.253994       -34.1229
  15   2.0000      -1.115963       -30.3669
  16   2.0000      -1.033055       -28.1109
  17   2.0000      -0.943325       -25.6692
  18   2.0000      -0.910664       -24.7804
  19   2.0000      -0.835014       -22.7219
  20   2.0000      -0.813185       -22.1279
  21   2.0000      -0.785762       -21.3817
  22   2.0000      -0.759083       -20.6557
  23   2.0000      -0.750869       -20.4322
  24   2.0000      -0.731016       -19.8920
  25   2.0000      -0.722535       -19.6612
  26   2.0000      -0.700499       -19.0615
  27   2.0000      -0.679957       -18.5026
  28   2.0000      -0.647117       -17.6089
  29   2.0000      -0.624505       -16.9936
  30   2.0000      -0.602716       -16.4007
  31   2.0000      -0.583587       -15.8802
  32   2.0000      -0.573952       -15.6180
  33   2.0000      -0.552131       -15.0243
  34   2.0000      -0.461093       -12.5470
  35   2.0000      -0.456312       -12.4169
  36   2.0000      -0.393424       -10.7056
  37   0.0000       0.020511         0.5581
  38   0.0000       0.036269         0.9869
  39   0.0000       0.038538         1.0487
  40   0.0000       0.044450         1.2096
  41   0.0000       0.058849         1.6014

MULLIKEN ATOMIC CHARGES
-----------------------
   0 C :    0.630716
   1 C :    0.326999
   2 C :    1.117072
   3 C :    1.005905
   4 C :   -0.784280
   5 N :   -0.517397
   6 N :   -0.514422
   7 F :   -0.741269
   8 F :   -0.696031
   9 F :   -0.666512
  10 H :    0.277788
  11 H :    0.278640
  12 H :    0.282791
Sum of atomic charges:   -0.0000000

LOEWDIN ATOMIC CHARGES
----------------------
   0 C :   -0.744463
   1 C :   -0.399909
   2 C :   -1.027450
   3 C :   -1.248955
   4 C :    0.911899
   5 N :    0.545446
   6 N :    0.492622
   7 F :    0.788617
   8 F :    0.798624
   9 F :    0.767765
  10 H :   -0.284961
  11 H :   -0.284622
  12 H :   -0.314614

  Mayer bond orders larger than 0.100000
B(  0-C ,  1-C ) :   1.1539 B(  0-C ,  2-C ) :   1.5869 B(  0-C ,  3-C ) :   0.1044
B(  0-C ,  4-C ) :  -0.1228 B(  1-C ,  2-C ) :  -0.2463 B(  1-C ,  4-C ) :   0.7772
B(  1-C ,  5-N ) :   0.9546 B(  1-C ,  7-F ) :   0.1568 B(  2-C ,  6-N ) :   1.2166
B(  2-C ,  8-F ) :   0.4894 B(  3-C ,  5-N ) :   1.5741 B(  3-C ,  6-N ) :   1.3934
B(  3-C ,  9-F ) :   0.6248 B(  4-C , 10-H ) :   0.9620 B(  4-C , 11-H ) :   0.9601
B(  4-C , 12-H ) :   1.0030 B(  5-N ,  9-F ) :  -0.1238

MP2 TOTAL ENERGY:     -600.631387391 Eh
FINAL SINGLE POINT ENERGY      -600.631387390978

DIPOLE MOMENT
-------------
                                X             Y             Z
Electronic contribution:      3.51119       8.94500      -0.00061
Nuclear contribution   :     -4.43778      -9.74674       0.00085
                        -----------------------------------------
Total Dipole Moment    :     -0.92659      -0.80174       0.00024
                        -----------------------------------------
Magnitude (a.u.)       :      1.22530
Magnitude (Debye)      :      3.11446

Rotational constants in cm-1:     0.060027     0.044733     0.025753
Rotational constants in MHz :  1799.568692  1341.068703   772.069093

                             ****ORCA TERMINATED NORMALLY****
TOTAL RUN TIME: 0 days 0 hours 32 minutes 48 seconds 233 msec
