                         Program Version 5.0.4 -  RELEASE  -
|  1> !ri-mp2 aug-cc-pvqz aug-cc-pvqz/c tightscf
|  2> %pal nprocs 16 end
|  3>
|  4> * xyz 0 1
|  5> C     0.000000     0.000000    0.681952
|  6> C     0.000000     0.000000   -0.681952
|  7> C     0.000000     0.000000    1.889462
|  8> C     0.000000     0.000000   -1.889462
|  9> C     0.000000     0.000000    3.341026
| 10> C     0.000000     0.000000   -3.341026
| 11> H     0.000000     1.019522    3.732419
| 12> H    -0.882932    -0.509761    3.732419
| 13> H     0.882932    -0.509761    3.732419
| 14> H     0.000000     1.019522   -3.732419
| 15> H     0.882932    -0.509761   -3.732419
| 16> H    -0.882932    -0.509761   -3.732419
| 17> *
| 18>
| 19>                          ****END OF INPUT****

CARTESIAN COORDINATES (ANGSTROEM)
---------------------------------
  C      0.000000    0.000000    0.681952
  C      0.000000    0.000000   -0.681952
  C      0.000000    0.000000    1.889462
  C      0.000000    0.000000   -1.889462
  C      0.000000    0.000000    3.341026
  C      0.000000    0.000000   -3.341026
  H      0.000000    1.019522    3.732419
  H     -0.882932   -0.509761    3.732419
  H      0.882932   -0.509761    3.732419
  H      0.000000    1.019522   -3.732419
  H      0.882932   -0.509761   -3.732419
  H     -0.882932   -0.509761   -3.732419

 Total Charge           Charge          ....    0
 Multiplicity           Mult            ....    1
 Number of Electrons    NEL             ....   42
 Basis Dimension        Dim             ....  756

ORBITAL ENERGIES
----------------

  NO   OCC          E(Eh)            E(eV)
   0   2.0000     -11.251449      -306.1675
   1   2.0000     -11.251449      -306.1675
   2   2.0000     -11.241553      -305.8982
   3   2.0000     -11.241477      -305.8961
   4   2.0000     -11.235009      -305.7201
   5   2.0000     -11.233821      -305.6878
   6   2.0000      -1.087454       -29.5911
   7   2.0000      -1.054955       -28.7068
   8   2.0000      -0.995091       -27.0778
   9   2.0000      -0.941958       -25.6320
  10   2.0000      -0.796165       -21.6648
  11   2.0000      -0.641583       -17.4583
  12   2.0000      -0.629325       -17.1248
  13   2.0000      -0.596562       -16.2333
  14   2.0000      -0.596562       -16.2333
  15   2.0000      -0.592962       -16.1353
  16   2.0000      -0.592962       -16.1353
  17   2.0000      -0.458696       -12.4817
  18   2.0000      -0.458696       -12.4817
  19   2.0000      -0.334556        -9.1037
  20   2.0000      -0.334556        -9.1037
  21   0.0000       0.024413         0.6643
  22   0.0000       0.024759         0.6737
  23   0.0000       0.041414         1.1269
  24   0.0000       0.041414         1.1269
  25   0.0000       0.048341         1.3154

MULLIKEN ATOMIC CHARGES
-----------------------
   0 C :   -0.278966
   1 C :   -0.278994
   2 C :    0.335357
   3 C :    0.335362
   4 C :   -0.709251
   5 C :   -0.709240
   6 H :    0.217625
   7 H :    0.217621
   8 H :    0.217621
   9 H :    0.217624
  10 H :    0.217620
  11 H :    0.217620
Sum of atomic charges:    0.0000000

LOEWDIN ATOMIC CHARGES
----------------------
   0 C :   -0.012016
   1 C :   -0.012016
   2 C :    0.128607
   3 C :    0.128607
   4 C :    0.834681
   5 C :    0.834681
   6 H :   -0.317090
   7 H :   -0.317090
   8 H :   -0.317090
   9 H :   -0.317090
  10 H :   -0.317090
  11 H :   -0.317090

  Mayer bond orders larger than 0.100000
B(  0-C ,  1-C ) :   0.1027 B(  0-C ,  2-C ) :   3.1052 B(  0-C ,  3-C ) :  -0.2586
B(  1-C ,  2-C ) :  -0.2586 B(  1-C ,  3-C ) :   3.1052 B(  2-C ,  3-C ) :   0.2382
B(  2-C ,  4-C ) :   0.7392 B(  2-C ,  6-H ) :  -0.1124 B(  2-C ,  7-H ) :  -0.1124
B(  2-C ,  8-H ) :  -0.1124 B(  3-C ,  5-C ) :   0.7392 B(  3-C ,  9-H ) :  -0.1124
B(  3-C , 10-H ) :  -0.1124 B(  3-C , 11-H ) :  -0.1124 B(  4-C ,  6-H ) :   1.0300
B(  4-C ,  7-H ) :   1.0300 B(  4-C ,  8-H ) :   1.0300 B(  5-C ,  9-H ) :   1.0300
B(  5-C , 10-H ) :   1.0300 B(  5-C , 11-H ) :   1.0300

MP2 TOTAL ENERGY:     -231.695286196 Eh
FINAL SINGLE POINT ENERGY      -231.695286195757

DIPOLE MOMENT
-------------
                                X             Y             Z
Electronic contribution:     -0.00000       0.00000      -0.00000
Nuclear contribution   :      0.00000       0.00000       0.00000
                        -----------------------------------------
Total Dipole Moment    :     -0.00000       0.00000      -0.00000
                        -----------------------------------------
Magnitude (a.u.)       :      0.00000
Magnitude (Debye)      :      0.00000

Rotational constants in cm-1:     2.681587     0.037257     0.037257
Rotational constants in MHz : 80391.955760  1116.925198  1116.925197

                             ****ORCA TERMINATED NORMALLY****
TOTAL RUN TIME: 0 days 0 hours 12 minutes 11 seconds 753 msec
