                         Program Version 5.0.4 -  RELEASE  -
|  1> !ri-mp2 aug-cc-pvqz aug-cc-pvqz/c tightscf
|  2> %pal nprocs 16 end
|  3>
|  4> * xyz 0 1
|  5> C      2.394338   -0.198378    0.010397
|  6> C     -1.213963    0.512011   -0.011820
|  7> C      0.040704   -0.342423    0.060690
|  8> N     -2.400419   -0.343513    0.068122
|  9> O      1.170345    0.499841   -0.068361
| 10> H      3.193257    0.531998   -0.100922
| 11> H      2.481000   -0.946782   -0.786913
| 12> H      2.505379   -0.705551    0.976378
| 13> H     -1.223477    1.192544    0.840371
| 14> H     -1.165713    1.129196   -0.917074
| 15> H      0.034198   -1.091761   -0.745001
| 16> H      0.066402   -0.885403    1.013302
| 17> H     -2.543778   -0.851532   -0.796036
| 18> H     -3.233572    0.205897    0.230329
| 19> *
| 20>
| 21>                          ****END OF INPUT****

CARTESIAN COORDINATES (ANGSTROEM)
---------------------------------
  C      2.394338   -0.198378    0.010397
  C     -1.213963    0.512011   -0.011820
  C      0.040704   -0.342423    0.060690
  N     -2.400419   -0.343513    0.068122
  O      1.170345    0.499841   -0.068361
  H      3.193257    0.531998   -0.100922
  H      2.481000   -0.946782   -0.786913
  H      2.505379   -0.705551    0.976378
  H     -1.223477    1.192544    0.840371
  H     -1.165713    1.129196   -0.917074
  H      0.034198   -1.091761   -0.745001
  H      0.066402   -0.885403    1.013302
  H     -2.543778   -0.851532   -0.796036
  H     -3.233572    0.205897    0.230329

 Total Charge           Charge          ....    0
 Multiplicity           Mult            ....    1
 Number of Electrons    NEL             ....   42
 Basis Dimension        Dim             ....  814

ORBITAL ENERGIES
----------------

  NO   OCC          E(Eh)            E(eV)
   0   2.0000     -20.551013      -559.2215
   1   2.0000     -15.540644      -422.8824
   2   2.0000     -11.267650      -306.6084
   3   2.0000     -11.267293      -306.5986
   4   2.0000     -11.245297      -306.0001
   5   2.0000      -1.370716       -37.2991
   6   2.0000      -1.178372       -32.0651
   7   2.0000      -0.995030       -27.0762
   8   2.0000      -0.899414       -24.4743
   9   2.0000      -0.821479       -22.3536
  10   2.0000      -0.682748       -18.5785
  11   2.0000      -0.662582       -18.0298
  12   2.0000      -0.646198       -17.5839
  13   2.0000      -0.618473       -16.8295
  14   2.0000      -0.590542       -16.0695
  15   2.0000      -0.563542       -15.3348
  16   2.0000      -0.514994       -14.0137
  17   2.0000      -0.498446       -13.5634
  18   2.0000      -0.474615       -12.9149
  19   2.0000      -0.421445       -11.4681
  20   2.0000      -0.393615       -10.7108
  21   0.0000       0.025844         0.7032
  22   0.0000       0.031142         0.8474
  23   0.0000       0.036207         0.9853
  24   0.0000       0.039499         1.0748
  25   0.0000       0.050038         1.3616

MULLIKEN ATOMIC CHARGES
-----------------------
   0 C :   -0.647737
   1 C :   -0.278019
   2 C :    0.102122
   3 N :   -0.747636
   4 O :   -0.811423
   5 H :    0.392453
   6 H :    0.252148
   7 H :    0.259131
   8 H :    0.278369
   9 H :    0.253189
  10 H :    0.238296
  11 H :    0.242813
  12 H :    0.272500
  13 H :    0.193795
Sum of atomic charges:   -0.0000000

LOEWDIN ATOMIC CHARGES
----------------------
   0 C :    0.559492
   1 C :    0.331222
   2 C :    0.116888
   3 N :    1.273328
   4 O :    0.871068
   5 H :   -0.329150
   6 H :   -0.311053
   7 H :   -0.310819
   8 H :   -0.297695
   9 H :   -0.280948
  10 H :   -0.297527
  11 H :   -0.298799
  12 H :   -0.513472
  13 H :   -0.512537

  Mayer bond orders larger than 0.100000
B(  0-C ,  4-O ) :   0.9188 B(  0-C ,  5-H ) :   0.8733 B(  0-C ,  6-H ) :   0.9248
B(  0-C ,  7-H ) :   0.9169 B(  1-C ,  2-C ) :   1.0826 B(  1-C ,  3-N ) :   0.9677
B(  1-C ,  8-H ) :   0.8717 B(  1-C ,  9-H ) :   0.8811 B(  2-C ,  4-O ) :   0.7532
B(  2-C , 10-H ) :   0.8726 B(  2-C , 11-H ) :   0.8669 B(  3-N , 12-H ) :   0.8769
B(  3-N , 13-H ) :   0.9820

MP2 TOTAL ENERGY:     -249.297378501 Eh
FINAL SINGLE POINT ENERGY      -249.297378500786

DIPOLE MOMENT
-------------
                                X             Y             Z
Electronic contribution:     -0.20563       1.30194      -0.00501
Nuclear contribution   :      0.12398      -1.48654      -0.30060
                        -----------------------------------------
Total Dipole Moment    :     -0.08165      -0.18460      -0.30562
                        -----------------------------------------
Magnitude (a.u.)       :      0.36626
Magnitude (Debye)      :      0.93096

Rotational constants in cm-1:     0.721038     0.070943     0.067478
Rotational constants in MHz : 21616.178111  2126.819788  2022.945870

                             ****ORCA TERMINATED NORMALLY****
TOTAL RUN TIME: 0 days 0 hours 12 minutes 28 seconds 298 msec
