                         Program Version 5.0.4 -  RELEASE  -
|  1> !ri-mp2 aug-cc-pvqz aug-cc-pvqz/c tightscf
|  2> %pal nprocs 16 end
|  3>
|  4> * xyz 0 1
|  5> Cl    -2.599175   -0.886996   -0.000001
|  6> Cl     2.613285   -0.893714    0.000000
|  7> N      0.001967   -0.687993    0.000000
|  8> N     -1.233601    1.339871    0.000000
|  9> C     -1.116676    0.025543    0.000000
| 10> C      1.121365    0.005739    0.000000
| 11> C      1.154461    1.395274    0.000000
| 12> C     -0.082104    2.017431    0.000000
| 13> H      2.080180    1.947300    0.000000
| 14> H     -0.160883    3.097694    0.000002
| 15> *
| 16>
| 17>                          ****END OF INPUT****

CARTESIAN COORDINATES (ANGSTROEM)
---------------------------------
  Cl    -2.599175   -0.886996   -0.000001
  Cl     2.613285   -0.893714    0.000000
  N      0.001967   -0.687993    0.000000
  N     -1.233601    1.339871    0.000000
  C     -1.116676    0.025543    0.000000
  C      1.121365    0.005739    0.000000
  C      1.154461    1.395274    0.000000
  C     -0.082104    2.017431    0.000000
  H      2.080180    1.947300    0.000000
  H     -0.160883    3.097694    0.000002

 Total Charge           Charge          ....    0
 Multiplicity           Mult            ....    1
 Number of Electrons    NEL             ....   74
 Basis Dimension        Dim             ....  740

ORBITAL ENERGIES
----------------

  NO   OCC          E(Eh)            E(eV)
   0   2.0000    -104.867535     -2853.5907
   1   2.0000    -104.854681     -2853.2409
   2   2.0000     -15.604428      -424.6181
   3   2.0000     -15.599085      -424.4727
   4   2.0000     -11.399170      -310.1872
   5   2.0000     -11.384775      -309.7955
   6   2.0000     -11.328055      -308.2521
   7   2.0000     -11.274914      -306.8060
   8   2.0000     -10.592896      -288.2474
   9   2.0000     -10.580142      -287.9003
  10   2.0000      -8.059966      -219.3228
  11   2.0000      -8.058137      -219.2731
  12   2.0000      -8.058086      -219.2717
  13   2.0000      -8.047221      -218.9760
  14   2.0000      -8.045378      -218.9259
  15   2.0000      -8.045312      -218.9241
  16   2.0000      -1.366822       -37.1931
  17   2.0000      -1.248801       -33.9816
  18   2.0000      -1.178024       -32.0557
  19   2.0000      -1.131347       -30.7855
  20   2.0000      -1.066474       -29.0202
  21   2.0000      -0.916012       -24.9259
  22   2.0000      -0.889298       -24.1990
  23   2.0000      -0.753714       -20.5096
  24   2.0000      -0.727743       -19.8029
  25   2.0000      -0.664575       -18.0840
  26   2.0000      -0.638104       -17.3637
  27   2.0000      -0.618511       -16.8305
  28   2.0000      -0.597659       -16.2631
  29   2.0000      -0.533875       -14.5275
  30   2.0000      -0.509612       -13.8672
  31   2.0000      -0.486803       -13.2466
  32   2.0000      -0.485608       -13.2141
  33   2.0000      -0.475473       -12.9383
  34   2.0000      -0.446393       -12.1470
  35   2.0000      -0.439380       -11.9561
  36   2.0000      -0.386350       -10.5131
  37   0.0000       0.019642         0.5345
  38   0.0000       0.032900         0.8953
  39   0.0000       0.049216         1.3392
  40   0.0000       0.051736         1.4078
  41   0.0000       0.060657         1.6506

MULLIKEN ATOMIC CHARGES
-----------------------
   0 Cl:   -0.167061
   1 Cl:   -0.189678
   2 N :   -0.207924
   3 N :   -0.369265
   4 C :    0.252096
   5 C :    0.138960
   6 C :   -0.203495
   7 C :   -0.203265
   8 H :    0.474204
   9 H :    0.475429
Sum of atomic charges:    0.0000000

LOEWDIN ATOMIC CHARGES
----------------------
   0 Cl:    1.134995
   1 Cl:    1.182301
   2 N :    0.309867
   3 N :    0.448038
   4 C :   -1.440433
   5 C :   -1.169365
   6 C :    0.186058
   7 C :    0.046849
   8 H :   -0.362604
   9 H :   -0.335706

  Mayer bond orders larger than 0.100000
B(  0-Cl,  2-N ) :  -0.1164 B(  0-Cl,  3-N ) :  -0.1187 B(  0-Cl,  4-C ) :   1.0399
B(  1-Cl,  2-N ) :  -0.1085 B(  1-Cl,  5-C ) :   0.9310 B(  1-Cl,  6-C ) :  -0.1360
B(  2-N ,  4-C ) :   1.1521 B(  2-N ,  5-C ) :   1.1737 B(  3-N ,  4-C ) :   1.2506
B(  3-N ,  5-C ) :   0.1018 B(  3-N ,  7-C ) :   1.2339 B(  5-C ,  6-C ) :   1.0634
B(  6-C ,  7-C ) :   1.1960 B(  6-C ,  8-H ) :   0.7877 B(  7-C ,  9-H ) :   0.8687

MP2 TOTAL ENERGY:    -1182.173316361 Eh
FINAL SINGLE POINT ENERGY     -1182.173316360594

DIPOLE MOMENT
-------------
                                X             Y             Z
Electronic contribution:     -0.96761      -6.01856      -0.00000
Nuclear contribution   :      1.76486       7.08638       0.00000
                        -----------------------------------------
Total Dipole Moment    :      0.79725       1.06782       0.00000
                        -----------------------------------------
Magnitude (a.u.)       :      1.33261
Magnitude (Debye)      :      3.38722

Rotational constants in cm-1:     0.097252     0.030456     0.023193
Rotational constants in MHz :  2915.545460   913.040938   695.299018

                             ****ORCA TERMINATED NORMALLY****
TOTAL RUN TIME: 0 days 0 hours 19 minutes 7 seconds 779 msec
