                         Program Version 5.0.4 -  RELEASE  -
|  1> !ri-mp2 aug-cc-pvqz aug-cc-pvqz/c tightscf
|  2> %pal nprocs 16 end
|  3>
|  4> * xyz 0 1
|  5> S     -0.785680    1.458954   -0.000008
|  6> N     -3.431367   -1.222926    0.000007
|  7> N      3.697033   -0.916364    0.000004
|  8> C     -1.052269   -0.263674    0.000002
|  9> C      1.258799   -0.088174    0.000000
| 10> C      0.130306   -0.953110    0.000005
| 11> C      0.907286    1.241520   -0.000007
| 12> C     -2.359652   -0.797434    0.000005
| 13> C      2.606930   -0.544009    0.000002
| 14> H      0.193528   -2.029602    0.000011
| 15> H      1.569280    2.090663   -0.000012
| 16> *
| 17>
| 18>                          ****END OF INPUT****

CARTESIAN COORDINATES (ANGSTROEM)
---------------------------------
  S     -0.785680    1.458954   -0.000008
  N     -3.431367   -1.222926    0.000007
  N      3.697033   -0.916364    0.000004
  C     -1.052269   -0.263674    0.000002
  C      1.258799   -0.088174    0.000000
  C      0.130306   -0.953110    0.000005
  C      0.907286    1.241520   -0.000007
  C     -2.359652   -0.797434    0.000005
  C      2.606930   -0.544009    0.000002
  H      0.193528   -2.029602    0.000011
  H      1.569280    2.090663   -0.000012

 Total Charge           Charge          ....    0
 Multiplicity           Mult            ....    1
 Number of Electrons    NEL             ....   68
 Basis Dimension        Dim             ....  816

ORBITAL ENERGIES
----------------

  NO   OCC          E(Eh)            E(eV)
   0   2.0000     -92.047576     -2504.7419
   1   2.0000     -15.597789      -424.4374
   2   2.0000     -15.594132      -424.3379
   3   2.0000     -11.338652      -308.5404
   4   2.0000     -11.336157      -308.4725
   5   2.0000     -11.320027      -308.0336
   6   2.0000     -11.311216      -307.7938
   7   2.0000     -11.302708      -307.5623
   8   2.0000     -11.298312      -307.4427
   9   2.0000      -9.048382      -246.2190
  10   2.0000      -6.729469      -183.1182
  11   2.0000      -6.728929      -183.1035
  12   2.0000      -6.728280      -183.0858
  13   2.0000      -1.262634       -34.3580
  14   2.0000      -1.246707       -33.9246
  15   2.0000      -1.225994       -33.3610
  16   2.0000      -1.081893       -29.4398
  17   2.0000      -1.060185       -28.8491
  18   2.0000      -0.901382       -24.5279
  19   2.0000      -0.864130       -23.5142
  20   2.0000      -0.784978       -21.3603
  21   2.0000      -0.704757       -19.1774
  22   2.0000      -0.636622       -17.3234
  23   2.0000      -0.628180       -17.0936
  24   2.0000      -0.610864       -16.6225
  25   2.0000      -0.582689       -15.8558
  26   2.0000      -0.582103       -15.8398
  27   2.0000      -0.545705       -14.8494
  28   2.0000      -0.537575       -14.6282
  29   2.0000      -0.497393       -13.5348
  30   2.0000      -0.494985       -13.4692
  31   2.0000      -0.485018       -13.1980
  32   2.0000      -0.401200       -10.9172
  33   2.0000      -0.375366       -10.2142
  34   0.0000       0.016841         0.4583
  35   0.0000       0.026499         0.7211
  36   0.0000       0.027883         0.7587
  37   0.0000       0.041025         1.1163
  38   0.0000       0.050271         1.3679

MULLIKEN ATOMIC CHARGES
-----------------------
   0 S :    0.359641
   1 N :   -0.709911
   2 N :   -0.735471
   3 C :   -0.267281
   4 C :    0.087591
   5 C :   -0.103437
   6 C :   -0.747133
   7 C :    0.669577
   8 C :    0.619667
   9 H :    0.394051
  10 H :    0.432705
Sum of atomic charges:    0.0000000

LOEWDIN ATOMIC CHARGES
----------------------
   0 S :    1.410884
   1 N :    0.403233
   2 N :    0.414246
   3 C :   -0.601532
   4 C :   -0.337612
   5 C :    0.184258
   6 C :   -0.071625
   7 C :   -0.408939
   8 C :   -0.315484
   9 H :   -0.298648
  10 H :   -0.378779

  Mayer bond orders larger than 0.100000
B(  0-S ,  3-C ) :   0.8891 B(  0-S ,  4-C ) :  -0.2029 B(  0-S ,  6-C ) :   1.4154
B(  1-N ,  7-C ) :   2.3498 B(  2-N ,  8-C ) :   2.3846 B(  3-C ,  4-C ) :  -0.4216
B(  3-C ,  5-C ) :   1.2597 B(  3-C ,  6-C ) :  -0.1354 B(  3-C ,  7-C ) :   1.3918
B(  4-C ,  5-C ) :   0.9907 B(  4-C ,  6-C ) :   1.1522 B(  4-C ,  8-C ) :   1.4246
B(  5-C ,  7-C ) :  -0.1820 B(  5-C ,  8-C ) :  -0.3208 B(  5-C ,  9-H ) :   0.8371
B(  6-C ,  8-C ) :  -0.1787 B(  6-C , 10-H ) :   0.8341

MP2 TOTAL ENERGY:     -736.488517876 Eh
FINAL SINGLE POINT ENERGY      -736.488517875763

DIPOLE MOMENT
-------------
                                X             Y             Z
Electronic contribution:     -1.56305       1.15627      -0.00001
Nuclear contribution   :      1.70266       0.00332      -0.00000
                        -----------------------------------------
Total Dipole Moment    :      0.13960       1.15959      -0.00001
                        -----------------------------------------
Magnitude (a.u.)       :      1.16796
Magnitude (Debye)      :      2.96873

Rotational constants in cm-1:     0.111615     0.029595     0.023393
Rotational constants in MHz :  3346.120049   887.245190   701.292884

                             ****ORCA TERMINATED NORMALLY****
TOTAL RUN TIME: 0 days 0 hours 22 minutes 12 seconds 472 msec
