                         Program Version 5.0.4 -  RELEASE  -
|  1> !ri-mp2 aug-cc-pvqz aug-cc-pvqz/c tightscf
|  2> %pal nprocs 16 end
|  3>
|  4> * xyz 0 1
|  5> C     1.021460    0.038369    0.000000
|  6> C     0.640074   -1.308976    0.000000
|  7> C     0.000000    0.987794    0.000000
|  8> C    -1.528760   -0.650022    0.000000
|  9> C     1.636021   -2.424461    0.000000
| 10> N    -0.656618   -1.639019    0.000000
| 11> N    -1.273552    0.646231    0.000000
| 12> Cl    2.695285    0.484019    0.000000
| 13> Cl    0.352375    2.685355    0.000000
| 14> Cl   -3.211246   -1.098954    0.000000
| 15> H     2.284076   -2.364524    0.875642
| 16> H     1.111227   -3.374788    0.000000
| 17> H     2.284076   -2.364524   -0.875642
| 18> *
| 19>
| 20>                          ****END OF INPUT****

CARTESIAN COORDINATES (ANGSTROEM)
---------------------------------
  C      1.021460    0.038369    0.000000
  C      0.640074   -1.308976    0.000000
  C      0.000000    0.987794    0.000000
  C     -1.528760   -0.650022    0.000000
  C      1.636021   -2.424461    0.000000
  N     -0.656618   -1.639019    0.000000
  N     -1.273552    0.646231    0.000000
  Cl     2.695285    0.484019    0.000000
  Cl     0.352375    2.685355    0.000000
  Cl    -3.211246   -1.098954    0.000000
  H      2.284076   -2.364524    0.875642
  H      1.111227   -3.374788    0.000000
  H      2.284076   -2.364524   -0.875642

 Total Charge           Charge          ....    0
 Multiplicity           Mult            ....    1
 Number of Electrons    NEL             ....   98
 Basis Dimension        Dim             ....  950

ORBITAL ENERGIES
----------------

  NO   OCC          E(Eh)            E(eV)
   0   2.0000    -104.869824     -2853.6530
   1   2.0000    -104.869258     -2853.6376
   2   2.0000    -104.857103     -2853.3068
   3   2.0000     -15.605766      -424.6545
   4   2.0000     -15.600357      -424.5073
   5   2.0000     -11.401098      -310.2396
   6   2.0000     -11.391258      -309.9719
   7   2.0000     -11.344160      -308.6903
   8   2.0000     -11.331897      -308.3566
   9   2.0000     -11.253297      -306.2178
  10   2.0000     -10.595189      -288.3098
  11   2.0000     -10.594415      -288.2887
  12   2.0000     -10.582520      -287.9650
  13   2.0000      -8.062266      -219.3854
  14   2.0000      -8.061574      -219.3666
  15   2.0000      -8.060389      -219.3343
  16   2.0000      -8.060320      -219.3325
  17   2.0000      -8.059724      -219.3163
  18   2.0000      -8.059649      -219.3142
  19   2.0000      -8.049601      -219.0408
  20   2.0000      -8.047751      -218.9904
  21   2.0000      -8.047687      -218.9887
  22   2.0000      -1.372457       -37.3465
  23   2.0000      -1.256037       -34.1785
  24   2.0000      -1.211283       -32.9607
  25   2.0000      -1.149666       -31.2840
  26   2.0000      -1.134889       -30.8819
  27   2.0000      -1.055355       -28.7177
  28   2.0000      -1.003804       -27.3149
  29   2.0000      -0.886324       -24.1181
  30   2.0000      -0.870743       -23.6941
  31   2.0000      -0.776048       -21.1173
  32   2.0000      -0.698095       -18.9961
  33   2.0000      -0.657443       -17.8899
  34   2.0000      -0.635679       -17.2977
  35   2.0000      -0.615635       -16.7523
  36   2.0000      -0.597690       -16.2640
  37   2.0000      -0.595979       -16.2174
  38   2.0000      -0.574018       -15.6198
  39   2.0000      -0.549685       -14.9577
  40   2.0000      -0.513322       -13.9682
  41   2.0000      -0.512157       -13.9365
  42   2.0000      -0.506891       -13.7932
  43   2.0000      -0.483762       -13.1638
  44   2.0000      -0.477431       -12.9916
  45   2.0000      -0.473283       -12.8787
  46   2.0000      -0.439811       -11.9679
  47   2.0000      -0.436795       -11.8858
  48   2.0000      -0.372058       -10.1242
  49   0.0000       0.022116         0.6018
  50   0.0000       0.037650         1.0245
  51   0.0000       0.039621         1.0781
  52   0.0000       0.045794         1.2461
  53   0.0000       0.056981         1.5505

MULLIKEN ATOMIC CHARGES
-----------------------
   0 C :    0.117599
   1 C :    0.544412
   2 C :    0.366597
   3 C :    0.153327
   4 C :   -0.812091
   5 N :   -0.303586
   6 N :   -0.226547
   7 Cl:   -0.300185
   8 Cl:   -0.195534
   9 Cl:   -0.201473
  10 H :    0.268428
  11 H :    0.320626
  12 H :    0.268428
Sum of atomic charges:   -0.0000000

LOEWDIN ATOMIC CHARGES
----------------------
   0 C :   -1.002594
   1 C :   -0.501363
   2 C :   -1.294061
   3 C :   -1.426482
   4 C :    0.852297
   5 N :    0.459257
   6 N :    0.299266
   7 Cl:    1.215322
   8 Cl:    1.173537
   9 Cl:    1.141574
  10 H :   -0.301600
  11 H :   -0.313553
  12 H :   -0.301600

  Mayer bond orders larger than 0.100000
B(  0-C ,  1-C ) :   0.9834 B(  0-C ,  2-C ) :   0.8343 B(  0-C ,  3-C ) :   0.1568
B(  0-C ,  6-N ) :   0.1100 B(  0-C ,  7-Cl) :   0.6644 B(  0-C ,  8-Cl) :  -0.1621
B(  1-C ,  4-C ) :   0.7266 B(  1-C ,  5-N ) :   1.0245 B(  1-C , 11-H ) :  -0.1001
B(  2-C ,  6-N ) :   0.9669 B(  2-C ,  8-Cl) :   0.9510 B(  3-C ,  5-N ) :   1.0450
B(  3-C ,  6-N ) :   1.1109 B(  3-C ,  9-Cl) :   1.1127 B(  4-C , 10-H ) :   0.9740
B(  4-C , 11-H ) :   0.9505 B(  4-C , 12-H ) :   0.9740 B(  5-N ,  9-Cl) :  -0.1924
B(  6-N ,  8-Cl) :  -0.1419 B(  6-N ,  9-Cl) :  -0.1941

MP2 TOTAL ENERGY:    -1680.558245417 Eh
FINAL SINGLE POINT ENERGY     -1680.558245416973

DIPOLE MOMENT
-------------
                                X             Y             Z
Electronic contribution:     -4.51817       9.81452       0.00000
Nuclear contribution   :      5.50152     -10.32029       0.00000
                        -----------------------------------------
Total Dipole Moment    :      0.98335      -0.50577       0.00000
                        -----------------------------------------
Magnitude (a.u.)       :      1.10579
Magnitude (Debye)      :      2.81071

Rotational constants in cm-1:     0.040601     0.020714     0.013751
Rotational constants in MHz :  1217.178556   620.982448   412.234056

                             ****ORCA TERMINATED NORMALLY****
TOTAL RUN TIME: 0 days 0 hours 40 minutes 27 seconds 57 msec
