                         Program Version 5.0.4 -  RELEASE  -
|  1> !ri-mp2 aug-cc-pvqz aug-cc-pvqz/c tightscf
|  2> %pal nprocs 16 end
|  3>
|  4> * xyz 0 1
|  5> N      0.359121   -1.270880    0.172755
|  6> C      1.043903   -0.042270    0.020425
|  7> C      0.260787    1.248686    0.217829
|  8> C     -1.197071    1.126889   -0.072399
|  9> C     -1.753015   -0.083323   -0.174172
| 10> C     -0.920479   -1.259790    0.050067
| 11> O      2.221256   -0.028129   -0.243650
| 12> H      0.736325    2.029916   -0.376191
| 13> H     -1.785070    2.030930   -0.170963
| 14> H     -2.808335   -0.220042   -0.363668
| 15> H     -1.424810   -2.220985    0.136930
| 16> H      0.393242    1.560219    1.263311
| 17> *
| 18>
| 19>                          ****END OF INPUT****

CARTESIAN COORDINATES (ANGSTROEM)
---------------------------------
  N      0.359121   -1.270880    0.172755
  C      1.043903   -0.042270    0.020425
  C      0.260787    1.248686    0.217829
  C     -1.197071    1.126889   -0.072399
  C     -1.753015   -0.083323   -0.174172
  C     -0.920479   -1.259790    0.050067
  O      2.221256   -0.028129   -0.243650
  H      0.736325    2.029916   -0.376191
  H     -1.785070    2.030930   -0.170963
  H     -2.808335   -0.220042   -0.363668
  H     -1.424810   -2.220985    0.136930
  H      0.393242    1.560219    1.263311

 Total Charge           Charge          ....    0
 Multiplicity           Mult            ....    1
 Number of Electrons    NEL             ....   50
 Basis Dimension        Dim             ....  790

ORBITAL ENERGIES
----------------

  NO   OCC          E(Eh)            E(eV)
   0   2.0000     -20.539058      -558.8962
   1   2.0000     -15.570252      -423.6881
   2   2.0000     -11.354824      -308.9805
   3   2.0000     -11.318924      -308.0036
   4   2.0000     -11.285609      -307.0970
   5   2.0000     -11.262519      -306.4687
   6   2.0000     -11.259629      -306.3901
   7   2.0000      -1.395877       -37.9838
   8   2.0000      -1.255447       -34.1624
   9   2.0000      -1.114561       -30.3287
  10   2.0000      -1.022523       -27.8243
  11   2.0000      -0.892519       -24.2867
  12   2.0000      -0.838017       -22.8036
  13   2.0000      -0.718468       -19.5505
  14   2.0000      -0.691039       -18.8041
  15   2.0000      -0.681872       -18.5547
  16   2.0000      -0.637838       -17.3565
  17   2.0000      -0.612446       -16.6655
  18   2.0000      -0.599020       -16.3002
  19   2.0000      -0.554916       -15.1000
  20   2.0000      -0.533581       -14.5195
  21   2.0000      -0.483042       -13.1442
  22   2.0000      -0.466934       -12.7059
  23   2.0000      -0.405505       -11.0343
  24   2.0000      -0.375377       -10.2145
  25   0.0000       0.016243         0.4420
  26   0.0000       0.025060         0.6819
  27   0.0000       0.032682         0.8893
  28   0.0000       0.038517         1.0481
  29   0.0000       0.042737         1.1629

MULLIKEN ATOMIC CHARGES
-----------------------
   0 N :   -0.573083
   1 C :    0.970992
   2 C :   -0.401887
   3 C :   -0.247912
   4 C :   -0.480987
   5 C :   -0.171617
   6 O :   -0.790149
   7 H :    0.176193
   8 H :    0.375669
   9 H :    0.373386
  10 H :    0.465014
  11 H :    0.304380
Sum of atomic charges:   -0.0000000

LOEWDIN ATOMIC CHARGES
----------------------
   0 N :    0.564245
   1 C :   -0.939464
   2 C :    0.434793
   3 C :    0.382154
   4 C :    0.368821
   5 C :    0.068108
   6 O :    0.682386
   7 H :   -0.307029
   8 H :   -0.294011
   9 H :   -0.336306
  10 H :   -0.346057
  11 H :   -0.277640

  Mayer bond orders larger than 0.100000
B(  0-N ,  1-C ) :   1.0211 B(  0-N ,  5-C ) :   1.5931 B(  1-C ,  2-C ) :   1.0537
B(  1-C ,  6-O ) :   1.2819 B(  2-C ,  3-C ) :   0.8769 B(  2-C ,  6-O ) :   0.1292
B(  2-C ,  7-H ) :   0.9920 B(  2-C , 11-H ) :   0.8196 B(  3-C ,  4-C ) :   1.5782
B(  3-C ,  8-H ) :   0.8915 B(  4-C ,  5-C ) :   0.9666 B(  4-C ,  9-H ) :   0.9030
B(  5-C , 10-H ) :   0.8605

MP2 TOTAL ENERGY:     -322.965207300 Eh
FINAL SINGLE POINT ENERGY      -322.965207299539

DIPOLE MOMENT
-------------
                                X             Y             Z
Electronic contribution:      2.63969      -2.22345      -0.29050
Nuclear contribution   :     -4.79044       3.13220       0.48047
                        -----------------------------------------
Total Dipole Moment    :     -2.15075       0.90875       0.18996
                        -----------------------------------------
Magnitude (a.u.)       :      2.34257
Magnitude (Debye)      :      5.95434

Rotational constants in cm-1:     0.176092     0.095244     0.063832
Rotational constants in MHz :  5279.110989  2855.335708  1913.622700

                             ****ORCA TERMINATED NORMALLY****
TOTAL RUN TIME: 0 days 0 hours 20 minutes 7 seconds 513 msec
