                         Program Version 5.0.4 -  RELEASE  -
|  1> !ri-mp2 aug-cc-pvqz aug-cc-pvqz/c tightscf
|  2> %pal nprocs 16 end
|  3>
|  4> * xyz 0 1
|  5> C     -0.657272   -0.503422    0.000000
|  6> C      0.000000    0.795889    0.000000
|  7> C      0.514208    1.878089    0.000000
|  8> O      0.326252   -1.539360    0.000000
|  9> H     -1.299934   -0.577228    0.884602
| 10> H     -1.299934   -0.577228   -0.884602
| 11> H      0.977878    2.832712    0.000000
| 12> H     -0.129644   -2.386711    0.000000
| 13> *
| 14>
| 15>                          ****END OF INPUT****

CARTESIAN COORDINATES (ANGSTROEM)
---------------------------------
  C     -0.657272   -0.503422    0.000000
  C      0.000000    0.795889    0.000000
  C      0.514208    1.878089    0.000000
  O      0.326252   -1.539360    0.000000
  H     -1.299934   -0.577228    0.884602
  H     -1.299934   -0.577228   -0.884602
  H      0.977878    2.832712    0.000000
  H     -0.129644   -2.386711    0.000000

 Total Charge           Charge          ....    0
 Multiplicity           Mult            ....    1
 Number of Electrons    NEL             ....   30
 Basis Dimension        Dim             ....  504

ORBITAL ENERGIES
----------------

  NO   OCC          E(Eh)            E(eV)
   0   2.0000     -20.571322      -559.7741
   1   2.0000     -11.312573      -307.8308
   2   2.0000     -11.235245      -305.7266
   3   2.0000     -11.227156      -305.5064
   4   2.0000      -1.373196       -37.3666
   5   2.0000      -1.053900       -28.6781
   6   2.0000      -0.948775       -25.8175
   7   2.0000      -0.731026       -19.8922
   8   2.0000      -0.710981       -19.3468
   9   2.0000      -0.653798       -17.7907
  10   2.0000      -0.643196       -17.5022
  11   2.0000      -0.539850       -14.6901
  12   2.0000      -0.478680       -13.0256
  13   2.0000      -0.401591       -10.9278
  14   2.0000      -0.390300       -10.6206
  15   0.0000       0.022520         0.6128
  16   0.0000       0.030257         0.8233
  17   0.0000       0.040467         1.1012
  18   0.0000       0.041850         1.1388
  19   0.0000       0.067305         1.8315

MULLIKEN ATOMIC CHARGES
-----------------------
   0 C :    0.246317
   1 C :   -0.102766
   2 C :   -0.823597
   3 O :   -0.725821
   4 H :    0.283948
   5 H :    0.283948
   6 H :    0.517816
   7 H :    0.320155
Sum of atomic charges:   -0.0000000

LOEWDIN ATOMIC CHARGES
----------------------
   0 C :    0.071132
   1 C :    0.065098
   2 C :    0.558242
   3 O :    1.234039
   4 H :   -0.332408
   5 H :   -0.332408
   6 H :   -0.466879
   7 H :   -0.796817

  Mayer bond orders larger than 0.100000
B(  0-C ,  1-C ) :   0.8832 B(  0-C ,  2-C ) :  -0.1649 B(  0-C ,  3-O ) :   0.6932
B(  0-C ,  4-H ) :   0.9019 B(  0-C ,  5-H ) :   0.9019 B(  1-C ,  2-C ) :   2.7905
B(  2-C ,  6-H ) :   0.7848 B(  3-O ,  7-H ) :   0.9274

MP2 TOTAL ENERGY:     -191.566214323 Eh
FINAL SINGLE POINT ENERGY      -191.566214322560

DIPOLE MOMENT
-------------
                                X             Y             Z
Electronic contribution:      1.00261       0.49865      -0.00000
Nuclear contribution   :     -1.75516      -0.73636       0.00000
                        -----------------------------------------
Total Dipole Moment    :     -0.75255      -0.23771      -0.00000
                        -----------------------------------------
Magnitude (a.u.)       :      0.78920
Magnitude (Debye)      :      2.00598

Rotational constants in cm-1:     1.171531     0.155242     0.140687
Rotational constants in MHz : 35121.614027  4654.052796  4217.702446

                             ****ORCA TERMINATED NORMALLY****
TOTAL RUN TIME: 0 days 0 hours 4 minutes 24 seconds 667 msec
