                         Program Version 5.0.4 -  RELEASE  -
|  1> !ri-mp2 aug-cc-pvqz aug-cc-pvqz/c tightscf
|  2> %pal nprocs 16 end
|  3>
|  4> * xyz 0 1
|  5> C    -0.230967     0.739015    0.000000
|  6> C     0.230967     1.496803    1.250954
|  7> C     0.230967     1.496803   -1.250954
|  8> H    -0.181582     1.079091    2.167949
|  9> H     1.320994     1.480162    1.335695
| 10> H     1.320994     1.480162   -1.335695
| 11> H    -0.181582     1.079091   -2.167949
| 12> H    -0.077437     2.542265    1.200790
| 13> H    -0.077437     2.542265   -1.200790
| 14> H    -1.328230     0.732224    0.000000
| 15> C     0.230967    -0.739015    0.000000
| 16> C    -0.230967    -1.496803    1.250954
| 17> C    -0.230967    -1.496803   -1.250954
| 18> H     0.181582    -1.079091    2.167949
| 19> H    -1.320994    -1.480162    1.335695
| 20> H    -1.320994    -1.480162   -1.335695
| 21> H     0.077437    -2.542265   -1.200790
| 22> H     0.181582    -1.079091   -2.167949
| 23> H     0.077437    -2.542265    1.200790
| 24> H     1.328230    -0.732224    0.000000
| 25> *
| 26>
| 27>                          ****END OF INPUT****

CARTESIAN COORDINATES (ANGSTROEM)
---------------------------------
  C     -0.230967    0.739015    0.000000
  C      0.230967    1.496803    1.250954
  C      0.230967    1.496803   -1.250954
  H     -0.181582    1.079091    2.167949
  H      1.320994    1.480162    1.335695
  H      1.320994    1.480162   -1.335695
  H     -0.181582    1.079091   -2.167949
  H     -0.077437    2.542265    1.200790
  H     -0.077437    2.542265   -1.200790
  H     -1.328230    0.732224    0.000000
  C      0.230967   -0.739015    0.000000
  C     -0.230967   -1.496803    1.250954
  C     -0.230967   -1.496803   -1.250954
  H      0.181582   -1.079091    2.167949
  H     -1.320994   -1.480162    1.335695
  H     -1.320994   -1.480162   -1.335695
  H      0.077437   -2.542265   -1.200790
  H      0.181582   -1.079091   -2.167949
  H      0.077437   -2.542265    1.200790
  H      1.328230   -0.732224    0.000000

 Total Charge           Charge          ....    0
 Multiplicity           Mult            ....    1
 Number of Electrons    NEL             ....   50
 Basis Dimension        Dim             .... 1124

ORBITAL ENERGIES
----------------

  NO   OCC          E(Eh)            E(eV)
   0   2.0000     -11.220924      -305.3369
   1   2.0000     -11.220350      -305.3212
   2   2.0000     -11.205291      -304.9115
   3   2.0000     -11.205284      -304.9113
   4   2.0000     -11.205265      -304.9108
   5   2.0000     -11.205264      -304.9107
   6   2.0000      -1.099438       -29.9172
   7   2.0000      -1.010276       -27.4910
   8   2.0000      -0.937617       -25.5139
   9   2.0000      -0.909398       -24.7460
  10   2.0000      -0.830354       -22.5951
  11   2.0000      -0.748655       -20.3719
  12   2.0000      -0.623511       -16.9666
  13   2.0000      -0.620062       -16.8728
  14   2.0000      -0.590084       -16.0570
  15   2.0000      -0.577408       -15.7121
  16   2.0000      -0.544089       -14.8054
  17   2.0000      -0.537991       -14.6395
  18   2.0000      -0.526219       -14.3191
  19   2.0000      -0.508580       -13.8392
  20   2.0000      -0.498033       -13.5522
  21   2.0000      -0.479944       -13.0599
  22   2.0000      -0.451792       -12.2939
  23   2.0000      -0.443186       -12.0597
  24   2.0000      -0.436524       -11.8784
  25   0.0000       0.027872         0.7584
  26   0.0000       0.031027         0.8443
  27   0.0000       0.031889         0.8678
  28   0.0000       0.033495         0.9114
  29   0.0000       0.046856         1.2750

MULLIKEN ATOMIC CHARGES
-----------------------
   0 C :    0.414548
   1 C :   -0.968490
   2 C :   -0.968491
   3 H :    0.242148
   4 H :    0.171690
   5 H :    0.171690
   6 H :    0.242149
   7 H :    0.259143
   8 H :    0.259142
   9 H :    0.176444
  10 C :    0.414623
  11 C :   -0.968497
  12 C :   -0.968499
  13 H :    0.242157
  14 H :    0.171677
  15 H :    0.171678
  16 H :    0.259134
  17 H :    0.242158
  18 H :    0.259135
  19 H :    0.176460
Sum of atomic charges:    0.0000000

LOEWDIN ATOMIC CHARGES
----------------------
   0 C :    0.107524
   1 C :    0.922586
   2 C :    0.922586
   3 H :   -0.296020
   4 H :   -0.265144
   5 H :   -0.265144
   6 H :   -0.296020
   7 H :   -0.278357
   8 H :   -0.278357
   9 H :   -0.273652
  10 C :    0.107524
  11 C :    0.922586
  12 C :    0.922586
  13 H :   -0.296020
  14 H :   -0.265144
  15 H :   -0.265144
  16 H :   -0.278357
  17 H :   -0.296020
  18 H :   -0.278357
  19 H :   -0.273652

  Mayer bond orders larger than 0.100000
B(  0-C ,  1-C ) :   0.5359 B(  0-C ,  2-C ) :   0.5359 B(  0-C ,  7-H ) :  -0.1109
B(  0-C ,  8-H ) :  -0.1109 B(  0-C ,  9-H ) :   0.9807 B(  0-C , 10-C ) :   0.7153
B(  1-C ,  2-C ) :   0.1604 B(  1-C ,  3-H ) :   1.0217 B(  1-C ,  4-H ) :   1.0491
B(  1-C ,  7-H ) :   1.0382 B(  2-C ,  5-H ) :   1.0491 B(  2-C ,  6-H ) :   1.0217
B(  2-C ,  8-H ) :   1.0382 B( 10-C , 11-C ) :   0.5359 B( 10-C , 12-C ) :   0.5359
B( 10-C , 16-H ) :  -0.1109 B( 10-C , 18-H ) :  -0.1109 B( 10-C , 19-H ) :   0.9807
B( 11-C , 12-C ) :   0.1604 B( 11-C , 13-H ) :   1.0217 B( 11-C , 14-H ) :   1.0492
B( 11-C , 18-H ) :   1.0382 B( 12-C , 15-H ) :   1.0492 B( 12-C , 16-H ) :   1.0382
B( 12-C , 17-H ) :   1.0217

MP2 TOTAL ENERGY:     -236.607720021 Eh
FINAL SINGLE POINT ENERGY      -236.607720020690

DIPOLE MOMENT
-------------
                                X             Y             Z
Electronic contribution:      0.00000      -0.00000      -0.00000
Nuclear contribution   :      0.00000       0.00000       0.00000
                        -----------------------------------------
Total Dipole Moment    :      0.00000      -0.00000      -0.00000
                        -----------------------------------------
Magnitude (a.u.)       :      0.00000
Magnitude (Debye)      :      0.00000

Rotational constants in cm-1:     0.140684     0.095771     0.062326
Rotational constants in MHz :  4217.591196  2871.131215  1868.479515

                             ****ORCA TERMINATED NORMALLY****
TOTAL RUN TIME: 0 days 1 hours 6 minutes 43 seconds 478 msec
