                         Program Version 5.0.4 -  RELEASE  -
|  1> !ri-mp2 aug-cc-pvqz aug-cc-pvqz/c tightscf
|  2> %pal nprocs 16 end
|  3>
|  4> * xyz 0 1
|  5> S      0.406791    0.942610    0.784578
|  6> S     -0.406791   -0.942610    0.784578
|  7> N      0.183607    4.290300   -0.635604
|  8> N     -0.183607   -4.290300   -0.635604
|  9> C     -0.625549    1.822703   -0.494613
| 10> C      0.625549   -1.822703   -0.494613
| 11> C     -0.183607    3.202009   -0.580957
| 12> C      0.183607   -3.202009   -0.580957
| 13> H     -0.505885    1.334775   -1.459501
| 14> H     -1.669096    1.778086   -0.191095
| 15> H      0.505885   -1.334775   -1.459501
| 16> H      1.669096   -1.778086   -0.191095
| 17> *
| 18>
| 19>                          ****END OF INPUT****

CARTESIAN COORDINATES (ANGSTROEM)
---------------------------------
  S      0.406791    0.942610    0.784578
  S     -0.406791   -0.942610    0.784578
  N      0.183607    4.290300   -0.635604
  N     -0.183607   -4.290300   -0.635604
  C     -0.625549    1.822703   -0.494613
  C      0.625549   -1.822703   -0.494613
  C     -0.183607    3.202009   -0.580957
  C      0.183607   -3.202009   -0.580957
  H     -0.505885    1.334775   -1.459501
  H     -1.669096    1.778086   -0.191095
  H      0.505885   -1.334775   -1.459501
  H      1.669096   -1.778086   -0.191095

 Total Charge           Charge          ....    0
 Multiplicity           Mult            ....    1
 Number of Electrons    NEL             ....   74
 Basis Dimension        Dim             ....  832

ORBITAL ENERGIES
----------------

  NO   OCC          E(Eh)            E(eV)
   0   2.0000     -92.026527     -2504.1691
   1   2.0000     -92.026524     -2504.1690
   2   2.0000     -15.594947      -424.3601
   3   2.0000     -15.594947      -424.3601
   4   2.0000     -11.339283      -308.5576
   5   2.0000     -11.339283      -308.5576
   6   2.0000     -11.298483      -307.4473
   7   2.0000     -11.298483      -307.4473
   8   2.0000      -9.025596      -245.5990
   9   2.0000      -9.025397      -245.5935
  10   2.0000      -6.706713      -182.4990
  11   2.0000      -6.706379      -182.4899
  12   2.0000      -6.705507      -182.4661
  13   2.0000      -6.705411      -182.4635
  14   2.0000      -6.704462      -182.4377
  15   2.0000      -6.704461      -182.4377
  16   2.0000      -1.248347       -33.9692
  17   2.0000      -1.247818       -33.9548
  18   2.0000      -1.139619       -31.0106
  19   2.0000      -1.090662       -29.6784
  20   2.0000      -0.999397       -27.1950
  21   2.0000      -0.859312       -23.3831
  22   2.0000      -0.733278       -19.9535
  23   2.0000      -0.731092       -19.8940
  24   2.0000      -0.680241       -18.5103
  25   2.0000      -0.675914       -18.3926
  26   2.0000      -0.620948       -16.8968
  27   2.0000      -0.581368       -15.8198
  28   2.0000      -0.579359       -15.7652
  29   2.0000      -0.565482       -15.3875
  30   2.0000      -0.497762       -13.5448
  31   2.0000      -0.491922       -13.3859
  32   2.0000      -0.487450       -13.2642
  33   2.0000      -0.483532       -13.1576
  34   2.0000      -0.482508       -13.1297
  35   2.0000      -0.404248       -11.0002
  36   2.0000      -0.404150       -10.9975
  37   0.0000       0.015626         0.4252
  38   0.0000       0.025773         0.7013
  39   0.0000       0.030982         0.8431
  40   0.0000       0.040636         1.1058
  41   0.0000       0.053183         1.4472

MULLIKEN ATOMIC CHARGES
-----------------------
   0 S :   -0.015139
   1 S :   -0.015137
   2 N :   -0.608154
   3 N :   -0.608155
   4 C :   -0.465309
   5 C :   -0.465321
   6 C :    0.391518
   7 C :    0.391527
   8 H :    0.337511
   9 H :    0.359573
  10 H :    0.337511
  11 H :    0.359576
Sum of atomic charges:    0.0000000

LOEWDIN ATOMIC CHARGES
----------------------
   0 S :    0.784081
   1 S :    0.784081
   2 N :    0.403078
   3 N :    0.403078
   4 C :    0.007726
   5 C :    0.007726
   6 C :   -0.391234
   7 C :   -0.391234
   8 H :   -0.400813
   9 H :   -0.402837
  10 H :   -0.400813
  11 H :   -0.402837

  Mayer bond orders larger than 0.100000
B(  0-S ,  1-S ) :   1.1479 B(  0-S ,  4-C ) :   0.9217 B(  1-S ,  5-C ) :   0.9217
B(  2-N ,  6-C ) :   2.5439 B(  3-N ,  7-C ) :   2.5439 B(  4-C ,  6-C ) :   1.0469
B(  4-C ,  8-H ) :   0.8498 B(  4-C ,  9-H ) :   0.8304 B(  5-C ,  7-C ) :   1.0469
B(  5-C , 10-H ) :   0.8498 B(  5-C , 11-H ) :   0.8304

MP2 TOTAL ENERGY:    -1059.342978655 Eh
FINAL SINGLE POINT ENERGY     -1059.342978655003

DIPOLE MOMENT
-------------
                                X             Y             Z
Electronic contribution:     -0.00000       0.00000       2.82530
Nuclear contribution   :     -0.00000       0.00000      -3.23526
                        -----------------------------------------
Total Dipole Moment    :     -0.00000       0.00000      -0.40996
                        -----------------------------------------
Magnitude (a.u.)       :      0.40996
Magnitude (Debye)      :      1.04203

Rotational constants in cm-1:     0.173872     0.017999     0.017241
Rotational constants in MHz :  5212.560601   539.601031   516.879569

                             ****ORCA TERMINATED NORMALLY****
TOTAL RUN TIME: 0 days 0 hours 19 minutes 34 seconds 185 msec
