                         Program Version 5.0.4 -  RELEASE  -
|  1> !ri-mp2 aug-cc-pvqz aug-cc-pvqz/c tightscf
|  2> %pal nprocs 16 end
|  3>
|  4> * xyz 0 1
|  5> C      0.046940    0.737664    0.000000
|  6> C     -0.046940   -0.737664    0.000000
|  7> C      1.229298   -1.540526    0.000000
|  8> C     -1.229298   -1.365802   -0.000001
|  9> C     -1.229298    1.540526    0.000000
| 10> C      1.229298    1.365802   -0.000001
| 11> H      1.011005   -2.606697    0.000002
| 12> H      1.839074   -1.319891   -0.878346
| 13> H      1.839074   -1.319889    0.878347
| 14> H     -1.285187   -2.445953   -0.000001
| 15> H     -2.170393   -0.836461   -0.000001
| 16> H     -1.839074    1.319889    0.878347
| 17> H     -1.011005    2.606697    0.000002
| 18> H     -1.839074    1.319891   -0.878346
| 19> H      2.170393    0.836461   -0.000001
| 20> H      1.285187    2.445953   -0.000001
| 21> *
| 22>
| 23>                          ****END OF INPUT****

CARTESIAN COORDINATES (ANGSTROEM)
---------------------------------
  C      0.046940    0.737664    0.000000
  C     -0.046940   -0.737664    0.000000
  C      1.229298   -1.540526    0.000000
  C     -1.229298   -1.365802   -0.000001
  C     -1.229298    1.540526    0.000000
  C      1.229298    1.365802   -0.000001
  H      1.011005   -2.606697    0.000002
  H      1.839074   -1.319891   -0.878346
  H      1.839074   -1.319889    0.878347
  H     -1.285187   -2.445953   -0.000001
  H     -2.170393   -0.836461   -0.000001
  H     -1.839074    1.319889    0.878347
  H     -1.011005    2.606697    0.000002
  H     -1.839074    1.319891   -0.878346
  H      2.170393    0.836461   -0.000001
  H      1.285187    2.445953   -0.000001

 Total Charge           Charge          ....    0
 Multiplicity           Mult            ....    1
 Number of Electrons    NEL             ....   46
 Basis Dimension        Dim             ....  940

ORBITAL ENERGIES
----------------

  NO   OCC          E(Eh)            E(eV)
   0   2.0000     -11.241553      -305.8982
   1   2.0000     -11.240780      -305.8772
   2   2.0000     -11.217767      -305.2510
   3   2.0000     -11.217763      -305.2509
   4   2.0000     -11.217592      -305.2462
   5   2.0000     -11.217591      -305.2462
   6   2.0000      -1.119286       -30.4573
   7   2.0000      -1.026874       -27.9427
   8   2.0000      -0.951622       -25.8949
   9   2.0000      -0.914475       -24.8841
  10   2.0000      -0.808175       -21.9916
  11   2.0000      -0.689494       -18.7621
  12   2.0000      -0.658367       -17.9151
  13   2.0000      -0.618477       -16.8296
  14   2.0000      -0.581174       -15.8145
  15   2.0000      -0.560363       -15.2483
  16   2.0000      -0.560197       -15.2437
  17   2.0000      -0.546418       -14.8688
  18   2.0000      -0.532056       -14.4780
  19   2.0000      -0.506842       -13.7919
  20   2.0000      -0.471547       -12.8315
  21   2.0000      -0.404276       -11.0009
  22   2.0000      -0.320809        -8.7297
  23   0.0000       0.027246         0.7414
  24   0.0000       0.029918         0.8141
  25   0.0000       0.030654         0.8341
  26   0.0000       0.040070         1.0904
  27   0.0000       0.042271         1.1502

MULLIKEN ATOMIC CHARGES
-----------------------
   0 C :    0.246578
   1 C :    0.246576
   2 C :   -0.625301
   3 C :   -0.893746
   4 C :   -0.625299
   5 C :   -0.893746
   6 H :    0.253654
   7 H :    0.207921
   8 H :    0.207919
   9 H :    0.332289
  10 H :    0.270683
  11 H :    0.207919
  12 H :    0.253652
  13 H :    0.207921
  14 H :    0.270679
  15 H :    0.332301
Sum of atomic charges:    0.0000000

LOEWDIN ATOMIC CHARGES
----------------------
   0 C :   -0.071243
   1 C :   -0.071243
   2 C :    0.865107
   3 C :    0.803089
   4 C :    0.865107
   5 C :    0.803089
   6 H :   -0.312740
   7 H :   -0.285992
   8 H :   -0.285991
   9 H :   -0.341161
  10 H :   -0.371068
  11 H :   -0.285991
  12 H :   -0.312740
  13 H :   -0.285992
  14 H :   -0.371068
  15 H :   -0.341161

  Mayer bond orders larger than 0.100000
B(  0-C ,  1-C ) :   0.6979 B(  0-C ,  4-C ) :   0.6079 B(  0-C ,  5-C ) :   1.4414
B(  0-C , 12-H ) :  -0.1119 B(  0-C , 14-H ) :  -0.1698 B(  1-C ,  2-C ) :   0.6079
B(  1-C ,  3-C ) :   1.4414 B(  1-C ,  6-H ) :  -0.1119 B(  1-C , 10-H ) :  -0.1698
B(  2-C ,  6-H ) :   1.0174 B(  2-C ,  7-H ) :   1.0158 B(  2-C ,  8-H ) :   1.0158
B(  3-C ,  9-H ) :   0.9474 B(  3-C , 10-H ) :   1.0473 B(  4-C , 11-H ) :   1.0158
B(  4-C , 12-H ) :   1.0174 B(  4-C , 13-H ) :   1.0158 B(  5-C , 14-H ) :   1.0473
B(  5-C , 15-H ) :   0.9474

MP2 TOTAL ENERGY:     -234.166000137 Eh
FINAL SINGLE POINT ENERGY      -234.166000137206

DIPOLE MOMENT
-------------
                                X             Y             Z
Electronic contribution:      0.00000       0.00000      -0.00000
Nuclear contribution   :      0.00000      -0.00000       0.00000
                        -----------------------------------------
Total Dipole Moment    :      0.00000       0.00000      -0.00000
                        -----------------------------------------
Magnitude (a.u.)       :      0.00000
Magnitude (Debye)      :      0.00000

Rotational constants in cm-1:     0.164464     0.109475     0.067359
Rotational constants in MHz :  4930.492570  3281.970664  2019.368616

                             ****ORCA TERMINATED NORMALLY****
TOTAL RUN TIME: 0 days 0 hours 34 minutes 54 seconds 347 msec
