                         Program Version 5.0.4 -  RELEASE  -
|  1> !ri-mp2 aug-cc-pvqz aug-cc-pvqz/c tightscf
|  2> %pal nprocs 16 end
|  3>
|  4> * xyz 0 1
|  5> S     0.000000     0.000000    2.851009
|  6> C     0.000000     0.000000    1.185615
|  7> C     0.000000     1.206883    0.400792
|  8> C     0.000000     2.352278   -1.861101
|  9> C     0.000000     1.178354   -0.946461
| 10> O     0.000000     0.000000   -1.631977
| 11> C     0.000000    -1.206883    0.400792
| 12> C     0.000000    -1.178354   -0.946461
| 13> C     0.000000    -2.352278   -1.861101
| 14> H     0.000000     2.159035    0.909125
| 15> H    -0.879753     2.334551   -2.507116
| 16> H     0.879753     2.334551   -2.507116
| 17> H     0.000000     3.277663   -1.291277
| 18> H     0.000000    -2.159035    0.909125
| 19> H    -0.879753    -2.334551   -2.507116
| 20> H     0.000000    -3.277663   -1.291277
| 21> H     0.879753    -2.334551   -2.507116
| 22> *
| 23>
| 24>                          ****END OF INPUT****

CARTESIAN COORDINATES (ANGSTROEM)
---------------------------------
  S      0.000000    0.000000    2.851009
  C      0.000000    0.000000    1.185615
  C      0.000000    1.206883    0.400792
  C      0.000000    2.352278   -1.861101
  C      0.000000    1.178354   -0.946461
  O      0.000000    0.000000   -1.631977
  C      0.000000   -1.206883    0.400792
  C      0.000000   -1.178354   -0.946461
  C      0.000000   -2.352278   -1.861101
  H      0.000000    2.159035    0.909125
  H     -0.879753    2.334551   -2.507116
  H      0.879753    2.334551   -2.507116
  H      0.000000    3.277663   -1.291277
  H      0.000000   -2.159035    0.909125
  H     -0.879753   -2.334551   -2.507116
  H      0.000000   -3.277663   -1.291277
  H      0.879753   -2.334551   -2.507116

 Total Charge           Charge          ....    0
 Multiplicity           Mult            ....    1
 Number of Electrons    NEL             ....   74
 Basis Dimension        Dim             .... 1092

ORBITAL ENERGIES
----------------

  NO   OCC          E(Eh)            E(eV)
   0   2.0000     -91.894126     -2500.5663
   1   2.0000     -20.649387      -561.8984
   2   2.0000     -11.344892      -308.7102
   3   2.0000     -11.344864      -308.7094
   4   2.0000     -11.311115      -307.7911
   5   2.0000     -11.255414      -306.2754
   6   2.0000     -11.255414      -306.2754
   7   2.0000     -11.244061      -305.9664
   8   2.0000     -11.244046      -305.9660
   9   2.0000      -8.897456      -242.1121
  10   2.0000      -6.578845      -179.0195
  11   2.0000      -6.577827      -178.9918
  12   2.0000      -6.576764      -178.9628
  13   2.0000      -1.485113       -40.4120
  14   2.0000      -1.139841       -31.0166
  15   2.0000      -1.126739       -30.6601
  16   2.0000      -1.033402       -28.1203
  17   2.0000      -0.970001       -26.3951
  18   2.0000      -0.956137       -26.0178
  19   2.0000      -0.875597       -23.8262
  20   2.0000      -0.794682       -21.6244
  21   2.0000      -0.722830       -19.6692
  22   2.0000      -0.718323       -19.5466
  23   2.0000      -0.683016       -18.5858
  24   2.0000      -0.645436       -17.5632
  25   2.0000      -0.608096       -16.5471
  26   2.0000      -0.606533       -16.5046
  27   2.0000      -0.589102       -16.0303
  28   2.0000      -0.573913       -15.6170
  29   2.0000      -0.573733       -15.6121
  30   2.0000      -0.569738       -15.5034
  31   2.0000      -0.535914       -14.5830
  32   2.0000      -0.484785       -13.1917
  33   2.0000      -0.469995       -12.7892
  34   2.0000      -0.383758       -10.4426
  35   2.0000      -0.314514        -8.5584
  36   2.0000      -0.305799        -8.3212
  37   0.0000       0.016645         0.4529
  38   0.0000       0.022510         0.6125
  39   0.0000       0.031284         0.8513
  40   0.0000       0.035484         0.9656
  41   0.0000       0.041889         1.1399

MULLIKEN ATOMIC CHARGES
-----------------------
   0 S :   -0.388788
   1 C :   -0.411148
   2 C :   -0.367482
   3 C :   -0.696392
   4 C :    0.605806
   5 O :   -0.590286
   6 C :   -0.367467
   7 C :    0.605697
   8 C :   -0.696375
   9 H :    0.363278
  10 H :    0.282452
  11 H :    0.282452
  12 H :    0.225069
  13 H :    0.363285
  14 H :    0.282442
  15 H :    0.225015
  16 H :    0.282442
Sum of atomic charges:   -0.0000000

LOEWDIN ATOMIC CHARGES
----------------------
   0 S :    1.044378
   1 C :   -0.893112
   2 C :    0.190524
   3 C :    0.913384
   4 C :   -0.390113
   5 O :    0.910278
   6 C :    0.190524
   7 C :   -0.390113
   8 C :    0.913384
   9 H :   -0.374381
  10 H :   -0.282407
  11 H :   -0.282407
  12 H :   -0.305372
  13 H :   -0.374381
  14 H :   -0.282407
  15 H :   -0.305373
  16 H :   -0.282407

  Mayer bond orders larger than 0.100000
B(  0-S ,  1-C ) :   1.8875 B(  0-S ,  2-C ) :  -0.3076 B(  0-S ,  6-C ) :  -0.3076
B(  1-C ,  2-C ) :   0.8742 B(  1-C ,  4-C ) :  -0.3519 B(  1-C ,  6-C ) :   0.8741
B(  1-C ,  7-C ) :  -0.3519 B(  2-C ,  4-C ) :   1.2503 B(  2-C ,  5-O ) :   0.1616
B(  2-C ,  6-C ) :   0.1545 B(  2-C ,  9-H ) :   0.9175 B(  3-C ,  4-C ) :   0.5899
B(  3-C , 10-H ) :   0.9677 B(  3-C , 11-H ) :   0.9677 B(  3-C , 12-H ) :   1.0632
B(  4-C ,  5-O ) :   0.6665 B(  4-C , 12-H ) :  -0.1107 B(  5-O ,  6-C ) :   0.1616
B(  5-O ,  7-C ) :   0.6666 B(  6-C ,  7-C ) :   1.2503 B(  6-C , 13-H ) :   0.9175
B(  7-C ,  8-C ) :   0.5899 B(  7-C , 15-H ) :  -0.1108 B(  8-C , 14-H ) :   0.9677
B(  8-C , 15-H ) :   1.0632 B(  8-C , 16-H ) :   0.9677

MP2 TOTAL ENERGY:     -743.916065729 Eh
FINAL SINGLE POINT ENERGY      -743.916065728633

DIPOLE MOMENT
-------------
                                X             Y             Z
Electronic contribution:     -0.00000      -0.00000       8.26541
Nuclear contribution   :      0.00000       0.00000     -10.81136
                        -----------------------------------------
Total Dipole Moment    :     -0.00000      -0.00000      -2.54595
                        -----------------------------------------
Magnitude (a.u.)       :      2.54595
Magnitude (Debye)      :      6.47128

Rotational constants in cm-1:     0.065488     0.036542     0.023660
Rotational constants in MHz :  1963.290869  1095.501115   709.308648

                             ****ORCA TERMINATED NORMALLY****
TOTAL RUN TIME: 0 days 1 hours 15 minutes 5 seconds 21 msec
