                         Program Version 5.0.4 -  RELEASE  -
|  1> !ri-mp2 aug-cc-pvqz aug-cc-pvqz/c tightscf
|  2> %pal nprocs 16 end
|  3>
|  4> * xyz 0 1
|  5> Cl    -2.404059   -0.918678    0.064286
|  6> S      3.086866   -0.390320    0.010773
|  7> N      0.477949    0.509740   -0.210547
|  8> C     -0.645305    1.190578    0.353524
|  9> C     -1.953863    0.791832   -0.301178
| 10> C      1.598040    0.139991   -0.071736
| 11> H     -0.688979    1.001710    1.427947
| 12> H     -0.514156    2.267281    0.204283
| 13> H     -1.896342    0.876305   -1.382173
| 14> H     -2.760260    1.414766    0.074888
| 15> *
| 16>
| 17>                          ****END OF INPUT****

CARTESIAN COORDINATES (ANGSTROEM)
---------------------------------
  Cl    -2.404059   -0.918678    0.064286
  S      3.086866   -0.390320    0.010773
  N      0.477949    0.509740   -0.210547
  C     -0.645305    1.190578    0.353524
  C     -1.953863    0.791832   -0.301178
  C      1.598040    0.139991   -0.071736
  H     -0.688979    1.001710    1.427947
  H     -0.514156    2.267281    0.204283
  H     -1.896342    0.876305   -1.382173
  H     -2.760260    1.414766    0.074888

 Total Charge           Charge          ....    0
 Multiplicity           Mult            ....    1
 Number of Electrons    NEL             ....   62
 Basis Dimension        Dim             ....  672

ORBITAL ENERGIES
----------------

  NO   OCC          E(Eh)            E(eV)
   0   2.0000    -104.835936     -2852.7308
   1   2.0000     -91.947980     -2502.0317
   2   2.0000     -15.610932      -424.7951
   3   2.0000     -11.377515      -309.5979
   4   2.0000     -11.324311      -308.1502
   5   2.0000     -11.317574      -307.9668
   6   2.0000     -10.561262      -287.3865
   7   2.0000      -8.952103      -243.5991
   8   2.0000      -8.028307      -218.4613
   9   2.0000      -8.026644      -218.4161
  10   2.0000      -8.026604      -218.4150
  11   2.0000      -6.633961      -180.5192
  12   2.0000      -6.631609      -180.4553
  13   2.0000      -6.631405      -180.4497
  14   2.0000      -1.303130       -35.4600
  15   2.0000      -1.154760       -31.4226
  16   2.0000      -1.065715       -28.9996
  17   2.0000      -1.011852       -27.5339
  18   2.0000      -0.893344       -24.3091
  19   2.0000      -0.756251       -20.5786
  20   2.0000      -0.682003       -18.5583
  21   2.0000      -0.646211       -17.5843
  22   2.0000      -0.617442       -16.8015
  23   2.0000      -0.595070       -16.1927
  24   2.0000      -0.562162       -15.2972
  25   2.0000      -0.537078       -14.6146
  26   2.0000      -0.518403       -14.1065
  27   2.0000      -0.451135       -12.2760
  28   2.0000      -0.449150       -12.2220
  29   2.0000      -0.368300       -10.0220
  30   2.0000      -0.359327        -9.7778
  31   0.0000       0.017718         0.4821
  32   0.0000       0.032097         0.8734
  33   0.0000       0.035649         0.9701
  34   0.0000       0.040093         1.0910
  35   0.0000       0.054792         1.4910

MULLIKEN ATOMIC CHARGES
-----------------------
   0 Cl:   -0.300099
   1 S :    0.018746
   2 N :   -0.482631
   3 C :   -0.188642
   4 C :   -0.465356
   5 C :    0.130955
   6 H :    0.321352
   7 H :    0.325218
   8 H :    0.310499
   9 H :    0.329958
Sum of atomic charges:    0.0000000

LOEWDIN ATOMIC CHARGES
----------------------
   0 Cl:    1.129141
   1 S :    0.936288
   2 N :    0.371223
   3 C :    0.149894
   4 C :   -0.144551
   5 C :   -1.015879
   6 H :   -0.324846
   7 H :   -0.306349
   8 H :   -0.398013
   9 H :   -0.396907

  Mayer bond orders larger than 0.100000
B(  0-Cl,  4-C ) :   0.8740 B(  1-S ,  5-C ) :   1.5062 B(  2-N ,  3-C ) :   0.7428
B(  2-N ,  5-C ) :   2.2346 B(  3-C ,  4-C ) :   1.0543 B(  3-C ,  6-H ) :   0.8485
B(  3-C ,  7-H ) :   0.8163 B(  4-C ,  8-H ) :   0.8426 B(  4-C ,  9-H ) :   0.8690

MP2 TOTAL ENERGY:    -1028.646016621 Eh
FINAL SINGLE POINT ENERGY     -1028.646016621267

DIPOLE MOMENT
-------------
                                X             Y             Z
Electronic contribution:      1.46356      -5.28401      -0.09175
Nuclear contribution   :     -2.40648       6.59791       0.22161
                        -----------------------------------------
Total Dipole Moment    :     -0.94292       1.31390       0.12987
                        -----------------------------------------
Magnitude (a.u.)       :      1.62244
Magnitude (Debye)      :      4.12391

Rotational constants in cm-1:     0.213190     0.027421     0.024828
Rotational constants in MHz :  6391.290208   822.064029   744.333886

                             ****ORCA TERMINATED NORMALLY****
TOTAL RUN TIME: 0 days 0 hours 10 minutes 22 seconds 596 msec
