                         Program Version 5.0.4 -  RELEASE  -
|  1> !ri-mp2 aug-cc-pvqz aug-cc-pvqz/c tightscf
|  2> %pal nprocs 16 end
|  3>
|  4> * xyz 0 1
|  5> C     -2.271210   -0.667396    0.006455
|  6> C     -1.340708   -1.693820    0.003564
|  7> C     -1.847275    0.658049   -0.000251
|  8> C      0.022067   -1.392654   -0.001131
|  9> C     -0.492758    0.980526   -0.008667
| 10> C      0.445302   -0.071805   -0.005646
| 11> C      2.767671   -0.660845    0.004342
| 12> N     -0.043263    2.295390   -0.074695
| 13> O      1.756422    0.332204    0.000731
| 14> H     -3.329530   -0.889156    0.012129
| 15> H     -1.659536   -2.726611    0.006451
| 16> H     -2.575105    1.460127   -0.006553
| 17> H      0.743830   -2.195462    0.001739
| 18> H      2.710088   -1.289626   -0.887662
| 19> H      2.704278   -1.291535    0.894876
| 20> H      3.714636   -0.127595    0.007528
| 21> H     -0.670523    2.990656    0.293401
| 22> H      0.914787    2.431518    0.203116
| 23> *
| 24>
| 25>                          ****END OF INPUT****

CARTESIAN COORDINATES (ANGSTROEM)
---------------------------------
  C     -2.271210   -0.667396    0.006455
  C     -1.340708   -1.693820    0.003564
  C     -1.847275    0.658049   -0.000251
  C      0.022067   -1.392654   -0.001131
  C     -0.492758    0.980526   -0.008667
  C      0.445302   -0.071805   -0.005646
  C      2.767671   -0.660845    0.004342
  N     -0.043263    2.295390   -0.074695
  O      1.756422    0.332204    0.000731
  H     -3.329530   -0.889156    0.012129
  H     -1.659536   -2.726611    0.006451
  H     -2.575105    1.460127   -0.006553
  H      0.743830   -2.195462    0.001739
  H      2.710088   -1.289626   -0.887662
  H      2.704278   -1.291535    0.894876
  H      3.714636   -0.127595    0.007528
  H     -0.670523    2.990656    0.293401
  H      0.914787    2.431518    0.203116

 Total Charge           Charge          ....    0
 Multiplicity           Mult            ....    1
 Number of Electrons    NEL             ....   66
 Basis Dimension        Dim             .... 1134

ORBITAL ENERGIES
----------------

  NO   OCC          E(Eh)            E(eV)
   0   2.0000     -20.581133      -560.0411
   1   2.0000     -15.554112      -423.2489
   2   2.0000     -11.287054      -307.1363
   3   2.0000     -11.283648      -307.0437
   4   2.0000     -11.269437      -306.6570
   5   2.0000     -11.227697      -305.5212
   6   2.0000     -11.222815      -305.3883
   7   2.0000     -11.220793      -305.3333
   8   2.0000     -11.219154      -305.2887
   9   2.0000      -1.406794       -38.2808
  10   2.0000      -1.215897       -33.0862
  11   2.0000      -1.124458       -30.5980
  12   2.0000      -1.012543       -27.5527
  13   2.0000      -0.993084       -27.0232
  14   2.0000      -0.938444       -25.5364
  15   2.0000      -0.825480       -22.4625
  16   2.0000      -0.807270       -21.9669
  17   2.0000      -0.718220       -19.5438
  18   2.0000      -0.697894       -18.9907
  19   2.0000      -0.674543       -18.3552
  20   2.0000      -0.655819       -17.8457
  21   2.0000      -0.627526       -17.0758
  22   2.0000      -0.616795       -16.7839
  23   2.0000      -0.598181       -16.2773
  24   2.0000      -0.574928       -15.6446
  25   2.0000      -0.543406       -14.7868
  26   2.0000      -0.532411       -14.4876
  27   2.0000      -0.502742       -13.6803
  28   2.0000      -0.487767       -13.2728
  29   2.0000      -0.477730       -12.9997
  30   2.0000      -0.444483       -12.0950
  31   2.0000      -0.324557        -8.8316
  32   2.0000      -0.282065        -7.6754
  33   0.0000       0.024104         0.6559
  34   0.0000       0.027829         0.7573
  35   0.0000       0.029908         0.8138
  36   0.0000       0.039709         1.0805
  37   0.0000       0.042296         1.1509

MULLIKEN ATOMIC CHARGES
-----------------------
   0 C :   -0.426701
   1 C :   -0.416533
   2 C :   -0.542741
   3 C :   -0.450093
   4 C :    0.503884
   5 C :    1.068151
   6 C :   -0.657163
   7 N :   -0.868052
   8 O :   -0.783717
   9 H :    0.235538
  10 H :    0.250793
  11 H :    0.286833
  12 H :    0.287155
  13 H :    0.256768
  14 H :    0.251767
  15 H :    0.465529
  16 H :    0.257677
  17 H :    0.280904
Sum of atomic charges:    0.0000000

LOEWDIN ATOMIC CHARGES
----------------------
   0 C :    0.324672
   1 C :    0.330752
   2 C :    0.330492
   3 C :    0.316818
   4 C :   -0.262262
   5 C :   -0.441299
   6 C :    0.584009
   7 N :    1.267737
   8 O :    0.877897
   9 H :   -0.328828
  10 H :   -0.330836
  11 H :   -0.324435
  12 H :   -0.360639
  13 H :   -0.306063
  14 H :   -0.306399
  15 H :   -0.317640
  16 H :   -0.502479
  17 H :   -0.551496

  Mayer bond orders larger than 0.100000
B(  0-C ,  1-C ) :   1.2955 B(  0-C ,  2-C ) :   1.2743 B(  0-C ,  3-C ) :  -0.1400
B(  0-C ,  4-C ) :  -0.1583 B(  0-C ,  9-H ) :   1.1386 B(  1-C ,  3-C ) :   0.9794
B(  1-C ,  4-C ) :   0.1226 B(  1-C ,  5-C ) :  -0.2189 B(  1-C ,  9-H ) :  -0.1237
B(  1-C , 10-H ) :   1.1152 B(  2-C ,  4-C ) :   1.1298 B(  2-C ,  5-C ) :  -0.2163
B(  2-C ,  9-H ) :  -0.1323 B(  2-C , 11-H ) :   0.9819 B(  3-C ,  4-C ) :  -0.1151
B(  3-C ,  5-C ) :   1.2627 B(  3-C ,  8-O ) :   0.1398 B(  3-C , 10-H ) :  -0.1344
B(  3-C , 12-H ) :   1.0101 B(  4-C ,  5-C ) :   1.2203 B(  4-C ,  7-N ) :   0.5839
B(  4-C ,  8-O ) :   0.3474 B(  4-C , 11-H ) :  -0.1166 B(  5-C ,  6-C ) :  -0.1530
B(  6-C ,  8-O ) :   0.9248 B(  6-C , 13-H ) :   0.9217 B(  6-C , 14-H ) :   0.9230
B(  6-C , 15-H ) :   0.7988 B(  7-N , 16-H ) :   0.9697 B(  7-N , 17-H ) :   0.9146

MP2 TOTAL ENERGY:     -401.469494958 Eh
FINAL SINGLE POINT ENERGY      -401.469494958216

DIPOLE MOMENT
-------------
                                X             Y             Z
Electronic contribution:     -2.16032       1.56462      -0.16449
Nuclear contribution   :      2.59708      -1.62946       0.52800
                        -----------------------------------------
Total Dipole Moment    :      0.43675      -0.06484       0.36351
                        -----------------------------------------
Magnitude (a.u.)       :      0.57192
Magnitude (Debye)      :      1.45371

Rotational constants in cm-1:     0.086028     0.051973     0.032625
Rotational constants in MHz :  2579.048836  1558.125171   978.075782

                             ****ORCA TERMINATED NORMALLY****
TOTAL RUN TIME: 0 days 0 hours 52 minutes 37 seconds 330 msec
