                         Program Version 5.0.4 -  RELEASE  -
|  1> !ri-mp2 aug-cc-pvqz aug-cc-pvqz/c tightscf
|  2> %pal nprocs 16 end
|  3>
|  4> * xyz 0 1
|  5> N      0.585676    1.381629   -0.230174
|  6> H     -0.201181    1.952915    0.050435
|  7> H      1.420699    1.844860    0.107244
|  8> C      1.770975   -0.732575   -0.002480
|  9> H      1.914810   -0.792002   -1.082494
| 10> H      2.641620   -0.231533    0.426249
| 11> H      1.738854   -1.745293    0.401057
| 12> C      0.486227    0.022813    0.322074
| 13> H      0.370190    0.037096    1.417614
| 14> C     -0.738648   -0.689705   -0.258545
| 15> H     -0.627441   -0.732000   -1.345347
| 16> H     -0.732698   -1.721265    0.103456
| 17> C     -2.075899   -0.042076    0.099323
| 18> H     -2.909692   -0.633466   -0.280918
| 19> H     -2.171947    0.956485   -0.330085
| 20> H     -2.198874    0.042059    1.181772
| 21> *
| 22>
| 23>                          ****END OF INPUT****

CARTESIAN COORDINATES (ANGSTROEM)
---------------------------------
  N      0.585676    1.381629   -0.230174
  H     -0.201181    1.952915    0.050435
  H      1.420699    1.844860    0.107244
  C      1.770975   -0.732575   -0.002480
  H      1.914810   -0.792002   -1.082494
  H      2.641620   -0.231533    0.426249
  H      1.738854   -1.745293    0.401057
  C      0.486227    0.022813    0.322074
  H      0.370190    0.037096    1.417614
  C     -0.738648   -0.689705   -0.258545
  H     -0.627441   -0.732000   -1.345347
  H     -0.732698   -1.721265    0.103456
  C     -2.075899   -0.042076    0.099323
  H     -2.909692   -0.633466   -0.280918
  H     -2.171947    0.956485   -0.330085
  H     -2.198874    0.042059    1.181772

 Total Charge           Charge          ....    0
 Multiplicity           Mult            ....    1
 Number of Electrons    NEL             ....   42
 Basis Dimension        Dim             ....  906

ORBITAL ENERGIES
----------------

  NO   OCC          E(Eh)            E(eV)
   0   2.0000     -15.532753      -422.6677
   1   2.0000     -11.248955      -306.0996
   2   2.0000     -11.212373      -305.1042
   3   2.0000     -11.210449      -305.0518
   4   2.0000     -11.207501      -304.9716
   5   2.0000      -1.181170       -32.1413
   6   2.0000      -1.036057       -28.1925
   7   2.0000      -0.976383       -26.5687
   8   2.0000      -0.861151       -23.4331
   9   2.0000      -0.770103       -20.9556
  10   2.0000      -0.657511       -17.8918
  11   2.0000      -0.655131       -17.8270
  12   2.0000      -0.583753       -15.8847
  13   2.0000      -0.574723       -15.6390
  14   2.0000      -0.561834       -15.2883
  15   2.0000      -0.517523       -14.0825
  16   2.0000      -0.513490       -13.9728
  17   2.0000      -0.479503       -13.0479
  18   2.0000      -0.476906       -12.9773
  19   2.0000      -0.458668       -12.4810
  20   2.0000      -0.385077       -10.4785
  21   0.0000       0.026447         0.7196
  22   0.0000       0.031531         0.8580
  23   0.0000       0.033993         0.9250
  24   0.0000       0.036048         0.9809
  25   0.0000       0.049609         1.3499

MULLIKEN ATOMIC CHARGES
-----------------------
   0 N :   -0.768901
   1 H :    0.222746
   2 H :    0.189956
   3 C :   -0.901543
   4 H :    0.230187
   5 H :    0.243135
   6 H :    0.239605
   7 C :    0.366174
   8 H :    0.271408
   9 C :   -0.489658
  10 H :    0.263781
  11 H :    0.269011
  12 C :   -0.820853
  13 H :    0.266221
  14 H :    0.212954
  15 H :    0.205777
Sum of atomic charges:   -0.0000000

LOEWDIN ATOMIC CHARGES
----------------------
   0 N :    1.295669
   1 H :   -0.527509
   2 H :   -0.507413
   3 C :    0.909086
   4 H :   -0.279743
   5 H :   -0.280098
   6 H :   -0.280675
   7 C :   -0.068266
   8 H :   -0.273838
   9 C :    0.492517
  10 H :   -0.275010
  11 H :   -0.279610
  12 C :    0.930786
  13 H :   -0.280947
  14 H :   -0.296008
  15 H :   -0.278943

  Mayer bond orders larger than 0.100000
B(  0-N ,  1-H ) :   0.9658 B(  0-N ,  2-H ) :   1.0003 B(  0-N ,  7-C ) :   0.5276
B(  3-C ,  4-H ) :   0.9755 B(  3-C ,  5-H ) :   1.0138 B(  3-C ,  6-H ) :   1.0079
B(  3-C ,  7-C ) :   0.6962 B(  7-C ,  8-H ) :   0.8965 B(  7-C ,  9-C ) :   0.7598
B(  9-C , 10-H ) :   0.8908 B(  9-C , 11-H ) :   0.8974 B(  9-C , 12-C ) :   0.9382
B( 12-C , 13-H ) :   1.0017 B( 12-C , 14-H ) :   0.9584 B( 12-C , 15-H ) :   0.9652

MP2 TOTAL ENERGY:     -213.412256738 Eh
FINAL SINGLE POINT ENERGY      -213.412256737974

DIPOLE MOMENT
-------------
                                X             Y             Z
Electronic contribution:      0.78613       1.10510      -0.21043
Nuclear contribution   :     -0.81126      -1.09362       0.69846
                        -----------------------------------------
Total Dipole Moment    :     -0.02513       0.01148       0.48803
                        -----------------------------------------
Magnitude (a.u.)       :      0.48881
Magnitude (Debye)      :      1.24245

Rotational constants in cm-1:     0.260653     0.113432     0.087102
Rotational constants in MHz :  7814.176086  3400.613001  2611.256438

                             ****ORCA TERMINATED NORMALLY****
TOTAL RUN TIME: 0 days 0 hours 22 minutes 46 seconds 7 msec
