                         Program Version 5.0.4 -  RELEASE  -
|  1> !ri-mp2 aug-cc-pvqz aug-cc-pvqz/c tightscf
|  2> %pal nprocs 16 end
|  3>
|  4> * xyz 0 1
|  5> C      2.353096    0.002148    0.005068
|  6> C      1.834314   -1.289002    0.004046
|  7> C      1.509217    1.100037   -0.001011
|  8> C      0.457168   -1.465035    0.000236
|  9> C      0.115237    0.948254   -0.007408
| 10> C     -0.381938   -0.362325   -0.004647
| 11> N     -0.722435    2.046777   -0.068656
| 12> Cl    -2.123824   -0.611727    0.002158
| 13> H      3.423493    0.156593    0.009813
| 14> H      2.488997   -2.148477    0.007665
| 15> H      1.921615    2.101235   -0.007590
| 16> H      0.024888   -2.455106    0.003520
| 17> H     -0.338871    2.918571    0.253707
| 18> H     -1.680635    1.894648    0.199077
| 19> *
| 20>
| 21>                          ****END OF INPUT****

CARTESIAN COORDINATES (ANGSTROEM)
---------------------------------
  C      2.353096    0.002148    0.005068
  C      1.834314   -1.289002    0.004046
  C      1.509217    1.100037   -0.001011
  C      0.457168   -1.465035    0.000236
  C      0.115237    0.948254   -0.007408
  C     -0.381938   -0.362325   -0.004647
  N     -0.722435    2.046777   -0.068656
  Cl    -2.123824   -0.611727    0.002158
  H      3.423493    0.156593    0.009813
  H      2.488997   -2.148477    0.007665
  H      1.921615    2.101235   -0.007590
  H      0.024888   -2.455106    0.003520
  H     -0.338871    2.918571    0.253707
  H     -1.680635    1.894648    0.199077

 Total Charge           Charge          ....    0
 Multiplicity           Mult            ....    1
 Number of Electrons    NEL             ....   66
 Basis Dimension        Dim             ....  920

ORBITAL ENERGIES
----------------

  NO   OCC          E(Eh)            E(eV)
   0   2.0000    -104.838303     -2852.7952
   1   2.0000     -15.571472      -423.7213
   2   2.0000     -11.295658      -307.3705
   3   2.0000     -11.290912      -307.2413
   4   2.0000     -11.248122      -306.0770
   5   2.0000     -11.243585      -305.9535
   6   2.0000     -11.235013      -305.7202
   7   2.0000     -11.230072      -305.5858
   8   2.0000     -10.563580      -287.4496
   9   2.0000      -8.030682      -218.5260
  10   2.0000      -8.029092      -218.4827
  11   2.0000      -8.028974      -218.4795
  12   2.0000      -1.244640       -33.8684
  13   2.0000      -1.159025       -31.5387
  14   2.0000      -1.114775       -30.3346
  15   2.0000      -1.012120       -27.5412
  16   2.0000      -0.985665       -26.8213
  17   2.0000      -0.844267       -22.9737
  18   2.0000      -0.818835       -22.2816
  19   2.0000      -0.714946       -19.4547
  20   2.0000      -0.705983       -19.2108
  21   2.0000      -0.659510       -17.9462
  22   2.0000      -0.615326       -16.7439
  23   2.0000      -0.611276       -16.6337
  24   2.0000      -0.585012       -15.9190
  25   2.0000      -0.565252       -15.3813
  26   2.0000      -0.529048       -14.3961
  27   2.0000      -0.503505       -13.7011
  28   2.0000      -0.480875       -13.0853
  29   2.0000      -0.457359       -12.4454
  30   2.0000      -0.456512       -12.4223
  31   2.0000      -0.341958        -9.3051
  32   2.0000      -0.303145        -8.2490
  33   0.0000       0.022852         0.6218
  34   0.0000       0.028524         0.7762
  35   0.0000       0.031718         0.8631
  36   0.0000       0.043327         1.1790
  37   0.0000       0.045896         1.2489

MULLIKEN ATOMIC CHARGES
-----------------------
   0 C :   -0.294391
   1 C :   -0.336034
   2 C :   -0.283165
   3 C :   -0.221602
   4 C :    0.649233
   5 C :   -0.148159
   6 N :   -0.781105
   7 Cl:   -0.420600
   8 H :    0.258745
   9 H :    0.256231
  10 H :    0.263028
  11 H :    0.445197
  12 H :    0.292456
  13 H :    0.320166
Sum of atomic charges:   -0.0000000

LOEWDIN ATOMIC CHARGES
----------------------
   0 C :    0.328846
   1 C :    0.323175
   2 C :    0.326464
   3 C :    0.190490
   4 C :   -0.372750
   5 C :   -0.800606
   6 N :    1.231944
   7 Cl:    1.210888
   8 H :   -0.321664
   9 H :   -0.331461
  10 H :   -0.325029
  11 H :   -0.359418
  12 H :   -0.501991
  13 H :   -0.598887

  Mayer bond orders larger than 0.100000
B(  0-C ,  1-C ) :   1.1842 B(  0-C ,  2-C ) :   1.2285 B(  0-C ,  4-C ) :  -0.1913
B(  0-C ,  5-C ) :   0.1045 B(  0-C ,  8-H ) :   1.0862 B(  1-C ,  3-C ) :   1.2135
B(  1-C ,  5-C ) :  -0.1052 B(  1-C ,  9-H ) :   1.0876 B(  2-C ,  3-C ) :   0.1199
B(  2-C ,  4-C ) :   1.1371 B(  2-C ,  8-H ) :  -0.1261 B(  2-C , 10-H ) :   1.0066
B(  3-C ,  5-C ) :   1.2071 B(  3-C ,  9-H ) :  -0.1164 B(  3-C , 11-H ) :   0.8459
B(  4-C ,  5-C ) :   1.1676 B(  4-C ,  6-N ) :   0.7397 B(  4-C ,  7-Cl) :  -0.1423
B(  4-C , 10-H ) :  -0.1079 B(  5-C ,  7-Cl) :   0.8488 B(  6-N , 12-H ) :   0.9221
B(  6-N , 13-H ) :   0.9094

MP2 TOTAL ENERGY:     -746.242800164 Eh
FINAL SINGLE POINT ENERGY      -746.242800163662

DIPOLE MOMENT
-------------
                                X             Y             Z
Electronic contribution:     -8.14414      -2.75898      -0.12201
Nuclear contribution   :      8.62183       3.25943       0.44957
                        -----------------------------------------
Total Dipole Moment    :      0.47769       0.50044       0.32756
                        -----------------------------------------
Magnitude (a.u.)       :      0.76546
Magnitude (Debye)      :      1.94564

Rotational constants in cm-1:     0.098118     0.051007     0.033582
Rotational constants in MHz :  2941.490712  1529.142418  1006.768459

                             ****ORCA TERMINATED NORMALLY****
TOTAL RUN TIME: 0 days 0 hours 36 minutes 14 seconds 698 msec
