                         Program Version 5.0.4 -  RELEASE  -
|  1> !ri-mp2 aug-cc-pvqz aug-cc-pvqz/c tightscf
|  2> %pal nprocs 16 end
|  3>
|  4> * xyz 0 1
|  5> H     0.310543     2.728828    0.000000
|  6> C    -0.313196     1.840812    0.000000
|  7> H     1.396218     0.676680    0.000000
|  8> C     0.313196     0.654900    0.000000
|  9> H    -1.396218    -0.676680    0.000000
| 10> C    -0.313196    -0.654900    0.000000
| 11> H    -0.310543    -2.728828    0.000000
| 12> C     0.313196    -1.840812    0.000000
| 13> H     2.383856    -1.194467    0.000000
| 14> H     2.072264    -2.692860    0.875470
| 15> H     2.072264    -2.692860   -0.875470
| 16> C     1.786306    -2.103254    0.000000
| 17> H    -2.383856     1.194467    0.000000
| 18> H    -2.072264     2.692860    0.875470
| 19> H    -2.072264     2.692860   -0.875470
| 20> C    -1.786306     2.103254    0.000000
| 21> *
| 22>
| 23>                          ****END OF INPUT****

CARTESIAN COORDINATES (ANGSTROEM)
---------------------------------
  H      0.310543    2.728828    0.000000
  C     -0.313196    1.840812    0.000000
  H      1.396218    0.676680    0.000000
  C      0.313196    0.654900    0.000000
  H     -1.396218   -0.676680    0.000000
  C     -0.313196   -0.654900    0.000000
  H     -0.310543   -2.728828    0.000000
  C      0.313196   -1.840812    0.000000
  H      2.383856   -1.194467    0.000000
  H      2.072264   -2.692860    0.875470
  H      2.072264   -2.692860   -0.875470
  C      1.786306   -2.103254    0.000000
  H     -2.383856    1.194467    0.000000
  H     -2.072264    2.692860    0.875470
  H     -2.072264    2.692860   -0.875470
  C     -1.786306    2.103254    0.000000

 Total Charge           Charge          ....    0
 Multiplicity           Mult            ....    1
 Number of Electrons    NEL             ....   46
 Basis Dimension        Dim             ....  940

ORBITAL ENERGIES
----------------

  NO   OCC          E(Eh)            E(eV)
   0   2.0000     -11.229805      -305.5785
   1   2.0000     -11.229800      -305.5784
   2   2.0000     -11.222895      -305.3905
   3   2.0000     -11.222036      -305.3671
   4   2.0000     -11.219626      -305.3015
   5   2.0000     -11.219625      -305.3015
   6   2.0000      -1.098818       -29.9004
   7   2.0000      -1.045025       -28.4366
   8   2.0000      -0.961242       -26.1567
   9   2.0000      -0.911071       -24.7915
  10   2.0000      -0.788368       -21.4526
  11   2.0000      -0.704001       -19.1568
  12   2.0000      -0.665955       -18.1216
  13   2.0000      -0.605431       -16.4746
  14   2.0000      -0.585866       -15.9422
  15   2.0000      -0.568698       -15.4751
  16   2.0000      -0.564599       -15.3635
  17   2.0000      -0.523719       -14.2511
  18   2.0000      -0.521478       -14.1901
  19   2.0000      -0.520478       -14.1629
  20   2.0000      -0.463783       -12.6202
  21   2.0000      -0.422285       -11.4909
  22   2.0000      -0.301959        -8.2167
  23   0.0000       0.025743         0.7005
  24   0.0000       0.028986         0.7887
  25   0.0000       0.031971         0.8700
  26   0.0000       0.040067         1.0903
  27   0.0000       0.043152         1.1742

MULLIKEN ATOMIC CHARGES
-----------------------
   0 H :    0.324099
   1 C :   -0.180906
   2 H :    0.338789
   3 C :   -0.504949
   4 H :    0.338789
   5 C :   -0.504945
   6 H :    0.324098
   7 C :   -0.180909
   8 H :    0.273453
   9 H :    0.224707
  10 H :    0.224707
  11 C :   -0.699902
  12 H :    0.273454
  13 H :    0.224707
  14 H :    0.224707
  15 C :   -0.699900
Sum of atomic charges:   -0.0000000

LOEWDIN ATOMIC CHARGES
----------------------
   0 H :   -0.333271
   1 C :    0.388366
   2 H :   -0.377977
   3 C :    0.348289
   4 H :   -0.377977
   5 C :    0.348289
   6 H :   -0.333271
   7 C :    0.388366
   8 H :   -0.334861
   9 H :   -0.290946
  10 H :   -0.290946
  11 C :    0.891346
  12 H :   -0.334861
  13 H :   -0.290946
  14 H :   -0.290946
  15 C :    0.891346

  Mayer bond orders larger than 0.100000
B(  0-H ,  1-C ) :   0.9372 B(  0-H ,  3-C ) :  -0.1369 B(  1-C ,  3-C ) :   1.5942
B(  1-C ,  5-C ) :  -0.2323 B(  1-C , 15-C ) :   0.8215 B(  2-H ,  3-C ) :   0.9034
B(  3-C ,  5-C ) :   0.8625 B(  3-C ,  7-C ) :  -0.2323 B(  4-H ,  5-C ) :   0.9034
B(  5-C ,  6-H ) :  -0.1369 B(  5-C ,  7-C ) :   1.5942 B(  6-H ,  7-C ) :   0.9372
B(  7-C , 11-C ) :   0.8215 B(  8-H , 11-C ) :   0.9435 B(  9-H , 11-C ) :   0.9885
B( 10-H , 11-C ) :   0.9885 B( 12-H , 15-C ) :   0.9435 B( 13-H , 15-C ) :   0.9885
B( 14-H , 15-C ) :   0.9885

MP2 TOTAL ENERGY:     -234.161252543 Eh
FINAL SINGLE POINT ENERGY      -234.161252543486

DIPOLE MOMENT
-------------
                                X             Y             Z
Electronic contribution:     -0.00000      -0.00000       0.00000
Nuclear contribution   :     -0.00000      -0.00000       0.00000
                        -----------------------------------------
Total Dipole Moment    :     -0.00000      -0.00000       0.00000
                        -----------------------------------------
Magnitude (a.u.)       :      0.00000
Magnitude (Debye)      :      0.00000

Rotational constants in cm-1:     0.392122     0.052115     0.046791
Rotational constants in MHz : 11755.534844  1562.376910  1402.746773

                             ****ORCA TERMINATED NORMALLY****
TOTAL RUN TIME: 0 days 0 hours 31 minutes 15 seconds 227 msec
