                         Program Version 5.0.4 -  RELEASE  -
|  1> !ri-mp2 aug-cc-pvqz aug-cc-pvqz/c tightscf
|  2> %pal nprocs 16 end
|  3>
|  4> * xyz 0 1
|  5> C      1.137455    0.146005   -0.002101
|  6> C      2.339985   -0.775148    0.003438
|  7> C     -2.754057   -0.294448   -0.000481
|  8> C     -0.225440   -0.525525   -0.005704
|  9> C     -1.410723    0.432588    0.006368
| 10> O      1.262714    1.350118   -0.002835
| 11> H      2.311679   -1.443961   -0.859263
| 12> H      2.326989   -1.406936    0.894211
| 13> H      3.256222   -0.191143   -0.015540
| 14> H     -2.862511   -0.940914    0.873136
| 15> H     -2.864356   -0.920583   -0.888559
| 16> H     -3.583566    0.413374    0.008555
| 17> H     -0.263760   -1.203516    0.854803
| 18> H     -0.266645   -1.183799   -0.881400
| 19> H     -1.338759    1.077971    0.883375
| 20> H     -1.340329    1.097732   -0.855756
| 21> *
| 22>
| 23>                          ****END OF INPUT****

CARTESIAN COORDINATES (ANGSTROEM)
---------------------------------
  C      1.137455    0.146005   -0.002101
  C      2.339985   -0.775148    0.003438
  C     -2.754057   -0.294448   -0.000481
  C     -0.225440   -0.525525   -0.005704
  C     -1.410723    0.432588    0.006368
  O      1.262714    1.350118   -0.002835
  H      2.311679   -1.443961   -0.859263
  H      2.326989   -1.406936    0.894211
  H      3.256222   -0.191143   -0.015540
  H     -2.862511   -0.940914    0.873136
  H     -2.864356   -0.920583   -0.888559
  H     -3.583566    0.413374    0.008555
  H     -0.263760   -1.203516    0.854803
  H     -0.266645   -1.183799   -0.881400
  H     -1.338759    1.077971    0.883375
  H     -1.340329    1.097732   -0.855756

 Total Charge           Charge          ....    0
 Multiplicity           Mult            ....    1
 Number of Electrons    NEL             ....   48
 Basis Dimension        Dim             ....  940

ORBITAL ENERGIES
----------------

  NO   OCC          E(Eh)            E(eV)
   0   2.0000     -20.540797      -558.9435
   1   2.0000     -11.327475      -308.2363
   2   2.0000     -11.235567      -305.7353
   3   2.0000     -11.232253      -305.6451
   4   2.0000     -11.220804      -305.3336
   5   2.0000     -11.215118      -305.1789
   6   2.0000      -1.384972       -37.6870
   7   2.0000      -1.077630       -29.3238
   8   2.0000      -1.016463       -27.6594
   9   2.0000      -0.946426       -25.7536
  10   2.0000      -0.824097       -22.4248
  11   2.0000      -0.734014       -19.9735
  12   2.0000      -0.653411       -17.7802
  13   2.0000      -0.649316       -17.6688
  14   2.0000      -0.625159       -17.0114
  15   2.0000      -0.597011       -16.2455
  16   2.0000      -0.567214       -15.4347
  17   2.0000      -0.559397       -15.2220
  18   2.0000      -0.545000       -14.8302
  19   2.0000      -0.502236       -13.6665
  20   2.0000      -0.489488       -13.3196
  21   2.0000      -0.485011       -13.1978
  22   2.0000      -0.475804       -12.9473
  23   2.0000      -0.408244       -11.1089
  24   0.0000       0.022419         0.6101
  25   0.0000       0.028552         0.7769
  26   0.0000       0.032984         0.8975
  27   0.0000       0.037209         1.0125
  28   0.0000       0.047335         1.2881

MULLIKEN ATOMIC CHARGES
-----------------------
   0 C :    0.725193
   1 C :   -0.936172
   2 C :   -0.871454
   3 C :   -0.284000
   4 C :   -0.386913
   5 O :   -0.791581
   6 H :    0.273683
   7 H :    0.280402
   8 H :    0.293129
   9 H :    0.227514
  10 H :    0.227417
  11 H :    0.259051
  12 H :    0.263158
  13 H :    0.265005
  14 H :    0.227744
  15 H :    0.227824
Sum of atomic charges:   -0.0000000

LOEWDIN ATOMIC CHARGES
----------------------
   0 C :   -0.625567
   1 C :    0.896580
   2 C :    0.926827
   3 C :    0.461921
   4 C :    0.480549
   5 O :    0.746609
   6 H :   -0.294254
   7 H :   -0.293574
   8 H :   -0.318543
   9 H :   -0.285143
  10 H :   -0.285143
  11 H :   -0.283665
  12 H :   -0.283032
  13 H :   -0.282830
  14 H :   -0.280020
  15 H :   -0.280716

  Mayer bond orders larger than 0.100000
B(  0-C ,  1-C ) :   1.0111 B(  0-C ,  3-C ) :   0.7689 B(  0-C ,  5-O ) :   1.1119
B(  1-C ,  6-H ) :   0.9277 B(  1-C ,  7-H ) :   0.9167 B(  1-C ,  8-H ) :   0.9985
B(  2-C ,  4-C ) :   1.0188 B(  2-C ,  9-H ) :   0.9469 B(  2-C , 10-H ) :   0.9467
B(  2-C , 11-H ) :   1.0241 B(  3-C ,  4-C ) :   0.9078 B(  3-C ,  5-O ) :   0.2292
B(  3-C , 12-H ) :   0.8817 B(  3-C , 13-H ) :   0.8789 B(  4-C , 14-H ) :   0.8868
B(  4-C , 15-H ) :   0.8883

MP2 TOTAL ENERGY:     -271.317696942 Eh
FINAL SINGLE POINT ENERGY      -271.317696941804

DIPOLE MOMENT
-------------
                                X             Y             Z
Electronic contribution:      4.63754       3.67528      -0.01242
Nuclear contribution   :     -4.81971      -4.89858       0.01415
                        -----------------------------------------
Total Dipole Moment    :     -0.18218      -1.22331       0.00173
                        -----------------------------------------
Magnitude (a.u.)       :      1.23680
Magnitude (Debye)      :      3.14369

Rotational constants in cm-1:     0.279405     0.059516     0.050890
Rotational constants in MHz :  8376.352900  1784.256052  1525.641906

                             ****ORCA TERMINATED NORMALLY****
TOTAL RUN TIME: 0 days 0 hours 35 minutes 12 seconds 79 msec
