                         Program Version 5.0.4 -  RELEASE  -
|  1> !ri-mp2 aug-cc-pvqz aug-cc-pvqz/c tightscf
|  2> %pal nprocs 16 end
|  3>
|  4> * xyz 0 1
|  5> Cl     3.117903   -0.625315    0.000000
|  6> S      0.125551   -0.848541    0.000000
|  7> O     -4.150489   -0.844343   -0.000002
|  8> N     -2.237269    0.548089    0.000001
|  9> C     -0.101979    1.727519    0.000002
| 10> C     -0.867078    0.598532    0.000001
| 11> C      1.293679    1.456131    0.000001
| 12> C      1.565665    0.124962    0.000000
| 13> C     -3.170305   -0.208471    0.000000
| 14> H     -0.528661    2.718444    0.000002
| 15> H      2.060415    2.214641    0.000002
| 16> *
| 17>
| 18>                          ****END OF INPUT****

CARTESIAN COORDINATES (ANGSTROEM)
---------------------------------
  Cl     3.117903   -0.625315    0.000000
  S      0.125551   -0.848541    0.000000
  O     -4.150489   -0.844343   -0.000002
  N     -2.237269    0.548089    0.000001
  C     -0.101979    1.727519    0.000002
  C     -0.867078    0.598532    0.000001
  C      1.293679    1.456131    0.000001
  C      1.565665    0.124962    0.000000
  C     -3.170305   -0.208471    0.000000
  H     -0.528661    2.718444    0.000002
  H      2.060415    2.214641    0.000002

 Total Charge           Charge          ....    0
 Multiplicity           Mult            ....    1
 Number of Electrons    NEL             ....   80
 Basis Dimension        Dim             ....  820

ORBITAL ENERGIES
----------------

  NO   OCC          E(Eh)            E(eV)
   0   2.0000    -104.864616     -2853.5113
   1   2.0000     -92.012407     -2503.7849
   2   2.0000     -20.626635      -561.2793
   3   2.0000     -15.621004      -425.0691
   4   2.0000     -11.425459      -310.9025
   5   2.0000     -11.343750      -308.6791
   6   2.0000     -11.336143      -308.4721
   7   2.0000     -11.264070      -306.5109
   8   2.0000     -11.260066      -306.4020
   9   2.0000     -10.589308      -288.1497
  10   2.0000      -9.013669      -245.2744
  11   2.0000      -8.056515      -219.2289
  12   2.0000      -8.054627      -219.1776
  13   2.0000      -8.054533      -219.1750
  14   2.0000      -6.694821      -182.1753
  15   2.0000      -6.694380      -182.1633
  16   2.0000      -6.693447      -182.1379
  17   2.0000      -1.480340       -40.2821
  18   2.0000      -1.316130       -35.8137
  19   2.0000      -1.213461       -33.0199
  20   2.0000      -1.138661       -30.9845
  21   2.0000      -1.018168       -27.7058
  22   2.0000      -1.004741       -27.3404
  23   2.0000      -0.870760       -23.6946
  24   2.0000      -0.768914       -20.9232
  25   2.0000      -0.746550       -20.3147
  26   2.0000      -0.729539       -19.8518
  27   2.0000      -0.677420       -18.4335
  28   2.0000      -0.666459       -18.1353
  29   2.0000      -0.641694       -17.4614
  30   2.0000      -0.593419       -16.1477
  31   2.0000      -0.582893       -15.8613
  32   2.0000      -0.579941       -15.7810
  33   2.0000      -0.525984       -14.3128
  34   2.0000      -0.521036       -14.1781
  35   2.0000      -0.474401       -12.9091
  36   2.0000      -0.461583       -12.5603
  37   2.0000      -0.457931       -12.4609
  38   2.0000      -0.377792       -10.2802
  39   2.0000      -0.321812        -8.7569
  40   0.0000       0.021971         0.5979
  41   0.0000       0.033285         0.9057
  42   0.0000       0.042191         1.1481
  43   0.0000       0.050691         1.3794
  44   0.0000       0.053624         1.4592

MULLIKEN ATOMIC CHARGES
-----------------------
   0 Cl:   -0.223769
   1 S :    0.500466
   2 O :   -0.623696
   3 N :   -0.873419
   4 C :   -0.470305
   5 C :    0.262566
   6 C :   -0.077501
   7 C :   -0.434515
   8 C :    1.200235
   9 H :    0.365961
  10 H :    0.373976
Sum of atomic charges:    0.0000000

LOEWDIN ATOMIC CHARGES
----------------------
   0 Cl:    1.097723
   1 S :    1.244082
   2 O :    0.602171
   3 N :    0.387185
   4 C :    0.171571
   5 C :   -0.804962
   6 C :    0.063322
   7 C :   -1.338125
   8 C :   -0.745620
   9 H :   -0.326164
  10 H :   -0.351183

  Mayer bond orders larger than 0.100000
B(  0-Cl,  6-C ) :  -0.1493 B(  0-Cl,  7-C ) :   0.8685 B(  1-S ,  5-C ) :   1.0522
B(  1-S ,  7-C ) :   1.0443 B(  2-O ,  3-N ) :   0.3118 B(  2-O ,  8-C ) :   1.5552
B(  3-N ,  5-C ) :   0.6907 B(  3-N ,  8-C ) :   2.2378 B(  4-C ,  5-C ) :   1.3743
B(  4-C ,  6-C ) :   1.2288 B(  4-C ,  7-C ) :  -0.1293 B(  4-C ,  9-H ) :   0.8813
B(  5-C ,  6-C ) :  -0.3022 B(  5-C ,  7-C ) :  -0.1900 B(  6-C ,  7-C ) :   1.3104
B(  6-C , 10-H ) :   0.8951

MP2 TOTAL ENERGY:    -1178.676992912 Eh
FINAL SINGLE POINT ENERGY     -1178.676992911738

DIPOLE MOMENT
-------------
                                X             Y             Z
Electronic contribution:      3.27692      -4.80206      -0.00000
Nuclear contribution   :     -2.83501       5.50163       0.00000
                        -----------------------------------------
Total Dipole Moment    :      0.44191       0.69956       0.00000
                        -----------------------------------------
Magnitude (a.u.)       :      0.82745
Magnitude (Debye)      :      2.10321

Rotational constants in cm-1:     0.128664     0.019269     0.016759
Rotational constants in MHz :  3857.252862   577.679778   502.433105

                             ****ORCA TERMINATED NORMALLY****
TOTAL RUN TIME: 0 days 0 hours 20 minutes 44 seconds 932 msec
