                         Program Version 5.0.4 -  RELEASE  -
|  1> !ri-mp2 aug-cc-pvqz aug-cc-pvqz/c tightscf
|  2> %pal nprocs 16 end
|  3>
|  4> * xyz 0 1
|  5> S     -1.212773   -1.207584    0.003315
|  6> S      2.042508   -0.178536   -0.008928
|  7> N     -1.534033    1.415066   -0.011441
|  8> C     -0.689942    0.359550    0.002786
|  9> C      0.740967    0.774182    0.022682
| 10> H     -1.200704    2.364588   -0.016085
| 11> H     -2.525891    1.249315   -0.027968
| 12> H      0.882911    1.856177    0.061139
| 13> *
| 14>
| 15>                          ****END OF INPUT****

CARTESIAN COORDINATES (ANGSTROEM)
---------------------------------
  S     -1.212773   -1.207584    0.003315
  S      2.042508   -0.178536   -0.008928
  N     -1.534033    1.415066   -0.011441
  C     -0.689942    0.359550    0.002786
  C      0.740967    0.774182    0.022682
  H     -1.200704    2.364588   -0.016085
  H     -2.525891    1.249315   -0.027968
  H      0.882911    1.856177    0.061139

 Total Charge           Charge          ....    0
 Multiplicity           Mult            ....    1
 Number of Electrons    NEL             ....   54
 Basis Dimension        Dim             ....  546

ORBITAL ENERGIES
----------------

  NO   OCC          E(Eh)            E(eV)
   0   2.0000     -91.972174     -2502.6901
   1   2.0000     -91.916187     -2501.1666
   2   2.0000     -15.625476      -425.1908
   3   2.0000     -11.370038      -309.3945
   4   2.0000     -11.336658      -308.4862
   5   2.0000      -8.974551      -244.2100
   6   2.0000      -8.919989      -242.7252
   7   2.0000      -6.655156      -181.0960
   8   2.0000      -6.655112      -181.0948
   9   2.0000      -6.653197      -181.0427
  10   2.0000      -6.601392      -179.6330
  11   2.0000      -6.600167      -179.5997
  12   2.0000      -6.599192      -179.5731
  13   2.0000      -1.287253       -35.0279
  14   2.0000      -1.101520       -29.9739
  15   2.0000      -0.999879       -27.2081
  16   2.0000      -0.889258       -24.1979
  17   2.0000      -0.776933       -21.1414
  18   2.0000      -0.729499       -19.8507
  19   2.0000      -0.684232       -18.6189
  20   2.0000      -0.564147       -15.3512
  21   2.0000      -0.553607       -15.0644
  22   2.0000      -0.526414       -14.3244
  23   2.0000      -0.431304       -11.7364
  24   2.0000      -0.369195       -10.0463
  25   2.0000      -0.344747        -9.3810
  26   2.0000      -0.339309        -9.2331
  27   0.0000      -0.008469        -0.2305
  28   0.0000       0.013792         0.3753
  29   0.0000       0.031601         0.8599
  30   0.0000       0.045024         1.2252
  31   0.0000       0.059389         1.6161

MULLIKEN ATOMIC CHARGES
-----------------------
   0 S :   -0.035898
   1 S :    0.125375
   2 N :   -0.554090
   3 C :    0.087793
   4 C :   -0.519726
   5 H :    0.314139
   6 H :    0.275842
   7 H :    0.306566
Sum of atomic charges:   -0.0000000

LOEWDIN ATOMIC CHARGES
----------------------
   0 S :    1.005149
   1 S :    1.123302
   2 N :    1.124008
   3 C :   -1.152877
   4 C :   -0.569813
   5 H :   -0.505911
   6 H :   -0.521744
   7 H :   -0.502114

  Mayer bond orders larger than 0.100000
B(  0-S ,  3-C ) :   1.4444 B(  1-S ,  4-C ) :   1.6781 B(  2-N ,  3-C ) :   1.0465
B(  2-N ,  5-H ) :   0.9009 B(  2-N ,  6-H ) :   0.9551 B(  3-C ,  4-C ) :   0.8924
B(  4-C ,  7-H ) :   0.9150

MP2 TOTAL ENERGY:     -927.991617637 Eh
FINAL SINGLE POINT ENERGY      -927.991617637041

DIPOLE MOMENT
-------------
                                X             Y             Z
Electronic contribution:      2.38747      -3.38775      -0.01827
Nuclear contribution   :     -2.77547       5.32393       0.01658
                        -----------------------------------------
Total Dipole Moment    :     -0.38800       1.93617      -0.00169
                        -----------------------------------------
Magnitude (a.u.)       :      1.97467
Magnitude (Debye)      :      5.01921

Rotational constants in cm-1:     0.177751     0.071755     0.051124
Rotational constants in MHz :  5328.841955  2151.173168  1532.664707

                             ****ORCA TERMINATED NORMALLY****
TOTAL RUN TIME: 0 days 0 hours 6 minutes 53 seconds 629 msec
