                         Program Version 5.0.4 -  RELEASE  -
|  1> !ri-mp2 aug-cc-pvqz aug-cc-pvqz/c tightscf
|  2> %pal nprocs 16 end
|  3>
|  4> * xyz 0 1
|  5> C     0.000000     0.000000    1.108167
|  6> C     0.000000     1.252736    0.329165
|  7> C     0.000000     1.253135   -1.006331
|  8> C     0.000000     0.000000   -1.814407
|  9> C     0.000000    -1.253135   -1.006331
| 10> C     0.000000    -1.252736    0.329165
| 11> O     0.000000     0.000000    2.331070
| 12> H     0.000000     2.170549    0.902157
| 13> H     0.000000     2.189815   -1.551879
| 14> H    -0.863698     0.000000   -2.492840
| 15> H     0.863698     0.000000   -2.492840
| 16> H     0.000000    -2.189815   -1.551879
| 17> H     0.000000    -2.170549    0.902157
| 18> *
| 19>
| 20>                          ****END OF INPUT****

CARTESIAN COORDINATES (ANGSTROEM)
---------------------------------
  C      0.000000    0.000000    1.108167
  C      0.000000    1.252736    0.329165
  C      0.000000    1.253135   -1.006331
  C      0.000000    0.000000   -1.814407
  C      0.000000   -1.253135   -1.006331
  C      0.000000   -1.252736    0.329165
  O      0.000000    0.000000    2.331070
  H      0.000000    2.170549    0.902157
  H      0.000000    2.189815   -1.551879
  H     -0.863698    0.000000   -2.492840
  H      0.863698    0.000000   -2.492840
  H      0.000000   -2.189815   -1.551879
  H      0.000000   -2.170549    0.902157

 Total Charge           Charge          ....    0
 Multiplicity           Mult            ....    1
 Number of Electrons    NEL             ....   50
 Basis Dimension        Dim             ....  836

ORBITAL ENERGIES
----------------

  NO   OCC          E(Eh)            E(eV)
   0   2.0000     -20.532450      -558.7164
   1   2.0000     -11.325994      -308.1960
   2   2.0000     -11.267373      -306.6008
   3   2.0000     -11.267338      -306.5998
   4   2.0000     -11.262029      -306.4554
   5   2.0000     -11.240464      -305.8686
   6   2.0000     -11.240445      -305.8681
   7   2.0000      -1.371752       -37.3273
   8   2.0000      -1.151852       -31.3435
   9   2.0000      -1.046766       -28.4840
  10   2.0000      -1.001274       -27.2461
  11   2.0000      -0.836366       -22.7587
  12   2.0000      -0.834915       -22.7192
  13   2.0000      -0.705859       -19.2074
  14   2.0000      -0.664915       -18.0933
  15   2.0000      -0.662933       -18.0393
  16   2.0000      -0.619852       -16.8670
  17   2.0000      -0.610430       -16.6106
  18   2.0000      -0.593358       -16.1461
  19   2.0000      -0.540723       -14.7138
  20   2.0000      -0.538168       -14.6443
  21   2.0000      -0.517358       -14.0780
  22   2.0000      -0.414361       -11.2753
  23   2.0000      -0.387543       -10.5456
  24   2.0000      -0.377987       -10.2856
  25   0.0000       0.018388         0.5004
  26   0.0000       0.026228         0.7137
  27   0.0000       0.034397         0.9360
  28   0.0000       0.035312         0.9609
  29   0.0000       0.044151         1.2014

MULLIKEN ATOMIC CHARGES
-----------------------
   0 C :    0.930369
   1 C :   -0.591930
   2 C :   -0.293084
   3 C :   -0.181181
   4 C :   -0.293084
   5 C :   -0.591930
   6 O :   -0.788540
   7 H :    0.396218
   8 H :    0.292530
   9 H :    0.215942
  10 H :    0.215942
  11 H :    0.292531
  12 H :    0.396218
Sum of atomic charges:    0.0000000

LOEWDIN ATOMIC CHARGES
----------------------
   0 C :   -0.728028
   1 C :    0.333129
   2 C :    0.383202
   3 C :    0.462597
   4 C :    0.383202
   5 C :    0.333129
   6 O :    0.689115
   7 H :   -0.347571
   8 H :   -0.301435
   9 H :   -0.279167
  10 H :   -0.279167
  11 H :   -0.301435
  12 H :   -0.347571

  Mayer bond orders larger than 0.100000
B(  0-C ,  1-C ) :   1.1292 B(  0-C ,  5-C ) :   1.1292 B(  0-C ,  6-O ) :   0.8292
B(  1-C ,  2-C ) :   1.5117 B(  1-C ,  6-O ) :   0.2996 B(  1-C ,  7-H ) :   0.8445
B(  1-C ,  8-H ) :  -0.1176 B(  2-C ,  3-C ) :   0.7628 B(  2-C ,  8-H ) :   1.0179
B(  3-C ,  4-C ) :   0.7628 B(  3-C ,  9-H ) :   0.9454 B(  3-C , 10-H ) :   0.9454
B(  4-C ,  5-C ) :   1.5117 B(  4-C , 11-H ) :   1.0179 B(  5-C ,  6-O ) :   0.2996
B(  5-C , 11-H ) :  -0.1176 B(  5-C , 12-H ) :   0.8445

MP2 TOTAL ENERGY:     -306.926416230 Eh
FINAL SINGLE POINT ENERGY      -306.926416230203

DIPOLE MOMENT
-------------
                                X             Y             Z
Electronic contribution:      0.00000      -0.00000       4.18709
Nuclear contribution   :      0.00000       0.00000      -6.23448
                        -----------------------------------------
Total Dipole Moment    :      0.00000      -0.00000      -2.04738
                        -----------------------------------------
Magnitude (a.u.)       :      2.04738
Magnitude (Debye)      :      5.20404

Rotational constants in cm-1:     0.175434     0.089537     0.059915
Rotational constants in MHz :  5259.390502  2684.251902  1796.209689

                             ****ORCA TERMINATED NORMALLY****
TOTAL RUN TIME: 0 days 0 hours 31 minutes 36 seconds 466 msec
