                         Program Version 5.0.4 -  RELEASE  -
|  1> !ri-mp2 aug-cc-pvqz aug-cc-pvqz/c tightscf
|  2> %pal nprocs 16 end
|  3>
|  4> * xyz 0 1
|  5> C     -2.749765   -0.583904   -0.153459
|  6> C     -1.683862    0.394741    0.292969
|  7> C      1.943584    0.269479   -0.404816
|  8> C      0.638750    0.818274    0.137976
|  9> O      2.366200   -0.943905    0.203717
| 10> O     -0.429726   -0.030575   -0.214940
| 11> H     -3.725084   -0.279288    0.228236
| 12> H     -2.802470   -0.625322   -1.241261
| 13> H     -2.530599   -1.585069    0.216980
| 14> H     -1.640996    0.446136    1.389514
| 15> H     -1.909147    1.406285   -0.072242
| 16> H      2.712674    1.045372   -0.307406
| 17> H      1.826768    0.042599   -1.464123
| 18> H      0.481049    1.826798   -0.273000
| 19> H      0.701134    0.920416    1.233025
| 20> H      2.502636   -0.793628    1.144037
| 21> *
| 22>
| 23>                          ****END OF INPUT****

CARTESIAN COORDINATES (ANGSTROEM)
---------------------------------
  C     -2.749765   -0.583904   -0.153459
  C     -1.683862    0.394741    0.292969
  C      1.943584    0.269479   -0.404816
  C      0.638750    0.818274    0.137976
  O      2.366200   -0.943905    0.203717
  O     -0.429726   -0.030575   -0.214940
  H     -3.725084   -0.279288    0.228236
  H     -2.802470   -0.625322   -1.241261
  H     -2.530599   -1.585069    0.216980
  H     -1.640996    0.446136    1.389514
  H     -1.909147    1.406285   -0.072242
  H      2.712674    1.045372   -0.307406
  H      1.826768    0.042599   -1.464123
  H      0.481049    1.826798   -0.273000
  H      0.701134    0.920416    1.233025
  H      2.502636   -0.793628    1.144037

 Total Charge           Charge          ....    0
 Multiplicity           Mult            ....    1
 Number of Electrons    NEL             ....   50
 Basis Dimension        Dim             ....  940

ORBITAL ENERGIES
----------------

  NO   OCC          E(Eh)            E(eV)
   0   2.0000     -20.552394      -559.2591
   1   2.0000     -20.551949      -559.2470
   2   2.0000     -11.277875      -306.8866
   3   2.0000     -11.274801      -306.8029
   4   2.0000     -11.274415      -306.7924
   5   2.0000     -11.212235      -305.1004
   6   2.0000      -1.377971       -37.4965
   7   2.0000      -1.351761       -36.7833
   8   2.0000      -1.039455       -28.2850
   9   2.0000      -0.977995       -26.6126
  10   2.0000      -0.846456       -23.0332
  11   2.0000      -0.831995       -22.6397
  12   2.0000      -0.695011       -18.9122
  13   2.0000      -0.680433       -18.5155
  14   2.0000      -0.652649       -17.7595
  15   2.0000      -0.623317       -16.9613
  16   2.0000      -0.614523       -16.7220
  17   2.0000      -0.560079       -15.2405
  18   2.0000      -0.551175       -14.9982
  19   2.0000      -0.531255       -14.4562
  20   2.0000      -0.501149       -13.6370
  21   2.0000      -0.497121       -13.5274
  22   2.0000      -0.472907       -12.8684
  23   2.0000      -0.442996       -12.0545
  24   2.0000      -0.423621       -11.5273
  25   0.0000       0.024326         0.6619
  26   0.0000       0.030178         0.8212
  27   0.0000       0.032870         0.8944
  28   0.0000       0.037365         1.0167
  29   0.0000       0.047809         1.3009

MULLIKEN ATOMIC CHARGES
-----------------------
   0 C :   -0.903669
   1 C :    0.074341
   2 C :   -0.039143
   3 C :   -0.019915
   4 O :   -0.819587
   5 O :   -0.869769
   6 H :    0.276436
   7 H :    0.233316
   8 H :    0.235805
   9 H :    0.236363
  10 H :    0.239379
  11 H :    0.221467
  12 H :    0.295500
  13 H :    0.261859
  14 H :    0.237725
  15 H :    0.339891
Sum of atomic charges:    0.0000000

LOEWDIN ATOMIC CHARGES
----------------------
   0 C :    0.907199
   1 C :    0.137300
   2 C :    0.171944
   3 C :    0.127891
   4 O :    1.265655
   5 O :    0.891807
   6 H :   -0.293383
   7 H :   -0.292246
   8 H :   -0.292000
   9 H :   -0.298971
  10 H :   -0.298026
  11 H :   -0.302147
  12 H :   -0.324838
  13 H :   -0.297841
  14 H :   -0.302475
  15 H :   -0.799868

  Mayer bond orders larger than 0.100000
B(  0-C ,  1-C ) :   0.8895 B(  0-C ,  6-H ) :   0.9844 B(  0-C ,  7-H ) :   0.9559
B(  0-C ,  8-H ) :   0.9487 B(  1-C ,  5-O ) :   0.8733 B(  1-C ,  9-H ) :   0.8775
B(  1-C , 10-H ) :   0.8711 B(  2-C ,  3-C ) :   0.9236 B(  2-C ,  4-O ) :   0.6374
B(  2-C , 11-H ) :   0.9877 B(  2-C , 12-H ) :   0.8823 B(  3-C ,  5-O ) :   0.8197
B(  3-C , 13-H ) :   0.8632 B(  3-C , 14-H ) :   0.8751 B(  4-O , 15-H ) :   0.8685

MP2 TOTAL ENERGY:     -308.404797445 Eh
FINAL SINGLE POINT ENERGY      -308.404797444697

DIPOLE MOMENT
-------------
                                X             Y             Z
Electronic contribution:      4.28713      -1.49172      -0.30999
Nuclear contribution   :     -4.53619       2.48918       0.88940
                        -----------------------------------------
Total Dipole Moment    :     -0.24906       0.99746       0.57941
                        -----------------------------------------
Magnitude (a.u.)       :      1.18011
Magnitude (Debye)      :      2.99961

Rotational constants in cm-1:     0.313208     0.050495     0.046790
Rotational constants in MHz :  9389.734286  1513.812879  1402.717515

                             ****ORCA TERMINATED NORMALLY****
TOTAL RUN TIME: 0 days 0 hours 30 minutes 45 seconds 126 msec
