                         Program Version 5.0.4 -  RELEASE  -
|  1> !ri-mp2 aug-cc-pvqz aug-cc-pvqz/c tightscf
|  2> %pal nprocs 16 end
|  3>
|  4> * xyz 0 1
|  5> C     -1.519478   -0.306091    0.116403
|  6> N     -2.579509   -0.707080   -0.081472
|  7> C     -0.053322    1.653906   -0.147603
|  8> H     -0.178135    1.700270   -1.229566
|  9> H     -0.816479    2.281556    0.309582
| 10> H      0.921467    2.065882    0.106210
| 11> C      2.314757   -0.422465    0.087354
| 12> H      2.455299   -0.421432    1.170184
| 13> H      2.992332   -1.166370   -0.331717
| 14> H      2.625607    0.550800   -0.292013
| 15> C      0.870992   -0.753554   -0.283413
| 16> H      0.745929   -0.734085   -1.368367
| 17> H      0.638768   -1.770647    0.035713
| 18> C     -0.164996    0.202947    0.349922
| 19> H     -0.015943    0.195124    1.434302
| 20> *
| 21>
| 22>                          ****END OF INPUT****

CARTESIAN COORDINATES (ANGSTROEM)
---------------------------------
  C     -1.519478   -0.306091    0.116403
  N     -2.579509   -0.707080   -0.081472
  C     -0.053322    1.653906   -0.147603
  H     -0.178135    1.700270   -1.229566
  H     -0.816479    2.281556    0.309582
  H      0.921467    2.065882    0.106210
  C      2.314757   -0.422465    0.087354
  H      2.455299   -0.421432    1.170184
  H      2.992332   -1.166370   -0.331717
  H      2.625607    0.550800   -0.292013
  C      0.870992   -0.753554   -0.283413
  H      0.745929   -0.734085   -1.368367
  H      0.638768   -1.770647    0.035713
  C     -0.164996    0.202947    0.349922
  H     -0.015943    0.195124    1.434302

 Total Charge           Charge          ....    0
 Multiplicity           Mult            ....    1
 Number of Electrons    NEL             ....   46
 Basis Dimension        Dim             ....  894

ORBITAL ENERGIES
----------------

  NO   OCC          E(Eh)            E(eV)
   0   2.0000     -15.560821      -423.4315
   1   2.0000     -11.283767      -307.0469
   2   2.0000     -11.264224      -306.5151
   3   2.0000     -11.247486      -306.0597
   4   2.0000     -11.241213      -305.8890
   5   2.0000     -11.231762      -305.6318
   6   2.0000      -1.217617       -33.1330
   7   2.0000      -1.116159       -30.3722
   8   2.0000      -1.013570       -27.5806
   9   2.0000      -0.920849       -25.0576
  10   2.0000      -0.834403       -22.7053
  11   2.0000      -0.706034       -19.2122
  12   2.0000      -0.657841       -17.9008
  13   2.0000      -0.613385       -16.6911
  14   2.0000      -0.588295       -16.0083
  15   2.0000      -0.564098       -15.3499
  16   2.0000      -0.556842       -15.1524
  17   2.0000      -0.544655       -14.8208
  18   2.0000      -0.518551       -14.1105
  19   2.0000      -0.507503       -13.8098
  20   2.0000      -0.499961       -13.6046
  21   2.0000      -0.452552       -12.3146
  22   2.0000      -0.449031       -12.2187
  23   0.0000       0.020554         0.5593
  24   0.0000       0.028550         0.7769
  25   0.0000       0.030554         0.8314
  26   0.0000       0.036984         1.0064
  27   0.0000       0.048022         1.3067

MULLIKEN ATOMIC CHARGES
-----------------------
   0 C :    0.492825
   1 N :   -0.762281
   2 C :   -0.897447
   3 H :    0.237401
   4 H :    0.306890
   5 H :    0.283616
   6 C :   -0.828357
   7 H :    0.209010
   8 H :    0.283799
   9 H :    0.236152
  10 C :   -0.381392
  11 H :    0.234326
  12 H :    0.263377
  13 C :    0.020429
  14 H :    0.301654
Sum of atomic charges:   -0.0000000

LOEWDIN ATOMIC CHARGES
----------------------
   0 C :   -0.278758
   1 N :    0.430947
   2 C :    0.919096
   3 H :   -0.270045
   4 H :   -0.272935
   5 H :   -0.289968
   6 C :    0.938235
   7 H :   -0.274645
   8 H :   -0.276535
   9 H :   -0.292722
  10 C :    0.497255
  11 H :   -0.269924
  12 H :   -0.276685
  13 C :    0.019389
  14 H :   -0.302706

  Mayer bond orders larger than 0.100000
B(  0-C ,  1-N ) :   2.3598 B(  0-C , 13-C ) :   1.1387 B(  2-C ,  3-H ) :   0.9535
B(  2-C ,  4-H ) :   0.9466 B(  2-C ,  5-H ) :   0.9659 B(  2-C , 13-C ) :   0.8045
B(  6-C ,  7-H ) :   0.9609 B(  6-C ,  8-H ) :   0.9803 B(  6-C ,  9-H ) :   0.9544
B(  6-C , 10-C ) :   0.9491 B( 10-C , 11-H ) :   0.9059 B( 10-C , 12-H ) :   0.8788
B( 10-C , 13-C ) :   0.8382 B( 13-C , 14-H ) :   0.8482

MP2 TOTAL ENERGY:     -250.243934218 Eh
FINAL SINGLE POINT ENERGY      -250.243934217607

DIPOLE MOMENT
-------------
                                X             Y             Z
Electronic contribution:     -8.05180      -2.22467       0.38476
Nuclear contribution   :      9.72020       2.80262      -0.17266
                        -----------------------------------------
Total Dipole Moment    :      1.66840       0.57795       0.21210
                        -----------------------------------------
Magnitude (a.u.)       :      1.77836
Magnitude (Debye)      :      4.52022

Rotational constants in cm-1:     0.214785     0.073722     0.058794
Rotational constants in MHz :  6439.084302  2210.120823  1762.606341

                             ****ORCA TERMINATED NORMALLY****
TOTAL RUN TIME: 0 days 0 hours 30 minutes 23 seconds 283 msec
