                         Program Version 5.0.4 -  RELEASE  -
|  1> !ri-mp2 aug-cc-pvqz aug-cc-pvqz/c tightscf
|  2> %pal nprocs 16 end
|  3>
|  4> * xyz 0 1
|  5> S     -1.312415   -1.115521   -0.000006
|  6> N      1.348922   -0.797364    0.000029
|  7> N      2.371560   -0.112910   -0.000008
|  8> N      3.375724    0.402319   -0.000020
|  9> C      0.117911   -0.130110    0.000011
| 10> C     -0.182896    1.205002    0.000013
| 11> C     -2.320123    0.290783   -0.000010
| 12> C     -1.585097    1.436766    0.000000
| 13> H      0.562508    1.986411    0.000024
| 14> H     -3.390599    0.180287   -0.000019
| 15> H     -2.025487    2.422671    0.000000
| 16> *
| 17>
| 18>                          ****END OF INPUT****

CARTESIAN COORDINATES (ANGSTROEM)
---------------------------------
  S     -1.312415   -1.115521   -0.000006
  N      1.348922   -0.797364    0.000029
  N      2.371560   -0.112910   -0.000008
  N      3.375724    0.402319   -0.000020
  C      0.117911   -0.130110    0.000011
  C     -0.182896    1.205002    0.000013
  C     -2.320123    0.290783   -0.000010
  C     -1.585097    1.436766    0.000000
  H      0.562508    1.986411    0.000024
  H     -3.390599    0.180287   -0.000019
  H     -2.025487    2.422671    0.000000

 Total Charge           Charge          ....    0
 Multiplicity           Mult            ....    1
 Number of Electrons    NEL             ....   64
 Basis Dimension        Dim             ....  782

ORBITAL ENERGIES
----------------

  NO   OCC          E(Eh)            E(eV)
   0   2.0000     -91.991365     -2503.2123
   1   2.0000     -15.801432      -429.9788
   2   2.0000     -15.690540      -426.9613
   3   2.0000     -15.632319      -425.3770
   4   2.0000     -11.321860      -308.0835
   5   2.0000     -11.264515      -306.5230
   6   2.0000     -11.247299      -306.0546
   7   2.0000     -11.242615      -305.9271
   8   2.0000      -8.992767      -244.7056
   9   2.0000      -6.674014      -181.6091
  10   2.0000      -6.673551      -181.5966
  11   2.0000      -6.672795      -181.5760
  12   2.0000      -1.528959       -41.6051
  13   2.0000      -1.325493       -36.0685
  14   2.0000      -1.178185       -32.0600
  15   2.0000      -1.014204       -27.5979
  16   2.0000      -0.997138       -27.1335
  17   2.0000      -0.867822       -23.6146
  18   2.0000      -0.781194       -21.2574
  19   2.0000      -0.726509       -19.7693
  20   2.0000      -0.723665       -19.6919
  21   2.0000      -0.717559       -19.5258
  22   2.0000      -0.690506       -18.7896
  23   2.0000      -0.631159       -17.1747
  24   2.0000      -0.571619       -15.5545
  25   2.0000      -0.548581       -14.9276
  26   2.0000      -0.545780       -14.8514
  27   2.0000      -0.486099       -13.2274
  28   2.0000      -0.469422       -12.7736
  29   2.0000      -0.445512       -12.1230
  30   2.0000      -0.358949        -9.7675
  31   2.0000      -0.305916        -8.3244
  32   0.0000       0.024811         0.6751
  33   0.0000       0.030612         0.8330
  34   0.0000       0.038578         1.0498
  35   0.0000       0.054913         1.4943
  36   0.0000       0.061942         1.6855

MULLIKEN ATOMIC CHARGES
-----------------------
   0 S :    0.371212
   1 N :   -0.309656
   2 N :    0.226438
   3 N :   -0.258095
   4 C :    0.174366
   5 C :   -0.330963
   6 C :   -0.783113
   7 C :   -0.220489
   8 H :    0.371310
   9 H :    0.403117
  10 H :    0.355874
Sum of atomic charges:    0.0000000

LOEWDIN ATOMIC CHARGES
----------------------
   0 S :    1.328096
   1 N :    0.223629
   2 N :   -0.280646
   3 N :    0.389755
   4 C :   -0.846808
   5 C :    0.167184
   6 C :   -0.079631
   7 C :    0.181415
   8 H :   -0.339624
   9 H :   -0.412311
  10 H :   -0.331059

  Mayer bond orders larger than 0.100000
B(  0-S ,  4-C ) :   1.0472 B(  0-S ,  6-C ) :   1.2715 B(  1-N ,  2-N ) :   1.3631
B(  1-N ,  3-N ) :   0.1886 B(  1-N ,  4-C ) :   0.7651 B(  2-N ,  3-N ) :   2.3262
B(  2-N ,  4-C ) :  -0.1654 B(  4-C ,  5-C ) :   1.3554 B(  4-C ,  6-C ) :  -0.1762
B(  4-C ,  7-C ) :  -0.1841 B(  5-C ,  7-C ) :   1.0777 B(  5-C ,  8-H ) :   0.8941
B(  6-C ,  7-C ) :   1.4587 B(  6-C ,  9-H ) :   0.8799 B(  7-C , 10-H ) :   0.9424

MP2 TOTAL ENERGY:     -715.649945338 Eh
FINAL SINGLE POINT ENERGY      -715.649945337520

DIPOLE MOMENT
-------------
                                X             Y             Z
Electronic contribution:      4.26142      -3.86718      -0.00002
Nuclear contribution   :     -4.58262       4.43796       0.00000
                        -----------------------------------------
Total Dipole Moment    :     -0.32119       0.57078      -0.00001
                        -----------------------------------------
Magnitude (a.u.)       :      0.65495
Magnitude (Debye)      :      1.66474

Rotational constants in cm-1:     0.161482     0.039164     0.031520
Rotational constants in MHz :  4841.122160  1174.116454   944.940268

                             ****ORCA TERMINATED NORMALLY****
TOTAL RUN TIME: 0 days 0 hours 22 minutes 26 seconds 38 msec
