                         Program Version 5.0.4 -  RELEASE  -
|  1> !ri-mp2 aug-cc-pvqz aug-cc-pvqz/c tightscf
|  2> %pal nprocs 16 end
|  3>
|  4> * xyz 0 1
|  5> F    -1.745208   -0.927739   -0.493927
|  6> F    -1.346524    0.380082    1.235265
|  7> O     2.196225   -0.085244    0.474269
|  8> O     0.848450   -1.764507   -0.054074
|  9> N     0.475358    1.931411   -0.401493
| 10> C     0.139589    0.538365   -0.608811
| 11> C    -1.288396    0.325650   -0.123236
| 12> C     1.157136   -0.455672    0.009476
| 13> H    -0.057623   -1.892498   -0.368997
| 14> H     1.337386    2.150616   -0.884107
| 15> H     0.664237    2.091296    0.582030
| 16> H     0.119355    0.341464   -1.684857
| 17> H    -1.972645    1.066109   -0.531789
| 18> *
| 19>
| 20>                          ****END OF INPUT****

CARTESIAN COORDINATES (ANGSTROEM)
---------------------------------
  F     -1.745208   -0.927739   -0.493927
  F     -1.346524    0.380082    1.235265
  O      2.196225   -0.085244    0.474269
  O      0.848450   -1.764507   -0.054074
  N      0.475358    1.931411   -0.401493
  C      0.139589    0.538365   -0.608811
  C     -1.288396    0.325650   -0.123236
  C      1.157136   -0.455672    0.009476
  H     -0.057623   -1.892498   -0.368997
  H      1.337386    2.150616   -0.884107
  H      0.664237    2.091296    0.582030
  H      0.119355    0.341464   -1.684857
  H     -1.972645    1.066109   -0.531789

 Total Charge           Charge          ....    0
 Multiplicity           Mult            ....    1
 Number of Electrons    NEL             ....   64
 Basis Dimension        Dim             ....  870

ORBITAL ENERGIES
----------------

  NO   OCC          E(Eh)            E(eV)
   0   2.0000     -26.342998      -716.8294
   1   2.0000     -26.334885      -716.6087
   2   2.0000     -20.619003      -561.0716
   3   2.0000     -20.558487      -559.4249
   4   2.0000     -15.576710      -423.8638
   5   2.0000     -11.438320      -311.2525
   6   2.0000     -11.399346      -310.1920
   7   2.0000     -11.318970      -308.0048
   8   2.0000      -1.687871       -45.9293
   9   2.0000      -1.628174       -44.3049
  10   2.0000      -1.473726       -40.1021
  11   2.0000      -1.379983       -37.5512
  12   2.0000      -1.233480       -33.5647
  13   2.0000      -1.048623       -28.5345
  14   2.0000      -0.935142       -25.4465
  15   2.0000      -0.847669       -23.0662
  16   2.0000      -0.814178       -22.1549
  17   2.0000      -0.791047       -21.5255
  18   2.0000      -0.775450       -21.1011
  19   2.0000      -0.739274       -20.1167
  20   2.0000      -0.710461       -19.3326
  21   2.0000      -0.687665       -18.7123
  22   2.0000      -0.674691       -18.3593
  23   2.0000      -0.659591       -17.9484
  24   2.0000      -0.643639       -17.5143
  25   2.0000      -0.631198       -17.1758
  26   2.0000      -0.600904       -16.3514
  27   2.0000      -0.587525       -15.9874
  28   2.0000      -0.548717       -14.9314
  29   2.0000      -0.493148       -13.4192
  30   2.0000      -0.477362       -12.9897
  31   2.0000      -0.437136       -11.8951
  32   0.0000       0.020501         0.5578
  33   0.0000       0.031795         0.8652
  34   0.0000       0.033762         0.9187
  35   0.0000       0.040480         1.1015
  36   0.0000       0.056977         1.5504

MULLIKEN ATOMIC CHARGES
-----------------------
   0 F :   -0.730181
   1 F :   -0.684786
   2 O :   -0.778176
   3 O :   -0.812204
   4 N :   -0.754215
   5 C :   -0.017488
   6 C :    0.871401
   7 C :    1.113718
   8 H :    0.398310
   9 H :    0.227519
  10 H :    0.279940
  11 H :    0.426010
  12 H :    0.460153
Sum of atomic charges:    0.0000000

LOEWDIN ATOMIC CHARGES
----------------------
   0 F :    0.843072
   1 F :    0.805766
   2 O :    0.686233
   3 O :    1.256707
   4 N :    1.270315
   5 C :   -0.164494
   6 C :   -1.004398
   7 C :   -1.019077
   8 H :   -0.965811
   9 H :   -0.499554
  10 H :   -0.515538
  11 H :   -0.314802
  12 H :   -0.378418

  Mayer bond orders larger than 0.100000
B(  0-F ,  6-C ) :   0.4534 B(  1-F ,  6-C ) :   0.4652 B(  2-O ,  5-C ) :   0.1038
B(  2-O ,  7-C ) :   1.4671 B(  3-O ,  5-C ) :   0.1033 B(  3-O ,  7-C ) :   0.7351
B(  3-O ,  8-H ) :   0.8196 B(  4-N ,  5-C ) :   0.7170 B(  4-N ,  9-H ) :   0.9406
B(  4-N , 10-H ) :   0.8645 B(  5-C ,  6-C ) :   0.9472 B(  5-C ,  7-C ) :   0.9725
B(  5-C , 11-H ) :   0.7675 B(  6-C , 12-H ) :   0.7646

MP2 TOTAL ENERGY:     -521.632280728 Eh
FINAL SINGLE POINT ENERGY      -521.632280728376

DIPOLE MOMENT
-------------
                                X             Y             Z
Electronic contribution:     -3.94377      -3.58123       2.42154
Nuclear contribution   :      3.07027       4.11312      -3.47460
                        -----------------------------------------
Total Dipole Moment    :     -0.87349       0.53189      -1.05306
                        -----------------------------------------
Magnitude (a.u.)       :      1.46794
Magnitude (Debye)      :      3.73120

Rotational constants in cm-1:     0.088365     0.061308     0.045697
Rotational constants in MHz :  2649.119520  1837.975396  1369.966112

                             ****ORCA TERMINATED NORMALLY****
TOTAL RUN TIME: 0 days 0 hours 23 minutes 8 seconds 832 msec
