                         Program Version 5.0.4 -  RELEASE  -
|  1> !ri-mp2 aug-cc-pvqz aug-cc-pvqz/c tightscf
|  2> %pal nprocs 16 end
|  3>
|  4> * xyz 0 1
|  5> O      3.930220    0.922903   -0.701602
|  6> O     -3.930220   -0.922899   -0.701611
|  7> O      3.973285   -0.836514    0.665513
|  8> O     -3.973285    0.836512    0.665510
|  9> C      3.332555    0.099218   -0.070156
| 10> C     -3.332555   -0.099217   -0.070161
| 11> C      1.886554    0.027690   -0.032419
| 12> C     -1.886554   -0.027691   -0.032422
| 13> C      0.677478    0.008906   -0.032785
| 14> C     -0.677478   -0.008907   -0.032786
| 15> H      3.342337   -1.424609    1.100947
| 16> H     -3.342337    1.424605    1.100948
| 17> *
| 18>
| 19>                          ****END OF INPUT****

CARTESIAN COORDINATES (ANGSTROEM)
---------------------------------
  O      3.930220    0.922903   -0.701602
  O     -3.930220   -0.922899   -0.701611
  O      3.973285   -0.836514    0.665513
  O     -3.973285    0.836512    0.665510
  C      3.332555    0.099218   -0.070156
  C     -3.332555   -0.099217   -0.070161
  C      1.886554    0.027690   -0.032419
  C     -1.886554   -0.027691   -0.032422
  C      0.677478    0.008906   -0.032785
  C     -0.677478   -0.008907   -0.032786
  H      3.342337   -1.424609    1.100947
  H     -3.342337    1.424605    1.100948

 Total Charge           Charge          ....    0
 Multiplicity           Mult            ....    1
 Number of Electrons    NEL             ....   70
 Basis Dimension        Dim             ....  892

ORBITAL ENERGIES
----------------

  NO   OCC          E(Eh)            E(eV)
   0   2.0000     -20.645645      -561.7966
   1   2.0000     -20.645644      -561.7965
   2   2.0000     -20.583254      -560.0988
   3   2.0000     -20.583254      -560.0988
   4   2.0000     -11.441597      -311.3417
   5   2.0000     -11.441597      -311.3417
   6   2.0000     -11.325278      -308.1765
   7   2.0000     -11.323968      -308.1408
   8   2.0000     -11.312267      -307.8224
   9   2.0000     -11.312239      -307.8217
  10   2.0000      -1.497266       -40.7427
  11   2.0000      -1.497258       -40.7425
  12   2.0000      -1.403153       -38.1817
  13   2.0000      -1.403151       -38.1817
  14   2.0000      -1.155026       -31.4299
  15   2.0000      -1.093157       -29.7463
  16   2.0000      -0.974748       -26.5243
  17   2.0000      -0.922614       -25.1056
  18   2.0000      -0.865848       -23.5609
  19   2.0000      -0.837761       -22.7966
  20   2.0000      -0.819188       -22.2912
  21   2.0000      -0.699092       -19.0232
  22   2.0000      -0.698860       -19.0169
  23   2.0000      -0.670033       -18.2325
  24   2.0000      -0.669577       -18.2201
  25   2.0000      -0.636356       -17.3161
  26   2.0000      -0.635149       -17.2833
  27   2.0000      -0.548868       -14.9355
  28   2.0000      -0.548608       -14.9284
  29   2.0000      -0.517979       -14.0949
  30   2.0000      -0.515659       -14.0318
  31   2.0000      -0.504592       -13.7306
  32   2.0000      -0.504395       -13.7253
  33   2.0000      -0.417953       -11.3731
  34   2.0000      -0.417302       -11.3554
  35   0.0000       0.011787         0.3207
  36   0.0000       0.021372         0.5816
  37   0.0000       0.021665         0.5895
  38   0.0000       0.034417         0.9365
  39   0.0000       0.047668         1.2971

MULLIKEN ATOMIC CHARGES
-----------------------
   0 O :   -0.685922
   1 O :   -0.685925
   2 O :   -0.699994
   3 O :   -0.700002
   4 C :    1.452650
   5 C :    1.452695
   6 C :    0.245494
   7 C :    0.245521
   8 C :   -0.677456
   9 C :   -0.677563
  10 H :    0.365249
  11 H :    0.365253
Sum of atomic charges:   -0.0000000

LOEWDIN ATOMIC CHARGES
----------------------
   0 O :    0.649612
   1 O :    0.649611
   2 O :    1.222435
   3 O :    1.222434
   4 C :   -1.127570
   5 C :   -1.127571
   6 C :    0.051247
   7 C :    0.051247
   8 C :    0.016537
   9 C :    0.016537
  10 H :   -0.812260
  11 H :   -0.812259

  Mayer bond orders larger than 0.100000
B(  0-O ,  2-O ) :   0.1150 B(  0-O ,  4-C ) :   1.4336 B(  0-O ,  6-C ) :   0.2051
B(  1-O ,  3-O ) :   0.1150 B(  1-O ,  5-C ) :   1.4336 B(  1-O ,  7-C ) :   0.2051
B(  2-O ,  4-C ) :   0.7019 B(  2-O , 10-H ) :   0.8561 B(  3-O ,  5-C ) :   0.7018
B(  3-O , 11-H ) :   0.8561 B(  4-C ,  6-C ) :   0.8401 B(  4-C ,  8-C ) :   0.1114
B(  4-C ,  9-C ) :   0.1269 B(  5-C ,  7-C ) :   0.8401 B(  5-C ,  8-C ) :   0.1268
B(  5-C ,  9-C ) :   0.1113 B(  6-C ,  7-C ) :   0.3405 B(  6-C ,  8-C ) :   2.9539
B(  6-C ,  9-C ) :  -0.3754 B(  7-C ,  8-C ) :  -0.3753 B(  7-C ,  9-C ) :   2.9540

MP2 TOTAL ENERGY:     -529.910576298 Eh
FINAL SINGLE POINT ENERGY      -529.910576297660

DIPOLE MOMENT
-------------
                                X             Y             Z
Electronic contribution:     -0.00000       0.00000      -0.72935
Nuclear contribution   :      0.00000      -0.00000       2.09536
                        -----------------------------------------
Total Dipole Moment    :     -0.00000      -0.00000       1.36601
                        -----------------------------------------
Magnitude (a.u.)       :      1.36601
Magnitude (Debye)      :      3.47211

Rotational constants in cm-1:     0.195050     0.011890     0.011713
Rotational constants in MHz :  5847.442947   356.450389   351.144225

                             ****ORCA TERMINATED NORMALLY****
TOTAL RUN TIME: 0 days 0 hours 26 minutes 20 seconds 501 msec
