                         Program Version 5.0.4 -  RELEASE  -
|  1> !ri-mp2 aug-cc-pvqz aug-cc-pvqz/c tightscf
|  2> %pal nprocs 16 end
|  3>
|  4> * xyz 0 1
|  5> C      1.798671    0.026140   -0.256881
|  6> C      0.665074   -0.290241    0.357148
|  7> C     -0.599255    0.505881    0.255208
|  8> O     -1.694874   -0.274273   -0.232077
|  9> H      2.690246   -0.577939   -0.155580
| 10> H      1.876485    0.910633   -0.878456
| 11> H      0.608435   -1.184136    0.970445
| 12> H     -0.440048    1.391472   -0.369265
| 13> H     -0.916428    0.847380    1.242042
| 14> H     -1.446641   -0.643903   -1.085425
| 15> *
| 16>
| 17>                          ****END OF INPUT****

CARTESIAN COORDINATES (ANGSTROEM)
---------------------------------
  C      1.798671    0.026140   -0.256881
  C      0.665074   -0.290241    0.357148
  C     -0.599255    0.505881    0.255208
  O     -1.694874   -0.274273   -0.232077
  H      2.690246   -0.577939   -0.155580
  H      1.876485    0.910633   -0.878456
  H      0.608435   -1.184136    0.970445
  H     -0.440048    1.391472   -0.369265
  H     -0.916428    0.847380    1.242042
  H     -1.446641   -0.643903   -1.085425

 Total Charge           Charge          ....    0
 Multiplicity           Mult            ....    1
 Number of Electrons    NEL             ....   32
 Basis Dimension        Dim             ....  596

ORBITAL ENERGIES
----------------

  NO   OCC          E(Eh)            E(eV)
   0   2.0000     -20.557619      -559.4013
   1   2.0000     -11.281746      -306.9919
   2   2.0000     -11.238046      -305.8028
   3   2.0000     -11.233052      -305.6669
   4   2.0000      -1.358532       -36.9675
   5   2.0000      -1.068199       -29.0672
   6   2.0000      -0.923431       -25.1278
   7   2.0000      -0.778207       -21.1761
   8   2.0000      -0.701405       -19.0862
   9   2.0000      -0.625245       -17.0138
  10   2.0000      -0.617133       -16.7930
  11   2.0000      -0.603913       -16.4333
  12   2.0000      -0.533400       -14.5145
  13   2.0000      -0.496323       -13.5056
  14   2.0000      -0.454389       -12.3646
  15   2.0000      -0.379225       -10.3192
  16   0.0000       0.025993         0.7073
  17   0.0000       0.034669         0.9434
  18   0.0000       0.036320         0.9883
  19   0.0000       0.039715         1.0807
  20   0.0000       0.052376         1.4252

MULLIKEN ATOMIC CHARGES
-----------------------
   0 C :   -0.895598
   1 C :   -0.447571
   2 C :    0.097431
   3 O :   -0.785699
   4 H :    0.370518
   5 H :    0.363319
   6 H :    0.464806
   7 H :    0.211825
   8 H :    0.287276
   9 H :    0.333694
Sum of atomic charges:   -0.0000000

LOEWDIN ATOMIC CHARGES
----------------------
   0 C :    0.787338
   1 C :    0.336905
   2 C :    0.138358
   3 O :    1.250052
   4 H :   -0.356640
   5 H :   -0.357570
   6 H :   -0.334991
   7 H :   -0.330246
   8 H :   -0.329398
   9 H :   -0.803808

  Mayer bond orders larger than 0.100000
B(  0-C ,  1-C ) :   1.8532 B(  0-C ,  4-H ) :   0.9268 B(  0-C ,  5-H ) :   0.8722
B(  1-C ,  2-C ) :   0.8790 B(  1-C ,  6-H ) :   0.7378 B(  2-C ,  3-O ) :   0.6962
B(  2-C ,  7-H ) :   0.9758 B(  2-C ,  8-H ) :   0.8885 B(  3-O ,  9-H ) :   0.8822

MP2 TOTAL ENERGY:     -192.811035106 Eh
FINAL SINGLE POINT ENERGY      -192.811035106435

DIPOLE MOMENT
-------------
                                X             Y             Z
Electronic contribution:     -1.81206      -0.66819       0.01674
Nuclear contribution   :      2.42683       0.76487      -0.28962
                        -----------------------------------------
Total Dipole Moment    :      0.61478       0.09668      -0.27288
                        -----------------------------------------
Magnitude (a.u.)       :      0.67953
Magnitude (Debye)      :      1.72723

Rotational constants in cm-1:     0.862345     0.143863     0.140665
Rotational constants in MHz : 25852.454598  4312.901533  4217.035789

                             ****ORCA TERMINATED NORMALLY****
TOTAL RUN TIME: 0 days 0 hours 7 minutes 37 seconds 485 msec
