                         Program Version 5.0.4 -  RELEASE  -
|  1> !ri-mp2 aug-cc-pvqz aug-cc-pvqz/c tightscf
|  2> %pal nprocs 16 end
|  3>
|  4> * xyz 0 1
|  5> C      2.315360   -0.488363    0.000127
|  6> C      1.228339    0.539082    0.000162
|  7> C     -0.105961    0.377961    0.000037
|  8> C     -1.055394    1.543354    0.000099
|  9> C     -0.727198   -0.958438   -0.000171
| 10> O     -1.927501   -1.139157   -0.000289
| 11> H      2.957003   -0.350602    0.874410
| 12> H      1.962408   -1.515125   -0.000023
| 13> H      2.957142   -0.350395   -0.874021
| 14> H      1.592453    1.563287    0.000311
| 15> H     -1.709375    1.509936    0.872664
| 16> H     -1.709240    1.510139   -0.872576
| 17> H     -0.516479    2.489320    0.000251
| 18> H     -0.044780   -1.824879   -0.000220
| 19> *
| 20>
| 21>                          ****END OF INPUT****

CARTESIAN COORDINATES (ANGSTROEM)
---------------------------------
  C      2.315360   -0.488363    0.000127
  C      1.228339    0.539082    0.000162
  C     -0.105961    0.377961    0.000037
  C     -1.055394    1.543354    0.000099
  C     -0.727198   -0.958438   -0.000171
  O     -1.927501   -1.139157   -0.000289
  H      2.957003   -0.350602    0.874410
  H      1.962408   -1.515125   -0.000023
  H      2.957142   -0.350395   -0.874021
  H      1.592453    1.563287    0.000311
  H     -1.709375    1.509936    0.872664
  H     -1.709240    1.510139   -0.872576
  H     -0.516479    2.489320    0.000251
  H     -0.044780   -1.824879   -0.000220

 Total Charge           Charge          ....    0
 Multiplicity           Mult            ....    1
 Number of Electrons    NEL             ....   46
 Basis Dimension        Dim             ....  848

ORBITAL ENERGIES
----------------

  NO   OCC          E(Eh)            E(eV)
   0   2.0000     -20.547758      -559.1329
   1   2.0000     -11.324779      -308.1629
   2   2.0000     -11.263459      -306.4943
   3   2.0000     -11.245633      -306.0092
   4   2.0000     -11.242124      -305.9137
   5   2.0000     -11.220817      -305.3340
   6   2.0000      -1.384142       -37.6644
   7   2.0000      -1.114649       -30.3311
   8   2.0000      -1.009200       -27.4617
   9   2.0000      -0.915139       -24.9022
  10   2.0000      -0.860809       -23.4238
  11   2.0000      -0.732228       -19.9249
  12   2.0000      -0.678637       -18.4666
  13   2.0000      -0.635407       -17.2903
  14   2.0000      -0.603074       -16.4105
  15   2.0000      -0.596103       -16.2208
  16   2.0000      -0.571813       -15.5598
  17   2.0000      -0.546927       -14.8826
  18   2.0000      -0.540630       -14.7113
  19   2.0000      -0.520565       -14.1653
  20   2.0000      -0.518969       -14.1219
  21   2.0000      -0.419083       -11.4038
  22   2.0000      -0.365670        -9.9504
  23   0.0000       0.020583         0.5601
  24   0.0000       0.029730         0.8090
  25   0.0000       0.034662         0.9432
  26   0.0000       0.035775         0.9735
  27   0.0000       0.046368         1.2617

MULLIKEN ATOMIC CHARGES
-----------------------
   0 C :   -0.670316
   1 C :   -0.434296
   2 C :    0.025819
   3 C :   -0.691993
   4 C :    0.589105
   5 O :   -0.776644
   6 H :    0.225097
   7 H :    0.281674
   8 H :    0.225098
   9 H :    0.266319
  10 H :    0.215101
  11 H :    0.215100
  12 H :    0.261225
  13 H :    0.268712
Sum of atomic charges:    0.0000000

LOEWDIN ATOMIC CHARGES
----------------------
   0 C :    0.913448
   1 C :    0.387430
   2 C :   -0.077642
   3 C :    0.855789
   4 C :   -0.273612
   5 O :    0.715606
   6 H :   -0.284372
   7 H :   -0.338651
   8 H :   -0.284372
   9 H :   -0.323693
  10 H :   -0.291305
  11 H :   -0.291304
  12 H :   -0.313497
  13 H :   -0.393827

  Mayer bond orders larger than 0.100000
B(  0-C ,  1-C ) :   0.8784 B(  0-C ,  2-C ) :  -0.1194 B(  0-C ,  6-H ) :   1.0043
B(  0-C ,  7-H ) :   0.9406 B(  0-C ,  8-H ) :   1.0042 B(  1-C ,  2-C ) :   1.3835
B(  1-C ,  9-H ) :   0.9624 B(  2-C ,  3-C ) :   0.7393 B(  2-C ,  4-C ) :   0.9588
B(  2-C ,  5-O ) :   0.2399 B(  2-C , 13-H ) :  -0.1000 B(  3-C , 10-H ) :   1.0049
B(  3-C , 11-H ) :   1.0049 B(  3-C , 12-H ) :   0.9899 B(  4-C ,  5-O ) :   1.2096
B(  4-C , 13-H ) :   1.0212

MP2 TOTAL ENERGY:     -270.090326618 Eh
FINAL SINGLE POINT ENERGY      -270.090326617591

DIPOLE MOMENT
-------------
                                X             Y             Z
Electronic contribution:     -4.08964      -2.63764      -0.00064
Nuclear contribution   :      5.60627       3.09517       0.00081
                        -----------------------------------------
Total Dipole Moment    :      1.51663       0.45753       0.00018
                        -----------------------------------------
Magnitude (a.u.)       :      1.58414
Magnitude (Debye)      :      4.02656

Rotational constants in cm-1:     0.187396     0.086236     0.060359
Rotational constants in MHz :  5617.989285  2585.281038  1809.521321

                             ****ORCA TERMINATED NORMALLY****
TOTAL RUN TIME: 0 days 0 hours 25 minutes 30 seconds 920 msec
