                         Program Version 5.0.4 -  RELEASE  -
|  1> !ri-mp2 aug-cc-pvqz aug-cc-pvqz/c tightscf
|  2> %pal nprocs 16 end
|  3>
|  4> * xyz 0 1
|  5> C     0.000000     0.000000   -1.831849
|  6> C     0.000000     1.195324   -1.129066
|  7> C     0.000000    -1.195324   -1.129066
|  8> C     0.000000     1.155404    0.265392
|  9> C     0.000000    -1.155404    0.265392
| 10> C     0.000000     2.411589    1.091716
| 11> C     0.000000    -2.411589    1.091716
| 12> N     0.000000     0.000000    0.937784
| 13> H     0.000000     0.000000   -2.914051
| 14> H     0.000000     2.144159   -1.647425
| 15> H     0.000000    -2.144159   -1.647425
| 16> H    -0.876787     2.436350    1.740225
| 17> H     0.876787     2.436350    1.740225
| 18> H     0.000000     3.304826    0.469053
| 19> H     0.000000    -3.304826    0.469053
| 20> H     0.876787    -2.436350    1.740225
| 21> H    -0.876787    -2.436350    1.740225
| 22> *
| 23>
| 24>                          ****END OF INPUT****

CARTESIAN COORDINATES (ANGSTROEM)
---------------------------------
  C      0.000000    0.000000   -1.831849
  C      0.000000    1.195324   -1.129066
  C      0.000000   -1.195324   -1.129066
  C      0.000000    1.155404    0.265392
  C      0.000000   -1.155404    0.265392
  C      0.000000    2.411589    1.091716
  C      0.000000   -2.411589    1.091716
  N      0.000000    0.000000    0.937784
  H      0.000000    0.000000   -2.914051
  H      0.000000    2.144159   -1.647425
  H      0.000000   -2.144159   -1.647425
  H     -0.876787    2.436350    1.740225
  H      0.876787    2.436350    1.740225
  H      0.000000    3.304826    0.469053
  H      0.000000   -3.304826    0.469053
  H      0.876787   -2.436350    1.740225
  H     -0.876787   -2.436350    1.740225

 Total Charge           Charge          ....    0
 Multiplicity           Mult            ....    1
 Number of Electrons    NEL             ....   58
 Basis Dimension        Dim             .... 1054

ORBITAL ENERGIES
----------------

  NO   OCC          E(Eh)            E(eV)
   0   2.0000     -15.546376      -423.0384
   1   2.0000     -11.275527      -306.8227
   2   2.0000     -11.275510      -306.8222
   3   2.0000     -11.250989      -306.1550
   4   2.0000     -11.226164      -305.4795
   5   2.0000     -11.226120      -305.4782
   6   2.0000     -11.218450      -305.2696
   7   2.0000     -11.218450      -305.2695
   8   2.0000      -1.255331       -34.1593
   9   2.0000      -1.080987       -29.4151
  10   2.0000      -1.070211       -29.1219
  11   2.0000      -0.975976       -26.5577
  12   2.0000      -0.932768       -25.3819
  13   2.0000      -0.831476       -22.6256
  14   2.0000      -0.810519       -22.0553
  15   2.0000      -0.685373       -18.6499
  16   2.0000      -0.670375       -18.2418
  17   2.0000      -0.618977       -16.8432
  18   2.0000      -0.592912       -16.1340
  19   2.0000      -0.577446       -15.7131
  20   2.0000      -0.569243       -15.4899
  21   2.0000      -0.567304       -15.4371
  22   2.0000      -0.534489       -14.5442
  23   2.0000      -0.534170       -14.5355
  24   2.0000      -0.502255       -13.6670
  25   2.0000      -0.499108       -13.5814
  26   2.0000      -0.404918       -11.0184
  27   2.0000      -0.375173       -10.2090
  28   2.0000      -0.327489        -8.9114
  29   0.0000       0.024896         0.6775
  30   0.0000       0.028046         0.7632
  31   0.0000       0.030455         0.8287
  32   0.0000       0.040618         1.1053
  33   0.0000       0.042226         1.1490

MULLIKEN ATOMIC CHARGES
-----------------------
   0 C :   -0.152187
   1 C :   -0.468177
   2 C :   -0.468140
   3 C :    0.463229
   4 C :    0.463197
   5 C :   -0.802509
   6 C :   -0.802483
   7 N :   -0.528982
   8 H :    0.234446
   9 H :    0.286033
  10 H :    0.286058
  11 H :    0.265187
  12 H :    0.265187
  13 H :    0.214389
  14 H :    0.214383
  15 H :    0.265185
  16 H :    0.265185
Sum of atomic charges:   -0.0000000

LOEWDIN ATOMIC CHARGES
----------------------
   0 C :    0.342952
   1 C :    0.340656
   2 C :    0.340656
   3 C :   -0.333493
   4 C :   -0.333493
   5 C :    0.892328
   6 C :    0.892328
   7 N :    0.620316
   8 H :   -0.310932
   9 H :   -0.329997
  10 H :   -0.329997
  11 H :   -0.291459
  12 H :   -0.291459
  13 H :   -0.312744
  14 H :   -0.312744
  15 H :   -0.291459
  16 H :   -0.291459

  Mayer bond orders larger than 0.100000
B(  0-C ,  1-C ) :   1.2506 B(  0-C ,  2-C ) :   1.2506 B(  0-C ,  3-C ) :  -0.2544
B(  0-C ,  4-C ) :  -0.2544 B(  0-C ,  8-H ) :   1.1322 B(  1-C ,  2-C ) :   0.1009
B(  1-C ,  3-C ) :   1.0640 B(  1-C ,  7-N ) :   0.1098 B(  1-C ,  8-H ) :  -0.1249
B(  1-C ,  9-H ) :   1.0003 B(  2-C ,  4-C ) :   1.0640 B(  2-C ,  7-N ) :   0.1098
B(  2-C ,  8-H ) :  -0.1249 B(  2-C , 10-H ) :   1.0003 B(  3-C ,  5-C ) :   0.6586
B(  3-C ,  7-N ) :   1.0682 B(  3-C , 13-H ) :  -0.1116 B(  4-C ,  6-C ) :   0.6586
B(  4-C ,  7-N ) :   1.0681 B(  4-C , 14-H ) :  -0.1116 B(  5-C , 11-H ) :   0.9774
B(  5-C , 12-H ) :   0.9774 B(  5-C , 13-H ) :   1.0823 B(  6-C , 14-H ) :   1.0823
B(  6-C , 15-H ) :   0.9774 B(  6-C , 16-H ) :   0.9774

MP2 TOTAL ENERGY:     -326.333433087 Eh
FINAL SINGLE POINT ENERGY      -326.333433087394

DIPOLE MOMENT
-------------
                                X             Y             Z
Electronic contribution:     -0.00000      -0.00000      -2.31784
Nuclear contribution   :      0.00000       0.00000       1.72365
                        -----------------------------------------
Total Dipole Moment    :     -0.00000      -0.00000      -0.59419
                        -----------------------------------------
Magnitude (a.u.)       :      0.59419
Magnitude (Debye)      :      1.51031

Rotational constants in cm-1:     0.117617     0.063754     0.041982
Rotational constants in MHz :  3526.062802  1911.298088  1258.589007

                             ****ORCA TERMINATED NORMALLY****
TOTAL RUN TIME: 0 days 0 hours 44 minutes 45 seconds 742 msec
