                         Program Version 5.0.4 -  RELEASE  -
|  1> !ri-mp2 aug-cc-pvqz aug-cc-pvqz/c tightscf
|  2> %pal nprocs 16 end
|  3>
|  4> * xyz 0 1
|  5> S     -1.176502    1.188742    0.000000
|  6> S      3.433639    0.144524    0.000000
|  7> N     -1.439432   -1.384848    0.000000
|  8> N      0.798861   -0.695105    0.000000
|  9> C     -0.535866   -0.452056    0.000000
| 10> C     -2.765808    0.515362    0.000000
| 11> C     -2.694196   -0.843269    0.000000
| 12> C      1.922253   -0.288941    0.000000
| 13> H     -3.639896    1.143256    0.000000
| 14> H     -3.548597   -1.502417    0.000000
| 15> *
| 16>
| 17>                          ****END OF INPUT****

CARTESIAN COORDINATES (ANGSTROEM)
---------------------------------
  S     -1.176502    1.188742    0.000000
  S      3.433639    0.144524    0.000000
  N     -1.439432   -1.384848    0.000000
  N      0.798861   -0.695105    0.000000
  C     -0.535866   -0.452056    0.000000
  C     -2.765808    0.515362    0.000000
  C     -2.694196   -0.843269    0.000000
  C      1.922253   -0.288941    0.000000
  H     -3.639896    1.143256    0.000000
  H     -3.548597   -1.502417    0.000000

 Total Charge           Charge          ....    0
 Multiplicity           Mult            ....    1
 Number of Electrons    NEL             ....   72
 Basis Dimension        Dim             ....  740

ORBITAL ENERGIES
----------------

  NO   OCC          E(Eh)            E(eV)
   0   2.0000     -92.015274     -2503.8629
   1   2.0000     -91.971664     -2502.6762
   2   2.0000     -15.634103      -425.4256
   3   2.0000     -15.587461      -424.1564
   4   2.0000     -11.403372      -310.3015
   5   2.0000     -11.383315      -309.7557
   6   2.0000     -11.285965      -307.1067
   7   2.0000     -11.281248      -306.9784
   8   2.0000      -9.016748      -245.3582
   9   2.0000      -8.975569      -244.2376
  10   2.0000      -6.697881      -182.2586
  11   2.0000      -6.697373      -182.2448
  12   2.0000      -6.696626      -182.2245
  13   2.0000      -6.657294      -181.1542
  14   2.0000      -6.654984      -181.0913
  15   2.0000      -6.654850      -181.0877
  16   2.0000      -1.349971       -36.7346
  17   2.0000      -1.284497       -34.9529
  18   2.0000      -1.087827       -29.6013
  19   2.0000      -1.078456       -29.3463
  20   2.0000      -1.018191       -27.7064
  21   2.0000      -0.901445       -24.5296
  22   2.0000      -0.815982       -22.2040
  23   2.0000      -0.727396       -19.7934
  24   2.0000      -0.658509       -17.9190
  25   2.0000      -0.638780       -17.3821
  26   2.0000      -0.638115       -17.3640
  27   2.0000      -0.616770       -16.7832
  28   2.0000      -0.556246       -15.1362
  29   2.0000      -0.555434       -15.1141
  30   2.0000      -0.522873       -14.2281
  31   2.0000      -0.458399       -12.4737
  32   2.0000      -0.421951       -11.4819
  33   2.0000      -0.399981       -10.8840
  34   2.0000      -0.388135       -10.5617
  35   2.0000      -0.331137        -9.0107
  36   0.0000       0.021286         0.5792
  37   0.0000       0.032465         0.8834
  38   0.0000       0.040294         1.0964
  39   0.0000       0.050022         1.3612
  40   0.0000       0.054568         1.4849

MULLIKEN ATOMIC CHARGES
-----------------------
   0 S :    0.382618
   1 S :    0.048373
   2 N :   -0.541712
   3 N :   -0.522630
   4 C :    0.502695
   5 C :   -0.768067
   6 C :   -0.325386
   7 C :    0.232125
   8 H :    0.485236
   9 H :    0.506747
Sum of atomic charges:   -0.0000000

LOEWDIN ATOMIC CHARGES
----------------------
   0 S :    1.335532
   1 S :    0.985733
   2 N :    0.458300
   3 N :    0.261289
   4 C :   -1.063461
   5 C :   -0.098882
   6 C :   -0.077442
   7 C :   -1.033483
   8 H :   -0.412094
   9 H :   -0.355494

  Mayer bond orders larger than 0.100000
B(  0-S ,  4-C ) :   0.9929 B(  0-S ,  5-C ) :   1.2530 B(  1-S ,  7-C ) :   1.5594
B(  2-N ,  4-C ) :   1.3078 B(  2-N ,  6-C ) :   1.2175 B(  3-N ,  4-C ) :   0.9640
B(  3-N ,  7-C ) :   2.1139 B(  4-C ,  5-C ) :  -0.1137 B(  5-C ,  6-C ) :   1.5047
B(  5-C ,  8-H ) :   0.7536 B(  6-C ,  9-H ) :   0.7917

MP2 TOTAL ENERGY:    -1058.165378366 Eh
FINAL SINGLE POINT ENERGY     -1058.165378365971

DIPOLE MOMENT
-------------
                                X             Y             Z
Electronic contribution:      5.97162       1.05807      -0.00000
Nuclear contribution   :     -6.90580      -0.39228       0.00000
                        -----------------------------------------
Total Dipole Moment    :     -0.93418       0.66579      -0.00000
                        -----------------------------------------
Magnitude (a.u.)       :      1.14715
Magnitude (Debye)      :      2.91584

Rotational constants in cm-1:     0.171349     0.023647     0.020779
Rotational constants in MHz :  5136.912881   708.906885   622.939648

                             ****ORCA TERMINATED NORMALLY****
TOTAL RUN TIME: 0 days 0 hours 17 minutes 13 seconds 512 msec
