                         Program Version 5.0.4 -  RELEASE  -
|  1> !ri-mp2 aug-cc-pvqz aug-cc-pvqz/c tightscf
|  2> %pal nprocs 16 end
|  3> %maxcore 3800
|  4>
|  5> * xyz 0 1
|  6> C      0.031636    2.129960    0.000000
|  7> C      0.022160    1.426629    1.197036
|  8> C      0.022160    1.426629   -1.197036
|  9> C      0.000741    0.035768    1.220838
| 10> C      0.000741    0.035768   -1.220838
| 11> C     -0.014016   -0.663674    0.000000
| 12> C      0.000741   -0.713836    2.525634
| 13> C      0.000741   -0.713836   -2.525634
| 14> N      0.019170   -2.060830    0.000000
| 15> H      0.048473    3.210934    0.000000
| 16> H      0.033219    1.964237    2.137086
| 17> H      0.033219    1.964237   -2.137086
| 18> H     -0.899053   -1.326444    2.647724
| 19> H      0.860065   -1.385263    2.606507
| 20> H      0.037075   -0.025129    3.367762
| 21> H      0.860065   -1.385263   -2.606507
| 22> H     -0.899053   -1.326444   -2.647724
| 23> H      0.037075   -0.025129   -3.367762
| 24> H     -0.317355   -2.510195   -0.834773
| 25> H     -0.317355   -2.510195    0.834773
| 26> *
| 27>
| 28>                          ****END OF INPUT****

CARTESIAN COORDINATES (ANGSTROEM)
---------------------------------
  C      0.031636    2.129960    0.000000
  C      0.022160    1.426629    1.197036
  C      0.022160    1.426629   -1.197036
  C      0.000741    0.035768    1.220838
  C      0.000741    0.035768   -1.220838
  C     -0.014016   -0.663674    0.000000
  C      0.000741   -0.713836    2.525634
  C      0.000741   -0.713836   -2.525634
  N      0.019170   -2.060830    0.000000
  H      0.048473    3.210934    0.000000
  H      0.033219    1.964237    2.137086
  H      0.033219    1.964237   -2.137086
  H     -0.899053   -1.326444    2.647724
  H      0.860065   -1.385263    2.606507
  H      0.037075   -0.025129    3.367762
  H      0.860065   -1.385263   -2.606507
  H     -0.899053   -1.326444   -2.647724
  H      0.037075   -0.025129   -3.367762
  H     -0.317355   -2.510195   -0.834773
  H     -0.317355   -2.510195    0.834773

 Total Charge           Charge          ....    0
 Multiplicity           Mult            ....    1
 Number of Electrons    NEL             ....   66
 Basis Dimension        Dim             .... 1226

ORBITAL ENERGIES
----------------

  NO   OCC          E(Eh)            E(eV)
   0   2.0000     -15.559991      -423.4089
   1   2.0000     -11.266436      -306.5753
   2   2.0000     -11.225768      -305.4687
   3   2.0000     -11.225741      -305.4679
   4   2.0000     -11.222068      -305.3680
   5   2.0000     -11.222067      -305.3680
   6   2.0000     -11.220739      -305.3318
   7   2.0000     -11.220663      -305.3298
   8   2.0000     -11.211389      -305.0774
   9   2.0000      -1.224417       -33.3181
  10   2.0000      -1.126114       -30.6431
  11   2.0000      -1.055480       -28.7211
  12   2.0000      -1.005804       -27.3693
  13   2.0000      -0.932187       -25.3661
  14   2.0000      -0.923043       -25.1173
  15   2.0000      -0.799933       -21.7673
  16   2.0000      -0.790515       -21.5110
  17   2.0000      -0.695177       -18.9167
  18   2.0000      -0.691320       -18.8118
  19   2.0000      -0.627142       -17.0654
  20   2.0000      -0.604455       -16.4480
  21   2.0000      -0.589937       -16.0530
  22   2.0000      -0.577202       -15.7065
  23   2.0000      -0.568558       -15.4713
  24   2.0000      -0.559615       -15.2279
  25   2.0000      -0.555648       -15.1199
  26   2.0000      -0.525224       -14.2921
  27   2.0000      -0.500947       -13.6315
  28   2.0000      -0.485406       -13.2086
  29   2.0000      -0.475545       -12.9402
  30   2.0000      -0.443929       -12.0799
  31   2.0000      -0.318843        -8.6761
  32   2.0000      -0.284727        -7.7478
  33   0.0000       0.023458         0.6383
  34   0.0000       0.027370         0.7448
  35   0.0000       0.029978         0.8157
  36   0.0000       0.039354         1.0709
  37   0.0000       0.040509         1.1023

MULLIKEN ATOMIC CHARGES
-----------------------
   0 C :   -0.264525
   1 C :   -0.695760
   2 C :   -0.695728
   3 C :    0.651329
   4 C :    0.651588
   5 C :    0.385012
   6 C :   -0.770072
   7 C :   -0.770123
   8 N :   -0.932020
   9 H :    0.202885
  10 H :    0.219771
  11 H :    0.219870
  12 H :    0.189781
  13 H :    0.200485
  14 H :    0.246376
  15 H :    0.200510
  16 H :    0.189811
  17 H :    0.246345
  18 H :    0.262219
  19 H :    0.262247
Sum of atomic charges:    0.0000000

LOEWDIN ATOMIC CHARGES
----------------------
   0 C :    0.348583
   1 C :    0.336207
   2 C :    0.336207
   3 C :   -0.060994
   4 C :   -0.060993
   5 C :   -0.213057
   6 C :    0.897729
   7 C :    0.897729
   8 N :    1.292415
   9 H :   -0.329876
  10 H :   -0.325219
  11 H :   -0.325219
  12 H :   -0.278895
  13 H :   -0.277527
  14 H :   -0.305707
  15 H :   -0.277527
  16 H :   -0.278895
  17 H :   -0.305707
  18 H :   -0.534625
  19 H :   -0.534625

  Mayer bond orders larger than 0.100000
B(  0-C ,  1-C ) :   1.2593 B(  0-C ,  2-C ) :   1.2593 B(  0-C ,  3-C ) :  -0.3972
B(  0-C ,  4-C ) :  -0.3973 B(  0-C ,  5-C ) :   0.2166 B(  0-C ,  9-H ) :   1.2252
B(  1-C ,  2-C ) :   0.3793 B(  1-C ,  3-C ) :   0.7748 B(  1-C ,  6-C ) :  -0.1363
B(  1-C ,  9-H ) :  -0.2068 B(  1-C , 10-H ) :   1.0648 B(  2-C ,  4-C ) :   0.7749
B(  2-C ,  7-C ) :  -0.1364 B(  2-C ,  9-H ) :  -0.2068 B(  2-C , 11-H ) :   1.0647
B(  3-C ,  4-C ) :  -0.1174 B(  3-C ,  5-C ) :   1.0268 B(  3-C ,  6-C ) :   0.5928
B(  3-C , 12-H ) :  -0.1231 B(  3-C , 13-H ) :  -0.1282 B(  3-C , 14-H ) :  -0.1062
B(  4-C ,  5-C ) :   1.0269 B(  4-C ,  7-C ) :   0.5927 B(  4-C , 15-H ) :  -0.1282
B(  4-C , 16-H ) :  -0.1232 B(  4-C , 17-H ) :  -0.1061 B(  5-C ,  8-N ) :   0.2729
B(  5-C , 18-H ) :  -0.1243 B(  5-C , 19-H ) :  -0.1243 B(  6-C , 12-H ) :   1.0470
B(  6-C , 13-H ) :   1.0403 B(  6-C , 14-H ) :   1.0449 B(  7-C , 15-H ) :   1.0403
B(  7-C , 16-H ) :   1.0470 B(  7-C , 17-H ) :   1.0450 B(  8-N , 18-H ) :   0.9962
B(  8-N , 19-H ) :   0.9961

MP2 TOTAL ENERGY:     -365.580834254 Eh
FINAL SINGLE POINT ENERGY      -365.580834254078

DIPOLE MOMENT
-------------
                                X             Y             Z
Electronic contribution:      0.19106       2.93271      -0.00000
Nuclear contribution   :     -0.53548      -3.44370      -0.00000
                        -----------------------------------------
Total Dipole Moment    :     -0.34441      -0.51099      -0.00000
                        -----------------------------------------
Magnitude (a.u.)       :      0.61622
Magnitude (Debye)      :      1.56632

Rotational constants in cm-1:     0.075939     0.058517     0.033485
Rotational constants in MHz :  2276.582921  1754.289680  1003.861983

                             ****ORCA TERMINATED NORMALLY****
TOTAL RUN TIME: 0 days 1 hours 9 minutes 12 seconds 720 msec
