                         Program Version 5.0.4 -  RELEASE  -
|  1> !ri-mp2 aug-cc-pvqz aug-cc-pvqz/c tightscf
|  2> %pal nprocs 16 end
|  3>
|  4> * xyz 0 1
|  5> C     0.000000     2.348442   -1.472492
|  6> C     0.000000     1.181572   -0.546325
|  7> C     0.000000     1.220509    0.796168
|  8> C     0.000000     0.000000    1.597720
|  9> O     0.000000     0.000000    2.824812
| 10> O     0.000000     0.000000   -1.229567
| 11> C     0.000000    -1.220509    0.796168
| 12> C     0.000000    -1.181572   -0.546325
| 13> C     0.000000    -2.348442   -1.472492
| 14> H     0.879762     2.324369   -2.118001
| 15> H     0.000000     3.279116   -0.911282
| 16> H    -0.879762     2.324369   -2.118001
| 17> H     0.000000     2.170852    1.309034
| 18> H     0.000000    -2.170852    1.309034
| 19> H     0.000000    -3.279116   -0.911282
| 20> H     0.879762    -2.324369   -2.118001
| 21> H    -0.879762    -2.324369   -2.118001
| 22> *
| 23>
| 24>                          ****END OF INPUT****

CARTESIAN COORDINATES (ANGSTROEM)
---------------------------------
  C      0.000000    2.348442   -1.472492
  C      0.000000    1.181572   -0.546325
  C      0.000000    1.220509    0.796168
  C      0.000000    0.000000    1.597720
  O      0.000000    0.000000    2.824812
  O      0.000000    0.000000   -1.229567
  C      0.000000   -1.220509    0.796168
  C      0.000000   -1.181572   -0.546325
  C      0.000000   -2.348442   -1.472492
  H      0.879762    2.324369   -2.118001
  H      0.000000    3.279116   -0.911282
  H     -0.879762    2.324369   -2.118001
  H      0.000000    2.170852    1.309034
  H      0.000000   -2.170852    1.309034
  H      0.000000   -3.279116   -0.911282
  H      0.879762   -2.324369   -2.118001
  H     -0.879762   -2.324369   -2.118001

 Total Charge           Charge          ....    0
 Multiplicity           Mult            ....    1
 Number of Electrons    NEL             ....   66
 Basis Dimension        Dim             .... 1088

ORBITAL ENERGIES
----------------

  NO   OCC          E(Eh)            E(eV)
   0   2.0000     -20.638221      -561.5946
   1   2.0000     -20.513162      -558.1915
   2   2.0000     -11.336742      -308.4884
   3   2.0000     -11.336715      -308.4877
   4   2.0000     -11.320187      -308.0379
   5   2.0000     -11.250016      -306.1285
   6   2.0000     -11.250015      -306.1285
   7   2.0000     -11.231830      -305.6336
   8   2.0000     -11.231814      -305.6332
   9   2.0000      -1.474764       -40.1304
  10   2.0000      -1.354512       -36.8581
  11   2.0000      -1.119610       -30.4661
  12   2.0000      -1.093262       -29.7492
  13   2.0000      -1.011819       -27.5330
  14   2.0000      -0.964102       -26.2346
  15   2.0000      -0.867715       -23.6117
  16   2.0000      -0.825046       -22.4507
  17   2.0000      -0.721953       -19.6453
  18   2.0000      -0.715343       -19.4655
  19   2.0000      -0.675773       -18.3887
  20   2.0000      -0.644154       -17.5283
  21   2.0000      -0.611573       -16.6417
  22   2.0000      -0.602064       -16.3830
  23   2.0000      -0.601276       -16.3615
  24   2.0000      -0.580864       -15.8061
  25   2.0000      -0.570757       -15.5311
  26   2.0000      -0.568304       -15.4643
  27   2.0000      -0.550610       -14.9829
  28   2.0000      -0.537431       -14.6242
  29   2.0000      -0.529489       -14.4081
  30   2.0000      -0.407709       -11.0943
  31   2.0000      -0.380504       -10.3540
  32   2.0000      -0.356172        -9.6919
  33   0.0000       0.018472         0.5027
  34   0.0000       0.023613         0.6425
  35   0.0000       0.032945         0.8965
  36   0.0000       0.035160         0.9568
  37   0.0000       0.041506         1.1294

MULLIKEN ATOMIC CHARGES
-----------------------
   0 C :   -0.697207
   1 C :    0.673704
   2 C :   -0.891721
   3 C :    1.204996
   4 O :   -0.867708
   5 O :   -0.589082
   6 C :   -0.891683
   7 C :    0.673591
   8 C :   -0.697159
   9 H :    0.284699
  10 H :    0.228482
  11 H :    0.284699
  12 H :    0.243258
  13 H :    0.243254
  14 H :    0.228480
  15 H :    0.284698
  16 H :    0.284698
Sum of atomic charges:   -0.0000000

LOEWDIN ATOMIC CHARGES
----------------------
   0 C :    0.907238
   1 C :   -0.401368
   2 C :    0.310073
   3 C :   -0.751558
   4 O :    0.667520
   5 O :    0.900919
   6 C :    0.310073
   7 C :   -0.401368
   8 C :    0.907238
   9 H :   -0.284021
  10 H :   -0.307116
  11 H :   -0.284021
  12 H :   -0.349226
  13 H :   -0.349226
  14 H :   -0.307116
  15 H :   -0.284021
  16 H :   -0.284021

  Mayer bond orders larger than 0.100000
B(  0-C ,  1-C ) :   0.5343 B(  0-C ,  9-H ) :   0.9663 B(  0-C , 10-H ) :   1.0640
B(  0-C , 11-H ) :   0.9663 B(  1-C ,  2-C ) :   1.3160 B(  1-C ,  3-C ) :  -0.3281
B(  1-C ,  5-O ) :   0.6976 B(  1-C , 10-H ) :  -0.1169 B(  2-C ,  3-C ) :   1.2885
B(  2-C ,  4-O ) :   0.2788 B(  2-C ,  5-O ) :   0.1488 B(  2-C ,  6-C ) :   0.1558
B(  2-C , 12-H ) :   0.9901 B(  3-C ,  4-O ) :   0.8382 B(  3-C ,  6-C ) :   1.2885
B(  3-C ,  7-C ) :  -0.3281 B(  4-O ,  6-C ) :   0.2788 B(  5-O ,  6-C ) :   0.1489
B(  5-O ,  7-C ) :   0.6977 B(  6-C ,  7-C ) :   1.3160 B(  6-C , 13-H ) :   0.9901
B(  7-C ,  8-C ) :   0.5343 B(  7-C , 14-H ) :  -0.1169 B(  8-C , 14-H ) :   1.0640
B(  8-C , 15-H ) :   0.9663 B(  8-C , 16-H ) :   0.9663

MP2 TOTAL ENERGY:     -421.332292251 Eh
FINAL SINGLE POINT ENERGY      -421.332292251340

DIPOLE MOMENT
-------------
                                X             Y             Z
Electronic contribution:      0.00000       0.00000       5.47037
Nuclear contribution   :      0.00000       0.00000      -7.63988
                        -----------------------------------------
Total Dipole Moment    :      0.00000       0.00000      -2.16950
                        -----------------------------------------
Magnitude (a.u.)       :      2.16950
Magnitude (Debye)      :      5.51443

Rotational constants in cm-1:     0.065368     0.059596     0.031538
Rotational constants in MHz :  1959.675014  1786.635114   945.492211

                             ****ORCA TERMINATED NORMALLY****
TOTAL RUN TIME: 0 days 1 hours 12 minutes 39 seconds 223 msec
