                         Program Version 5.0.4 -  RELEASE  -
|  1> !ri-mp2 aug-cc-pvqz aug-cc-pvqz/c tightscf
|  2> %pal nprocs 16 end
|  3>
|  4> * xyz 0 1
|  5> C     -0.983062   -2.154025    0.000000
|  6> C     -1.860094   -1.080555    0.000000
|  7> C      0.392477   -1.934250    0.000000
|  8> C     -1.369349    0.225898    0.000000
|  9> C      0.887643   -0.641461    0.000000
| 10> C      0.000000    0.446658    0.000000
| 11> C     -0.195214    2.837494    0.000000
| 12> O      2.233459   -0.428850    0.000000
| 13> O      0.616159    1.672471    0.000000
| 14> H     -1.361602   -3.166654    0.000000
| 15> H     -2.928255   -1.246184    0.000000
| 16> H      1.093761   -2.757095    0.000000
| 17> H     -2.058350    1.057052    0.000000
| 18> H     -0.824743    2.879274    0.891811
| 19> H     -0.824743    2.879274   -0.891811
| 20> H      0.488417    3.681876    0.000000
| 21> H      2.384168    0.524940    0.000000
| 22> *
| 23>
| 24>                          ****END OF INPUT****

CARTESIAN COORDINATES (ANGSTROEM)
---------------------------------
  C     -0.983062   -2.154025    0.000000
  C     -1.860094   -1.080555    0.000000
  C      0.392477   -1.934250    0.000000
  C     -1.369349    0.225898    0.000000
  C      0.887643   -0.641461    0.000000
  C      0.000000    0.446658    0.000000
  C     -0.195214    2.837494    0.000000
  O      2.233459   -0.428850    0.000000
  O      0.616159    1.672471    0.000000
  H     -1.361602   -3.166654    0.000000
  H     -2.928255   -1.246184    0.000000
  H      1.093761   -2.757095    0.000000
  H     -2.058350    1.057052    0.000000
  H     -0.824743    2.879274    0.891811
  H     -0.824743    2.879274   -0.891811
  H      0.488417    3.681876    0.000000
  H      2.384168    0.524940    0.000000

 Total Charge           Charge          ....    0
 Multiplicity           Mult            ....    1
 Number of Electrons    NEL             ....   66
 Basis Dimension        Dim             .... 1088

ORBITAL ENERGIES
----------------

  NO   OCC          E(Eh)            E(eV)
   0   2.0000     -20.594486      -560.4044
   1   2.0000     -20.578202      -559.9613
   2   2.0000     -11.297504      -307.4207
   3   2.0000     -11.293634      -307.3154
   4   2.0000     -11.293223      -307.3042
   5   2.0000     -11.236629      -305.7642
   6   2.0000     -11.229892      -305.5809
   7   2.0000     -11.228586      -305.5454
   8   2.0000     -11.227189      -305.5073
   9   2.0000      -1.426299       -38.8116
  10   2.0000      -1.388796       -37.7911
  11   2.0000      -1.146072       -31.1862
  12   2.0000      -1.022663       -27.8281
  13   2.0000      -1.012515       -27.5519
  14   2.0000      -0.950341       -25.8601
  15   2.0000      -0.830786       -22.6068
  16   2.0000      -0.825653       -22.4672
  17   2.0000      -0.744719       -20.2648
  18   2.0000      -0.708307       -19.2740
  19   2.0000      -0.677404       -18.4331
  20   2.0000      -0.667976       -18.1765
  21   2.0000      -0.630921       -17.1682
  22   2.0000      -0.619978       -16.8705
  23   2.0000      -0.597305       -16.2535
  24   2.0000      -0.585893       -15.9430
  25   2.0000      -0.567666       -15.4470
  26   2.0000      -0.542637       -14.7659
  27   2.0000      -0.514146       -13.9906
  28   2.0000      -0.508867       -13.8470
  29   2.0000      -0.496123       -13.5002
  30   2.0000      -0.469626       -12.7792
  31   2.0000      -0.334125        -9.0920
  32   2.0000      -0.303380        -8.2554
  33   0.0000       0.021807         0.5934
  34   0.0000       0.028137         0.7656
  35   0.0000       0.032047         0.8720
  36   0.0000       0.039607         1.0777
  37   0.0000       0.042472         1.1557

MULLIKEN ATOMIC CHARGES
-----------------------
   0 C :   -0.450584
   1 C :   -0.388479
   2 C :   -0.602908
   3 C :   -0.476604
   4 C :    1.122849
   5 C :    0.688502
   6 C :   -0.684427
   7 O :   -0.881544
   8 O :   -0.816060
   9 H :    0.233108
  10 H :    0.238223
  11 H :    0.365228
  12 H :    0.299003
  13 H :    0.252639
  14 H :    0.252639
  15 H :    0.489966
  16 H :    0.358450
Sum of atomic charges:   -0.0000000

LOEWDIN ATOMIC CHARGES
----------------------
   0 C :    0.323615
   1 C :    0.331643
   2 C :    0.319790
   3 C :    0.319299
   4 C :   -0.458019
   5 C :   -0.447471
   6 C :    0.595333
   7 O :    1.277901
   8 O :    0.884452
   9 H :   -0.328386
  10 H :   -0.328743
  11 H :   -0.326649
  12 H :   -0.355112
  13 H :   -0.305035
  14 H :   -0.305035
  15 H :   -0.316057
  16 H :   -0.881525

  Mayer bond orders larger than 0.100000
B(  0-C ,  1-C ) :   1.2877 B(  0-C ,  2-C ) :   1.2838 B(  0-C ,  4-C ) :  -0.2163
B(  0-C ,  9-H ) :   1.1454 B(  1-C ,  3-C ) :   1.0092 B(  1-C ,  4-C ) :   0.1107
B(  1-C ,  5-C ) :  -0.2327 B(  1-C ,  9-H ) :  -0.1339 B(  1-C , 10-H ) :   1.1303
B(  2-C ,  3-C ) :   0.1140 B(  2-C ,  4-C ) :   1.2401 B(  2-C ,  5-C ) :  -0.2603
B(  2-C ,  7-O ) :   0.2747 B(  2-C ,  9-H ) :  -0.1172 B(  2-C , 11-H ) :   0.8894
B(  3-C ,  5-C ) :   1.1477 B(  3-C ,  8-O ) :   0.1248 B(  3-C , 10-H ) :  -0.1483
B(  3-C , 12-H ) :   0.9936 B(  4-C ,  5-C ) :   1.3284 B(  4-C ,  7-O ) :  -0.3124
B(  4-C ,  8-O ) :   0.1010 B(  5-C ,  6-C ) :  -0.1285 B(  5-C ,  7-O ) :   0.4192
B(  5-C ,  8-O ) :   0.3596 B(  6-C ,  8-O ) :   0.9553 B(  6-C , 13-H ) :   0.9335
B(  6-C , 14-H ) :   0.9335 B(  6-C , 15-H ) :   0.7589 B(  7-O , 16-H ) :   0.8356

MP2 TOTAL ENERGY:     -421.336724578 Eh
FINAL SINGLE POINT ENERGY      -421.336724578323

DIPOLE MOMENT
-------------
                                X             Y             Z
Electronic contribution:      3.33877      -2.96193       0.00000
Nuclear contribution   :     -3.98045       3.86628       0.00000
                        -----------------------------------------
Total Dipole Moment    :     -0.64168       0.90435       0.00000
                        -----------------------------------------
Magnitude (a.u.)       :      1.10887
Magnitude (Debye)      :      2.81853

Rotational constants in cm-1:     0.087359     0.051898     0.032760
Rotational constants in MHz :  2618.969385  1555.869052   982.113791

                             ****ORCA TERMINATED NORMALLY****
TOTAL RUN TIME: 0 days 1 hours 2 minutes 9 seconds 14 msec
