                         Program Version 5.0.4 -  RELEASE  -
|  1> !ri-mp2 aug-cc-pvqz aug-cc-pvqz/c tightscf
|  2> %pal nprocs 16 end
|  3>
|  4> * xyz 0 1
|  5> O     -2.033653    0.612083   -0.561323
|  6> N     -1.365160   -1.096229    0.782146
|  7> N      1.209013    2.325640    0.584750
|  8> N      1.852388   -1.914574   -0.073469
|  9> C      0.319024    0.144506   -0.545846
| 10> C     -1.174935   -0.099455   -0.102612
| 11> C      0.820959    1.367480    0.085232
| 12> C      1.211308   -0.986418   -0.292477
| 13> H      0.261923    0.314072   -1.623641
| 14> H     -0.620032   -1.690702    1.101554
| 15> H     -2.304488   -1.280568    1.092902
| 16> *
| 17>
| 18>                          ****END OF INPUT****

CARTESIAN COORDINATES (ANGSTROEM)
---------------------------------
  O     -2.033653    0.612083   -0.561323
  N     -1.365160   -1.096229    0.782146
  N      1.209013    2.325640    0.584750
  N      1.852388   -1.914574   -0.073469
  C      0.319024    0.144506   -0.545846
  C     -1.174935   -0.099455   -0.102612
  C      0.820959    1.367480    0.085232
  C      1.211308   -0.986418   -0.292477
  H      0.261923    0.314072   -1.623641
  H     -0.620032   -1.690702    1.101554
  H     -2.304488   -1.280568    1.092902

 Total Charge           Charge          ....    0
 Multiplicity           Mult            ....    1
 Number of Electrons    NEL             ....   56
 Basis Dimension        Dim             ....  778

ORBITAL ENERGIES
----------------

  NO   OCC          E(Eh)            E(eV)
   0   2.0000     -20.570370      -559.7482
   1   2.0000     -15.631904      -425.3657
   2   2.0000     -15.621753      -425.0895
   3   2.0000     -15.607826      -424.7105
   4   2.0000     -11.418108      -310.7025
   5   2.0000     -11.374212      -309.5080
   6   2.0000     -11.324118      -308.1449
   7   2.0000     -11.312415      -307.8265
   8   2.0000      -1.441237       -39.2180
   9   2.0000      -1.283314       -34.9208
  10   2.0000      -1.262731       -34.3607
  11   2.0000      -1.257471       -34.2175
  12   2.0000      -1.131068       -30.7779
  13   2.0000      -0.874545       -23.7976
  14   2.0000      -0.813890       -22.1471
  15   2.0000      -0.793784       -21.5999
  16   2.0000      -0.758093       -20.6288
  17   2.0000      -0.694840       -18.9075
  18   2.0000      -0.655499       -17.8370
  19   2.0000      -0.615529       -16.7494
  20   2.0000      -0.608306       -16.5528
  21   2.0000      -0.590946       -16.0805
  22   2.0000      -0.539767       -14.6878
  23   2.0000      -0.522009       -14.2046
  24   2.0000      -0.507856       -13.8195
  25   2.0000      -0.501821       -13.6552
  26   2.0000      -0.465581       -12.6691
  27   2.0000      -0.461632       -12.5617
  28   0.0000       0.015341         0.4174
  29   0.0000       0.025528         0.6947
  30   0.0000       0.041336         1.1248
  31   0.0000       0.049883         1.3574
  32   0.0000       0.060787         1.6541

MULLIKEN ATOMIC CHARGES
-----------------------
   0 O :   -0.759687
   1 N :   -0.707081
   2 N :   -0.638591
   3 N :   -0.616852
   4 C :   -0.119379
   5 C :    1.016832
   6 C :    0.467823
   7 C :    0.443659
   8 H :    0.348669
   9 H :    0.363596
  10 H :    0.201011
Sum of atomic charges:    0.0000000

LOEWDIN ATOMIC CHARGES
----------------------
   0 O :    0.720526
   1 N :    1.255863
   2 N :    0.446743
   3 N :    0.471864
   4 C :   -0.079779
   5 C :   -0.851385
   6 C :   -0.294600
   7 C :   -0.306575
   8 H :   -0.351667
   9 H :   -0.538478
  10 H :   -0.472511

  Mayer bond orders larger than 0.100000
B(  0-O ,  1-N ) :   0.1461 B(  0-O ,  4-C ) :   0.1322 B(  0-O ,  5-C ) :   1.3469
B(  1-N ,  5-C ) :   1.0839 B(  1-N ,  9-H ) :   0.8282 B(  1-N , 10-H ) :   1.0521
B(  2-N ,  6-C ) :   2.4863 B(  3-N ,  7-C ) :   2.5544 B(  4-C ,  5-C ) :   0.9693
B(  4-C ,  6-C ) :   1.0239 B(  4-C ,  7-C ) :   1.1172 B(  4-C ,  8-H ) :   0.8099
B(  6-C ,  7-C ) :  -0.1044

MP2 TOTAL ENERGY:     -393.112647075 Eh
FINAL SINGLE POINT ENERGY      -393.112647074819

DIPOLE MOMENT
-------------
                                X             Y             Z
Electronic contribution:      1.96152       1.32674      -0.59731
Nuclear contribution   :     -2.58833      -2.55639       0.54911
                        -----------------------------------------
Total Dipole Moment    :     -0.62681      -1.22965      -0.04820
                        -----------------------------------------
Magnitude (a.u.)       :      1.38103
Magnitude (Debye)      :      3.51031

Rotational constants in cm-1:     0.077837     0.070503     0.042223
Rotational constants in MHz :  2333.503935  2113.630633  1265.807245

                             ****ORCA TERMINATED NORMALLY****
TOTAL RUN TIME: 0 days 0 hours 16 minutes 3 seconds 536 msec
