                         Program Version 5.0.4 -  RELEASE  -
|  1> !ri-mp2 aug-cc-pvqz aug-cc-pvqz/c tightscf
|  2> %pal nprocs 16 end
|  3>
|  4> * xyz 0 1
|  5> C     -0.574621   -0.905235    1.270480
|  6> C     -0.574621   -0.905235   -1.270480
|  7> C     -0.574621   -0.076502    0.000000
|  8> Cl     0.896612    1.024877    0.000000
|  9> H     -0.565593   -0.272482    2.155996
| 10> H     -1.473445   -1.525794    1.299465
| 11> H      0.295393   -1.561000    1.305554
| 12> H     -0.565593   -0.272482   -2.155996
| 13> H     -1.473445   -1.525794   -1.299465
| 14> H      0.295393   -1.561000   -1.305554
| 15> H     -1.411924    0.617470    0.000000
| 16> *
| 17>
| 18>                          ****END OF INPUT****

CARTESIAN COORDINATES (ANGSTROEM)
---------------------------------
  C     -0.574621   -0.905235    1.270480
  C     -0.574621   -0.905235   -1.270480
  C     -0.574621   -0.076502    0.000000
  Cl     0.896612    1.024877    0.000000
  H     -0.565593   -0.272482    2.155996
  H     -1.473445   -1.525794    1.299465
  H      0.295393   -1.561000    1.305554
  H     -0.565593   -0.272482   -2.155996
  H     -1.473445   -1.525794   -1.299465
  H      0.295393   -1.561000   -1.305554
  H     -1.411924    0.617470    0.000000

 Total Charge           Charge          ....    0
 Multiplicity           Mult            ....    1
 Number of Electrons    NEL             ....   42
 Basis Dimension        Dim             ....  646

ORBITAL ENERGIES
----------------

  NO   OCC          E(Eh)            E(eV)
   0   2.0000    -104.810836     -2852.0478
   1   2.0000     -11.300719      -307.5082
   2   2.0000     -11.230117      -305.5870
   3   2.0000     -11.230102      -305.5866
   4   2.0000     -10.536501      -286.7128
   5   2.0000      -8.003444      -217.7848
   6   2.0000      -8.001954      -217.7442
   7   2.0000      -8.001940      -217.7439
   8   2.0000      -1.138719       -30.9861
   9   2.0000      -1.016128       -27.6502
  10   2.0000      -0.953933       -25.9578
  11   2.0000      -0.800348       -21.7786
  12   2.0000      -0.648557       -17.6481
  13   2.0000      -0.614494       -16.7212
  14   2.0000      -0.590289       -16.0626
  15   2.0000      -0.556296       -15.1376
  16   2.0000      -0.518418       -14.1069
  17   2.0000      -0.513663       -13.9775
  18   2.0000      -0.484629       -13.1874
  19   2.0000      -0.427335       -11.6284
  20   2.0000      -0.427084       -11.6215
  21   0.0000       0.025081         0.6825
  22   0.0000       0.034165         0.9297
  23   0.0000       0.034658         0.9431
  24   0.0000       0.041496         1.1292
  25   0.0000       0.055863         1.5201

MULLIKEN ATOMIC CHARGES
-----------------------
   0 C :   -0.840662
   1 C :   -0.840662
   2 C :    0.154784
   3 Cl:   -0.425707
   4 H :    0.316957
   5 H :    0.247845
   6 H :    0.238790
   7 H :    0.316957
   8 H :    0.247845
   9 H :    0.238790
  10 H :    0.345060
Sum of atomic charges:   -0.0000000

LOEWDIN ATOMIC CHARGES
----------------------
   0 C :    0.800914
   1 C :    0.800914
   2 C :   -0.522304
   3 Cl:    1.122319
   4 H :   -0.309044
   5 H :   -0.287751
   6 H :   -0.306895
   7 H :   -0.309044
   8 H :   -0.287751
   9 H :   -0.306895
  10 H :   -0.394462

  Mayer bond orders larger than 0.100000
B(  0-C ,  2-C ) :   0.8715 B(  0-C ,  4-H ) :   0.9357 B(  0-C ,  5-H ) :   0.9322
B(  0-C ,  6-H ) :   0.9514 B(  1-C ,  2-C ) :   0.8715 B(  1-C ,  7-H ) :   0.9357
B(  1-C ,  8-H ) :   0.9322 B(  1-C ,  9-H ) :   0.9514 B(  2-C ,  3-Cl) :   0.6362
B(  2-C , 10-H ) :   0.8017

MP2 TOTAL ENERGY:     -578.043035439 Eh
FINAL SINGLE POINT ENERGY      -578.043035438694

DIPOLE MOMENT
-------------
                                X             Y             Z
Electronic contribution:      5.43735       6.95969       0.00000
Nuclear contribution   :     -6.20849      -7.59980       0.00000
                        -----------------------------------------
Total Dipole Moment    :     -0.77114      -0.64011       0.00000
                        -----------------------------------------
Magnitude (a.u.)       :      1.00220
Magnitude (Debye)      :      2.54738

Rotational constants in cm-1:     0.268653     0.148474     0.104861
Rotational constants in MHz :  8054.000563  4451.152908  3143.653891

                             ****ORCA TERMINATED NORMALLY****
TOTAL RUN TIME: 0 days 0 hours 10 minutes 27 seconds 601 msec
