                         Program Version 5.0.4 -  RELEASE  -
|  1> !ri-mp2 aug-cc-pvqz aug-cc-pvqz/c tightscf
|  2> %pal nprocs 16 end
|  3>
|  4> * xyz 0 1
|  5> N     -1.254654    0.394118    0.000000
|  6> C      0.000000    1.081090    0.000000
|  7> C      1.244764    0.286621    0.000000
|  8> C      1.223615   -1.045676    0.000000
|  9> C     -0.067291   -1.783582    0.000000
| 10> C     -1.258745   -0.878361    0.000000
| 11> O      0.015804    2.291171    0.000000
| 12> H      2.166216    0.852058    0.000000
| 13> H      2.142475   -1.619589    0.000000
| 14> H     -0.136811   -2.456207    0.864752
| 15> H     -2.232984   -1.368807    0.000000
| 16> H     -0.136811   -2.456207   -0.864752
| 17> *
| 18>
| 19>                          ****END OF INPUT****

CARTESIAN COORDINATES (ANGSTROEM)
---------------------------------
  N     -1.254654    0.394118    0.000000
  C      0.000000    1.081090    0.000000
  C      1.244764    0.286621    0.000000
  C      1.223615   -1.045676    0.000000
  C     -0.067291   -1.783582    0.000000
  C     -1.258745   -0.878361    0.000000
  O      0.015804    2.291171    0.000000
  H      2.166216    0.852058    0.000000
  H      2.142475   -1.619589    0.000000
  H     -0.136811   -2.456207    0.864752
  H     -2.232984   -1.368807    0.000000
  H     -0.136811   -2.456207   -0.864752

 Total Charge           Charge          ....    0
 Multiplicity           Mult            ....    1
 Number of Electrons    NEL             ....   50
 Basis Dimension        Dim             ....  790

ORBITAL ENERGIES
----------------

  NO   OCC          E(Eh)            E(eV)
   0   2.0000     -20.538793      -558.8890
   1   2.0000     -15.574696      -423.8090
   2   2.0000     -11.353431      -308.9426
   3   2.0000     -11.318825      -308.0009
   4   2.0000     -11.277564      -306.8781
   5   2.0000     -11.275418      -306.8197
   6   2.0000     -11.253061      -306.2114
   7   2.0000      -1.392817       -37.9005
   8   2.0000      -1.257281       -34.2124
   9   2.0000      -1.114525       -30.3278
  10   2.0000      -1.028222       -27.9793
  11   2.0000      -0.872011       -23.7286
  12   2.0000      -0.857470       -23.3329
  13   2.0000      -0.711116       -19.3504
  14   2.0000      -0.701207       -19.0808
  15   2.0000      -0.674844       -18.3634
  16   2.0000      -0.640399       -17.4261
  17   2.0000      -0.610451       -16.6112
  18   2.0000      -0.602114       -16.3843
  19   2.0000      -0.559980       -15.2378
  20   2.0000      -0.551387       -15.0040
  21   2.0000      -0.467492       -12.7211
  22   2.0000      -0.443934       -12.0801
  23   2.0000      -0.407756       -11.0956
  24   2.0000      -0.393141       -10.6979
  25   0.0000       0.014566         0.3964
  26   0.0000       0.025303         0.6885
  27   0.0000       0.031298         0.8517
  28   0.0000       0.035871         0.9761
  29   0.0000       0.045611         1.2411

MULLIKEN ATOMIC CHARGES
-----------------------
   0 N :   -0.582023
   1 C :    0.994901
   2 C :   -0.691639
   3 C :   -0.226003
   4 C :   -0.294686
   5 C :   -0.132677
   6 O :   -0.763413
   7 H :    0.356369
   8 H :    0.356226
   9 H :    0.241418
  10 H :    0.500109
  11 H :    0.241418
Sum of atomic charges:   -0.0000000

LOEWDIN ATOMIC CHARGES
----------------------
   0 N :    0.568938
   1 C :   -0.961791
   2 C :    0.313769
   3 C :    0.375607
   4 C :    0.470596
   5 C :    0.104893
   6 O :    0.663589
   7 H :   -0.349237
   8 H :   -0.300129
   9 H :   -0.278792
  10 H :   -0.328651
  11 H :   -0.278792

  Mayer bond orders larger than 0.100000
B(  0-N ,  1-C ) :   1.0291 B(  0-N ,  5-C ) :   1.5584 B(  0-N ,  6-O ) :   0.1075
B(  1-C ,  2-C ) :   1.1346 B(  1-C ,  6-O ) :   1.1950 B(  2-C ,  3-C ) :   1.7161
B(  2-C ,  6-O ) :   0.2391 B(  2-C ,  7-H ) :   0.8636 B(  3-C ,  4-C ) :   0.7679
B(  3-C ,  8-H ) :   0.8996 B(  4-C ,  5-C ) :   0.9668 B(  4-C ,  9-H ) :   0.9206
B(  4-C , 11-H ) :   0.9206 B(  5-C , 10-H ) :   0.7693

MP2 TOTAL ENERGY:     -322.966498109 Eh
FINAL SINGLE POINT ENERGY      -322.966498108979

DIPOLE MOMENT
-------------
                                X             Y             Z
Electronic contribution:     -1.17821       4.36814       0.00000
Nuclear contribution   :      1.77237      -6.92206       0.00000
                        -----------------------------------------
Total Dipole Moment    :      0.59416      -2.55392       0.00000
                        -----------------------------------------
Magnitude (a.u.)       :      2.62212
Magnitude (Debye)      :      6.66490

Rotational constants in cm-1:     0.180056     0.093538     0.062244
Rotational constants in MHz :  5397.949787  2804.205894  1866.031348

                             ****ORCA TERMINATED NORMALLY****
TOTAL RUN TIME: 0 days 0 hours 20 minutes 50 seconds 517 msec
