                         Program Version 5.0.4 -  RELEASE  -
|  1> !ri-mp2 aug-cc-pvqz aug-cc-pvqz/c tightscf
|  2> %pal nprocs 16 end
|  3>
|  4> * xyz 0 1
|  5> C     -3.551731   -0.145916    0.178332
|  6> C     -2.160631   -0.497409   -0.345698
|  7> C     -1.084795    0.418115    0.210133
|  8> C      2.554528    0.252331   -0.341891
|  9> C      1.246011    0.820604    0.153652
| 10> O      2.871763   -0.915524    0.411744
| 11> O      0.173609    0.025383   -0.308235
| 12> H     -3.834247    0.874037   -0.090442
| 13> H     -4.305646   -0.815827   -0.235313
| 14> H     -3.600044   -0.226907    1.266045
| 15> H     -2.141876   -0.436709   -1.436016
| 16> H     -1.907786   -1.527183   -0.084984
| 17> H     -1.294438    1.463084   -0.062635
| 18> H     -1.068300    0.365578    1.307923
| 19> H      3.334739    1.012724   -0.218945
| 20> H      2.461235    0.020138   -1.407091
| 21> H      1.140374    1.851849   -0.212086
| 22> H      1.258753    0.851169    1.250942
| 23> H      3.573974   -1.397171   -0.032650
| 24> *
| 25>
| 26>                          ****END OF INPUT****

CARTESIAN COORDINATES (ANGSTROEM)
---------------------------------
  C     -3.551731   -0.145916    0.178332
  C     -2.160631   -0.497409   -0.345698
  C     -1.084795    0.418115    0.210133
  C      2.554528    0.252331   -0.341891
  C      1.246011    0.820604    0.153652
  O      2.871763   -0.915524    0.411744
  O      0.173609    0.025383   -0.308235
  H     -3.834247    0.874037   -0.090442
  H     -4.305646   -0.815827   -0.235313
  H     -3.600044   -0.226907    1.266045
  H     -2.141876   -0.436709   -1.436016
  H     -1.907786   -1.527183   -0.084984
  H     -1.294438    1.463084   -0.062635
  H     -1.068300    0.365578    1.307923
  H      3.334739    1.012724   -0.218945
  H      2.461235    0.020138   -1.407091
  H      1.140374    1.851849   -0.212086
  H      1.258753    0.851169    1.250942
  H      3.573974   -1.397171   -0.032650

 Total Charge           Charge          ....    0
 Multiplicity           Mult            ....    1
 Number of Electrons    NEL             ....   58
 Basis Dimension        Dim             .... 1112

ORBITAL ENERGIES
----------------

  NO   OCC          E(Eh)            E(eV)
   0   2.0000     -20.552041      -559.2495
   1   2.0000     -20.546623      -559.1020
   2   2.0000     -11.274308      -306.7895
   3   2.0000     -11.271059      -306.7011
   4   2.0000     -11.267454      -306.6030
   5   2.0000     -11.214010      -305.1487
   6   2.0000     -11.212096      -305.0966
   7   2.0000      -1.373045       -37.3625
   8   2.0000      -1.350105       -36.7382
   9   2.0000      -1.058474       -28.8025
  10   2.0000      -1.001051       -27.2400
  11   2.0000      -0.907264       -24.6879
  12   2.0000      -0.824595       -22.4384
  13   2.0000      -0.804578       -21.8937
  14   2.0000      -0.709363       -19.3028
  15   2.0000      -0.672208       -18.2917
  16   2.0000      -0.660852       -17.9827
  17   2.0000      -0.615689       -16.7537
  18   2.0000      -0.599365       -16.3096
  19   2.0000      -0.597262       -16.2523
  20   2.0000      -0.565363       -15.3843
  21   2.0000      -0.537211       -14.6183
  22   2.0000      -0.521519       -14.1912
  23   2.0000      -0.502240       -13.6667
  24   2.0000      -0.476528       -12.9670
  25   2.0000      -0.472739       -12.8639
  26   2.0000      -0.464413       -12.6373
  27   2.0000      -0.446659       -12.1542
  28   2.0000      -0.418225       -11.3805
  29   0.0000       0.025504         0.6940
  30   0.0000       0.028708         0.7812
  31   0.0000       0.033090         0.9004
  32   0.0000       0.035737         0.9725
  33   0.0000       0.044157         1.2016

MULLIKEN ATOMIC CHARGES
-----------------------
   0 C :   -0.865994
   1 C :   -0.501111
   2 C :    0.259765
   3 C :   -0.017628
   4 C :   -0.076032
   5 O :   -0.790555
   6 O :   -0.899134
   7 H :    0.229114
   8 H :    0.268897
   9 H :    0.229704
  10 H :    0.235642
  11 H :    0.215253
  12 H :    0.211948
  13 H :    0.225740
  14 H :    0.233173
  15 H :    0.222522
  16 H :    0.272057
  17 H :    0.238784
  18 H :    0.307853
Sum of atomic charges:   -0.0000000

LOEWDIN ATOMIC CHARGES
----------------------
   0 C :    0.918009
   1 C :    0.488809
   2 C :    0.139018
   3 C :    0.165774
   4 C :    0.124219
   5 O :    1.261560
   6 O :    0.902544
   7 H :   -0.285981
   8 H :   -0.285902
   9 H :   -0.285878
  10 H :   -0.279935
  11 H :   -0.279627
  12 H :   -0.290087
  13 H :   -0.292403
  14 H :   -0.302131
  15 H :   -0.304151
  16 H :   -0.296020
  17 H :   -0.304426
  18 H :   -0.793391

  Mayer bond orders larger than 0.100000
B(  0-C ,  1-C ) :   1.0276 B(  0-C ,  7-H ) :   0.9423 B(  0-C ,  8-H ) :   1.0091
B(  0-C ,  9-H ) :   0.9448 B(  1-C ,  2-C ) :   0.8871 B(  1-C ,  8-H ) :  -0.1001
B(  1-C , 10-H ) :   0.8865 B(  1-C , 11-H ) :   0.9026 B(  2-C ,  6-O ) :   0.8542
B(  2-C , 12-H ) :   0.8785 B(  2-C , 13-H ) :   0.9007 B(  3-C ,  4-C ) :   0.9701
B(  3-C ,  5-O ) :   0.6680 B(  3-C , 14-H ) :   1.0058 B(  3-C , 15-H ) :   0.8975
B(  4-C ,  6-O ) :   0.8670 B(  4-C , 16-H ) :   0.8700 B(  4-C , 17-H ) :   0.8489
B(  5-O , 18-H ) :   0.9306

MP2 TOTAL ENERGY:     -347.641129696 Eh
FINAL SINGLE POINT ENERGY      -347.641129696064

DIPOLE MOMENT
-------------
                                X             Y             Z
Electronic contribution:      6.80430      -1.59817      -0.31625
Nuclear contribution   :     -6.62597       2.11348       0.04851
                        -----------------------------------------
Total Dipole Moment    :      0.17833       0.51531      -0.26774
                        -----------------------------------------
Magnitude (a.u.)       :      0.60748
Magnitude (Debye)      :      1.54410

Rotational constants in cm-1:     0.288445     0.030158     0.028926
Rotational constants in MHz :  8647.364960   904.117491   867.172033

                             ****ORCA TERMINATED NORMALLY****
TOTAL RUN TIME: 0 days 0 hours 46 minutes 17 seconds 463 msec
