                         Program Version 5.0.4 -  RELEASE  -
|  1> !ri-mp2 aug-cc-pvqz aug-cc-pvqz/c tightscf
|  2> %pal nprocs 16 end
|  3>
|  4> * xyz 0 1
|  5> C      0.000000    0.160391    0.000000
|  6> C      1.341166   -0.522197    0.000000
|  7> C     -1.204165   -0.750105    0.000000
|  8> N     -0.046207    1.430440    0.000000
|  9> H      2.139324    0.215075    0.000000
| 10> H      1.444083   -1.166052    0.876901
| 11> H      1.444083   -1.166052   -0.876901
| 12> H     -2.134256   -0.183538    0.000000
| 13> H     -1.190635   -1.402345    0.876352
| 14> H     -1.190635   -1.402345   -0.876352
| 15> H     -1.010521    1.763644    0.000000
| 16> *
| 17>
| 18>                          ****END OF INPUT****

CARTESIAN COORDINATES (ANGSTROEM)
---------------------------------
  C      0.000000    0.160391    0.000000
  C      1.341166   -0.522197    0.000000
  C     -1.204165   -0.750105    0.000000
  N     -0.046207    1.430440    0.000000
  H      2.139324    0.215075    0.000000
  H      1.444083   -1.166052    0.876901
  H      1.444083   -1.166052   -0.876901
  H     -2.134256   -0.183538    0.000000
  H     -1.190635   -1.402345    0.876352
  H     -1.190635   -1.402345   -0.876352
  H     -1.010521    1.763644    0.000000

 Total Charge           Charge          ....    0
 Multiplicity           Mult            ....    1
 Number of Electrons    NEL             ....   32
 Basis Dimension        Dim             ....  642

ORBITAL ENERGIES
----------------

  NO   OCC          E(Eh)            E(eV)
   0   2.0000     -15.536650      -422.7737
   1   2.0000     -11.284314      -307.0618
   2   2.0000     -11.233738      -305.6856
   3   2.0000     -11.221739      -305.3590
   4   2.0000      -1.210206       -32.9314
   5   2.0000      -1.011276       -27.5182
   6   2.0000      -0.957399       -26.0521
   7   2.0000      -0.744617       -20.2621
   8   2.0000      -0.650512       -17.7013
   9   2.0000      -0.607649       -16.5350
  10   2.0000      -0.604563       -16.4510
  11   2.0000      -0.550345       -14.9756
  12   2.0000      -0.544485       -14.8162
  13   2.0000      -0.519890       -14.1469
  14   2.0000      -0.415028       -11.2935
  15   2.0000      -0.411039       -11.1850
  16   0.0000       0.023907         0.6505
  17   0.0000       0.032456         0.8832
  18   0.0000       0.037748         1.0272
  19   0.0000       0.039937         1.0867
  20   0.0000       0.055086         1.4990

MULLIKEN ATOMIC CHARGES
-----------------------
   0 C :    0.398418
   1 C :   -0.760397
   2 C :   -0.746033
   3 N :   -0.757876
   4 H :    0.299727
   5 H :    0.245085
   6 H :    0.245085
   7 H :    0.270926
   8 H :    0.255174
   9 H :    0.255174
  10 H :    0.294715
Sum of atomic charges:   -0.0000000

LOEWDIN ATOMIC CHARGES
----------------------
   0 C :   -0.305952
   1 C :    0.872708
   2 C :    0.901954
   3 N :    1.003320
   4 H :   -0.321108
   5 H :   -0.292111
   6 H :   -0.292111
   7 H :   -0.312570
   8 H :   -0.287003
   9 H :   -0.287003
  10 H :   -0.680121

  Mayer bond orders larger than 0.100000
B(  0-C ,  1-C ) :   0.8523 B(  0-C ,  2-C ) :   0.8227 B(  0-C ,  3-N ) :   1.6258
B(  1-C ,  4-H ) :   0.9565 B(  1-C ,  5-H ) :   0.9489 B(  1-C ,  6-H ) :   0.9489
B(  2-C ,  7-H ) :   0.9785 B(  2-C ,  8-H ) :   0.9449 B(  2-C ,  9-H ) :   0.9449
B(  3-N , 10-H ) :   0.8433

MP2 TOTAL ENERGY:     -172.964373858 Eh
FINAL SINGLE POINT ENERGY      -172.964373858107

DIPOLE MOMENT
-------------
                                X             Y             Z
Electronic contribution:      0.03645       2.57847       0.00000
Nuclear contribution   :     -0.52506      -3.50849       0.00000
                        -----------------------------------------
Total Dipole Moment    :     -0.48861      -0.93002       0.00000
                        -----------------------------------------
Magnitude (a.u.)       :      1.05057
Magnitude (Debye)      :      2.67032

Rotational constants in cm-1:     0.325462     0.283438     0.160435
Rotational constants in MHz :  9757.119528  8497.245557  4809.717119

                             ****ORCA TERMINATED NORMALLY****
TOTAL RUN TIME: 0 days 0 hours 9 minutes 48 seconds 991 msec
