                         Program Version 5.0.4 -  RELEASE  -
|  1> !ri-mp2 aug-cc-pvqz aug-cc-pvqz/c tightscf
|  2> %pal nprocs 16 end
|  3>
|  4> * xyz 0 1
|  5> F     -0.375818    1.697446    0.222764
|  6> O      0.626983    0.220870   -1.127340
|  7> O     -2.388585    0.216606   -0.155235
|  8> O     -1.228699   -1.610380    0.030610
|  9> N     -1.359931   -0.402241   -0.018206
| 10> C     -0.021614    0.404745    0.085285
| 11> C      0.896960   -0.092476    1.209348
| 12> C      1.920548   -0.209156   -0.846755
| 13> C      2.155262   -0.394312    0.440990
| 14> H      0.482254   -0.975565    1.692874
| 15> H      1.010076    0.694126    1.955231
| 16> H      2.540130   -0.330936   -1.718095
| 17> H      3.084893   -0.718520    0.875072
| 18> *
| 19>
| 20>                          ****END OF INPUT****

CARTESIAN COORDINATES (ANGSTROEM)
---------------------------------
  F     -0.375818    1.697446    0.222764
  O      0.626983    0.220870   -1.127340
  O     -2.388585    0.216606   -0.155235
  O     -1.228699   -1.610380    0.030610
  N     -1.359931   -0.402241   -0.018206
  C     -0.021614    0.404745    0.085285
  C      0.896960   -0.092476    1.209348
  C      1.920548   -0.209156   -0.846755
  C      2.155262   -0.394312    0.440990
  H      0.482254   -0.975565    1.692874
  H      1.010076    0.694126    1.955231
  H      2.540130   -0.330936   -1.718095
  H      3.084893   -0.718520    0.875072

 Total Charge           Charge          ....    0
 Multiplicity           Mult            ....    1
 Number of Electrons    NEL             ....   68
 Basis Dimension        Dim             ....  904

ORBITAL ENERGIES
----------------

  NO   OCC          E(Eh)            E(eV)
   0   2.0000     -26.339806      -716.7426
   1   2.0000     -20.635935      -561.5323
   2   2.0000     -20.620857      -561.1221
   3   2.0000     -20.612971      -560.9075
   4   2.0000     -15.858127      -431.5216
   5   2.0000     -11.470107      -312.1175
   6   2.0000     -11.327255      -308.2303
   7   2.0000     -11.282295      -307.0069
   8   2.0000     -11.262151      -306.4587
   9   2.0000      -1.676539       -45.6209
  10   2.0000      -1.619059       -44.0568
  11   2.0000      -1.473433       -40.0942
  12   2.0000      -1.420719       -38.6597
  13   2.0000      -1.125992       -30.6398
  14   2.0000      -1.086484       -29.5647
  15   2.0000      -0.963292       -26.2125
  16   2.0000      -0.871617       -23.7179
  17   2.0000      -0.843055       -22.9407
  18   2.0000      -0.814061       -22.1517
  19   2.0000      -0.780638       -21.2422
  20   2.0000      -0.739034       -20.1101
  21   2.0000      -0.728284       -19.8176
  22   2.0000      -0.717155       -19.5148
  23   2.0000      -0.700800       -19.0697
  24   2.0000      -0.670427       -18.2433
  25   2.0000      -0.637630       -17.3508
  26   2.0000      -0.608295       -16.5525
  27   2.0000      -0.597210       -16.2509
  28   2.0000      -0.574817       -15.6416
  29   2.0000      -0.560665       -15.2565
  30   2.0000      -0.512274       -13.9397
  31   2.0000      -0.491414       -13.3720
  32   2.0000      -0.466091       -12.6830
  33   2.0000      -0.383015       -10.4224
  34   0.0000       0.018191         0.4950
  35   0.0000       0.027063         0.7364
  36   0.0000       0.034590         0.9412
  37   0.0000       0.039486         1.0745
  38   0.0000       0.063763         1.7351

MULLIKEN ATOMIC CHARGES
-----------------------
   0 F :   -0.678891
   1 O :   -0.709170
   2 O :   -0.582513
   3 O :   -0.589156
   4 N :    0.824154
   5 C :    1.473677
   6 C :   -0.577730
   7 C :   -0.273629
   8 C :   -0.531590
   9 H :    0.320389
  10 H :    0.309796
  11 H :    0.609079
  12 H :    0.405584
Sum of atomic charges:    0.0000000

LOEWDIN ATOMIC CHARGES
----------------------
   0 F :    0.831028
   1 O :    0.831249
   2 O :    0.519079
   3 O :    0.534396
   4 N :   -0.871814
   5 C :   -1.453023
   6 C :    0.432482
   7 C :    0.048286
   8 C :    0.374863
   9 H :   -0.319715
  10 H :   -0.288264
  11 H :   -0.326041
  12 H :   -0.312524

  Mayer bond orders larger than 0.100000
B(  0-F ,  5-C ) :   0.2384 B(  1-O ,  5-C ) :   0.6155 B(  1-O ,  6-C ) :   0.1196
B(  1-O ,  7-C ) :   0.8814 B(  2-O ,  3-O ) :   0.1455 B(  2-O ,  4-N ) :   1.2791
B(  3-O ,  4-N ) :   1.2293 B(  3-O ,  5-C ) :   0.1054 B(  4-N ,  5-C ) :   0.7823
B(  5-C ,  6-C ) :   1.0199 B(  5-C ,  7-C ) :  -0.1019 B(  5-C ,  8-C ) :  -0.1275
B(  6-C ,  7-C ) :  -0.1383 B(  6-C ,  8-C ) :   0.9527 B(  6-C ,  9-H ) :   0.8833
B(  6-C , 10-H ) :   0.8634 B(  7-C ,  8-C ) :   1.7306 B(  7-C , 11-H ) :   0.6838
B(  8-C , 12-H ) :   0.8443

MP2 TOTAL ENERGY:     -534.308791380 Eh
FINAL SINGLE POINT ENERGY      -534.308791380322

DIPOLE MOMENT
-------------
                                X             Y             Z
Electronic contribution:     -5.25141       2.88218      -1.86534
Nuclear contribution   :      7.13349      -2.90596       2.46174
                        -----------------------------------------
Total Dipole Moment    :      1.88207      -0.02377       0.59640
                        -----------------------------------------
Magnitude (a.u.)       :      1.97445
Magnitude (Debye)      :      5.01865

Rotational constants in cm-1:     0.100834     0.049909     0.043952
Rotational constants in MHz :  3022.934413  1496.245461  1317.652943

                             ****ORCA TERMINATED NORMALLY****
TOTAL RUN TIME: 0 days 0 hours 31 minutes 46 seconds 236 msec
