                         Program Version 5.0.4 -  RELEASE  -
|  1> !ri-mp2 aug-cc-pvqz aug-cc-pvqz/c tightscf
|  2> %pal nprocs 16 end
|  3>
|  4> * xyz 0 1
|  5> C      1.299716   -1.582465    0.000000
|  6> C     -0.088674   -1.564388    0.000000
|  7> C      1.965699   -0.367634    0.000000
|  8> C     -0.770283   -0.353502    0.000000
|  9> C      0.000000    0.825444    0.000000
| 10> C     -2.273731   -0.308186    0.000000
| 11> C     -0.652970    2.180273    0.000000
| 12> N      1.335751    0.807581    0.000000
| 13> H      1.849802   -2.513184    0.000000
| 14> H     -0.646412   -2.492987    0.000000
| 15> H      3.049088   -0.329331    0.000000
| 16> H     -2.693885   -1.312990    0.000000
| 17> H     -2.659868    0.216687    0.876553
| 18> H     -2.659868    0.216687   -0.876553
| 19> H     -1.290044    2.316709    0.877173
| 20> H      0.112433    2.951380    0.000000
| 21> H     -1.290044    2.316709   -0.877173
| 22> *
| 23>
| 24>                          ****END OF INPUT****

CARTESIAN COORDINATES (ANGSTROEM)
---------------------------------
  C      1.299716   -1.582465    0.000000
  C     -0.088674   -1.564388    0.000000
  C      1.965699   -0.367634    0.000000
  C     -0.770283   -0.353502    0.000000
  C      0.000000    0.825444    0.000000
  C     -2.273731   -0.308186    0.000000
  C     -0.652970    2.180273    0.000000
  N      1.335751    0.807581    0.000000
  H      1.849802   -2.513184    0.000000
  H     -0.646412   -2.492987    0.000000
  H      3.049088   -0.329331    0.000000
  H     -2.693885   -1.312990    0.000000
  H     -2.659868    0.216687    0.876553
  H     -2.659868    0.216687   -0.876553
  H     -1.290044    2.316709    0.877173
  H      0.112433    2.951380    0.000000
  H     -1.290044    2.316709   -0.877173

 Total Charge           Charge          ....    0
 Multiplicity           Mult            ....    1
 Number of Electrons    NEL             ....   58
 Basis Dimension        Dim             .... 1054

ORBITAL ENERGIES
----------------

  NO   OCC          E(Eh)            E(eV)
   0   2.0000     -15.552558      -423.2066
   1   2.0000     -11.273334      -306.7630
   2   2.0000     -11.262530      -306.4690
   3   2.0000     -11.246933      -306.0446
   4   2.0000     -11.239941      -305.8544
   5   2.0000     -11.230036      -305.5848
   6   2.0000     -11.228859      -305.5528
   7   2.0000     -11.218567      -305.2727
   8   2.0000      -1.254160       -34.1274
   9   2.0000      -1.096468       -29.8364
  10   2.0000      -1.063255       -28.9326
  11   2.0000      -0.973634       -26.4939
  12   2.0000      -0.931596       -25.3500
  13   2.0000      -0.835183       -22.7265
  14   2.0000      -0.813758       -22.1435
  15   2.0000      -0.689819       -18.7709
  16   2.0000      -0.674540       -18.3552
  17   2.0000      -0.617692       -16.8083
  18   2.0000      -0.602389       -16.3918
  19   2.0000      -0.574813       -15.6415
  20   2.0000      -0.564668       -15.3654
  21   2.0000      -0.557150       -15.1608
  22   2.0000      -0.553911       -15.0727
  23   2.0000      -0.531092       -14.4518
  24   2.0000      -0.513493       -13.9729
  25   2.0000      -0.497999       -13.5512
  26   2.0000      -0.406843       -11.0708
  27   2.0000      -0.373502       -10.1635
  28   2.0000      -0.326111        -8.8739
  29   0.0000       0.023870         0.6495
  30   0.0000       0.027211         0.7404
  31   0.0000       0.031252         0.8504
  32   0.0000       0.040622         1.1054
  33   0.0000       0.040814         1.1106

MULLIKEN ATOMIC CHARGES
-----------------------
   0 C :   -0.310921
   1 C :   -0.355219
   2 C :   -0.366691
   3 C :    0.219551
   4 C :    0.695807
   5 C :   -0.722297
   6 C :   -0.913519
   7 N :   -0.705571
   8 H :    0.300779
   9 H :    0.235126
  10 H :    0.490553
  11 H :    0.286883
  12 H :    0.194343
  13 H :    0.194343
  14 H :    0.175025
  15 H :    0.406780
  16 H :    0.175025
Sum of atomic charges:   -0.0000000

LOEWDIN ATOMIC CHARGES
----------------------
   0 C :    0.339522
   1 C :    0.338026
   2 C :    0.082315
   3 C :   -0.071359
   4 C :   -0.325359
   5 C :    0.900015
   6 C :    0.887349
   7 N :    0.610920
   8 H :   -0.329154
   9 H :   -0.314029
  10 H :   -0.353129
  11 H :   -0.304373
  12 H :   -0.284265
  13 H :   -0.284265
  14 H :   -0.287931
  15 H :   -0.316351
  16 H :   -0.287931

  Mayer bond orders larger than 0.100000
B(  0-C ,  1-C ) :   1.2578 B(  0-C ,  2-C ) :   1.2747 B(  0-C ,  3-C ) :  -0.2643
B(  0-C ,  8-H ) :   1.0410 B(  0-C ,  9-H ) :  -0.1185 B(  1-C ,  3-C ) :   0.9262
B(  1-C ,  4-C ) :  -0.1504 B(  1-C ,  8-H ) :  -0.1311 B(  1-C ,  9-H ) :   1.0789
B(  2-C ,  3-C ) :   0.1132 B(  2-C ,  7-N ) :   1.2576 B(  2-C , 10-H ) :   0.8509
B(  3-C ,  4-C ) :   1.1384 B(  3-C ,  5-C ) :   0.5246 B(  3-C ,  7-N ) :   0.2091
B(  3-C , 11-H ) :  -0.1539 B(  4-C ,  6-C ) :   0.7583 B(  4-C ,  7-N ) :   0.8449
B(  4-C , 15-H ) :  -0.1074 B(  5-C , 11-H ) :   1.0161 B(  5-C , 12-H ) :   1.0379
B(  5-C , 13-H ) :   1.0379 B(  6-C , 14-H ) :   1.0539 B(  6-C , 15-H ) :   0.8882
B(  6-C , 16-H ) :   1.0539

MP2 TOTAL ENERGY:     -326.331517384 Eh
FINAL SINGLE POINT ENERGY      -326.331517384137

DIPOLE MOMENT
-------------
                                X             Y             Z
Electronic contribution:      5.64747      -1.94394      -0.00000
Nuclear contribution   :     -6.32384       1.39715       0.00000
                        -----------------------------------------
Total Dipole Moment    :     -0.67638      -0.54679      -0.00000
                        -----------------------------------------
Magnitude (a.u.)       :      0.86975
Magnitude (Debye)      :      2.21072

Rotational constants in cm-1:     0.106741     0.075077     0.044802
Rotational constants in MHz :  3200.000305  2250.763110  1343.138086

                             ****ORCA TERMINATED NORMALLY****
TOTAL RUN TIME: 0 days 0 hours 47 minutes 59 seconds 441 msec
