                         Program Version 5.0.4 -  RELEASE  -
|  1> !ri-mp2 aug-cc-pvqz aug-cc-pvqz/c tightscf
|  2> %pal nprocs 16 end
|  3>
|  4> * xyz 0 1
|  5> S     -1.237044    0.001448   -0.107671
|  6> N      0.008561   -1.244800    0.162871
|  7> N      1.291262   -0.667661   -0.105066
|  8> C     -0.008423    1.263519    0.104972
|  9> C      1.217607    0.751160    0.046079
| 10> H     -0.002263   -1.404163    1.165699
| 11> H      1.571441   -0.928185   -1.047847
| 12> H     -0.273152    2.302314    0.208260
| 13> H      2.142819    1.306025    0.085693
| 14> *
| 15>
| 16>                          ****END OF INPUT****

CARTESIAN COORDINATES (ANGSTROEM)
---------------------------------
  S     -1.237044    0.001448   -0.107671
  N      0.008561   -1.244800    0.162871
  N      1.291262   -0.667661   -0.105066
  C     -0.008423    1.263519    0.104972
  C      1.217607    0.751160    0.046079
  H     -0.002263   -1.404163    1.165699
  H      1.571441   -0.928185   -1.047847
  H     -0.273152    2.302314    0.208260
  H      2.142819    1.306025    0.085693

 Total Charge           Charge          ....    0
 Multiplicity           Mult            ....    1
 Number of Electrons    NEL             ....   46
 Basis Dimension        Dim             ....  588

ORBITAL ENERGIES
----------------

  NO   OCC          E(Eh)            E(eV)
   0   2.0000     -91.983795     -2503.0063
   1   2.0000     -15.615820      -424.9281
   2   2.0000     -15.603465      -424.5919
   3   2.0000     -11.275848      -306.8314
   4   2.0000     -11.263344      -306.4912
   5   2.0000      -8.982634      -244.4299
   6   2.0000      -6.663932      -181.3348
   7   2.0000      -6.663030      -181.3103
   8   2.0000      -6.661884      -181.2791
   9   2.0000      -1.320041       -35.9201
  10   2.0000      -1.086349       -29.5611
  11   2.0000      -1.062611       -28.9151
  12   2.0000      -0.873440       -23.7675
  13   2.0000      -0.784755       -21.3543
  14   2.0000      -0.708605       -19.2821
  15   2.0000      -0.675739       -18.3878
  16   2.0000      -0.613278       -16.6881
  17   2.0000      -0.575402       -15.6575
  18   2.0000      -0.504204       -13.7201
  19   2.0000      -0.483212       -13.1489
  20   2.0000      -0.442852       -12.0506
  21   2.0000      -0.403053       -10.9676
  22   2.0000      -0.309921        -8.4334
  23   0.0000       0.024795         0.6747
  24   0.0000       0.033008         0.8982
  25   0.0000       0.038483         1.0472
  26   0.0000       0.042104         1.1457
  27   0.0000       0.062696         1.7060

MULLIKEN ATOMIC CHARGES
-----------------------
   0 S :    0.215410
   1 N :   -0.439165
   2 N :   -0.359251
   3 C :   -0.631223
   4 C :   -0.245482
   5 H :    0.246604
   6 H :    0.274039
   7 H :    0.439847
   8 H :    0.499221
Sum of atomic charges:   -0.0000000

LOEWDIN ATOMIC CHARGES
----------------------
   0 S :    1.106955
   1 N :    0.348579
   2 N :    0.592834
   3 C :   -0.088703
   4 C :    0.045630
   5 H :   -0.696952
   6 H :   -0.551872
   7 H :   -0.420284
   8 H :   -0.336186

  Mayer bond orders larger than 0.100000
B(  0-S ,  1-N ) :   0.9013 B(  0-S ,  3-C ) :   0.9950 B(  1-N ,  2-N ) :   0.8000
B(  1-N ,  5-H ) :   0.9151 B(  2-N ,  4-C ) :   0.9604 B(  2-N ,  6-H ) :   0.8893
B(  3-C ,  4-C ) :   1.6923 B(  3-C ,  7-H ) :   0.8073 B(  4-C ,  8-H ) :   0.7600

MP2 TOTAL ENERGY:     -585.482590163 Eh
FINAL SINGLE POINT ENERGY      -585.482590162609

DIPOLE MOMENT
-------------
                                X             Y             Z
Electronic contribution:     -2.94769      -0.63401      -0.37118
Nuclear contribution   :      3.41598       1.23980       0.40728
                        -----------------------------------------
Total Dipole Moment    :      0.46828       0.60579       0.03610
                        -----------------------------------------
Magnitude (a.u.)       :      0.76653
Magnitude (Debye)      :      1.94837

Rotational constants in cm-1:     0.250331     0.167107     0.104637
Rotational constants in MHz :  7504.738066  5009.744626  3136.933123

                             ****ORCA TERMINATED NORMALLY****
TOTAL RUN TIME: 0 days 0 hours 7 minutes 34 seconds 109 msec
