                         Program Version 5.0.4 -  RELEASE  -
|  1> !ri-mp2 aug-cc-pvqz aug-cc-pvqz/c tightscf
|  2> %pal nprocs 16 end
|  3>
|  4> * xyz 0 1
|  5> O      3.378898   -1.121353    0.151039
|  6> O     -3.378897   -1.121355    0.151039
|  7> N      0.000000    0.726298   -0.101503
|  8> C      1.173373    0.061418   -0.031423
|  9> C     -1.173373    0.061419   -0.031423
| 10> C      2.234557   -0.498966   -0.039656
| 11> C     -2.234557   -0.498966   -0.039656
| 12> C      0.000000    2.188036    0.049856
| 13> H      3.788790   -1.339293   -0.695372
| 14> H     -3.788797   -1.339280   -0.695372
| 15> H     -0.000002    2.478463    1.103218
| 16> H      0.888064    2.590021   -0.432378
| 17> H     -0.888061    2.590022   -0.432382
| 18> *
| 19>
| 20>                          ****END OF INPUT****

CARTESIAN COORDINATES (ANGSTROEM)
---------------------------------
  O      3.378898   -1.121353    0.151039
  O     -3.378897   -1.121355    0.151039
  N      0.000000    0.726298   -0.101503
  C      1.173373    0.061418   -0.031423
  C     -1.173373    0.061419   -0.031423
  C      2.234557   -0.498966   -0.039656
  C     -2.234557   -0.498966   -0.039656
  C      0.000000    2.188036    0.049856
  H      3.788790   -1.339293   -0.695372
  H     -3.788797   -1.339280   -0.695372
  H     -0.000002    2.478463    1.103218
  H      0.888064    2.590021   -0.432378
  H     -0.888061    2.590022   -0.432382

 Total Charge           Charge          ....    0
 Multiplicity           Mult            ....    1
 Number of Electrons    NEL             ....   58
 Basis Dimension        Dim             ....  870

ORBITAL ENERGIES
----------------

  NO   OCC          E(Eh)            E(eV)
   0   2.0000     -20.623854      -561.2036
   1   2.0000     -20.623854      -561.2036
   2   2.0000     -15.617728      -424.9800
   3   2.0000     -11.277598      -306.8791
   4   2.0000     -11.277598      -306.8791
   5   2.0000     -11.268259      -306.6249
   6   2.0000     -11.252449      -306.1947
   7   2.0000     -11.252435      -306.1943
   8   2.0000      -1.433495       -39.0074
   9   2.0000      -1.433437       -39.0058
  10   2.0000      -1.283615       -34.9289
  11   2.0000      -1.028426       -27.9849
  12   2.0000      -1.008935       -27.4545
  13   2.0000      -0.942199       -25.6385
  14   2.0000      -0.828640       -22.5484
  15   2.0000      -0.795882       -21.6570
  16   2.0000      -0.767182       -20.8761
  17   2.0000      -0.670058       -18.2332
  18   2.0000      -0.658506       -17.9189
  19   2.0000      -0.657291       -17.8858
  20   2.0000      -0.633437       -17.2367
  21   2.0000      -0.608320       -16.5532
  22   2.0000      -0.606089       -16.4925
  23   2.0000      -0.570223       -15.5166
  24   2.0000      -0.513308       -13.9678
  25   2.0000      -0.397891       -10.8272
  26   2.0000      -0.382875       -10.4186
  27   2.0000      -0.361629        -9.8404
  28   2.0000      -0.307242        -8.3605
  29   0.0000       0.021001         0.5715
  30   0.0000       0.025631         0.6975
  31   0.0000       0.032435         0.8826
  32   0.0000       0.042935         1.1683
  33   0.0000       0.047716         1.2984

MULLIKEN ATOMIC CHARGES
-----------------------
   0 O :   -0.819030
   1 O :   -0.819033
   2 N :   -0.542881
   3 C :   -0.097392
   4 C :   -0.097369
   5 C :    0.750418
   6 C :    0.750410
   7 C :   -0.727176
   8 H :    0.337294
   9 H :    0.337297
  10 H :    0.314947
  11 H :    0.306260
  12 H :    0.306254
Sum of atomic charges:    0.0000000

LOEWDIN ATOMIC CHARGES
----------------------
   0 O :    1.154340
   1 O :    1.154340
   2 N :    0.195136
   3 C :   -0.142929
   4 C :   -0.142929
   5 C :   -0.245663
   6 C :   -0.245663
   7 C :    0.759117
   8 H :   -0.805304
   9 H :   -0.805304
  10 H :   -0.273165
  11 H :   -0.300989
  12 H :   -0.300989

  Mayer bond orders larger than 0.100000
B(  0-O ,  3-C ) :   0.3325 B(  0-O ,  5-C ) :   0.4884 B(  0-O ,  8-H ) :   0.9221
B(  1-O ,  4-C ) :   0.3325 B(  1-O ,  6-C ) :   0.4884 B(  1-O ,  9-H ) :   0.9220
B(  2-N ,  3-C ) :   0.9639 B(  2-N ,  4-C ) :   0.9638 B(  2-N ,  5-C ) :  -0.1366
B(  2-N ,  6-C ) :  -0.1366 B(  2-N ,  7-C ) :   0.7646 B(  3-C ,  5-C ) :   2.9811
B(  4-C ,  6-C ) :   2.9811 B(  7-C , 10-H ) :   0.8964 B(  7-C , 11-H ) :   0.9312
B(  7-C , 12-H ) :   0.9312

MP2 TOTAL ENERGY:     -397.949630446 Eh
FINAL SINGLE POINT ENERGY      -397.949630445512

DIPOLE MOMENT
-------------
                                X             Y             Z
Electronic contribution:      0.00000      -4.53553       0.07342
Nuclear contribution   :     -0.00001       4.85210      -1.12568
                        -----------------------------------------
Total Dipole Moment    :     -0.00000       0.31657      -1.05225
                        -----------------------------------------
Magnitude (a.u.)       :      1.09884
Magnitude (Debye)      :      2.79304

Rotational constants in cm-1:     0.122294     0.030519     0.024674
Rotational constants in MHz :  3666.296851   914.941116   739.699669

                             ****ORCA TERMINATED NORMALLY****
TOTAL RUN TIME: 0 days 0 hours 22 minutes 9 seconds 103 msec
