                         Program Version 5.0.4 -  RELEASE  -
|  1> !ri-mp2 aug-cc-pvqz aug-cc-pvqz/c tightscf
|  2> %pal nprocs 16 end
|  3>
|  4> * xyz 0 1
|  5> S      1.003766   -1.201120   -0.007299
|  6> H      1.244543   -0.995639    1.301926
|  7> C      1.183258    1.587414   -0.017139
|  8> H      1.384325    1.633112    1.054995
|  9> H      0.747685    2.544290   -0.314961
| 10> C      0.224532    0.446006   -0.342190
| 11> H      0.071406    0.407063   -1.423635
| 12> C     -1.135558    0.616531    0.342215
| 13> H     -1.467515    1.642836    0.153798
| 14> H     -0.998475    0.536154    1.424474
| 15> C     -2.218912   -0.353099   -0.120370
| 16> H     -2.402233   -0.253586   -1.192432
| 17> H     -1.934408   -1.386199    0.075183
| 18> H     -3.159570   -0.156548    0.395174
| 19> H      2.134068    1.465332   -0.532831
| 20> *
| 21>
| 22>                          ****END OF INPUT****

CARTESIAN COORDINATES (ANGSTROEM)
---------------------------------
  S      1.003766   -1.201120   -0.007299
  H      1.244543   -0.995639    1.301926
  C      1.183258    1.587414   -0.017139
  H      1.384325    1.633112    1.054995
  H      0.747685    2.544290   -0.314961
  C      0.224532    0.446006   -0.342190
  H      0.071406    0.407063   -1.423635
  C     -1.135558    0.616531    0.342215
  H     -1.467515    1.642836    0.153798
  H     -0.998475    0.536154    1.424474
  C     -2.218912   -0.353099   -0.120370
  H     -2.402233   -0.253586   -1.192432
  H     -1.934408   -1.386199    0.075183
  H     -3.159570   -0.156548    0.395174
  H      2.134068    1.465332   -0.532831

 Total Charge           Charge          ....    0
 Multiplicity           Mult            ....    1
 Number of Electrons    NEL             ....   50
 Basis Dimension        Dim             ....  864

ORBITAL ENERGIES
----------------

  NO   OCC          E(Eh)            E(eV)
   0   2.0000     -91.942967     -2501.8953
   1   2.0000     -11.266686      -306.5821
   2   2.0000     -11.227759      -305.5229
   3   2.0000     -11.222251      -305.3730
   4   2.0000     -11.211131      -305.0704
   5   2.0000      -8.945432      -243.4176
   6   2.0000      -6.627012      -180.3302
   7   2.0000      -6.626010      -180.3029
   8   2.0000      -6.625202      -180.2809
   9   2.0000      -1.101353       -29.9693
  10   2.0000      -1.000676       -27.2298
  11   2.0000      -0.939192       -25.5567
  12   2.0000      -0.864082       -23.5129
  13   2.0000      -0.779869       -21.2213
  14   2.0000      -0.632380       -17.2079
  15   2.0000      -0.604273       -16.4431
  16   2.0000      -0.595304       -16.1990
  17   2.0000      -0.572701       -15.5840
  18   2.0000      -0.539135       -14.6706
  19   2.0000      -0.511552       -13.9200
  20   2.0000      -0.500597       -13.6219
  21   2.0000      -0.481971       -13.1151
  22   2.0000      -0.474636       -12.9155
  23   2.0000      -0.429631       -11.6909
  24   2.0000      -0.353416        -9.6169
  25   0.0000       0.026041         0.7086
  26   0.0000       0.031813         0.8657
  27   0.0000       0.032599         0.8871
  28   0.0000       0.037361         1.0166
  29   0.0000       0.050033         1.3615

MULLIKEN ATOMIC CHARGES
-----------------------
   0 S :   -0.230305
   1 H :   -0.001281
   2 C :   -0.910801
   3 H :    0.227411
   4 H :    0.229429
   5 C :    0.086910
   6 H :    0.294709
   7 C :   -0.412787
   8 H :    0.255708
   9 H :    0.260752
  10 C :   -0.838396
  11 H :    0.229159
  12 H :    0.273285
  13 H :    0.249640
  14 H :    0.286565
Sum of atomic charges:    0.0000000

LOEWDIN ATOMIC CHARGES
----------------------
   0 S :    1.614863
   1 H :   -0.756490
   2 C :    0.831389
   3 H :   -0.298447
   4 H :   -0.282995
   5 C :   -0.277822
   6 H :   -0.378704
   7 C :    0.412899
   8 H :   -0.285328
   9 H :   -0.291934
  10 C :    0.900764
  11 H :   -0.283690
  12 H :   -0.319110
  13 H :   -0.282704
  14 H :   -0.302690

  Mayer bond orders larger than 0.100000
B(  0-S ,  1-H ) :   1.0798 B(  0-S ,  5-C ) :   0.7403 B(  2-C ,  3-H ) :   0.9752
B(  2-C ,  4-H ) :   0.9666 B(  2-C ,  5-C ) :   0.7906 B(  2-C , 14-H ) :   0.9954
B(  5-C ,  6-H ) :   0.8576 B(  5-C ,  7-C ) :   0.8293 B(  7-C ,  8-H ) :   0.8697
B(  7-C ,  9-H ) :   0.8985 B(  7-C , 10-C ) :   0.9266 B( 10-C , 11-H ) :   0.9439
B( 10-C , 12-H ) :   0.9357 B( 10-C , 13-H ) :   1.0202

MP2 TOTAL ENERGY:     -555.871927281 Eh
FINAL SINGLE POINT ENERGY      -555.871927280975

DIPOLE MOMENT
-------------
                                X             Y             Z
Electronic contribution:      4.32636      -5.04992      -0.81911
Nuclear contribution   :     -4.59309       5.69965       0.98076
                        -----------------------------------------
Total Dipole Moment    :     -0.26672       0.64972       0.16166
                        -----------------------------------------
Magnitude (a.u.)       :      0.72070
Magnitude (Debye)      :      1.83189

Rotational constants in cm-1:     0.148785     0.100142     0.065376
Rotational constants in MHz :  4460.461128  3002.178999  1959.936317

                             ****ORCA TERMINATED NORMALLY****
TOTAL RUN TIME: 0 days 0 hours 25 minutes 30 seconds 698 msec
