                         Program Version 5.0.4 -  RELEASE  -
|  1> !ri-mp2 aug-cc-pvqz aug-cc-pvqz/c tightscf
|  2> %pal nprocs 16 end
|  3>
|  4> * xyz 0 1
|  5> C      2.838715   -0.210284    0.151499
|  6> C     -1.452331    1.374908    0.194977
|  7> C     -2.150229   -1.037838    0.031809
|  8> C      1.495560    0.356257   -0.307569
|  9> C      0.304604   -0.477105    0.169426
| 10> C     -1.071855   -0.012797   -0.331369
| 11> H      2.897031   -0.252318    1.241150
| 12> H      2.988894   -1.224454   -0.224592
| 13> H      3.671051    0.400513   -0.201048
| 14> H     -0.743775    2.142198   -0.116896
| 15> H     -1.487672    1.377435    1.287781
| 16> H     -2.438033    1.672153   -0.167266
| 17> H     -2.241995   -1.138272    1.116369
| 18> H     -3.126439   -0.741164   -0.355760
| 19> H     -1.914534   -2.023603   -0.373148
| 20> H      1.400426    1.383805    0.050622
| 21> H      1.479386    0.411612   -1.400581
| 22> H      0.457236   -1.513257   -0.149856
| 23> H      0.293963   -0.498723    1.265583
| 24> H     -1.022318    0.045239   -1.424998
| 25> *
| 26>
| 27>                          ****END OF INPUT****

CARTESIAN COORDINATES (ANGSTROEM)
---------------------------------
  C      2.838715   -0.210284    0.151499
  C     -1.452331    1.374908    0.194977
  C     -2.150229   -1.037838    0.031809
  C      1.495560    0.356257   -0.307569
  C      0.304604   -0.477105    0.169426
  C     -1.071855   -0.012797   -0.331369
  H      2.897031   -0.252318    1.241150
  H      2.988894   -1.224454   -0.224592
  H      3.671051    0.400513   -0.201048
  H     -0.743775    2.142198   -0.116896
  H     -1.487672    1.377435    1.287781
  H     -2.438033    1.672153   -0.167266
  H     -2.241995   -1.138272    1.116369
  H     -3.126439   -0.741164   -0.355760
  H     -1.914534   -2.023603   -0.373148
  H      1.400426    1.383805    0.050622
  H      1.479386    0.411612   -1.400581
  H      0.457236   -1.513257   -0.149856
  H      0.293963   -0.498723    1.265583
  H     -1.022318    0.045239   -1.424998

 Total Charge           Charge          ....    0
 Multiplicity           Mult            ....    1
 Number of Electrons    NEL             ....   50
 Basis Dimension        Dim             .... 1124

ORBITAL ENERGIES
----------------

  NO   OCC          E(Eh)            E(eV)
   0   2.0000     -11.220420      -305.3231
   1   2.0000     -11.213051      -305.1226
   2   2.0000     -11.210112      -305.0427
   3   2.0000     -11.207652      -304.9757
   4   2.0000     -11.205831      -304.9262
   5   2.0000     -11.205690      -304.9223
   6   2.0000      -1.092029       -29.7156
   7   2.0000      -1.027496       -27.9596
   8   2.0000      -0.925436       -25.1824
   9   2.0000      -0.917267       -24.9601
  10   2.0000      -0.810702       -22.0603
  11   2.0000      -0.760504       -20.6944
  12   2.0000      -0.641038       -17.4435
  13   2.0000      -0.607293       -16.5253
  14   2.0000      -0.600230       -16.3331
  15   2.0000      -0.572404       -15.5759
  16   2.0000      -0.549393       -14.9497
  17   2.0000      -0.531250       -14.4560
  18   2.0000      -0.526280       -14.3208
  19   2.0000      -0.508862       -13.8468
  20   2.0000      -0.488487       -13.2924
  21   2.0000      -0.472257       -12.8508
  22   2.0000      -0.453519       -12.3409
  23   2.0000      -0.448330       -12.1997
  24   2.0000      -0.439987       -11.9727
  25   0.0000       0.026710         0.7268
  26   0.0000       0.029821         0.8115
  27   0.0000       0.032600         0.8871
  28   0.0000       0.033328         0.9069
  29   0.0000       0.046599         1.2680

MULLIKEN ATOMIC CHARGES
-----------------------
   0 C :   -0.875986
   1 C :   -0.952663
   2 C :   -0.959166
   3 C :   -0.401921
   4 C :   -0.219932
   5 C :    0.211240
   6 H :    0.220995
   7 H :    0.211432
   8 H :    0.251599
   9 H :    0.256885
  10 H :    0.169225
  11 H :    0.266513
  12 H :    0.182460
  13 H :    0.254988
  14 H :    0.241015
  15 H :    0.243336
  16 H :    0.214880
  17 H :    0.284114
  18 H :    0.172247
  19 H :    0.228738
Sum of atomic charges:    0.0000000

LOEWDIN ATOMIC CHARGES
----------------------
   0 C :    0.931193
   1 C :    0.922794
   2 C :    0.919317
   3 C :    0.513502
   4 C :    0.501443
   5 C :    0.105391
   6 H :   -0.283284
   7 H :   -0.285006
   8 H :   -0.283606
   9 H :   -0.290043
  10 H :   -0.271804
  11 H :   -0.276892
  12 H :   -0.275581
  13 H :   -0.278149
  14 H :   -0.277761
  15 H :   -0.288374
  16 H :   -0.266773
  17 H :   -0.276860
  18 H :   -0.266059
  19 H :   -0.273448

  Mayer bond orders larger than 0.100000
B(  0-C ,  3-C ) :   0.9466 B(  0-C ,  6-H ) :   0.9590 B(  0-C ,  7-H ) :   0.9847
B(  0-C ,  8-H ) :   1.0423 B(  1-C ,  2-C ) :   0.1245 B(  1-C ,  5-C ) :   0.6357
B(  1-C ,  9-H ) :   1.0000 B(  1-C , 10-H ) :   1.0161 B(  1-C , 11-H ) :   1.0233
B(  2-C ,  5-C ) :   0.6822 B(  2-C , 12-H ) :   1.0205 B(  2-C , 13-H ) :   1.0353
B(  2-C , 14-H ) :   1.0113 B(  3-C ,  4-C ) :   0.8382 B(  3-C ,  8-H ) :  -0.1176
B(  3-C , 15-H ) :   0.8702 B(  3-C , 16-H ) :   0.9003 B(  4-C ,  5-C ) :   0.7884
B(  4-C , 17-H ) :   0.8660 B(  4-C , 18-H ) :   0.9385 B(  5-C , 13-H ) :  -0.1050
B(  5-C , 19-H ) :   0.9205

MP2 TOTAL ENERGY:     -236.606636959 Eh
FINAL SINGLE POINT ENERGY      -236.606636959043

DIPOLE MOMENT
-------------
                                X             Y             Z
Electronic contribution:     -0.22481      -0.02769      -0.64522
Nuclear contribution   :      0.23233       0.04485       0.59643
                        -----------------------------------------
Total Dipole Moment    :      0.00752       0.01716      -0.04879
                        -----------------------------------------
Magnitude (a.u.)       :      0.05226
Magnitude (Debye)      :      0.13284

Rotational constants in cm-1:     0.221043     0.056665     0.048779
Rotational constants in MHz :  6626.714039  1698.763836  1462.371455

                             ****ORCA TERMINATED NORMALLY****
TOTAL RUN TIME: 0 days 0 hours 56 minutes 57 seconds 982 msec
