                         Program Version 5.0.4 -  RELEASE  -
|  1> !ri-mp2 aug-cc-pvqz aug-cc-pvqz/c tightscf
|  2> %pal nprocs 16 end
|  3>
|  4> * xyz 0 1
|  5> Cl    -1.347415    1.412561    0.204092
|  6> S      2.973465    0.301056   -0.225140
|  7> N      0.624438   -1.122322    0.123077
|  8> C     -1.679642   -0.291748   -0.037658
|  9> C     -0.706921   -1.216488    0.644751
| 10> C      1.609055   -0.467672   -0.001390
| 11> C     -2.720952   -0.690146   -0.750013
| 12> H     -0.681309   -1.001003    1.716381
| 13> H     -1.057855   -2.239216    0.515322
| 14> H     -2.900921   -1.746442   -0.895230
| 15> H     -3.409606    0.008805   -1.199480
| 16> *
| 17>
| 18>                          ****END OF INPUT****

CARTESIAN COORDINATES (ANGSTROEM)
---------------------------------
  Cl    -1.347415    1.412561    0.204092
  S      2.973465    0.301056   -0.225140
  N      0.624438   -1.122322    0.123077
  C     -1.679642   -0.291748   -0.037658
  C     -0.706921   -1.216488    0.644751
  C      1.609055   -0.467672   -0.001390
  C     -2.720952   -0.690146   -0.750013
  H     -0.681309   -1.001003    1.716381
  H     -1.057855   -2.239216    0.515322
  H     -2.900921   -1.746442   -0.895230
  H     -3.409606    0.008805   -1.199480

 Total Charge           Charge          ....    0
 Multiplicity           Mult            ....    1
 Number of Electrons    NEL             ....   68
 Basis Dimension        Dim             ....  752

ORBITAL ENERGIES
----------------

  NO   OCC          E(Eh)            E(eV)
   0   2.0000    -104.851554     -2853.1558
   1   2.0000     -91.945060     -2501.9523
   2   2.0000     -15.608746      -424.7356
   3   2.0000     -11.375771      -309.5505
   4   2.0000     -11.327009      -308.2236
   5   2.0000     -11.325761      -308.1896
   6   2.0000     -11.262094      -306.4572
   7   2.0000     -10.576906      -287.8122
   8   2.0000      -8.949221      -243.5207
   9   2.0000      -8.043994      -218.8882
  10   2.0000      -8.042252      -218.8408
  11   2.0000      -8.042216      -218.8398
  12   2.0000      -6.631078      -180.4408
  13   2.0000      -6.628721      -180.3767
  14   2.0000      -6.628540      -180.3717
  15   2.0000      -1.301434       -35.4138
  16   2.0000      -1.180315       -32.1180
  17   2.0000      -1.072718       -29.1901
  18   2.0000      -1.032533       -28.0967
  19   2.0000      -0.987442       -26.8697
  20   2.0000      -0.800081       -21.7713
  21   2.0000      -0.732802       -19.9406
  22   2.0000      -0.687459       -18.7067
  23   2.0000      -0.670960       -18.2577
  24   2.0000      -0.616306       -16.7705
  25   2.0000      -0.596049       -16.2193
  26   2.0000      -0.569797       -15.5050
  27   2.0000      -0.535042       -14.5592
  28   2.0000      -0.524497       -14.2723
  29   2.0000      -0.510112       -13.8809
  30   2.0000      -0.468728       -12.7547
  31   2.0000      -0.391629       -10.6568
  32   2.0000      -0.363562        -9.8930
  33   2.0000      -0.357283        -9.7222
  34   0.0000       0.019665         0.5351
  35   0.0000       0.029169         0.7937
  36   0.0000       0.035066         0.9542
  37   0.0000       0.046582         1.2676
  38   0.0000       0.051755         1.4083

MULLIKEN ATOMIC CHARGES
-----------------------
   0 Cl:   -0.228214
   1 S :    0.016531
   2 N :   -0.420525
   3 C :   -0.046222
   4 C :   -0.063673
   5 C :    0.032527
   6 C :   -0.737643
   7 H :    0.307682
   8 H :    0.386225
   9 H :    0.285418
  10 H :    0.467893
Sum of atomic charges:   -0.0000000

LOEWDIN ATOMIC CHARGES
----------------------
   0 Cl:    1.193533
   1 S :    0.940326
   2 N :    0.374761
   3 C :   -0.813345
   4 C :    0.107247
   5 C :   -1.046653
   6 C :    0.661798
   7 H :   -0.328964
   8 H :   -0.350607
   9 H :   -0.358633
  10 H :   -0.379464

  Mayer bond orders larger than 0.100000
B(  0-Cl,  3-C ) :   0.8551 B(  1-S ,  5-C ) :   1.5340 B(  2-N ,  4-C ) :   0.7302
B(  2-N ,  5-C ) :   2.1303 B(  3-C ,  4-C ) :   0.8082 B(  3-C ,  6-C ) :   1.7229
B(  4-C ,  7-H ) :   0.8815 B(  4-C ,  8-H ) :   0.8622 B(  6-C ,  9-H ) :   0.9433
B(  6-C , 10-H ) :   0.8277

MP2 TOTAL ENERGY:    -1066.658619003 Eh
FINAL SINGLE POINT ENERGY     -1066.658619003376

DIPOLE MOMENT
-------------
                                X             Y             Z
Electronic contribution:      4.52015       5.84362       0.36343
Nuclear contribution   :     -5.93644      -6.70551      -0.14083
                        -----------------------------------------
Total Dipole Moment    :     -1.41628      -0.86190       0.22260
                        -----------------------------------------
Magnitude (a.u.)       :      1.67280
Magnitude (Debye)      :      4.25193

Rotational constants in cm-1:     0.114344     0.030344     0.025465
Rotational constants in MHz :  3427.943744   909.678812   763.417871

                             ****ORCA TERMINATED NORMALLY****
TOTAL RUN TIME: 0 days 0 hours 19 minutes 44 seconds 549 msec
