                         Program Version 5.0.4 -  RELEASE  -
|  1> !ri-mp2 aug-cc-pvqz aug-cc-pvqz/c tightscf
|  2> %pal nprocs 16 end
|  3>
|  4> * xyz 0 1
|  5> O    -2.841359   -1.632448   -0.003270
|  6> N     1.285402   -0.975322   -0.019771
|  7> N     2.484031   -0.680505   -0.010863
|  8> N     3.605627   -0.567935   -0.006143
|  9> C     0.339502    0.047766    0.013908
| 10> C    -0.993794   -0.172117    0.008810
| 11> C     0.682021    1.512322    0.110918
| 12> C    -1.750128    1.127746    0.107057
| 13> C    -0.671031    2.199116   -0.176680
| 14> C    -1.636105   -1.476759   -0.036351
| 15> H     1.467801    1.806010   -0.588127
| 16> H     1.055913    1.737532    1.115662
| 17> H    -2.583844    1.169965   -0.593065
| 18> H    -2.183781    1.237766    1.105376
| 19> H    -0.710080    2.486415   -1.227487
| 20> H    -0.808422    3.103763    0.412368
| 21> H    -0.954916   -2.343981   -0.107093
| 22> *
| 23>
| 24>                          ****END OF INPUT****

CARTESIAN COORDINATES (ANGSTROEM)
---------------------------------
  O     -2.841359   -1.632448   -0.003270
  N      1.285402   -0.975322   -0.019771
  N      2.484031   -0.680505   -0.010863
  N      3.605627   -0.567935   -0.006143
  C      0.339502    0.047766    0.013908
  C     -0.993794   -0.172117    0.008810
  C      0.682021    1.512322    0.110918
  C     -1.750128    1.127746    0.107057
  C     -0.671031    2.199116   -0.176680
  C     -1.636105   -1.476759   -0.036351
  H      1.467801    1.806010   -0.588127
  H      1.055913    1.737532    1.115662
  H     -2.583844    1.169965   -0.593065
  H     -2.183781    1.237766    1.105376
  H     -0.710080    2.486415   -1.227487
  H     -0.808422    3.103763    0.412368
  H     -0.954916   -2.343981   -0.107093

 Total Charge           Charge          ....    0
 Multiplicity           Mult            ....    1
 Number of Electrons    NEL             ....   72
 Basis Dimension        Dim             .... 1122

ORBITAL ENERGIES
----------------

  NO   OCC          E(Eh)            E(eV)
   0   2.0000     -20.541812      -558.9711
   1   2.0000     -15.812905      -430.2910
   2   2.0000     -15.701735      -427.2659
   3   2.0000     -15.639398      -425.5697
   4   2.0000     -11.321643      -308.0776
   5   2.0000     -11.316306      -307.9323
   6   2.0000     -11.257909      -306.3433
   7   2.0000     -11.241265      -305.8904
   8   2.0000     -11.237732      -305.7942
   9   2.0000     -11.233823      -305.6879
  10   2.0000      -1.540031       -41.9064
  11   2.0000      -1.377408       -37.4812
  12   2.0000      -1.334747       -36.3203
  13   2.0000      -1.164675       -31.6924
  14   2.0000      -1.027134       -27.9497
  15   2.0000      -0.998414       -27.1682
  16   2.0000      -0.884360       -24.0647
  17   2.0000      -0.851216       -23.1628
  18   2.0000      -0.797432       -21.6992
  19   2.0000      -0.738053       -20.0834
  20   2.0000      -0.735479       -20.0134
  21   2.0000      -0.710934       -19.3455
  22   2.0000      -0.700326       -19.0568
  23   2.0000      -0.662354       -18.0236
  24   2.0000      -0.641064       -17.4442
  25   2.0000      -0.593203       -16.1419
  26   2.0000      -0.579742       -15.7756
  27   2.0000      -0.576928       -15.6990
  28   2.0000      -0.543451       -14.7881
  29   2.0000      -0.521703       -14.1963
  30   2.0000      -0.502682       -13.6787
  31   2.0000      -0.500139       -13.6095
  32   2.0000      -0.469255       -12.7691
  33   2.0000      -0.465442       -12.6653
  34   2.0000      -0.416999       -11.3471
  35   2.0000      -0.331640        -9.0244
  36   0.0000       0.020918         0.5692
  37   0.0000       0.030450         0.8286
  38   0.0000       0.031908         0.8683
  39   0.0000       0.033421         0.9094
  40   0.0000       0.046902         1.2763

MULLIKEN ATOMIC CHARGES
-----------------------
   0 O :   -0.799461
   1 N :   -0.395493
   2 N :    0.237828
   3 N :   -0.321602
   4 C :    0.556952
   5 C :   -0.167587
   6 C :   -0.549348
   7 C :   -0.320337
   8 C :   -0.461948
   9 C :    0.518021
  10 H :    0.241018
  11 H :    0.274987
  12 H :    0.183649
  13 H :    0.223577
  14 H :    0.247151
  15 H :    0.247971
  16 H :    0.284621
Sum of atomic charges:   -0.0000000

LOEWDIN ATOMIC CHARGES
----------------------
   0 O :    0.694267
   1 N :    0.345675
   2 N :   -0.236862
   3 N :    0.403280
   4 C :   -0.357361
   5 C :   -0.129578
   6 C :    0.495934
   7 C :    0.487981
   8 C :    0.539917
   9 C :   -0.273832
  10 H :   -0.274931
  11 H :   -0.259416
  12 H :   -0.272065
  13 H :   -0.261977
  14 H :   -0.267500
  15 H :   -0.257593
  16 H :   -0.375940

  Mayer bond orders larger than 0.100000
B(  0-O ,  5-C ) :   0.2341 B(  0-O ,  9-C ) :   1.2096 B(  1-N ,  2-N ) :   1.3766
B(  1-N ,  3-N ) :   0.1786 B(  1-N ,  4-C ) :   0.6904 B(  1-N ,  5-C ) :  -0.1048
B(  2-N ,  3-N ) :   2.1879 B(  2-N ,  4-C ) :  -0.3097 B(  4-C ,  5-C ) :   1.3692
B(  4-C ,  6-C ) :   0.8343 B(  4-C ,  7-C ) :  -0.1297 B(  4-C ,  9-C ) :  -0.1159
B(  5-C ,  7-C ) :   0.6917 B(  5-C ,  9-C ) :   0.9777 B(  5-C , 16-H ) :  -0.1825
B(  6-C ,  8-C ) :   1.0063 B(  6-C , 10-H ) :   0.9851 B(  6-C , 11-H ) :   0.8665
B(  7-C ,  8-C ) :   1.0487 B(  7-C , 12-H ) :   1.0344 B(  7-C , 13-H ) :   0.9013
B(  8-C , 14-H ) :   0.8987 B(  8-C , 15-H ) :   0.9488 B(  9-C , 16-H ) :   1.0532

MP2 TOTAL ENERGY:     -471.523065791 Eh
FINAL SINGLE POINT ENERGY      -471.523065790983

DIPOLE MOMENT
-------------
                                X             Y             Z
Electronic contribution:      6.04989      -7.84856      -0.09024
Nuclear contribution   :     -4.65274       9.03041       0.11572
                        -----------------------------------------
Total Dipole Moment    :      1.39715       1.18185       0.02548
                        -----------------------------------------
Magnitude (a.u.)       :      1.83015
Magnitude (Debye)      :      4.65188

Rotational constants in cm-1:     0.073280     0.031428     0.022320
Rotational constants in MHz :  2196.890287   942.176846   669.127050

                             ****ORCA TERMINATED NORMALLY****
TOTAL RUN TIME: 0 days 1 hours 8 minutes 23 seconds 940 msec
