                         Program Version 5.0.4 -  RELEASE  -
|  1> !ri-mp2 aug-cc-pvqz aug-cc-pvqz/c tightscf
|  2> %pal nprocs 16 end
|  3>
|  4> * xyz 0 1
|  5> C     0.000000    0.000000   -3.930784
|  6> C     0.000000    0.000000   -2.731540
|  7> C     0.000000    0.000000    2.793427
|  8> C     0.000000    1.188249    0.632112
|  9> C     0.000000   -1.188249    0.632112
| 10> C     0.000000    0.000000   -1.302335
| 11> C     0.000000    0.000000    1.369921
| 12> N     0.000000    0.000000    3.945700
| 13> N     0.000000    1.194481   -0.690626
| 14> N     0.000000   -1.194481   -0.690626
| 15> H     0.000000    0.000000   -4.992828
| 16> H     0.000000    2.149383    1.132106
| 17> H     0.000000   -2.149383    1.132106
| 18> *
| 19>
| 20>                          ****END OF INPUT****

CARTESIAN COORDINATES (ANGSTROEM)
---------------------------------
  C      0.000000    0.000000   -3.930784
  C      0.000000    0.000000   -2.731540
  C      0.000000    0.000000    2.793427
  C      0.000000    1.188249    0.632112
  C      0.000000   -1.188249    0.632112
  C      0.000000    0.000000   -1.302335
  C      0.000000    0.000000    1.369921
  N      0.000000    0.000000    3.945700
  N      0.000000    1.194481   -0.690626
  N      0.000000   -1.194481   -0.690626
  H      0.000000    0.000000   -4.992828
  H      0.000000    2.149383    1.132106
  H      0.000000   -2.149383    1.132106

 Total Charge           Charge          ....    0
 Multiplicity           Mult            ....    1
 Number of Electrons    NEL             ....   66
 Basis Dimension        Dim             ....  938

ORBITAL ENERGIES
----------------

  NO   OCC          E(Eh)            E(eV)
   0   2.0000     -15.607509      -424.7019
   1   2.0000     -15.607483      -424.7012
   2   2.0000     -15.591150      -424.2568
   3   2.0000     -11.377927      -309.6091
   4   2.0000     -11.340720      -308.5967
   5   2.0000     -11.340704      -308.5962
   6   2.0000     -11.308755      -307.7269
   7   2.0000     -11.295060      -307.3542
   8   2.0000     -11.265436      -306.5481
   9   2.0000     -11.259764      -306.3938
  10   2.0000      -1.358208       -36.9587
  11   2.0000      -1.243338       -33.8329
  12   2.0000      -1.237763       -33.6813
  13   2.0000      -1.141547       -31.0631
  14   2.0000      -1.062480       -28.9116
  15   2.0000      -0.962847       -26.2004
  16   2.0000      -0.939512       -25.5654
  17   2.0000      -0.810359       -22.0510
  18   2.0000      -0.794884       -21.6299
  19   2.0000      -0.757027       -20.5998
  20   2.0000      -0.731380       -19.9019
  21   2.0000      -0.646864       -17.6021
  22   2.0000      -0.637759       -17.3543
  23   2.0000      -0.629753       -17.1364
  24   2.0000      -0.582172       -15.8417
  25   2.0000      -0.532760       -14.4971
  26   2.0000      -0.525894       -14.3103
  27   2.0000      -0.499364       -13.5884
  28   2.0000      -0.462280       -12.5793
  29   2.0000      -0.453623       -12.3437
  30   2.0000      -0.444673       -12.1002
  31   2.0000      -0.429057       -11.6752
  32   2.0000      -0.375670       -10.2225
  33   0.0000       0.020582         0.5601
  34   0.0000       0.025793         0.7019
  35   0.0000       0.026014         0.7079
  36   0.0000       0.030329         0.8253
  37   0.0000       0.050492         1.3740

MULLIKEN ATOMIC CHARGES
-----------------------
   0 C :   -0.550560
   1 C :    0.048740
   2 C :    0.829897
   3 C :   -0.080392
   4 C :   -0.080347
   5 C :    0.525673
   6 C :   -0.210125
   7 N :   -0.772656
   8 N :   -0.580293
   9 N :   -0.580321
  10 H :    0.468806
  11 H :    0.490792
  12 H :    0.490786
Sum of atomic charges:    0.0000000

LOEWDIN ATOMIC CHARGES
----------------------
   0 C :    0.581651
   1 C :    0.016429
   2 C :   -0.320439
   3 C :    0.067483
   4 C :    0.067483
   5 C :   -0.712712
   6 C :   -0.208984
   7 N :    0.417804
   8 N :    0.592004
   9 N :    0.592004
  10 H :   -0.442618
  11 H :   -0.325052
  12 H :   -0.325052

  Mayer bond orders larger than 0.100000
B(  0-C ,  1-C ) :   2.6959 B(  0-C ,  5-C ) :  -0.5071 B(  0-C , 10-H ) :   0.8658
B(  1-C ,  5-C ) :   0.5455 B(  1-C , 10-H ) :  -0.1704 B(  2-C ,  3-C ) :  -0.2329
B(  2-C ,  4-C ) :  -0.2329 B(  2-C ,  6-C ) :   1.4025 B(  2-C ,  7-N ) :   2.2626
B(  3-C ,  6-C ) :   1.1318 B(  3-C ,  8-N ) :   1.2411 B(  3-C , 11-H ) :   0.8199
B(  4-C ,  6-C ) :   1.1318 B(  4-C ,  9-N ) :   1.2410 B(  4-C , 12-H ) :   0.8199
B(  5-C ,  8-N ) :   1.1268 B(  5-C ,  9-N ) :   1.1269

MP2 TOTAL ENERGY:     -432.000037319 Eh
FINAL SINGLE POINT ENERGY      -432.000037318743

DIPOLE MOMENT
-------------
                                X             Y             Z
Electronic contribution:      0.00000       0.00000       1.47393
Nuclear contribution   :      0.00000       0.00000      -2.60493
                        -----------------------------------------
Total Dipole Moment    :      0.00000       0.00000      -1.13100
                        -----------------------------------------
Magnitude (a.u.)       :      1.13100
Magnitude (Debye)      :      2.87478

Rotational constants in cm-1:     0.202613     0.024772     0.022073
Rotational constants in MHz :  6074.193583   742.635520   661.731700

                             ****ORCA TERMINATED NORMALLY****
TOTAL RUN TIME: 0 days 0 hours 30 minutes 4 seconds 866 msec
