                         Program Version 5.0.4 -  RELEASE  -
|  1> !ri-mp2 aug-cc-pvqz aug-cc-pvqz/c tightscf
|  2> %pal nprocs 16 end
|  3>
|  4> * xyz 0 1
|  5> C     0.000000     0.000000    1.454540
|  6> C     0.000000     0.000000    0.123825
|  7> C     0.000000     1.272551   -0.676777
|  8> C     0.000000    -1.272551   -0.676777
|  9> H     0.000000    -0.922142    2.021334
| 10> H     0.000000     0.922142    2.021334
| 11> H     0.876282     1.321528   -1.329331
| 12> H    -0.876282     1.321528   -1.329331
| 13> H     0.000000     2.153807   -0.037106
| 14> H    -0.876282    -1.321528   -1.329331
| 15> H     0.876282    -1.321528   -1.329331
| 16> H     0.000000    -2.153807   -0.037106
| 17> *
| 18>
| 19>                          ****END OF INPUT****

CARTESIAN COORDINATES (ANGSTROEM)
---------------------------------
  C      0.000000    0.000000    1.454540
  C      0.000000    0.000000    0.123825
  C      0.000000    1.272551   -0.676777
  C      0.000000   -1.272551   -0.676777
  H      0.000000   -0.922142    2.021334
  H      0.000000    0.922142    2.021334
  H      0.876282    1.321528   -1.329331
  H     -0.876282    1.321528   -1.329331
  H      0.000000    2.153807   -0.037106
  H     -0.876282   -1.321528   -1.329331
  H      0.876282   -1.321528   -1.329331
  H      0.000000   -2.153807   -0.037106

 Total Charge           Charge          ....    0
 Multiplicity           Mult            ....    1
 Number of Electrons    NEL             ....   32
 Basis Dimension        Dim             ....  688

ORBITAL ENERGIES
----------------

  NO   OCC          E(Eh)            E(eV)
   0   2.0000     -11.236963      -305.7733
   1   2.0000     -11.217968      -305.2564
   2   2.0000     -11.217941      -305.2557
   3   2.0000     -11.206438      -304.9427
   4   2.0000      -1.089523       -29.6474
   5   2.0000      -0.941648       -25.6236
   6   2.0000      -0.926987       -25.2246
   7   2.0000      -0.718854       -19.5610
   8   2.0000      -0.619846       -16.8669
   9   2.0000      -0.610608       -16.6155
  10   2.0000      -0.590268       -16.0620
  11   2.0000      -0.536974       -14.6118
  12   2.0000      -0.521598       -14.1934
  13   2.0000      -0.516085       -14.0434
  14   2.0000      -0.479187       -13.0393
  15   2.0000      -0.347552        -9.4574
  16   0.0000       0.027255         0.7416
  17   0.0000       0.033777         0.9191
  18   0.0000       0.034206         0.9308
  19   0.0000       0.040266         1.0957
  20   0.0000       0.048550         1.3211

MULLIKEN ATOMIC CHARGES
-----------------------
   0 C :   -0.866513
   1 C :    0.276956
   2 C :   -0.700436
   3 C :   -0.700436
   4 H :    0.264782
   5 H :    0.264782
   6 H :    0.245076
   7 H :    0.245076
   8 H :    0.240280
   9 H :    0.245076
  10 H :    0.245076
  11 H :    0.240280
Sum of atomic charges:    0.0000000

LOEWDIN ATOMIC CHARGES
----------------------
   0 C :    0.791962
   1 C :   -0.068186
   2 C :    0.879831
   3 C :    0.879831
   4 H :   -0.356464
   5 H :   -0.356464
   6 H :   -0.286650
   7 H :   -0.286650
   8 H :   -0.311954
   9 H :   -0.286650
  10 H :   -0.286650
  11 H :   -0.311954

  Mayer bond orders larger than 0.100000
B(  0-C ,  1-C ) :   1.5819 B(  0-C ,  4-H ) :   1.0281 B(  0-C ,  5-H ) :   1.0281
B(  1-C ,  2-C ) :   0.7217 B(  1-C ,  3-C ) :   0.7217 B(  2-C ,  6-H ) :   0.9636
B(  2-C ,  7-H ) :   0.9636 B(  2-C ,  8-H ) :   1.0096 B(  3-C ,  9-H ) :   0.9636
B(  3-C , 10-H ) :   0.9636 B(  3-C , 11-H ) :   1.0096

MP2 TOTAL ENERGY:     -156.910811894 Eh
FINAL SINGLE POINT ENERGY      -156.910811893987

DIPOLE MOMENT
-------------
                                X             Y             Z
Electronic contribution:      0.00000      -0.00000       1.21570
Nuclear contribution   :      0.00000      -0.00000      -1.44480
                        -----------------------------------------
Total Dipole Moment    :      0.00000      -0.00000      -0.22909
                        -----------------------------------------
Magnitude (a.u.)       :      0.22909
Magnitude (Debye)      :      0.58231

Rotational constants in cm-1:     0.306351     0.280471     0.154743
Rotational constants in MHz :  9184.178283  8408.295919  4639.064983

                             ****ORCA TERMINATED NORMALLY****
TOTAL RUN TIME: 0 days 0 hours 12 minutes 5 seconds 224 msec
