                         Program Version 5.0.4 -  RELEASE  -
|  1> !ri-mp2 aug-cc-pvqz aug-cc-pvqz/c tightscf
|  2> %pal nprocs 16 end
|  3>
|  4> * xyz 0 1
|  5> F    -1.560515    0.669193    1.027935
|  6> F    -2.395956   -0.758181   -0.402751
|  7> N    -1.190368   -0.448376    0.254141
|  8> N     2.540504   -1.531236    0.370739
|  9> C    -0.339313    0.108786   -0.819505
| 10> C     1.022612    0.458263   -0.274893
| 11> C     1.448448    1.716095   -0.160431
| 12> C     1.869720   -0.636358    0.095191
| 13> H    -0.826459    0.978775   -1.258076
| 14> H    -0.271637   -0.689646   -1.557439
| 15> H     0.810176    2.542787   -0.438338
| 16> H     2.436402    1.945546    0.210865
| 17> *
| 18>
| 19>                          ****END OF INPUT****

CARTESIAN COORDINATES (ANGSTROEM)
---------------------------------
  F     -1.560515    0.669193    1.027935
  F     -2.395956   -0.758181   -0.402751
  N     -1.190368   -0.448376    0.254141
  N      2.540504   -1.531236    0.370739
  C     -0.339313    0.108786   -0.819505
  C      1.022612    0.458263   -0.274893
  C      1.448448    1.716095   -0.160431
  C      1.869720   -0.636358    0.095191
  H     -0.826459    0.978775   -1.258076
  H     -0.271637   -0.689646   -1.557439
  H      0.810176    2.542787   -0.438338
  H      2.436402    1.945546    0.210865

 Total Charge           Charge          ....    0
 Multiplicity           Mult            ....    1
 Number of Electrons    NEL             ....   60
 Basis Dimension        Dim             ....  824

ORBITAL ENERGIES
----------------

  NO   OCC          E(Eh)            E(eV)
   0   2.0000     -26.345712      -716.9033
   1   2.0000     -26.344278      -716.8643
   2   2.0000     -15.785891      -429.5559
   3   2.0000     -15.587196      -424.1492
   4   2.0000     -11.323553      -308.1295
   5   2.0000     -11.315621      -307.9137
   6   2.0000     -11.296622      -307.3967
   7   2.0000     -11.289004      -307.1894
   8   2.0000      -1.691240       -46.0210
   9   2.0000      -1.606714       -43.7209
  10   2.0000      -1.242946       -33.8223
  11   2.0000      -1.201415       -32.6922
  12   2.0000      -1.114835       -30.3362
  13   2.0000      -0.960702       -26.1420
  14   2.0000      -0.890777       -24.2393
  15   2.0000      -0.781851       -21.2753
  16   2.0000      -0.773096       -21.0370
  17   2.0000      -0.770586       -20.9687
  18   2.0000      -0.717608       -19.5271
  19   2.0000      -0.690254       -18.7828
  20   2.0000      -0.668184       -18.1822
  21   2.0000      -0.647041       -17.6069
  22   2.0000      -0.645530       -17.5658
  23   2.0000      -0.610032       -16.5998
  24   2.0000      -0.590111       -16.0577
  25   2.0000      -0.564365       -15.3571
  26   2.0000      -0.528639       -14.3850
  27   2.0000      -0.499990       -13.6054
  28   2.0000      -0.484728       -13.1901
  29   2.0000      -0.412140       -11.2149
  30   0.0000       0.017466         0.4753
  31   0.0000       0.027818         0.7570
  32   0.0000       0.033976         0.9245
  33   0.0000       0.044232         1.2036
  34   0.0000       0.049697         1.3523

MULLIKEN ATOMIC CHARGES
-----------------------
   0 F :   -0.437727
   1 F :   -0.440568
   2 N :    0.452525
   3 N :   -0.715819
   4 C :   -0.144431
   5 C :   -0.102113
   6 C :   -0.767283
   7 C :    0.676818
   8 H :    0.363480
   9 H :    0.375434
  10 H :    0.363785
  11 H :    0.375898
Sum of atomic charges:   -0.0000000

LOEWDIN ATOMIC CHARGES
----------------------
   0 F :    0.490848
   1 F :    0.494068
   2 N :   -0.508986
   3 N :    0.424708
   4 C :    0.146806
   5 C :   -0.198152
   6 C :    0.803566
   7 C :   -0.335075
   8 H :   -0.340414
   9 H :   -0.331396
  10 H :   -0.323103
  11 H :   -0.322869

  Mayer bond orders larger than 0.100000
B(  0-F ,  2-N ) :   0.7056 B(  1-F ,  2-N ) :   0.6840 B(  2-N ,  4-C ) :   0.9217
B(  3-N ,  7-C ) :   2.3892 B(  4-C ,  5-C ) :   0.7350 B(  4-C ,  8-H ) :   0.8668
B(  4-C ,  9-H ) :   0.8141 B(  5-C ,  6-C ) :   1.5681 B(  5-C ,  7-C ) :   1.2737
B(  6-C , 10-H ) :   0.9227 B(  6-C , 11-H ) :   0.9153

MP2 TOTAL ENERGY:     -463.249471983 Eh
FINAL SINGLE POINT ENERGY      -463.249471982902

DIPOLE MOMENT
-------------
                                X             Y             Z
Electronic contribution:     -5.76310      -3.02468       2.49582
Nuclear contribution   :      5.78640       4.63170      -3.48947
                        -----------------------------------------
Total Dipole Moment    :      0.02330       1.60702      -0.99366
                        -----------------------------------------
Magnitude (a.u.)       :      1.88956
Magnitude (Debye)      :      4.80287

Rotational constants in cm-1:     0.113161     0.042848     0.036375
Rotational constants in MHz :  3392.490443  1284.558218  1090.491025

                             ****ORCA TERMINATED NORMALLY****
TOTAL RUN TIME: 0 days 0 hours 19 minutes 39 seconds 558 msec
