                         Program Version 5.0.4 -  RELEASE  -
|  1> !ri-mp2 aug-cc-pvqz aug-cc-pvqz/c tightscf
|  2> %pal nprocs 16 end
|  3>
|  4> * xyz 0 1
|  5> O     -0.777836    0.622205   -0.000066
|  6> O      1.157333    1.699452   -0.000071
|  7> N      2.577306   -0.606933    0.000088
|  8> N      3.695819   -0.545596    0.000118
|  9> C     -1.504219   -0.618985   -0.000007
| 10> C      0.582712    0.639548   -0.000031
| 11> C      1.267948   -0.648464    0.000052
| 12> C     -2.928155   -0.331723   -0.000031
| 13> C     -4.108010   -0.128816   -0.000050
| 14> H     -1.247335   -1.201991   -0.888800
| 15> H     -1.247348   -1.201899    0.888849
| 16> H      0.837583   -1.633315    0.000081
| 17> H     -5.152401    0.062286   -0.000066
| 18> *
| 19>
| 20>                          ****END OF INPUT****

CARTESIAN COORDINATES (ANGSTROEM)
---------------------------------
  O     -0.777836    0.622205   -0.000066
  O      1.157333    1.699452   -0.000071
  N      2.577306   -0.606933    0.000088
  N      3.695819   -0.545596    0.000118
  C     -1.504219   -0.618985   -0.000007
  C      0.582712    0.639548   -0.000031
  C      1.267948   -0.648464    0.000052
  C     -2.928155   -0.331723   -0.000031
  C     -4.108010   -0.128816   -0.000050
  H     -1.247335   -1.201991   -0.888800
  H     -1.247348   -1.201899    0.888849
  H      0.837583   -1.633315    0.000081
  H     -5.152401    0.062286   -0.000066

 Total Charge           Charge          ....    0
 Multiplicity           Mult            ....    1
 Number of Electrons    NEL             ....   64
 Basis Dimension        Dim             ....  904

ORBITAL ENERGIES
----------------

  NO   OCC          E(Eh)            E(eV)
   0   2.0000     -20.612889      -560.9052
   1   2.0000     -20.535276      -558.7933
   2   2.0000     -15.778628      -429.3583
   3   2.0000     -15.713998      -427.5996
   4   2.0000     -11.398504      -310.1691
   5   2.0000     -11.340930      -308.6024
   6   2.0000     -11.297045      -307.4082
   7   2.0000     -11.251248      -306.1620
   8   2.0000     -11.244760      -305.9855
   9   2.0000      -1.515712       -41.2446
  10   2.0000      -1.462638       -39.8004
  11   2.0000      -1.366611       -37.1874
  12   2.0000      -1.169180       -31.8150
  13   2.0000      -1.081286       -29.4233
  14   2.0000      -0.985537       -26.8178
  15   2.0000      -0.894714       -24.3464
  16   2.0000      -0.768415       -20.9096
  17   2.0000      -0.767265       -20.8784
  18   2.0000      -0.741454       -20.1760
  19   2.0000      -0.713965       -19.4280
  20   2.0000      -0.706579       -19.2270
  21   2.0000      -0.693106       -18.8604
  22   2.0000      -0.681056       -18.5325
  23   2.0000      -0.645717       -17.5709
  24   2.0000      -0.615280       -16.7426
  25   2.0000      -0.587759       -15.9937
  26   2.0000      -0.547114       -14.8877
  27   2.0000      -0.476604       -12.9691
  28   2.0000      -0.462554       -12.5867
  29   2.0000      -0.416932       -11.3453
  30   2.0000      -0.408834       -11.1249
  31   2.0000      -0.365979        -9.9588
  32   0.0000       0.016723         0.4551
  33   0.0000       0.024973         0.6796
  34   0.0000       0.034265         0.9324
  35   0.0000       0.042217         1.1488
  36   0.0000       0.051293         1.3958

MULLIKEN ATOMIC CHARGES
-----------------------
   0 O :   -0.773397
   1 O :   -0.740171
   2 N :    0.000929
   3 N :   -0.226081
   4 C :    0.311959
   5 C :    1.196887
   6 C :   -0.250592
   7 C :   -0.101086
   8 C :   -0.693920
   9 H :    0.296361
  10 H :    0.296361
  11 H :    0.254427
  12 H :    0.428324
Sum of atomic charges:   -0.0000000

LOEWDIN ATOMIC CHARGES
----------------------
   0 O :    0.815520
   1 O :    0.634384
   2 N :    0.051913
   3 N :    0.460580
   4 C :    0.048589
   5 C :   -1.159872
   6 C :    0.038304
   7 C :    0.093578
   8 C :    0.575060
   9 H :   -0.336469
  10 H :   -0.336473
  11 H :   -0.428223
  12 H :   -0.456891

  Mayer bond orders larger than 0.100000
B(  0-O ,  1-O ) :   0.1245 B(  0-O ,  4-C ) :   0.7695 B(  0-O ,  5-C ) :   0.9081
B(  0-O ,  6-C ) :   0.1343 B(  1-O ,  5-C ) :   1.3046 B(  1-O ,  6-C ) :   0.1492
B(  2-N ,  3-N ) :   2.1471 B(  2-N ,  6-C ) :   1.1359 B(  4-C ,  7-C ) :   0.7168
B(  4-C ,  8-C ) :  -0.3585 B(  4-C ,  9-H ) :   0.8632 B(  4-C , 10-H ) :   0.8632
B(  5-C ,  6-C ) :   1.2056 B(  6-C , 11-H ) :   0.9904 B(  7-C ,  8-C ) :   2.7725
B(  7-C , 12-H ) :  -0.1160 B(  8-C , 12-H ) :   0.9311

MP2 TOTAL ENERGY:     -452.100692878 Eh
FINAL SINGLE POINT ENERGY      -452.100692878130

DIPOLE MOMENT
-------------
                                X             Y             Z
Electronic contribution:      6.14386       1.81235       0.00004
Nuclear contribution   :     -6.55392      -3.82103       0.00006
                        -----------------------------------------
Total Dipole Moment    :     -0.41006      -2.00868       0.00010
                        -----------------------------------------
Magnitude (a.u.)       :      2.05011
Magnitude (Debye)      :      5.21097

Rotational constants in cm-1:     0.198589     0.023961     0.021468
Rotational constants in MHz :  5953.536360   718.325482   643.587134

                             ****ORCA TERMINATED NORMALLY****
TOTAL RUN TIME: 0 days 0 hours 22 minutes 56 seconds 361 msec
