                         Program Version 5.0.4 -  RELEASE  -
|  1> !ri-mp2 aug-cc-pvqz aug-cc-pvqz/c tightscf
|  2> %pal nprocs 16 end
|  3>
|  4> * xyz 0 1
|  5> N      0.000000    0.000000    1.004348
|  6> C      0.000000    0.000000   -1.763705
|  7> C      0.000000    1.116033    0.313567
|  8> C      0.000000   -1.116033    0.313567
|  9> C      0.000000    1.202637   -1.069047
| 10> C      0.000000   -1.202637   -1.069047
| 11> H      0.000000    0.000000   -2.844744
| 12> F      0.000000    2.245286    1.032550
| 13> F      0.000000   -2.245286    1.032550
| 14> H      0.000000    2.162100   -1.561803
| 15> H      0.000000   -2.162100   -1.561803
| 16> *
| 17>
| 18>                          ****END OF INPUT****

CARTESIAN COORDINATES (ANGSTROEM)
---------------------------------
  N      0.000000    0.000000    1.004348
  C      0.000000    0.000000   -1.763705
  C      0.000000    1.116033    0.313567
  C      0.000000   -1.116033    0.313567
  C      0.000000    1.202637   -1.069047
  C      0.000000   -1.202637   -1.069047
  H      0.000000    0.000000   -2.844744
  F      0.000000    2.245286    1.032550
  F      0.000000   -2.245286    1.032550
  H      0.000000    2.162100   -1.561803
  H      0.000000   -2.162100   -1.561803

 Total Charge           Charge          ....    0
 Multiplicity           Mult            ....    1
 Number of Electrons    NEL             ....   58
 Basis Dimension        Dim             ....  778

ORBITAL ENERGIES
----------------

  NO   OCC          E(Eh)            E(eV)
   0   2.0000     -26.326222      -716.3729
   1   2.0000     -26.326221      -716.3729
   2   2.0000     -15.590972      -424.2519
   3   2.0000     -11.389135      -309.9141
   4   2.0000     -11.389131      -309.9140
   5   2.0000     -11.290959      -307.2426
   6   2.0000     -11.260832      -306.4228
   7   2.0000     -11.260791      -306.4217
   8   2.0000      -1.651449       -44.9382
   9   2.0000      -1.649623       -44.8885
  10   2.0000      -1.307551       -35.5803
  11   2.0000      -1.127594       -30.6834
  12   2.0000      -1.058467       -28.8023
  13   2.0000      -0.907726       -24.7005
  14   2.0000      -0.904921       -24.6242
  15   2.0000      -0.799008       -21.7421
  16   2.0000      -0.772449       -21.0194
  17   2.0000      -0.724284       -19.7088
  18   2.0000      -0.709280       -19.3005
  19   2.0000      -0.708836       -19.2884
  20   2.0000      -0.705359       -19.1938
  21   2.0000      -0.685716       -18.6593
  22   2.0000      -0.621086       -16.9006
  23   2.0000      -0.598603       -16.2888
  24   2.0000      -0.584289       -15.8993
  25   2.0000      -0.559290       -15.2191
  26   2.0000      -0.477002       -12.9799
  27   2.0000      -0.419695       -11.4205
  28   2.0000      -0.364801        -9.9267
  29   0.0000       0.018933         0.5152
  30   0.0000       0.028660         0.7799
  31   0.0000       0.036371         0.9897
  32   0.0000       0.059594         1.6216
  33   0.0000       0.062120         1.6904

MULLIKEN ATOMIC CHARGES
-----------------------
   0 N :   -0.394378
   1 C :   -0.312490
   2 C :    1.006521
   3 C :    1.006520
   4 C :   -0.472898
   5 C :   -0.472898
   6 H :    0.261273
   7 F :   -0.721313
   8 F :   -0.721313
   9 H :    0.410488
  10 H :    0.410488
Sum of atomic charges:   -0.0000000

LOEWDIN ATOMIC CHARGES
----------------------
   0 N :    0.499231
   1 C :    0.311873
   2 C :   -0.979377
   3 C :   -0.979377
   4 C :    0.293776
   5 C :    0.293776
   6 H :   -0.307329
   7 F :    0.771407
   8 F :    0.771407
   9 H :   -0.337694
  10 H :   -0.337694

  Mayer bond orders larger than 0.100000
B(  0-N ,  2-C ) :   1.3072 B(  0-N ,  3-C ) :   1.3072 B(  0-N ,  7-F ) :  -0.1082
B(  0-N ,  8-F ) :  -0.1082 B(  1-C ,  2-C ) :  -0.1129 B(  1-C ,  3-C ) :  -0.1129
B(  1-C ,  4-C ) :   1.2575 B(  1-C ,  5-C ) :   1.2575 B(  1-C ,  6-H ) :   1.0838
B(  2-C ,  4-C ) :   1.3909 B(  2-C ,  5-C ) :   0.1139 B(  2-C ,  7-F ) :   0.4578
B(  3-C ,  4-C ) :   0.1139 B(  3-C ,  5-C ) :   1.3909 B(  3-C ,  8-F ) :   0.4578
B(  4-C ,  9-H ) :   0.8525 B(  5-C , 10-H ) :   0.8525

MP2 TOTAL ENERGY:     -446.190697721 Eh
FINAL SINGLE POINT ENERGY      -446.190697720769

DIPOLE MOMENT
-------------
                                X             Y             Z
Electronic contribution:     -0.00000       0.00000       5.91948
Nuclear contribution   :      0.00000       0.00000      -7.57404
                        -----------------------------------------
Total Dipole Moment    :     -0.00000       0.00000      -1.65456
                        -----------------------------------------
Magnitude (a.u.)       :      1.65456
Magnitude (Debye)      :      4.20555

Rotational constants in cm-1:     0.125483     0.063461     0.042146
Rotational constants in MHz :  3761.888702  1902.513967  1263.512892

                             ****ORCA TERMINATED NORMALLY****
TOTAL RUN TIME: 0 days 0 hours 16 minutes 54 seconds 316 msec
