                         Program Version 5.0.4 -  RELEASE  -
|  1> !ri-mp2 aug-cc-pvqz aug-cc-pvqz/c tightscf
|  2> %pal nprocs 16 end
|  3> %maxcore 3800
|  4>
|  5> * xyz 0 1
|  6> C     -0.868384    3.234895    0.000000
|  7> C     -0.219571   -2.152365    1.263450
|  8> C     -0.219571   -2.152365   -1.263450
|  9> C      0.268040    2.213869    0.000000
| 10> C     -0.219571    0.763488    0.000000
| 11> C      0.930524   -0.247686    0.000000
| 12> C      0.542679   -1.739197    0.000000
| 13> H     -0.486911    4.257021    0.000000
| 14> H     -1.503449    3.118553   -0.880742
| 15> H     -1.503449    3.118553    0.880742
| 16> H     -1.205277   -1.685922    1.310069
| 17> H     -0.370188   -3.233066    1.289312
| 18> H      0.325690   -1.871056    2.166571
| 19> H     -1.205277   -1.685922   -1.310069
| 20> H     -0.370188   -3.233066   -1.289312
| 21> H      0.325690   -1.871056   -2.166571
| 22> H      0.905576    2.378650    0.873933
| 23> H      0.905576    2.378650   -0.873933
| 24> H     -0.856827    0.606146    0.874834
| 25> H     -0.856827    0.606146   -0.874834
| 26> H      1.561967   -0.056811   -0.873944
| 27> H      1.561967   -0.056811    0.873944
| 28> H      1.487050   -2.293848    0.000000
| 29> *
| 30>
| 31>                          ****END OF INPUT****

CARTESIAN COORDINATES (ANGSTROEM)
---------------------------------
  C     -0.868384    3.234895    0.000000
  C     -0.219571   -2.152365    1.263450
  C     -0.219571   -2.152365   -1.263450
  C      0.268040    2.213869    0.000000
  C     -0.219571    0.763488    0.000000
  C      0.930524   -0.247686    0.000000
  C      0.542679   -1.739197    0.000000
  H     -0.486911    4.257021    0.000000
  H     -1.503449    3.118553   -0.880742
  H     -1.503449    3.118553    0.880742
  H     -1.205277   -1.685922    1.310069
  H     -0.370188   -3.233066    1.289312
  H      0.325690   -1.871056    2.166571
  H     -1.205277   -1.685922   -1.310069
  H     -0.370188   -3.233066   -1.289312
  H      0.325690   -1.871056   -2.166571
  H      0.905576    2.378650    0.873933
  H      0.905576    2.378650   -0.873933
  H     -0.856827    0.606146    0.874834
  H     -0.856827    0.606146   -0.874834
  H      1.561967   -0.056811   -0.873944
  H      1.561967   -0.056811    0.873944
  H      1.487050   -2.293848    0.000000

 Total Charge           Charge          ....    0
 Multiplicity           Mult            ....    1
 Number of Electrons    NEL             ....   58
 Basis Dimension        Dim             .... 1296

ORBITAL ENERGIES
----------------

  NO   OCC          E(Eh)            E(eV)
   0   2.0000     -11.220615      -305.3285
   1   2.0000     -11.213033      -305.1221
   2   2.0000     -11.210355      -305.0493
   3   2.0000     -11.209581      -305.0282
   4   2.0000     -11.207238      -304.9645
   5   2.0000     -11.205478      -304.9166
   6   2.0000     -11.205455      -304.9159
   7   2.0000      -1.093497       -29.7556
   8   2.0000      -1.047499       -28.5039
   9   2.0000      -0.963611       -26.2212
  10   2.0000      -0.925337       -25.1797
  11   2.0000      -0.870486       -23.6871
  12   2.0000      -0.797965       -21.7137
  13   2.0000      -0.745989       -20.2994
  14   2.0000      -0.640884       -17.4393
  15   2.0000      -0.625992       -17.0341
  16   2.0000      -0.593036       -16.1373
  17   2.0000      -0.586453       -15.9582
  18   2.0000      -0.570975       -15.5370
  19   2.0000      -0.544596       -14.8192
  20   2.0000      -0.533005       -14.5038
  21   2.0000      -0.522938       -14.2299
  22   2.0000      -0.496321       -13.5056
  23   2.0000      -0.492905       -13.4126
  24   2.0000      -0.478274       -13.0145
  25   2.0000      -0.465644       -12.6708
  26   2.0000      -0.451145       -12.2763
  27   2.0000      -0.443402       -12.0656
  28   2.0000      -0.432997       -11.7824
  29   0.0000       0.025911         0.7051
  30   0.0000       0.028697         0.7809
  31   0.0000       0.031954         0.8695
  32   0.0000       0.032213         0.8766
  33   0.0000       0.042989         1.1698

MULLIKEN ATOMIC CHARGES
-----------------------
   0 C :   -0.888977
   1 C :   -0.936545
   2 C :   -0.936547
   3 C :   -0.462878
   4 C :   -0.061674
   5 C :   -0.348114
   6 C :    0.068740
   7 H :    0.265653
   8 H :    0.222060
   9 H :    0.222070
  10 H :    0.176467
  11 H :    0.277399
  12 H :    0.194857
  13 H :    0.176464
  14 H :    0.277402
  15 H :    0.194862
  16 H :    0.220100
  17 H :    0.220085
  18 H :    0.190871
  19 H :    0.190839
  20 H :    0.273489
  21 H :    0.273475
  22 H :    0.189902
Sum of atomic charges:    0.0000000

LOEWDIN ATOMIC CHARGES
----------------------
   0 C :    0.929311
   1 C :    0.922989
   2 C :    0.922989
   3 C :    0.514439
   4 C :    0.510773
   5 C :    0.524605
   6 C :    0.116546
   7 H :   -0.284734
   8 H :   -0.284910
   9 H :   -0.284910
  10 H :   -0.287656
  11 H :   -0.275841
  12 H :   -0.271218
  13 H :   -0.287656
  14 H :   -0.275841
  15 H :   -0.271218
  16 H :   -0.271654
  17 H :   -0.271654
  18 H :   -0.277620
  19 H :   -0.277620
  20 H :   -0.269639
  21 H :   -0.269639
  22 H :   -0.279843

  Mayer bond orders larger than 0.100000
B(  0-C ,  3-C ) :   1.0292 B(  0-C ,  4-C ) :  -0.1728 B(  0-C ,  7-H ) :   1.0347
B(  0-C ,  8-H ) :   0.9550 B(  0-C ,  9-H ) :   0.9550 B(  1-C ,  2-C ) :   0.1092
B(  1-C ,  6-C ) :   0.7150 B(  1-C , 10-H ) :   1.0142 B(  1-C , 11-H ) :   1.0034
B(  1-C , 12-H ) :   1.0372 B(  2-C ,  6-C ) :   0.7150 B(  2-C , 13-H ) :   1.0142
B(  2-C , 14-H ) :   1.0034 B(  2-C , 15-H ) :   1.0372 B(  3-C ,  4-C ) :   0.8624
B(  3-C ,  7-H ) :  -0.1042 B(  3-C , 16-H ) :   0.8920 B(  3-C , 17-H ) :   0.8920
B(  4-C ,  5-C ) :   0.7790 B(  4-C ,  6-C ) :  -0.1753 B(  4-C , 18-H ) :   0.8939
B(  4-C , 19-H ) :   0.8939 B(  5-C ,  6-C ) :   0.9458 B(  5-C , 20-H ) :   0.8870
B(  5-C , 21-H ) :   0.8870 B(  6-C , 22-H ) :   0.9867

MP2 TOTAL ENERGY:     -275.841678351 Eh
FINAL SINGLE POINT ENERGY      -275.841678351440

DIPOLE MOMENT
-------------
                                X             Y             Z
Electronic contribution:      1.44922      -0.53392       0.00000
Nuclear contribution   :     -1.39673       0.51761       0.00000
                        -----------------------------------------
Total Dipole Moment    :      0.05249      -0.01631       0.00000
                        -----------------------------------------
Magnitude (a.u.)       :      0.05497
Magnitude (Debye)      :      0.13972

Rotational constants in cm-1:     0.166618     0.035627     0.034151
Rotational constants in MHz :  4995.086912  1068.056329  1023.831679

                             ****ORCA TERMINATED NORMALLY****
TOTAL RUN TIME: 0 days 1 hours 36 minutes 11 seconds 655 msec
