                         Program Version 5.0.4 -  RELEASE  -
|  1> !ri-mp2 aug-cc-pvqz aug-cc-pvqz/c tightscf
|  2> %pal nprocs 16 end
|  3>
|  4> * xyz 0 1
|  5> C     -1.467731    0.790367    0.000000
|  6> H     -1.610102    1.869749    0.000000
|  7> H     -1.963613    0.371038    0.877295
|  8> H     -1.963613    0.371038   -0.877295
|  9> C      0.530643   -2.135031    0.000000
| 10> H      0.736992   -3.175778    0.000000
| 11> C      0.314957   -0.952176    0.000000
| 12> C      0.000000    0.441174    0.000000
| 13> C      0.966097    1.364809    0.000000
| 14> H      2.010863    1.089814    0.000000
| 15> H      0.725678    2.419275    0.000000
| 16> *
| 17>
| 18>                          ****END OF INPUT****

CARTESIAN COORDINATES (ANGSTROEM)
---------------------------------
  C     -1.467731    0.790367    0.000000
  H     -1.610102    1.869749    0.000000
  H     -1.963613    0.371038    0.877295
  H     -1.963613    0.371038   -0.877295
  C      0.530643   -2.135031    0.000000
  H      0.736992   -3.175778    0.000000
  C      0.314957   -0.952176    0.000000
  C      0.000000    0.441174    0.000000
  C      0.966097    1.364809    0.000000
  H      2.010863    1.089814    0.000000
  H      0.725678    2.419275    0.000000

 Total Charge           Charge          ....    0
 Multiplicity           Mult            ....    1
 Number of Electrons    NEL             ....   36
 Basis Dimension        Dim             ....  676

ORBITAL ENERGIES
----------------

  NO   OCC          E(Eh)            E(eV)
   0   2.0000     -11.264688      -306.5277
   1   2.0000     -11.235903      -305.7445
   2   2.0000     -11.234371      -305.7028
   3   2.0000     -11.229381      -305.5670
   4   2.0000     -11.227256      -305.5092
   5   2.0000      -1.112274       -30.2665
   6   2.0000      -1.010926       -27.5087
   7   2.0000      -0.946366       -25.7519
   8   2.0000      -0.822382       -22.3781
   9   2.0000      -0.710924       -19.3452
  10   2.0000      -0.660692       -17.9784
  11   2.0000      -0.611561       -16.6414
  12   2.0000      -0.581254       -15.8167
  13   2.0000      -0.546141       -14.8613
  14   2.0000      -0.522863       -14.2278
  15   2.0000      -0.447255       -12.1704
  16   2.0000      -0.395858       -10.7718
  17   2.0000      -0.339042        -9.2258
  18   0.0000       0.026579         0.7233
  19   0.0000       0.029619         0.8060
  20   0.0000       0.033857         0.9213
  21   0.0000       0.042616         1.1596
  22   0.0000       0.045178         1.2294

MULLIKEN ATOMIC CHARGES
-----------------------
   0 C :   -0.708247
   1 H :    0.296713
   2 H :    0.279431
   3 H :    0.279431
   4 C :   -0.878428
   5 H :    0.457484
   6 C :   -0.004209
   7 C :    0.423677
   8 C :   -0.868732
   9 H :    0.331978
  10 H :    0.390901
Sum of atomic charges:   -0.0000000

LOEWDIN ATOMIC CHARGES
----------------------
   0 C :    0.864107
   1 H :   -0.312490
   2 H :   -0.288546
   3 H :   -0.288546
   4 C :    0.575500
   5 H :   -0.460952
   6 C :    0.018263
   7 C :   -0.186796
   8 C :    0.774253
   9 H :   -0.347523
  10 H :   -0.347270

  Mayer bond orders larger than 0.100000
B(  0-C ,  1-H ) :   0.9715 B(  0-C ,  2-H ) :   0.9476 B(  0-C ,  3-H ) :   0.9476
B(  0-C ,  7-C ) :   0.6818 B(  4-C ,  5-H ) :   0.9081 B(  4-C ,  6-C ) :   2.8325
B(  4-C ,  7-C ) :  -0.1702 B(  6-C ,  7-C ) :   0.9296 B(  6-C ,  8-C ) :  -0.1444
B(  7-C ,  8-C ) :   1.5237 B(  8-C ,  9-H ) :   0.9952 B(  8-C , 10-H ) :   0.8974

MP2 TOTAL ENERGY:     -193.682629943 Eh
FINAL SINGLE POINT ENERGY      -193.682629942838

DIPOLE MOMENT
-------------
                                X             Y             Z
Electronic contribution:      1.98198      -2.84079       0.00000
Nuclear contribution   :     -2.11086       3.01231       0.00000
                        -----------------------------------------
Total Dipole Moment    :     -0.12888       0.17152       0.00000
                        -----------------------------------------
Magnitude (a.u.)       :      0.21454
Magnitude (Debye)      :      0.54532

Rotational constants in cm-1:     0.313535     0.134580     0.095823
Rotational constants in MHz :  9399.529077  4034.610844  2872.710304

                             ****ORCA TERMINATED NORMALLY****
TOTAL RUN TIME: 0 days 0 hours 13 minutes 16 seconds 171 msec
