                         Program Version 5.0.4 -  RELEASE  -
|  1> !ri-mp2 aug-cc-pvqz aug-cc-pvqz/c tightscf
|  2> %pal nprocs 16 end
|  3>
|  4> * xyz 0 1
|  5> C     -0.486076   -0.705434    1.261168
|  6> C     -0.486076   -0.705434   -1.261168
|  7> C      1.521674    0.142791    0.000000
|  8> C      0.001813    0.012259    0.000000
|  9> O     -0.486076    1.369657    0.000000
| 10> H     -1.577070   -0.763138    1.276432
| 11> H     -0.099320   -1.724561    1.310729
| 12> H     -0.160405   -0.167882    2.151574
| 13> H     -0.160405   -0.167882   -2.151574
| 14> H     -1.577070   -0.763138   -1.276432
| 15> H     -0.099320   -1.724561   -1.310729
| 16> H      1.854033    0.688346    0.883017
| 17> H      1.994672   -0.839511    0.000000
| 18> H      1.854033    0.688346   -0.883017
| 19> H     -1.448562    1.351622    0.000000
| 20> *
| 21>
| 22>                          ****END OF INPUT****

CARTESIAN COORDINATES (ANGSTROEM)
---------------------------------
  C     -0.486076   -0.705434    1.261168
  C     -0.486076   -0.705434   -1.261168
  C      1.521674    0.142791    0.000000
  C      0.001813    0.012259    0.000000
  O     -0.486076    1.369657    0.000000
  H     -1.577070   -0.763138    1.276432
  H     -0.099320   -1.724561    1.310729
  H     -0.160405   -0.167882    2.151574
  H     -0.160405   -0.167882   -2.151574
  H     -1.577070   -0.763138   -1.276432
  H     -0.099320   -1.724561   -1.310729
  H      1.854033    0.688346    0.883017
  H      1.994672   -0.839511    0.000000
  H      1.854033    0.688346   -0.883017
  H     -1.448562    1.351622    0.000000

 Total Charge           Charge          ....    0
 Multiplicity           Mult            ....    1
 Number of Electrons    NEL             ....   42
 Basis Dimension        Dim             ....  860

ORBITAL ENERGIES
----------------

  NO   OCC          E(Eh)            E(eV)
   0   2.0000     -20.546454      -559.0975
   1   2.0000     -11.284859      -307.0766
   2   2.0000     -11.213721      -305.1409
   3   2.0000     -11.213705      -305.1404
   4   2.0000     -11.207621      -304.9749
   5   2.0000      -1.352137       -36.7935
   6   2.0000      -1.064206       -28.9585
   7   2.0000      -0.940722       -25.5983
   8   2.0000      -0.938879       -25.5482
   9   2.0000      -0.770909       -20.9775
  10   2.0000      -0.668266       -18.1844
  11   2.0000      -0.622202       -16.9310
  12   2.0000      -0.620135       -16.8747
  13   2.0000      -0.575822       -15.6689
  14   2.0000      -0.556299       -15.1377
  15   2.0000      -0.531060       -14.4509
  16   2.0000      -0.517110       -14.0713
  17   2.0000      -0.508569       -13.8389
  18   2.0000      -0.503589       -13.7034
  19   2.0000      -0.462162       -12.5761
  20   2.0000      -0.432872       -11.7791
  21   0.0000       0.025248         0.6870
  22   0.0000       0.033015         0.8984
  23   0.0000       0.033658         0.9159
  24   0.0000       0.037369         1.0169
  25   0.0000       0.053398         1.4530

MULLIKEN ATOMIC CHARGES
-----------------------
   0 C :   -1.004948
   1 C :   -1.004948
   2 C :   -1.049762
   3 C :    1.584031
   4 O :   -1.032687
   5 H :    0.230821
   6 H :    0.236900
   7 H :    0.274555
   8 H :    0.274555
   9 H :    0.230821
  10 H :    0.236900
  11 H :    0.243021
  12 H :    0.233137
  13 H :    0.243022
  14 H :    0.304581
Sum of atomic charges:    0.0000000

LOEWDIN ATOMIC CHARGES
----------------------
   0 C :    0.896018
   1 C :    0.896018
   2 C :    0.882549
   3 C :   -0.641075
   4 O :    1.288347
   5 H :   -0.282848
   6 H :   -0.276651
   7 H :   -0.282196
   8 H :   -0.282196
   9 H :   -0.282848
  10 H :   -0.276651
  11 H :   -0.282592
  12 H :   -0.279064
  13 H :   -0.282592
  14 H :   -0.794219

  Mayer bond orders larger than 0.100000
B(  0-C ,  3-C ) :   0.6268 B(  0-C ,  4-O ) :   0.1225 B(  0-C ,  5-H ) :   0.9938
B(  0-C ,  6-H ) :   0.9894 B(  0-C ,  7-H ) :   0.9728 B(  1-C ,  3-C ) :   0.6268
B(  1-C ,  4-O ) :   0.1225 B(  1-C ,  8-H ) :   0.9728 B(  1-C ,  9-H ) :   0.9938
B(  1-C , 10-H ) :   0.9894 B(  2-C ,  3-C ) :   0.5280 B(  2-C ,  4-O ) :   0.1852
B(  2-C , 11-H ) :   1.0057 B(  2-C , 12-H ) :   1.0128 B(  2-C , 13-H ) :   1.0057
B(  3-C ,  4-O ) :  -0.1291 B(  4-O , 14-H ) :   0.9330

MP2 TOTAL ENERGY:     -233.288554188 Eh
FINAL SINGLE POINT ENERGY      -233.288554187825

DIPOLE MOMENT
-------------
                                X             Y             Z
Electronic contribution:     -0.92172       3.01558      -0.00000
Nuclear contribution   :      0.60969      -3.61897      -0.00000
                        -----------------------------------------
Total Dipole Moment    :     -0.31203      -0.60339      -0.00000
                        -----------------------------------------
Magnitude (a.u.)       :      0.67929
Magnitude (Debye)      :      1.72663

Rotational constants in cm-1:     0.156661     0.155803     0.150094
Rotational constants in MHz :  4696.564879  4670.861377  4499.717642

                             ****ORCA TERMINATED NORMALLY****
TOTAL RUN TIME: 0 days 0 hours 27 minutes 5 seconds 797 msec
