                         Program Version 5.0.4 -  RELEASE  -
|  1> !ri-mp2 aug-cc-pvqz aug-cc-pvqz/c tightscf
|  2> %pal nprocs 16 end
|  3>
|  4> * xyz 0 1
|  5> C     -0.858750    0.493126    0.000000
|  6> C      0.656851    0.425801    0.000000
|  7> F      1.143435   -0.195496    1.084579
|  8> F      1.143435    1.687623    0.000000
|  9> F      1.143435   -0.195496   -1.084579
| 10> Cl    -1.605455   -1.130914    0.000000
| 11> H     -1.184311    1.021148    0.890634
| 12> H     -1.184311    1.021148   -0.890634
| 13> *
| 14>
| 15>                          ****END OF INPUT****

CARTESIAN COORDINATES (ANGSTROEM)
---------------------------------
  C     -0.858750    0.493126    0.000000
  C      0.656851    0.425801    0.000000
  F      1.143435   -0.195496    1.084579
  F      1.143435    1.687623    0.000000
  F      1.143435   -0.195496   -1.084579
  Cl    -1.605455   -1.130914    0.000000
  H     -1.184311    1.021148    0.890634
  H     -1.184311    1.021148   -0.890634

 Total Charge           Charge          ....    0
 Multiplicity           Mult            ....    1
 Number of Electrons    NEL             ....   58
 Basis Dimension        Dim             ....  576

ORBITAL ENERGIES
----------------

  NO   OCC          E(Eh)            E(eV)
   0   2.0000    -104.855062     -2853.2513
   1   2.0000     -26.347844      -716.9613
   2   2.0000     -26.346635      -716.9284
   3   2.0000     -26.346614      -716.9278
   4   2.0000     -11.524704      -313.6031
   5   2.0000     -11.336143      -308.4721
   6   2.0000     -10.580170      -287.9011
   7   2.0000      -8.047286      -218.9778
   8   2.0000      -8.045446      -218.9277
   9   2.0000      -8.045390      -218.9262
  10   2.0000      -1.737790       -47.2877
  11   2.0000      -1.644110       -44.7385
  12   2.0000      -1.643285       -44.7161
  13   2.0000      -1.173521       -31.9331
  14   2.0000      -1.034713       -28.1560
  15   2.0000      -0.924056       -25.1448
  16   2.0000      -0.835882       -22.7455
  17   2.0000      -0.832929       -22.6652
  18   2.0000      -0.793283       -21.5863
  19   2.0000      -0.723896       -19.6982
  20   2.0000      -0.720930       -19.6175
  21   2.0000      -0.681025       -18.5316
  22   2.0000      -0.675521       -18.3819
  23   2.0000      -0.660125       -17.9629
  24   2.0000      -0.644518       -17.5382
  25   2.0000      -0.608286       -16.5523
  26   2.0000      -0.574547       -15.6342
  27   2.0000      -0.469227       -12.7683
  28   2.0000      -0.465254       -12.6602
  29   0.0000       0.025327         0.6892
  30   0.0000       0.037338         1.0160
  31   0.0000       0.052563         1.4303
  32   0.0000       0.054956         1.4954
  33   0.0000       0.082943         2.2570

MULLIKEN ATOMIC CHARGES
-----------------------
   0 C :   -0.541063
   1 C :    1.859294
   2 F :   -0.599615
   3 F :   -0.608001
   4 F :   -0.599615
   5 Cl:   -0.219472
   6 H :    0.354236
   7 H :    0.354236
Sum of atomic charges:   -0.0000000

LOEWDIN ATOMIC CHARGES
----------------------
   0 C :   -0.281043
   1 C :   -2.252830
   2 F :    0.745702
   3 F :    0.750335
   4 F :    0.745702
   5 Cl:    1.143838
   6 H :   -0.425852
   7 H :   -0.425852

  Mayer bond orders larger than 0.100000
B(  0-C ,  1-C ) :   0.9916 B(  0-C ,  5-Cl) :   0.8909 B(  0-C ,  6-H ) :   0.8340
B(  0-C ,  7-H ) :   0.8340 B(  1-C ,  2-F ) :   0.4759 B(  1-C ,  3-F ) :   0.4900
B(  1-C ,  4-F ) :   0.4759

MP2 TOTAL ENERGY:     -836.317363480 Eh
FINAL SINGLE POINT ENERGY      -836.317363479778

DIPOLE MOMENT
-------------
                                X             Y             Z
Electronic contribution:      2.57011      -1.60082      -0.00000
Nuclear contribution   :     -3.18047       2.18776       0.00000
                        -----------------------------------------
Total Dipole Moment    :     -0.61036       0.58695      -0.00000
                        -----------------------------------------
Magnitude (a.u.)       :      0.84678
Magnitude (Debye)      :      2.15235

Rotational constants in cm-1:     0.176208     0.058607     0.057986
Rotational constants in MHz :  5282.580036  1756.988957  1738.371767

                             ****ORCA TERMINATED NORMALLY****
TOTAL RUN TIME: 0 days 0 hours 6 minutes 30 seconds 165 msec
