                         Program Version 5.0.4 -  RELEASE  -
|  1> !ri-mp2 aug-cc-pvqz aug-cc-pvqz/c tightscf
|  2> %pal nprocs 16 end
|  3>
|  4> * xyz 0 1
|  5> C     0.655134     1.533738       0.000000
|  6> N     0.655134     0.265229       0.000000
|  7> N    -0.655134    -0.265229       0.000000
|  8> C    -0.655134    -1.533738       0.000000
|  9> H    -0.265958     2.114793       0.000000
| 10> H     1.612147     2.041686       0.000000
| 11> H     0.265958    -2.114793       0.000000
| 12> H    -1.612147    -2.041686       0.000000
| 13> *
| 14>
| 15>                          ****END OF INPUT****

CARTESIAN COORDINATES (ANGSTROEM)
---------------------------------
  C      0.655134    1.533738    0.000000
  N      0.655134    0.265229    0.000000
  N     -0.655134   -0.265229    0.000000
  C     -0.655134   -1.533738    0.000000
  H     -0.265958    2.114793    0.000000
  H      1.612147    2.041686    0.000000
  H      0.265958   -2.114793    0.000000
  H     -1.612147   -2.041686    0.000000

 Total Charge           Charge          ....    0
 Multiplicity           Mult            ....    1
 Number of Electrons    NEL             ....   30
 Basis Dimension        Dim             ....  504

ORBITAL ENERGIES
----------------

  NO   OCC          E(Eh)            E(eV)
   0   2.0000     -15.597673      -424.4343
   1   2.0000     -15.597115      -424.4191
   2   2.0000     -11.277940      -306.8884
   3   2.0000     -11.277938      -306.8883
   4   2.0000      -1.317366       -35.8474
   5   2.0000      -1.139929       -31.0190
   6   2.0000      -0.875940       -23.8355
   7   2.0000      -0.782905       -21.3039
   8   2.0000      -0.687035       -18.6952
   9   2.0000      -0.673949       -18.3391
  10   2.0000      -0.573326       -15.6010
  11   2.0000      -0.541250       -14.7282
  12   2.0000      -0.518095       -14.0981
  13   2.0000      -0.397188       -10.8080
  14   2.0000      -0.387506       -10.5446
  15   0.0000       0.027644         0.7522
  16   0.0000       0.033921         0.9230
  17   0.0000       0.039059         1.0629
  18   0.0000       0.048626         1.3232
  19   0.0000       0.053265         1.4494

MULLIKEN ATOMIC CHARGES
-----------------------
   0 C :   -0.624705
   1 N :   -0.347976
   2 N :   -0.347976
   3 C :   -0.624705
   4 H :    0.480213
   5 H :    0.492468
   6 H :    0.480213
   7 H :    0.492468
Sum of atomic charges:   -0.0000000

LOEWDIN ATOMIC CHARGES
----------------------
   0 C :    0.464859
   1 N :    0.298087
   2 N :    0.298087
   3 C :    0.464859
   4 H :   -0.373499
   5 H :   -0.389447
   6 H :   -0.373499
   7 H :   -0.389447

  Mayer bond orders larger than 0.100000
B(  0-C ,  1-N ) :   1.7610 B(  0-C ,  4-H ) :   0.7445 B(  0-C ,  5-H ) :   0.8011
B(  1-N ,  2-N ) :   0.8312 B(  2-N ,  3-C ) :   1.7610 B(  3-C ,  6-H ) :   0.7445
B(  3-C ,  7-H ) :   0.8011

MP2 TOTAL ENERGY:     -187.741552508 Eh
FINAL SINGLE POINT ENERGY      -187.741552507675

DIPOLE MOMENT
-------------
                                X             Y             Z
Electronic contribution:     -0.00000      -0.00000      -0.00000
Nuclear contribution   :      0.00000       0.00000       0.00000
                        -----------------------------------------
Total Dipole Moment    :     -0.00000      -0.00000      -0.00000
                        -----------------------------------------
Magnitude (a.u.)       :      0.00000
Magnitude (Debye)      :      0.00000

Rotational constants in cm-1:     1.733829     0.179543     0.162695
Rotational constants in MHz : 51978.873722  5382.554824  4877.478553

                             ****ORCA TERMINATED NORMALLY****
TOTAL RUN TIME: 0 days 0 hours 3 minutes 16 seconds 58 msec
