                         Program Version 5.0.4 -  RELEASE  -
|  1> !ri-mp2 aug-cc-pvqz aug-cc-pvqz/c tightscf
|  2> %pal nprocs 16 end
|  3>
|  4> * xyz 0 1
|  5> Cl     1.481060   -0.246052    0.000891
|  6> N     -2.257610   -0.337290   -0.128337
|  7> C      0.026216    0.722480    0.011202
|  8> C     -1.156808    0.167770    0.008826
|  9> H     -2.756780   -0.587380    0.724562
| 10> H      0.165580    1.789797    0.038481
| 11> *
| 12>
| 13>                          ****END OF INPUT****

CARTESIAN COORDINATES (ANGSTROEM)
---------------------------------
  Cl     1.481060   -0.246052    0.000891
  N     -2.257610   -0.337290   -0.128337
  C      0.026216    0.722480    0.011202
  C     -1.156808    0.167770    0.008826
  H     -2.756780   -0.587380    0.724562
  H      0.165580    1.789797    0.038481

 Total Charge           Charge          ....    0
 Multiplicity           Mult            ....    1
 Number of Electrons    NEL             ....   38
 Basis Dimension        Dim             ....  416

ORBITAL ENERGIES
----------------

  NO   OCC          E(Eh)            E(eV)
   0   2.0000    -104.850736     -2853.1336
   1   2.0000     -15.605188      -424.6388
   2   2.0000     -11.335915      -308.4659
   3   2.0000     -11.300773      -307.5097
   4   2.0000     -10.575099      -287.7631
   5   2.0000      -8.042291      -218.8419
   6   2.0000      -8.040428      -218.7912
   7   2.0000      -8.040302      -218.7877
   8   2.0000      -1.268882       -34.5280
   9   2.0000      -1.154928       -31.4272
  10   2.0000      -0.995291       -27.0832
  11   2.0000      -0.781213       -21.2579
  12   2.0000      -0.706863       -19.2347
  13   2.0000      -0.611628       -16.6432
  14   2.0000      -0.583160       -15.8686
  15   2.0000      -0.503168       -13.6919
  16   2.0000      -0.489187       -13.3115
  17   2.0000      -0.464322       -12.6348
  18   2.0000      -0.354850        -9.6559
  19   0.0000       0.022217         0.6046
  20   0.0000       0.033491         0.9113
  21   0.0000       0.054350         1.4789
  22   0.0000       0.066126         1.7994
  23   0.0000       0.076989         2.0950

MULLIKEN ATOMIC CHARGES
-----------------------
   0 Cl:   -0.122599
   1 N :   -0.670965
   2 C :   -0.444285
   3 C :    0.404443
   4 H :    0.362252
   5 H :    0.471153
Sum of atomic charges:    0.0000000

LOEWDIN ATOMIC CHARGES
----------------------
   0 Cl:    1.042977
   1 N :    0.897584
   2 C :   -0.490014
   3 C :   -0.250680
   4 H :   -0.680832
   5 H :   -0.519035

  Mayer bond orders larger than 0.100000
B(  0-Cl,  2-C ) :   0.9776 B(  1-N ,  3-C ) :   1.9942 B(  1-N ,  4-H ) :   0.7932
B(  2-C ,  3-C ) :   1.7477 B(  2-C ,  5-H ) :   0.7242

MP2 TOTAL ENERGY:     -591.616097868 Eh
FINAL SINGLE POINT ENERGY      -591.616097867634

DIPOLE MOMENT
-------------
                                X             Y             Z
Electronic contribution:      4.05380      -1.12225      -0.13006
Nuclear contribution   :     -4.46488       1.46750       0.71937
                        -----------------------------------------
Total Dipole Moment    :     -0.41108       0.34526       0.58931
                        -----------------------------------------
Magnitude (a.u.)       :      0.79717
Magnitude (Debye)      :      2.02624

Rotational constants in cm-1:     1.155346     0.097209     0.090359
Rotational constants in MHz : 34636.413635  2914.253496  2708.894218

                             ****ORCA TERMINATED NORMALLY****
TOTAL RUN TIME: 0 days 0 hours 2 minutes 55 seconds 680 msec
