                         Program Version 5.0.4 -  RELEASE  -
|  1> !ri-mp2 aug-cc-pvqz aug-cc-pvqz/c tightscf
|  2> %pal nprocs 16 end
|  3>
|  4> * xyz 0 1
|  5> O      2.314952   -0.784408    0.074091
|  6> N      0.623911    0.847435   -0.202435
|  7> N     -2.202485   -1.136869   -0.048234
|  8> C     -0.767680    1.044455    0.111907
|  9> C      1.438243   -0.023374   -0.027656
| 10> C     -1.574416   -0.177183    0.019351
| 11> H     -1.175339    1.782439   -0.578436
| 12> H     -0.871142    1.455478    1.118785
| 13> *
| 14>
| 15>                          ****END OF INPUT****

CARTESIAN COORDINATES (ANGSTROEM)
---------------------------------
  O      2.314952   -0.784408    0.074091
  N      0.623911    0.847435   -0.202435
  N     -2.202485   -1.136869   -0.048234
  C     -0.767680    1.044455    0.111907
  C      1.438243   -0.023374   -0.027656
  C     -1.574416   -0.177183    0.019351
  H     -1.175339    1.782439   -0.578436
  H     -0.871142    1.455478    1.118785

 Total Charge           Charge          ....    0
 Multiplicity           Mult            ....    1
 Number of Electrons    NEL             ....   42
 Basis Dimension        Dim             ....  572

ORBITAL ENERGIES
----------------

  NO   OCC          E(Eh)            E(eV)
   0   2.0000     -20.630126      -561.3743
   1   2.0000     -15.615384      -424.9162
   2   2.0000     -15.595510      -424.3754
   3   2.0000     -11.425271      -310.8974
   4   2.0000     -11.363063      -309.2047
   5   2.0000     -11.295880      -307.3765
   6   2.0000      -1.485125       -40.4123
   7   2.0000      -1.310001       -35.6469
   8   2.0000      -1.244063       -33.8527
   9   2.0000      -1.068399       -29.0726
  10   2.0000      -0.812373       -22.1058
  11   2.0000      -0.747215       -20.3328
  12   2.0000      -0.722565       -19.6620
  13   2.0000      -0.706639       -19.2286
  14   2.0000      -0.654954       -17.8222
  15   2.0000      -0.641385       -17.4530
  16   2.0000      -0.583485       -15.8774
  17   2.0000      -0.507749       -13.8166
  18   2.0000      -0.495665       -13.4877
  19   2.0000      -0.473082       -12.8732
  20   2.0000      -0.451887       -12.2965
  21   0.0000       0.016802         0.4572
  22   0.0000       0.032187         0.8759
  23   0.0000       0.045492         1.2379
  24   0.0000       0.050010         1.3608
  25   0.0000       0.071400         1.9429

MULLIKEN ATOMIC CHARGES
-----------------------
   0 O :   -0.586660
   1 N :   -0.702944
   2 N :   -0.588628
   3 C :   -0.186028
   4 C :    1.045437
   5 C :    0.308294
   6 H :    0.363506
   7 H :    0.347024
Sum of atomic charges:    0.0000000

LOEWDIN ATOMIC CHARGES
----------------------
   0 O :    0.612426
   1 N :    0.484171
   2 N :    0.412788
   3 C :    0.171388
   4 C :   -0.732285
   5 C :   -0.278789
   6 H :   -0.340693
   7 H :   -0.329005

  Mayer bond orders larger than 0.100000
B(  0-O ,  1-N ) :   0.2512 B(  0-O ,  4-C ) :   1.7673 B(  1-N ,  3-C ) :   0.7783
B(  1-N ,  4-C ) :   2.1274 B(  2-N ,  5-C ) :   2.6052 B(  3-C ,  5-C ) :   1.0547
B(  3-C ,  6-H ) :   0.8649 B(  3-C ,  7-H ) :   0.8466

MP2 TOTAL ENERGY:     -299.790928170 Eh
FINAL SINGLE POINT ENERGY      -299.790928169646

DIPOLE MOMENT
-------------
                                X             Y             Z
Electronic contribution:      1.82783      -1.62692      -0.26011
Nuclear contribution   :     -1.94093       3.09881       0.51910
                        -----------------------------------------
Total Dipole Moment    :     -0.11311       1.47188       0.25899
                        -----------------------------------------
Magnitude (a.u.)       :      1.49877
Magnitude (Debye)      :      3.80957

Rotational constants in cm-1:     0.285294     0.074770     0.060280
Rotational constants in MHz :  8552.900152  2241.541131  1807.144534

                             ****ORCA TERMINATED NORMALLY****
TOTAL RUN TIME: 0 days 0 hours 5 minutes 54 seconds 282 msec
