                         Program Version 5.0.4 -  RELEASE  -
|  1> !ri-mp2 aug-cc-pvqz aug-cc-pvqz/c tightscf
|  2> %pal nprocs 16 end
|  3>
|  4> * xyz 0 1
|  5> O      0.456164    2.811298    0.519791
|  6> O     -0.456164   -2.811298    0.519791
|  7> O     -1.460125    2.429632   -0.552434
|  8> O      1.460125   -2.429632   -0.552434
|  9> C     -0.456164    2.004868   -0.060552
| 10> C      0.456164   -2.004868   -0.060552
| 11> C     -0.123481    0.588917   -0.035196
| 12> C      0.123481   -0.588917   -0.035196
| 13> H      1.213127    2.300420    0.835627
| 14> H     -1.213127   -2.300420    0.835627
| 15> *
| 16>
| 17>                          ****END OF INPUT****

CARTESIAN COORDINATES (ANGSTROEM)
---------------------------------
  O      0.456164    2.811298    0.519791
  O     -0.456164   -2.811298    0.519791
  O     -1.460125    2.429632   -0.552434
  O      1.460125   -2.429632   -0.552434
  C     -0.456164    2.004868   -0.060552
  C      0.456164   -2.004868   -0.060552
  C     -0.123481    0.588917   -0.035196
  C      0.123481   -0.588917   -0.035196
  H      1.213127    2.300420    0.835627
  H     -1.213127   -2.300420    0.835627

 Total Charge           Charge          ....    0
 Multiplicity           Mult            ....    1
 Number of Electrons    NEL             ....   58
 Basis Dimension        Dim             ....  732

ORBITAL ENERGIES
----------------

  NO   OCC          E(Eh)            E(eV)
   0   2.0000     -20.649548      -561.9028
   1   2.0000     -20.649548      -561.9028
   2   2.0000     -20.588023      -560.2286
   3   2.0000     -20.588023      -560.2286
   4   2.0000     -11.445763      -311.4550
   5   2.0000     -11.445762      -311.4550
   6   2.0000     -11.316613      -307.9407
   7   2.0000     -11.312802      -307.8370
   8   2.0000      -1.502751       -40.8919
   9   2.0000      -1.502184       -40.8765
  10   2.0000      -1.408727       -38.3334
  11   2.0000      -1.408683       -38.3322
  12   2.0000      -1.124029       -30.5864
  13   2.0000      -0.971595       -26.4384
  14   2.0000      -0.902366       -24.5546
  15   2.0000      -0.849768       -23.1234
  16   2.0000      -0.829695       -22.5772
  17   2.0000      -0.705400       -19.1949
  18   2.0000      -0.702666       -19.1205
  19   2.0000      -0.676151       -18.3990
  20   2.0000      -0.671622       -18.2758
  21   2.0000      -0.643369       -17.5070
  22   2.0000      -0.635201       -17.2847
  23   2.0000      -0.530103       -14.4248
  24   2.0000      -0.527781       -14.3617
  25   2.0000      -0.518701       -14.1146
  26   2.0000      -0.508271       -13.8308
  27   2.0000      -0.465845       -12.6763
  28   2.0000      -0.464837       -12.6489
  29   0.0000       0.014182         0.3859
  30   0.0000       0.025835         0.7030
  31   0.0000       0.040926         1.1136
  32   0.0000       0.050107         1.3635
  33   0.0000       0.054416         1.4807

MULLIKEN ATOMIC CHARGES
-----------------------
   0 O :   -0.683656
   1 O :   -0.683656
   2 O :   -0.662880
   3 O :   -0.662880
   4 C :    1.501705
   5 C :    1.501705
   6 C :   -0.524319
   7 C :   -0.524319
   8 H :    0.369150
   9 H :    0.369150
Sum of atomic charges:   -0.0000000

LOEWDIN ATOMIC CHARGES
----------------------
   0 O :    1.225783
   1 O :    1.225783
   2 O :    0.651131
   3 O :    0.651131
   4 C :   -1.124742
   5 C :   -1.124742
   6 C :    0.059064
   7 C :    0.059064
   8 H :   -0.811236
   9 H :   -0.811236

  Mayer bond orders larger than 0.100000
B(  0-O ,  2-O ) :   0.1074 B(  0-O ,  4-C ) :   0.7440 B(  0-O ,  6-C ) :   0.1174
B(  0-O ,  8-H ) :   0.8570 B(  1-O ,  3-O ) :   0.1074 B(  1-O ,  5-C ) :   0.7440
B(  1-O ,  7-C ) :   0.1174 B(  1-O ,  9-H ) :   0.8570 B(  2-O ,  4-C ) :   1.5131
B(  2-O ,  6-C ) :   0.1436 B(  3-O ,  5-C ) :   1.5131 B(  3-O ,  7-C ) :   0.1436
B(  4-C ,  6-C ) :   0.7943 B(  5-C ,  7-C ) :   0.7943 B(  6-C ,  7-C ) :   3.3386

MP2 TOTAL ENERGY:     -453.891956933 Eh
FINAL SINGLE POINT ENERGY      -453.891956933241

DIPOLE MOMENT
-------------
                                X             Y             Z
Electronic contribution:      0.00000      -0.00000      -0.55331
Nuclear contribution   :      0.00000       0.00000       1.59513
                        -----------------------------------------
Total Dipole Moment    :      0.00000      -0.00000       1.04183
                        -----------------------------------------
Magnitude (a.u.)       :      1.04183
Magnitude (Debye)      :      2.64811

Rotational constants in cm-1:     0.195092     0.028382     0.026318
Rotational constants in MHz :  5848.722792   850.863019   788.982775

                             ****ORCA TERMINATED NORMALLY****
TOTAL RUN TIME: 0 days 0 hours 14 minutes 38 seconds 5 msec
