                         Program Version 5.0.4 -  RELEASE  -
|  1> !ri-mp2 aug-cc-pvqz aug-cc-pvqz/c tightscf
|  2> %pal nprocs 16 end
|  3>
|  4> * xyz 0 1
|  5> C     -2.338453    1.106760    0.151750
|  6> C     -2.887654   -0.169877    0.191707
|  7> C     -0.990243    1.249733   -0.135297
|  8> C     -2.057419   -1.252130   -0.061697
|  9> C     -0.261460    0.091175   -0.369070
| 10> C      2.022769   -0.010003    0.246139
| 11> C      3.397877   -0.012120   -0.356274
| 12> N     -0.757678   -1.126595   -0.342613
| 13> O      1.751515   -0.164505    1.402471
| 14> O      1.078492    0.204899   -0.727454
| 15> H     -2.950154    1.977738    0.343578
| 16> H     -3.933897   -0.324461    0.412893
| 17> H     -0.509700    2.215713   -0.177084
| 18> H     -2.444289   -2.263759   -0.042752
| 19> H      3.510688   -0.894802   -0.986722
| 20> H      4.140400   -0.030768    0.435030
| 21> H      3.538129    0.862122   -0.990340
| 22> *
| 23>
| 24>                          ****END OF INPUT****

CARTESIAN COORDINATES (ANGSTROEM)
---------------------------------
  C     -2.338453    1.106760    0.151750
  C     -2.887654   -0.169877    0.191707
  C     -0.990243    1.249733   -0.135297
  C     -2.057419   -1.252130   -0.061697
  C     -0.261460    0.091175   -0.369070
  C      2.022769   -0.010003    0.246139
  C      3.397877   -0.012120   -0.356274
  N     -0.757678   -1.126595   -0.342613
  O      1.751515   -0.164505    1.402471
  O      1.078492    0.204899   -0.727454
  H     -2.950154    1.977738    0.343578
  H     -3.933897   -0.324461    0.412893
  H     -0.509700    2.215713   -0.177084
  H     -2.444289   -2.263759   -0.042752
  H      3.510688   -0.894802   -0.986722
  H      4.140400   -0.030768    0.435030
  H      3.538129    0.862122   -0.990340

 Total Charge           Charge          ....    0
 Multiplicity           Mult            ....    1
 Number of Electrons    NEL             ....   72
 Basis Dimension        Dim             .... 1122

ORBITAL ENERGIES
----------------

  NO   OCC          E(Eh)            E(eV)
   0   2.0000     -20.610882      -560.8506
   1   2.0000     -20.549810      -559.1887
   2   2.0000     -15.569616      -423.6708
   3   2.0000     -11.389503      -309.9241
   4   2.0000     -11.342663      -308.6496
   5   2.0000     -11.282971      -307.0252
   6   2.0000     -11.266253      -306.5703
   7   2.0000     -11.247093      -306.0489
   8   2.0000     -11.243911      -305.9624
   9   2.0000     -11.243256      -305.9446
  10   2.0000      -1.473575       -40.0980
  11   2.0000      -1.377586       -37.4860
  12   2.0000      -1.268403       -34.5150
  13   2.0000      -1.101080       -29.9619
  14   2.0000      -1.055536       -28.7226
  15   2.0000      -1.013051       -27.5665
  16   2.0000      -0.882859       -24.0238
  17   2.0000      -0.878619       -23.9084
  18   2.0000      -0.798354       -21.7243
  19   2.0000      -0.718744       -19.5580
  20   2.0000      -0.700731       -19.0679
  21   2.0000      -0.692523       -18.8445
  22   2.0000      -0.683187       -18.5905
  23   2.0000      -0.635602       -17.2956
  24   2.0000      -0.634625       -17.2690
  25   2.0000      -0.594615       -16.1803
  26   2.0000      -0.588463       -16.0129
  27   2.0000      -0.574771       -15.6403
  28   2.0000      -0.551442       -15.0055
  29   2.0000      -0.544992       -14.8300
  30   2.0000      -0.536253       -14.5922
  31   2.0000      -0.484342       -13.1796
  32   2.0000      -0.459255       -12.4970
  33   2.0000      -0.433777       -11.8037
  34   2.0000      -0.393412       -10.7053
  35   2.0000      -0.351009        -9.5514
  36   0.0000       0.022707         0.6179
  37   0.0000       0.026467         0.7202
  38   0.0000       0.030412         0.8275
  39   0.0000       0.039027         1.0620
  40   0.0000       0.042178         1.1477

MULLIKEN ATOMIC CHARGES
-----------------------
   0 C :   -0.182305
   1 C :   -0.312527
   2 C :   -0.596491
   3 C :   -0.378139
   4 C :    1.189129
   5 C :    0.854986
   6 C :   -0.730210
   7 N :   -0.667856
   8 O :   -0.745813
   9 O :   -0.722506
  10 H :    0.270194
  11 H :    0.332151
  12 H :    0.328490
  13 H :    0.450242
  14 H :    0.295551
  15 H :    0.325797
  16 H :    0.289306
Sum of atomic charges:   -0.0000000

LOEWDIN ATOMIC CHARGES
----------------------
   0 C :    0.333843
   1 C :    0.336398
   2 C :    0.322567
   3 C :    0.083112
   4 C :   -0.783913
   5 C :   -1.050651
   6 C :    0.874692
   7 N :    0.587743
   8 O :    0.714267
   9 O :    0.809938
  10 H :   -0.310476
  11 H :   -0.329249
  12 H :   -0.321662
  13 H :   -0.346340
  14 H :   -0.296301
  15 H :   -0.319958
  16 H :   -0.304009

  Mayer bond orders larger than 0.100000
B(  0-C ,  1-C ) :   1.1724 B(  0-C ,  2-C ) :   1.3314 B(  0-C ,  4-C ) :  -0.2704
B(  0-C , 10-H ) :   1.0706 B(  1-C ,  3-C ) :   1.2705 B(  1-C , 11-H ) :   0.9886
B(  2-C ,  3-C ) :   0.1715 B(  2-C ,  4-C ) :   1.1877 B(  2-C , 10-H ) :  -0.1014
B(  2-C , 12-H ) :   0.9124 B(  3-C ,  7-N ) :   1.3564 B(  3-C , 13-H ) :   0.8937
B(  4-C ,  7-N ) :   0.9593 B(  4-C ,  9-O ) :   0.5853 B(  5-C ,  6-C ) :   0.9001
B(  5-C ,  8-O ) :   1.4713 B(  5-C ,  9-O ) :   0.9236 B(  6-C , 14-H ) :   0.8992
B(  6-C , 15-H ) :   0.9467 B(  6-C , 16-H ) :   0.9405

MP2 TOTAL ENERGY:     -475.437575075 Eh
FINAL SINGLE POINT ENERGY      -475.437575074867

DIPOLE MOMENT
-------------
                                X             Y             Z
Electronic contribution:     -1.72575      -0.80947       0.43269
Nuclear contribution   :      1.37190       1.51434      -0.98284
                        -----------------------------------------
Total Dipole Moment    :     -0.35386       0.70487      -0.55014
                        -----------------------------------------
Magnitude (a.u.)       :      0.96162
Magnitude (Debye)      :      2.44424

Rotational constants in cm-1:     0.123810     0.027423     0.025806
Rotational constants in MHz :  3711.735597   822.131514   773.649786

                             ****ORCA TERMINATED NORMALLY****
TOTAL RUN TIME: 0 days 0 hours 49 minutes 47 seconds 683 msec
