                         Program Version 5.0.4 -  RELEASE  -
|  1> !ri-mp2 aug-cc-pvqz aug-cc-pvqz/c tightscf
|  2> %pal nprocs 16 end
|  3>
|  4> * xyz 0 1
|  5> Cl   -2.197577   -1.227671   -0.000015
|  6> F     3.325479    0.455112    0.000010
|  7> N     0.390768   -1.596694   -0.000015
|  8> N    -2.115599    2.508502    0.000021
|  9> C    -0.276396    0.703136    0.000006
| 10> C    -0.547172   -0.677505   -0.000008
| 11> C     2.027709    0.116243    0.000004
| 12> C     1.061483    1.100236    0.000013
| 13> C     1.668300   -1.221079   -0.000009
| 14> C    -1.309558    1.686129    0.000014
| 15> H     1.333645    2.145419    0.000023
| 16> H     2.423474   -1.996630   -0.000016
| 17> *
| 18>
| 19>                          ****END OF INPUT****

CARTESIAN COORDINATES (ANGSTROEM)
---------------------------------
  Cl    -2.197577   -1.227671   -0.000015
  F      3.325479    0.455112    0.000010
  N      0.390768   -1.596694   -0.000015
  N     -2.115599    2.508502    0.000021
  C     -0.276396    0.703136    0.000006
  C     -0.547172   -0.677505   -0.000008
  C      2.027709    0.116243    0.000004
  C      1.061483    1.100236    0.000013
  C      1.668300   -1.221079   -0.000009
  C     -1.309558    1.686129    0.000014
  H      1.333645    2.145419    0.000023
  H      2.423474   -1.996630   -0.000016

 Total Charge           Charge          ....    0
 Multiplicity           Mult            ....    1
 Number of Electrons    NEL             ....   78
 Basis Dimension        Dim             ....  896

ORBITAL ENERGIES
----------------

  NO   OCC          E(Eh)            E(eV)
   0   2.0000    -104.867396     -2853.5869
   1   2.0000     -26.347951      -716.9642
   2   2.0000     -15.619253      -425.0215
   3   2.0000     -15.593780      -424.3283
   4   2.0000     -11.385378      -309.8119
   5   2.0000     -11.371233      -309.4270
   6   2.0000     -11.330441      -308.3170
   7   2.0000     -11.327902      -308.2479
   8   2.0000     -11.316785      -307.9454
   9   2.0000     -11.296546      -307.3946
  10   2.0000     -10.592732      -288.2429
  11   2.0000      -8.059819      -219.3188
  12   2.0000      -8.057915      -219.2670
  13   2.0000      -8.057909      -219.2668
  14   2.0000      -1.668304       -45.3969
  15   2.0000      -1.334992       -36.3270
  16   2.0000      -1.245633       -33.8954
  17   2.0000      -1.171255       -31.8715
  18   2.0000      -1.158315       -31.5193
  19   2.0000      -1.065496       -28.9936
  20   2.0000      -0.958222       -26.0745
  21   2.0000      -0.903347       -24.5813
  22   2.0000      -0.823391       -22.4056
  23   2.0000      -0.782009       -21.2795
  24   2.0000      -0.737541       -20.0695
  25   2.0000      -0.737225       -20.0609
  26   2.0000      -0.720877       -19.6161
  27   2.0000      -0.672503       -18.2997
  28   2.0000      -0.634317       -17.2606
  29   2.0000      -0.624160       -16.9843
  30   2.0000      -0.599327       -16.3085
  31   2.0000      -0.579318       -15.7640
  32   2.0000      -0.525031       -14.2868
  33   2.0000      -0.505202       -13.7473
  34   2.0000      -0.503569       -13.7028
  35   2.0000      -0.484463       -13.1829
  36   2.0000      -0.469768       -12.7830
  37   2.0000      -0.428204       -11.6520
  38   2.0000      -0.376940       -10.2570
  39   0.0000       0.020310         0.5527
  40   0.0000       0.027636         0.7520
  41   0.0000       0.030288         0.8242
  42   0.0000       0.047435         1.2908
  43   0.0000       0.048104         1.3090

MULLIKEN ATOMIC CHARGES
-----------------------
   0 Cl:   -0.252790
   1 F :   -0.754343
   2 N :   -0.467772
   3 N :   -0.759791
   4 C :   -0.301331
   5 C :    0.497031
   6 C :    1.035969
   7 C :   -0.330630
   8 C :   -0.308784
   9 C :    0.705889
  10 H :    0.438661
  11 H :    0.497891
Sum of atomic charges:    0.0000000

LOEWDIN ATOMIC CHARGES
----------------------
   0 Cl:    1.215639
   1 F :    0.785546
   2 N :    0.460404
   3 N :    0.424183
   4 C :   -0.352989
   5 C :   -1.143461
   6 C :   -0.679095
   7 C :    0.272988
   8 C :    0.052648
   9 C :   -0.385742
  10 H :   -0.307272
  11 H :   -0.342848

  Mayer bond orders larger than 0.100000
B(  0-Cl,  2-N ) :  -0.1309 B(  0-Cl,  5-C ) :   0.8025 B(  1-F ,  7-C ) :   0.1265
B(  2-N ,  4-C ) :   0.1237 B(  2-N ,  5-C ) :   1.0850 B(  2-N ,  8-C ) :   1.2619
B(  3-N ,  9-C ) :   2.2644 B(  4-C ,  5-C ) :   1.0051 B(  4-C ,  6-C ) :  -0.1920
B(  4-C ,  7-C ) :   1.0698 B(  4-C ,  8-C ) :   0.1592 B(  4-C ,  9-C ) :   1.3801
B(  6-C ,  7-C ) :   1.4228 B(  6-C ,  8-C ) :   1.2636 B(  7-C ,  9-C ) :  -0.2759
B(  7-C , 10-H ) :   0.8076 B(  8-C , 11-H ) :   0.7507

MP2 TOTAL ENERGY:     -898.258116993 Eh
FINAL SINGLE POINT ENERGY      -898.258116992604

DIPOLE MOMENT
-------------
                                X             Y             Z
Electronic contribution:     -2.00381      -1.77935      -0.00002
Nuclear contribution   :      3.37505       1.36719       0.00002
                        -----------------------------------------
Total Dipole Moment    :      1.37124      -0.41216      -0.00000
                        -----------------------------------------
Magnitude (a.u.)       :      1.43184
Magnitude (Debye)      :      3.63945

Rotational constants in cm-1:     0.062925     0.029297     0.019990
Rotational constants in MHz :  1886.444603   878.304324   599.284961

                             ****ORCA TERMINATED NORMALLY****
TOTAL RUN TIME: 0 days 0 hours 30 minutes 42 seconds 317 msec
