                         Program Version 5.0.4 -  RELEASE  -
|  1> !ri-mp2 aug-cc-pvqz aug-cc-pvqz/c tightscf
|  2> %pal nprocs 16 end
|  3>
|  4> * xyz 0 1
|  5> O     1.270824   -1.445451    0.000000
|  6> S     0.002229   -0.724554    0.000000
|  7> O    -1.257213   -1.461278    0.000000
|  8> C    -0.004596    0.507527    1.362305
|  9> C    -0.004596    1.830288    0.665220
| 10> C    -0.004596    1.830288   -0.665220
| 11> C    -0.004596    0.507527   -1.362305
| 12> H     0.883848    0.328649    1.967200
| 13> H    -0.896445    0.325784    1.961332
| 14> H    -0.004535    2.742025    1.247250
| 15> H    -0.004535    2.742025   -1.247250
| 16> H     0.883848    0.328649   -1.967200
| 17> H    -0.896445    0.325784   -1.961332
| 18> *
| 19>
| 20>                          ****END OF INPUT****

CARTESIAN COORDINATES (ANGSTROEM)
---------------------------------
  O      1.270824   -1.445451    0.000000
  S      0.002229   -0.724554    0.000000
  O     -1.257213   -1.461278    0.000000
  C     -0.004596    0.507527    1.362305
  C     -0.004596    1.830288    0.665220
  C     -0.004596    1.830288   -0.665220
  C     -0.004596    0.507527   -1.362305
  H      0.883848    0.328649    1.967200
  H     -0.896445    0.325784    1.961332
  H     -0.004535    2.742025    1.247250
  H     -0.004535    2.742025   -1.247250
  H      0.883848    0.328649   -1.967200
  H     -0.896445    0.325784   -1.961332

 Total Charge           Charge          ....    0
 Multiplicity           Mult            ....    1
 Number of Electrons    NEL             ....   62
 Basis Dimension        Dim             ....  840

ORBITAL ENERGIES
----------------

  NO   OCC          E(Eh)            E(eV)
   0   2.0000     -92.172515     -2508.1417
   1   2.0000     -20.543761      -559.0242
   2   2.0000     -20.543716      -559.0229
   3   2.0000     -11.285769      -307.1014
   4   2.0000     -11.285750      -307.1009
   5   2.0000     -11.273872      -306.7776
   6   2.0000     -11.272117      -306.7299
   7   2.0000      -9.142663      -248.7845
   8   2.0000      -6.827931      -185.7974
   9   2.0000      -6.827077      -185.7742
  10   2.0000      -6.826763      -185.7657
  11   2.0000      -1.440624       -39.2014
  12   2.0000      -1.331044       -36.2195
  13   2.0000      -1.163203       -31.6524
  14   2.0000      -1.029490       -28.0139
  15   2.0000      -0.980725       -26.6869
  16   2.0000      -0.816956       -22.2305
  17   2.0000      -0.790356       -21.5067
  18   2.0000      -0.712750       -19.3949
  19   2.0000      -0.669231       -18.2107
  20   2.0000      -0.637538       -17.3483
  21   2.0000      -0.635459       -17.2917
  22   2.0000      -0.624725       -16.9996
  23   2.0000      -0.606980       -16.5168
  24   2.0000      -0.596158       -16.2223
  25   2.0000      -0.556434       -15.1413
  26   2.0000      -0.492638       -13.4054
  27   2.0000      -0.489714       -13.3258
  28   2.0000      -0.470222       -12.7954
  29   2.0000      -0.427965       -11.6455
  30   2.0000      -0.396318       -10.7844
  31   0.0000       0.017404         0.4736
  32   0.0000       0.025539         0.6950
  33   0.0000       0.036165         0.9841
  34   0.0000       0.036452         0.9919
  35   0.0000       0.045219         1.2305

MULLIKEN ATOMIC CHARGES
-----------------------
   0 O :   -1.277044
   1 S :    2.477066
   2 O :   -1.278056
   3 C :   -0.557634
   4 C :   -0.448594
   5 C :   -0.448594
   6 C :   -0.557634
   7 H :    0.311257
   8 H :    0.311894
   9 H :    0.422094
  10 H :    0.422094
  11 H :    0.311257
  12 H :    0.311894
Sum of atomic charges:    0.0000000

LOEWDIN ATOMIC CHARGES
----------------------
   0 O :    0.282751
   1 S :   -0.165685
   2 O :    0.282469
   3 C :    0.419711
   4 C :    0.344179
   5 C :    0.344179
   6 C :    0.419711
   7 H :   -0.327023
   8 H :   -0.326918
   9 H :   -0.309716
  10 H :   -0.309716
  11 H :   -0.327023
  12 H :   -0.326918

  Mayer bond orders larger than 0.100000
B(  0-O ,  1-S ) :   0.9041 B(  1-S ,  2-O ) :   0.9042 B(  1-S ,  3-C ) :   0.9095
B(  1-S ,  6-C ) :   0.9095 B(  3-C ,  4-C ) :   0.9010 B(  3-C ,  7-H ) :   0.8767
B(  3-C ,  8-H ) :   0.8752 B(  4-C ,  5-C ) :   1.6431 B(  4-C ,  9-H ) :   0.8265
B(  5-C ,  6-C ) :   0.9010 B(  5-C , 10-H ) :   0.8265 B(  6-C , 11-H ) :   0.8767
B(  6-C , 12-H ) :   0.8752

MP2 TOTAL ENERGY:     -703.737886566 Eh
FINAL SINGLE POINT ENERGY      -703.737886565970

DIPOLE MOMENT
-------------
                                X             Y             Z
Electronic contribution:      0.02097      -4.49364       0.00000
Nuclear contribution   :     -0.03362       6.67151       0.00000
                        -----------------------------------------
Total Dipole Moment    :     -0.01266       2.17787       0.00000
                        -----------------------------------------
Magnitude (a.u.)       :      2.17791
Magnitude (Debye)      :      5.53580

Rotational constants in cm-1:     0.131468     0.070062     0.064789
Rotational constants in MHz :  3941.306370  2100.409294  1942.320760

                             ****ORCA TERMINATED NORMALLY****
TOTAL RUN TIME: 0 days 0 hours 28 minutes 35 seconds 420 msec
