                         Program Version 5.0.4 -  RELEASE  -
|  1> !ri-mp2 aug-cc-pvqz aug-cc-pvqz/c tightscf
|  2> %pal nprocs 16 end
|  3>
|  4> * xyz 0 1
|  5> Cl    -0.526261    1.700246   -0.274259
|  6> Cl    -1.582683   -1.029630    0.088524
|  7> N      2.158124    0.361415    0.398415
|  8> N      1.210052   -1.612358   -0.532489
|  9> C     -0.238755    0.057016    0.456190
| 10> C      1.125544   -0.473565    0.016892
| 11> H     -0.244149    0.225219    1.527203
| 12> H      1.958781    1.347469    0.456439
| 13> H      3.066064    0.149391    0.018031
| 14> H      2.173371   -1.866660   -0.744155
| 15> *
| 16>
| 17>                          ****END OF INPUT****

CARTESIAN COORDINATES (ANGSTROEM)
---------------------------------
  Cl    -0.526261    1.700246   -0.274259
  Cl    -1.582683   -1.029630    0.088524
  N      2.158124    0.361415    0.398415
  N      1.210052   -1.612358   -0.532489
  C     -0.238755    0.057016    0.456190
  C      1.125544   -0.473565    0.016892
  H     -0.244149    0.225219    1.527203
  H      1.958781    1.347469    0.456439
  H      3.066064    0.149391    0.018031
  H      2.173371   -1.866660   -0.744155

 Total Charge           Charge          ....    0
 Multiplicity           Mult            ....    1
 Number of Electrons    NEL             ....   64
 Basis Dimension        Dim             ....  672

ORBITAL ENERGIES
----------------

  NO   OCC          E(Eh)            E(eV)
   0   2.0000    -104.853345     -2853.2046
   1   2.0000    -104.843203     -2852.9286
   2   2.0000     -15.594969      -424.3607
   3   2.0000     -15.547885      -423.0795
   4   2.0000     -11.380135      -309.6692
   5   2.0000     -11.346908      -308.7651
   6   2.0000     -10.578667      -287.8602
   7   2.0000     -10.568481      -287.5830
   8   2.0000      -8.045613      -218.9322
   9   2.0000      -8.043915      -218.8860
  10   2.0000      -8.043817      -218.8834
  11   2.0000      -8.035555      -218.6586
  12   2.0000      -8.033647      -218.6066
  13   2.0000      -8.033569      -218.6045
  14   2.0000      -1.293806       -35.2062
  15   2.0000      -1.185081       -32.2477
  16   2.0000      -1.166891       -31.7527
  17   2.0000      -1.092949       -29.7407
  18   2.0000      -0.942880       -25.6571
  19   2.0000      -0.792118       -21.5546
  20   2.0000      -0.733636       -19.9633
  21   2.0000      -0.720264       -19.5994
  22   2.0000      -0.647182       -17.6107
  23   2.0000      -0.604579       -16.4514
  24   2.0000      -0.582354       -15.8467
  25   2.0000      -0.540813       -14.7163
  26   2.0000      -0.478970       -13.0334
  27   2.0000      -0.475765       -12.9462
  28   2.0000      -0.451909       -12.2971
  29   2.0000      -0.448050       -12.1921
  30   2.0000      -0.437054       -11.8928
  31   2.0000      -0.396131       -10.7793
  32   0.0000       0.018652         0.5075
  33   0.0000       0.033144         0.9019
  34   0.0000       0.037447         1.0190
  35   0.0000       0.050011         1.3609
  36   0.0000       0.062456         1.6995

MULLIKEN ATOMIC CHARGES
-----------------------
   0 Cl:   -0.295167
   1 Cl:   -0.255382
   2 N :   -0.678289
   3 N :   -0.721725
   4 C :    0.096677
   5 C :    0.610948
   6 H :    0.386891
   7 H :    0.311608
   8 H :    0.260538
   9 H :    0.283901
Sum of atomic charges:   -0.0000000

LOEWDIN ATOMIC CHARGES
----------------------
   0 Cl:    1.077470
   1 Cl:    1.118955
   2 N :    1.222394
   3 N :    0.910770
   4 C :   -1.299582
   5 C :   -0.722899
   6 H :   -0.548243
   7 H :   -0.584714
   8 H :   -0.499312
   9 H :   -0.674841

  Mayer bond orders larger than 0.100000
B(  0-Cl,  4-C ) :   0.8346 B(  0-Cl,  5-C ) :  -0.1031 B(  1-Cl,  4-C ) :   0.8311
B(  1-Cl,  5-C ) :  -0.1037 B(  2-N ,  5-C ) :   1.0446 B(  2-N ,  7-H ) :   0.8753
B(  2-N ,  8-H ) :   0.9444 B(  3-N ,  5-C ) :   1.7149 B(  3-N ,  9-H ) :   0.8702
B(  4-C ,  5-C ) :   0.8828 B(  4-C ,  6-H ) :   0.7667

MP2 TOTAL ENERGY:    -1107.291474899 Eh
FINAL SINGLE POINT ENERGY     -1107.291474899100

DIPOLE MOMENT
-------------
                                X             Y             Z
Electronic contribution:     -8.18365       1.77128      -1.02774
Nuclear contribution   :      9.45773      -1.05203       1.44119
                        -----------------------------------------
Total Dipole Moment    :      1.27408       0.71926       0.41345
                        -----------------------------------------
Magnitude (a.u.)       :      1.52038
Magnitude (Debye)      :      3.86450

Rotational constants in cm-1:     0.083847     0.072508     0.041708
Rotational constants in MHz :  2513.683530  2173.742324  1250.386620

                             ****ORCA TERMINATED NORMALLY****
TOTAL RUN TIME: 0 days 0 hours 10 minutes 13 seconds 278 msec
