                         Program Version 5.0.4 -  RELEASE  -
|  1> !ri-mp2 aug-cc-pvqz aug-cc-pvqz/c tightscf
|  2> %pal nprocs 16 end
|  3>
|  4> * xyz 0 1
|  5> C      0.674889    0.424910    0.000000
|  6> C      1.189289    1.875357    0.000000
|  7> H      2.280421    1.893123    0.000000
|  8> S     -1.677881   -1.162383    0.000000
|  9> H     -2.940602   -0.701861    0.000000
| 10> C     -0.864560    0.499457    0.000000
| 11> C      1.189289   -0.290385    1.258329
| 12> C      1.189289   -0.290385   -1.258329
| 13> H     -1.202991    1.037483    0.884380
| 14> H     -1.202991    1.037483   -0.884380
| 15> H      2.280323   -0.281639    1.280304
| 16> H      2.280323   -0.281639   -1.280304
| 17> H      0.862904   -1.329613    1.294987
| 18> H      0.862904   -1.329613   -1.294987
| 19> H      0.831671    0.202325    2.164531
| 20> H      0.831671    0.202325   -2.164531
| 21> H      0.846646    2.418019   -0.883096
| 22> H      0.846646    2.418019    0.883096
| 23> *
| 24>
| 25>                          ****END OF INPUT****

CARTESIAN COORDINATES (ANGSTROEM)
---------------------------------
  C      0.674889    0.424910    0.000000
  C      1.189289    1.875357    0.000000
  H      2.280421    1.893123    0.000000
  S     -1.677881   -1.162383    0.000000
  H     -2.940602   -0.701861    0.000000
  C     -0.864560    0.499457    0.000000
  C      1.189289   -0.290385    1.258329
  C      1.189289   -0.290385   -1.258329
  H     -1.202991    1.037483    0.884380
  H     -1.202991    1.037483   -0.884380
  H      2.280323   -0.281639    1.280304
  H      2.280323   -0.281639   -1.280304
  H      0.862904   -1.329613    1.294987
  H      0.862904   -1.329613   -1.294987
  H      0.831671    0.202325    2.164531
  H      0.831671    0.202325   -2.164531
  H      0.846646    2.418019   -0.883096
  H      0.846646    2.418019    0.883096

 Total Charge           Charge          ....    0
 Multiplicity           Mult            ....    1
 Number of Electrons    NEL             ....   58
 Basis Dimension        Dim             .... 1036

ORBITAL ENERGIES
----------------

  NO   OCC          E(Eh)            E(eV)
   0   2.0000     -91.944305     -2501.9317
   1   2.0000     -11.256464      -306.3040
   2   2.0000     -11.244540      -305.9795
   3   2.0000     -11.216117      -305.2061
   4   2.0000     -11.211023      -305.0674
   5   2.0000     -11.211007      -305.0670
   6   2.0000      -8.946630      -243.4502
   7   2.0000      -6.628225      -180.3632
   8   2.0000      -6.627341      -180.3391
   9   2.0000      -6.626409      -180.3138
  10   2.0000      -1.119394       -30.4603
  11   2.0000      -1.003170       -27.2977
  12   2.0000      -0.936851       -25.4930
  13   2.0000      -0.934542       -25.4302
  14   2.0000      -0.868337       -23.6287
  15   2.0000      -0.733480       -19.9590
  16   2.0000      -0.630740       -17.1633
  17   2.0000      -0.629929       -17.1412
  18   2.0000      -0.605418       -16.4743
  19   2.0000      -0.571243       -15.5443
  20   2.0000      -0.559371       -15.2213
  21   2.0000      -0.526230       -14.3194
  22   2.0000      -0.525990       -14.3129
  23   2.0000      -0.516865       -14.0646
  24   2.0000      -0.482682       -13.1344
  25   2.0000      -0.464754       -12.6466
  26   2.0000      -0.461086       -12.5468
  27   2.0000      -0.432948       -11.7811
  28   2.0000      -0.351737        -9.5713
  29   0.0000       0.024811         0.6751
  30   0.0000       0.029970         0.8155
  31   0.0000       0.033114         0.9011
  32   0.0000       0.034388         0.9358
  33   0.0000       0.048353         1.3157

MULLIKEN ATOMIC CHARGES
-----------------------
   0 C :    1.337647
   1 C :   -1.045214
   2 H :    0.219199
   3 S :   -0.244189
   4 H :   -0.075053
   5 C :   -0.502217
   6 C :   -1.013351
   7 C :   -1.013351
   8 H :    0.206374
   9 H :    0.206374
  10 H :    0.237009
  11 H :    0.237009
  12 H :    0.252009
  13 H :    0.252009
  14 H :    0.228742
  15 H :    0.228742
  16 H :    0.244131
  17 H :    0.244131
Sum of atomic charges:   -0.0000000

LOEWDIN ATOMIC CHARGES
----------------------
   0 C :   -0.389930
   1 C :    0.898335
   2 H :   -0.271299
   3 S :    1.609956
   4 H :   -0.776076
   5 C :    0.125049
   6 C :    0.876663
   7 C :    0.876663
   8 H :   -0.354304
   9 H :   -0.354304
  10 H :   -0.272656
  11 H :   -0.272656
  12 H :   -0.306146
  13 H :   -0.306146
  14 H :   -0.271048
  15 H :   -0.271048
  16 H :   -0.270526
  17 H :   -0.270526

  Mayer bond orders larger than 0.100000
B(  0-C ,  1-C ) :   0.4073 B(  0-C ,  5-C ) :   0.6209 B(  0-C ,  6-C ) :   0.4460
B(  0-C ,  7-C ) :   0.4460 B(  0-C , 16-H ) :  -0.1051 B(  0-C , 17-H ) :  -0.1051
B(  1-C ,  2-H ) :   1.0331 B(  1-C ,  6-C ) :   0.1109 B(  1-C ,  7-C ) :   0.1109
B(  1-C , 16-H ) :   1.0314 B(  1-C , 17-H ) :   1.0314 B(  3-S ,  4-H ) :   1.1416
B(  3-S ,  5-C ) :   0.7463 B(  5-C ,  8-H ) :   1.0171 B(  5-C ,  9-H ) :   1.0171
B(  6-C ,  7-C ) :   0.1040 B(  6-C , 10-H ) :   1.0282 B(  6-C , 12-H ) :   1.0285
B(  6-C , 14-H ) :   1.0409 B(  7-C , 11-H ) :   1.0282 B(  7-C , 13-H ) :   1.0285
B(  7-C , 15-H ) :   1.0409

MP2 TOTAL ENERGY:     -595.110840330 Eh
FINAL SINGLE POINT ENERGY      -595.110840330172

DIPOLE MOMENT
-------------
                                X             Y             Z
Electronic contribution:     -6.81492      -4.89902      -0.00000
Nuclear contribution   :      6.92875       5.56111       0.00000
                        -----------------------------------------
Total Dipole Moment    :      0.11384       0.66209      -0.00000
                        -----------------------------------------
Magnitude (a.u.)       :      0.67180
Magnitude (Debye)      :      1.70759

Rotational constants in cm-1:     0.144427     0.056339     0.055948
Rotational constants in MHz :  4329.814396  1688.987476  1677.278106

                             ****ORCA TERMINATED NORMALLY****
TOTAL RUN TIME: 0 days 0 hours 54 minutes 10 seconds 625 msec
