                         Program Version 5.0.4 -  RELEASE  -
|  1> !ri-mp2 aug-cc-pvqz aug-cc-pvqz/c tightscf
|  2> %pal nprocs 16 end
|  3>
|  4> * xyz 0 1
|  5> H     -2.241590   -1.215243   -0.387645
|  6> H     -0.912425   -2.289504   -0.826315
|  7> H     -1.300954   -0.896147   -1.846390
|  8> C     -1.239595   -1.246048   -0.816810
|  9> C     -0.259075   -0.399357   -0.001092
| 10> H      1.407768   -1.489975   -0.756299
| 11> H      1.007906   -0.079353   -1.707859
| 12> C      1.124715   -0.435306   -0.681589
| 13> H      2.022628    1.398388    0.091245
| 14> H      3.169518    0.252206   -0.593787
| 15> H      2.473612   -0.046308    0.992131
| 16> C      2.255992    0.338004   -0.004285
| 17> H      0.185174   -1.926656    1.466143
| 18> H     -1.196829   -0.915576    1.889107
| 19> H      0.434562   -0.280652    2.066600
| 20> C     -0.201951   -0.903990    1.442827
| 21> H     -2.042025    1.174320    0.484066
| 22> S     -0.817991    1.387168   -0.031582
| 23> *
| 24>
| 25>                          ****END OF INPUT****

CARTESIAN COORDINATES (ANGSTROEM)
---------------------------------
  H     -2.241590   -1.215243   -0.387645
  H     -0.912425   -2.289504   -0.826315
  H     -1.300954   -0.896147   -1.846390
  C     -1.239595   -1.246048   -0.816810
  C     -0.259075   -0.399357   -0.001092
  H      1.407768   -1.489975   -0.756299
  H      1.007906   -0.079353   -1.707859
  C      1.124715   -0.435306   -0.681589
  H      2.022628    1.398388    0.091245
  H      3.169518    0.252206   -0.593787
  H      2.473612   -0.046308    0.992131
  C      2.255992    0.338004   -0.004285
  H      0.185174   -1.926656    1.466143
  H     -1.196829   -0.915576    1.889107
  H      0.434562   -0.280652    2.066600
  C     -0.201951   -0.903990    1.442827
  H     -2.042025    1.174320    0.484066
  S     -0.817991    1.387168   -0.031582

 Total Charge           Charge          ....    0
 Multiplicity           Mult            ....    1
 Number of Electrons    NEL             ....   58
 Basis Dimension        Dim             .... 1036

ORBITAL ENERGIES
----------------

  NO   OCC          E(Eh)            E(eV)
   0   2.0000     -91.939291     -2501.7953
   1   2.0000     -11.274060      -306.7828
   2   2.0000     -11.228060      -305.5310
   3   2.0000     -11.219990      -305.3114
   4   2.0000     -11.219484      -305.2977
   5   2.0000     -11.213046      -305.1225
   6   2.0000      -8.942002      -243.3242
   7   2.0000      -6.623547      -180.2359
   8   2.0000      -6.622564      -180.2091
   9   2.0000      -6.621739      -180.1867
  10   2.0000      -1.119007       -30.4497
  11   2.0000      -1.006147       -27.3786
  12   2.0000      -0.942560       -25.6484
  13   2.0000      -0.936885       -25.4939
  14   2.0000      -0.862676       -23.4746
  15   2.0000      -0.733375       -19.9562
  16   2.0000      -0.637764       -17.3544
  17   2.0000      -0.625066       -17.0089
  18   2.0000      -0.595615       -16.2075
  19   2.0000      -0.581154       -15.8140
  20   2.0000      -0.551335       -15.0026
  21   2.0000      -0.540717       -14.7137
  22   2.0000      -0.521598       -14.1934
  23   2.0000      -0.514040       -13.9877
  24   2.0000      -0.494153       -13.4466
  25   2.0000      -0.472772       -12.8648
  26   2.0000      -0.460764       -12.5380
  27   2.0000      -0.421509       -11.4698
  28   2.0000      -0.350842        -9.5469
  29   0.0000       0.025365         0.6902
  30   0.0000       0.029807         0.8111
  31   0.0000       0.033129         0.9015
  32   0.0000       0.036617         0.9964
  33   0.0000       0.047888         1.3031

MULLIKEN ATOMIC CHARGES
-----------------------
   0 H :    0.274996
   1 H :    0.217361
   2 H :    0.280284
   3 C :   -1.062281
   4 C :    0.979472
   5 H :    0.270271
   6 H :    0.235251
   7 C :   -0.514189
   8 H :    0.210001
   9 H :    0.264963
  10 H :    0.213933
  11 C :   -0.822692
  12 H :    0.222412
  13 H :    0.325381
  14 H :    0.278570
  15 C :   -1.079558
  16 H :   -0.083002
  17 S :   -0.211173
Sum of atomic charges:   -0.0000000

LOEWDIN ATOMIC CHARGES
----------------------
   0 H :   -0.296831
   1 H :   -0.274521
   2 H :   -0.292642
   3 C :    0.820136
   4 C :   -0.645734
   5 H :   -0.280170
   6 H :   -0.296106
   7 C :    0.399146
   8 H :   -0.312078
   9 H :   -0.276798
  10 H :   -0.293033
  11 C :    0.908848
  12 H :   -0.269078
  13 H :   -0.293027
  14 H :   -0.308331
  15 C :    0.827703
  16 H :   -0.754681
  17 S :    1.637197

  Mayer bond orders larger than 0.100000
B(  0-H ,  3-C ) :   1.0022 B(  1-H ,  3-C ) :   0.9933 B(  2-H ,  3-C ) :   0.9937
B(  3-C ,  4-C ) :   0.5854 B(  4-C ,  7-C ) :   0.6908 B(  4-C , 15-C ) :   0.6191
B(  4-C , 16-H ) :  -0.1466 B(  4-C , 17-S ) :   0.6237 B(  5-H ,  7-C ) :   0.8949
B(  6-H ,  7-C ) :   0.9418 B(  7-C , 11-C ) :   0.8903 B(  8-H , 11-C ) :   0.9766
B(  9-H , 11-C ) :   1.0116 B( 10-H , 11-C ) :   0.9678 B( 12-H , 15-C ) :   0.9791
B( 13-H , 15-C ) :   0.9607 B( 14-H , 15-C ) :   1.0038 B( 16-H , 17-S ) :   1.1301

MP2 TOTAL ENERGY:     -595.112183602 Eh
FINAL SINGLE POINT ENERGY      -595.112183602033

DIPOLE MOMENT
-------------
                                X             Y             Z
Electronic contribution:     -3.14757       5.93188      -0.80441
Nuclear contribution   :      3.16986      -6.64508       0.91144
                        -----------------------------------------
Total Dipole Moment    :      0.02229      -0.71319       0.10703
                        -----------------------------------------
Magnitude (a.u.)       :      0.72152
Magnitude (Debye)      :      1.83397

Rotational constants in cm-1:     0.098787     0.079100     0.062990
Rotational constants in MHz :  2961.562986  2371.368434  1888.397841

                             ****ORCA TERMINATED NORMALLY****
TOTAL RUN TIME: 0 days 0 hours 53 minutes 41 seconds 573 msec
