                         Program Version 5.0.4 -  RELEASE  -
|  1> !ri-mp2 aug-cc-pvqz aug-cc-pvqz/c tightscf
|  2> %pal nprocs 16 end
|  3>
|  4> * xyz 0 1
|  5> S    -0.692409   -1.055906    0.000000
|  6> C    -0.026867    0.686541    0.000000
|  7> C    -1.284091    1.562967    0.000000
|  8> C     0.800267   -2.097232    0.000000
|  9> H     0.440552   -3.124595    0.000000
| 10> H    -0.998307    2.616921    0.000000
| 11> C     0.800267    0.953171    1.259728
| 12> C     0.800267    0.953171   -1.259728
| 13> H     1.404795   -1.943574    0.891889
| 14> H     1.404795   -1.943574   -0.891889
| 15> H     0.214552    0.768111   -2.159589
| 16> H     0.214552    0.768111    2.159589
| 17> H     1.131617    1.995073    1.274003
| 18> H     1.131617    1.995073   -1.274003
| 19> H     1.692762    0.328379    1.299095
| 20> H     1.692762    0.328379   -1.299095
| 21> H    -1.895101    1.377247   -0.883681
| 22> H    -1.895101    1.377247    0.883681
| 23> *
| 24>
| 25>                          ****END OF INPUT****

CARTESIAN COORDINATES (ANGSTROEM)
---------------------------------
  S     -0.692409   -1.055906    0.000000
  C     -0.026867    0.686541    0.000000
  C     -1.284091    1.562967    0.000000
  C      0.800267   -2.097232    0.000000
  H      0.440552   -3.124595    0.000000
  H     -0.998307    2.616921    0.000000
  C      0.800267    0.953171    1.259728
  C      0.800267    0.953171   -1.259728
  H      1.404795   -1.943574    0.891889
  H      1.404795   -1.943574   -0.891889
  H      0.214552    0.768111   -2.159589
  H      0.214552    0.768111    2.159589
  H      1.131617    1.995073    1.274003
  H      1.131617    1.995073   -1.274003
  H      1.692762    0.328379    1.299095
  H      1.692762    0.328379   -1.299095
  H     -1.895101    1.377247   -0.883681
  H     -1.895101    1.377247    0.883681

 Total Charge           Charge          ....    0
 Multiplicity           Mult            ....    1
 Number of Electrons    NEL             ....   58
 Basis Dimension        Dim             .... 1036

ORBITAL ENERGIES
----------------

  NO   OCC          E(Eh)            E(eV)
   0   2.0000     -91.932784     -2501.6182
   1   2.0000     -11.268228      -306.6241
   2   2.0000     -11.245608      -306.0085
   3   2.0000     -11.217460      -305.2426
   4   2.0000     -11.217445      -305.2422
   5   2.0000     -11.217297      -305.2382
   6   2.0000      -8.934569      -243.1220
   7   2.0000      -6.616084      -180.0328
   8   2.0000      -6.615102      -180.0061
   9   2.0000      -6.614321      -179.9848
  10   2.0000      -1.112506       -30.2728
  11   2.0000      -1.006465       -27.3873
  12   2.0000      -0.939983       -25.5782
  13   2.0000      -0.939980       -25.5781
  14   2.0000      -0.856019       -23.2935
  15   2.0000      -0.726079       -19.7576
  16   2.0000      -0.626651       -17.0520
  17   2.0000      -0.608190       -16.5497
  18   2.0000      -0.607947       -16.5431
  19   2.0000      -0.588522       -16.0145
  20   2.0000      -0.565220       -15.3804
  21   2.0000      -0.548313       -14.9204
  22   2.0000      -0.539454       -14.6793
  23   2.0000      -0.519980       -14.1494
  24   2.0000      -0.489769       -13.3273
  25   2.0000      -0.480004       -13.0616
  26   2.0000      -0.455769       -12.4021
  27   2.0000      -0.407179       -11.0799
  28   2.0000      -0.332680        -9.0527
  29   0.0000       0.025980         0.7069
  30   0.0000       0.030260         0.8234
  31   0.0000       0.033815         0.9201
  32   0.0000       0.034742         0.9454
  33   0.0000       0.047324         1.2878

MULLIKEN ATOMIC CHARGES
-----------------------
   0 S :   -0.167845
   1 C :    1.014968
   2 C :   -1.103580
   3 C :   -0.985132
   4 H :    0.417766
   5 H :    0.276099
   6 C :   -1.121305
   7 C :   -1.121305
   8 H :    0.289569
   9 H :    0.289569
  10 H :    0.275724
  11 H :    0.275725
  12 H :    0.283806
  13 H :    0.283806
  14 H :    0.276602
  15 H :    0.276602
  16 H :    0.269465
  17 H :    0.269465
Sum of atomic charges:    0.0000000

LOEWDIN ATOMIC CHARGES
----------------------
   0 S :    1.351999
   1 C :   -0.633917
   2 C :    0.793610
   3 C :    0.567292
   4 H :   -0.392869
   5 H :   -0.277739
   6 C :    0.832314
   7 C :    0.832314
   8 H :   -0.372028
   9 H :   -0.372028
  10 H :   -0.288320
  11 H :   -0.288320
  12 H :   -0.275409
  13 H :   -0.275409
  14 H :   -0.305727
  15 H :   -0.305727
  16 H :   -0.295018
  17 H :   -0.295018

  Mayer bond orders larger than 0.100000
B(  0-S ,  1-C ) :   0.8123 B(  0-S ,  3-C ) :   0.9833 B(  1-C ,  2-C ) :   0.3307
B(  1-C ,  6-C ) :   0.6499 B(  1-C ,  7-C ) :   0.6499 B(  1-C , 16-H ) :  -0.1226
B(  1-C , 17-H ) :  -0.1226 B(  2-C ,  5-H ) :   0.9818 B(  2-C ,  6-C ) :   0.1181
B(  2-C ,  7-C ) :   0.1181 B(  2-C , 16-H ) :   1.0213 B(  2-C , 17-H ) :   1.0213
B(  3-C ,  4-H ) :   0.8308 B(  3-C ,  8-H ) :   0.9134 B(  3-C ,  9-H ) :   0.9134
B(  6-C , 11-H ) :   1.0049 B(  6-C , 12-H ) :   0.9183 B(  6-C , 14-H ) :   0.9911
B(  7-C , 10-H ) :   1.0049 B(  7-C , 13-H ) :   0.9183 B(  7-C , 15-H ) :   0.9911

MP2 TOTAL ENERGY:     -595.111301550 Eh
FINAL SINGLE POINT ENERGY      -595.111301549978

DIPOLE MOMENT
-------------
                                X             Y             Z
Electronic contribution:     -4.13151      -4.48486      -0.00000
Nuclear contribution   :      4.76731       4.78249       0.00000
                        -----------------------------------------
Total Dipole Moment    :      0.63580       0.29763      -0.00000
                        -----------------------------------------
Magnitude (a.u.)       :      0.70201
Magnitude (Debye)      :      1.78437

Rotational constants in cm-1:     0.124865     0.069805     0.064403
Rotational constants in MHz :  3743.361107  2092.710337  1930.763902

                             ****ORCA TERMINATED NORMALLY****
TOTAL RUN TIME: 0 days 0 hours 50 minutes 17 seconds 415 msec
