                         Program Version 5.0.4 -  RELEASE  -
|  1> !ri-mp2 aug-cc-pvqz aug-cc-pvqz/c tightscf
|  2> %pal nprocs 16 end
|  3>
|  4> * xyz 0 1
|  5> S     -1.970085   -1.004828    0.404057
|  6> S     -1.139601    1.747515   -0.120095
|  7> O      2.148970    1.195734   -0.147249
|  8> O      1.936106   -0.474436    1.215650
|  9> N      1.643397    0.143182    0.214618
| 10> C      0.530339   -0.432912   -0.684238
| 11> C     -0.823235    0.025273   -0.124545
| 12> C      0.716287   -1.928719   -0.821212
| 13> H      0.055105    2.176069   -0.582816
| 14> H      0.695123    0.073347   -1.632561
| 15> H      0.587915   -2.431303    0.132211
| 16> H     -0.020664   -2.316756   -1.520848
| 17> H      1.712761   -2.138853   -1.208928
| 18> *
| 19>
| 20>                          ****END OF INPUT****

CARTESIAN COORDINATES (ANGSTROEM)
---------------------------------
  S     -1.970085   -1.004828    0.404057
  S     -1.139601    1.747515   -0.120095
  O      2.148970    1.195734   -0.147249
  O      1.936106   -0.474436    1.215650
  N      1.643397    0.143182    0.214618
  C      0.530339   -0.432912   -0.684238
  C     -0.823235    0.025273   -0.124545
  C      0.716287   -1.928719   -0.821212
  H      0.055105    2.176069   -0.582816
  H      0.695123    0.073347   -1.632561
  H      0.587915   -2.431303    0.132211
  H     -0.020664   -2.316756   -1.520848
  H      1.712761   -2.138853   -1.208928

 Total Charge           Charge          ....    0
 Multiplicity           Mult            ....    1
 Number of Electrons    NEL             ....   78
 Basis Dimension        Dim             ....  878

ORBITAL ENERGIES
----------------

  NO   OCC          E(Eh)            E(eV)
   0   2.0000     -92.006667     -2503.6287
   1   2.0000     -91.961031     -2502.3869
   2   2.0000     -20.624716      -561.2271
   3   2.0000     -20.619674      -561.0899
   4   2.0000     -15.864913      -431.7062
   5   2.0000     -11.381763      -309.7135
   6   2.0000     -11.349825      -308.8444
   7   2.0000     -11.255311      -306.2726
   8   2.0000      -9.009025      -245.1480
   9   2.0000      -8.964474      -243.9357
  10   2.0000      -6.690301      -182.0523
  11   2.0000      -6.689314      -182.0255
  12   2.0000      -6.688588      -182.0057
  13   2.0000      -6.645449      -180.8318
  14   2.0000      -6.644794      -180.8140
  15   2.0000      -6.643407      -180.7763
  16   2.0000      -1.627356       -44.2826
  17   2.0000      -1.423287       -38.7296
  18   2.0000      -1.186730       -32.2926
  19   2.0000      -1.088288       -29.6138
  20   2.0000      -0.997675       -27.1481
  21   2.0000      -0.970043       -26.3962
  22   2.0000      -0.874417       -23.7941
  23   2.0000      -0.796636       -21.6776
  24   2.0000      -0.761674       -20.7262
  25   2.0000      -0.743250       -20.2249
  26   2.0000      -0.714255       -19.4359
  27   2.0000      -0.667361       -18.1598
  28   2.0000      -0.616662       -16.7802
  29   2.0000      -0.590866       -16.0783
  30   2.0000      -0.572063       -15.5666
  31   2.0000      -0.544543       -14.8178
  32   2.0000      -0.518922       -14.1206
  33   2.0000      -0.511646       -13.9226
  34   2.0000      -0.499663       -13.5965
  35   2.0000      -0.480215       -13.0673
  36   2.0000      -0.471513       -12.8305
  37   2.0000      -0.371140       -10.0992
  38   2.0000      -0.369272       -10.0484
  39   0.0000       0.012898         0.3510
  40   0.0000       0.023303         0.6341
  41   0.0000       0.031696         0.8625
  42   0.0000       0.037903         1.0314
  43   0.0000       0.040918         1.1134

MULLIKEN ATOMIC CHARGES
-----------------------
   0 S :   -0.041303
   1 S :    0.119416
   2 O :   -0.685420
   3 O :   -0.620599
   4 N :    0.991634
   5 C :    0.220620
   6 C :   -0.449008
   7 C :   -0.855420
   8 H :    0.021565
   9 H :    0.411441
  10 H :    0.292779
  11 H :    0.305694
  12 H :    0.288600
Sum of atomic charges:   -0.0000000

LOEWDIN ATOMIC CHARGES
----------------------
   0 S :    1.075929
   1 S :    1.521074
   2 O :    0.554134
   3 O :    0.569841
   4 N :   -0.844201
   5 C :   -0.300566
   6 C :   -1.306267
   7 C :    0.821738
   8 H :   -0.812800
   9 H :   -0.375720
  10 H :   -0.332465
  11 H :   -0.297496
  12 H :   -0.273201

  Mayer bond orders larger than 0.100000
B(  0-S ,  6-C ) :   1.6684 B(  1-S ,  5-C ) :  -0.1216 B(  1-S ,  6-C ) :   1.0068
B(  1-S ,  8-H ) :   1.0635 B(  2-O ,  3-O ) :   0.1330 B(  2-O ,  4-N ) :   1.1486
B(  2-O ,  5-C ) :   0.1137 B(  3-O ,  4-N ) :   1.2435 B(  4-N ,  5-C ) :   0.8514
B(  5-C ,  6-C ) :   0.6940 B(  5-C ,  7-C ) :   0.7559 B(  5-C ,  9-H ) :   0.7998
B(  7-C , 10-H ) :   0.9278 B(  7-C , 11-H ) :   0.9529 B(  7-C , 12-H ) :   0.9725

MP2 TOTAL ENERGY:    -1117.451553234 Eh
FINAL SINGLE POINT ENERGY     -1117.451553233840

DIPOLE MOMENT
-------------
                                X             Y             Z
Electronic contribution:     -3.21373       4.26854       3.42611
Nuclear contribution   :      3.10058      -4.50346      -4.65402
                        -----------------------------------------
Total Dipole Moment    :     -0.11315      -0.23491      -1.22791
                        -----------------------------------------
Magnitude (a.u.)       :      1.25529
Magnitude (Debye)      :      3.19069

Rotational constants in cm-1:     0.061227     0.041100     0.028870
Rotational constants in MHz :  1835.543257  1232.145557   865.505012

                             ****ORCA TERMINATED NORMALLY****
TOTAL RUN TIME: 0 days 0 hours 49 minutes 14 seconds 533 msec
