                         Program Version 5.0.4 -  RELEASE  -
|  1> !ri-mp2 aug-cc-pvqz aug-cc-pvqz/c tightscf
|  2> %pal nprocs 16 end
|  3>
|  4> * xyz 0 1
|  5> C     -2.811044   -0.221945   -0.162139
|  6> C      2.221288   -0.900163   -0.048109
|  7> C     -1.473342    0.339233    0.316846
|  8> C     -0.280858   -0.504253   -0.134238
|  9> C      1.071410    0.028960    0.322589
| 10> O      1.239016    1.319777   -0.283419
| 11> H     -3.644676    0.394864    0.176352
| 12> H     -2.975117   -1.234898    0.212481
| 13> H     -2.852626   -0.264029   -1.252522
| 14> H      2.257486   -1.050421   -1.128043
| 15> H      3.179284   -0.482509    0.270000
| 16> H      2.107939   -1.872159    0.434921
| 17> H     -1.347052    1.358855   -0.049391
| 18> H     -1.474885    0.402013    1.409571
| 19> H     -0.391242   -1.525089    0.243683
| 20> H     -0.268458   -0.572453   -1.226633
| 21> H      1.048581    0.150408    1.414128
| 22> H      2.083920    1.686207   -0.006882
| 23> *
| 24>
| 25>                          ****END OF INPUT****

CARTESIAN COORDINATES (ANGSTROEM)
---------------------------------
  C     -2.811044   -0.221945   -0.162139
  C      2.221288   -0.900163   -0.048109
  C     -1.473342    0.339233    0.316846
  C     -0.280858   -0.504253   -0.134238
  C      1.071410    0.028960    0.322589
  O      1.239016    1.319777   -0.283419
  H     -3.644676    0.394864    0.176352
  H     -2.975117   -1.234898    0.212481
  H     -2.852626   -0.264029   -1.252522
  H      2.257486   -1.050421   -1.128043
  H      3.179284   -0.482509    0.270000
  H      2.107939   -1.872159    0.434921
  H     -1.347052    1.358855   -0.049391
  H     -1.474885    0.402013    1.409571
  H     -0.391242   -1.525089    0.243683
  H     -0.268458   -0.572453   -1.226633
  H      1.048581    0.150408    1.414128
  H      2.083920    1.686207   -0.006882

 Total Charge           Charge          ....    0
 Multiplicity           Mult            ....    1
 Number of Electrons    NEL             ....   50
 Basis Dimension        Dim             .... 1032

ORBITAL ENERGIES
----------------

  NO   OCC          E(Eh)            E(eV)
   0   2.0000     -20.548885      -559.1636
   1   2.0000     -11.276543      -306.8503
   2   2.0000     -11.215304      -305.1839
   3   2.0000     -11.212163      -305.0985
   4   2.0000     -11.208965      -305.0114
   5   2.0000     -11.205307      -304.9119
   6   2.0000      -1.352758       -36.8104
   7   2.0000      -1.070454       -29.1285
   8   2.0000      -1.010666       -27.5016
   9   2.0000      -0.926925       -25.2229
  10   2.0000      -0.821803       -22.3624
  11   2.0000      -0.782642       -21.2968
  12   2.0000      -0.697786       -18.9877
  13   2.0000      -0.619744       -16.8641
  14   2.0000      -0.611308       -16.6345
  15   2.0000      -0.606471       -16.5029
  16   2.0000      -0.552843       -15.0436
  17   2.0000      -0.547269       -14.8920
  18   2.0000      -0.530977       -14.4486
  19   2.0000      -0.524147       -14.2628
  20   2.0000      -0.501820       -13.6552
  21   2.0000      -0.474319       -12.9069
  22   2.0000      -0.463510       -12.6127
  23   2.0000      -0.450222       -12.2512
  24   2.0000      -0.433061       -11.7842
  25   0.0000       0.024592         0.6692
  26   0.0000       0.030083         0.8186
  27   0.0000       0.033129         0.9015
  28   0.0000       0.035697         0.9714
  29   0.0000       0.047067         1.2808

MULLIKEN ATOMIC CHARGES
-----------------------
   0 C :   -0.900379
   1 C :   -0.934304
   2 C :   -0.408579
   3 C :   -0.313267
   4 C :    0.507087
   5 O :   -0.877303
   6 H :    0.258058
   7 H :    0.222381
   8 H :    0.225552
   9 H :    0.233167
  10 H :    0.265115
  11 H :    0.239123
  12 H :    0.271513
  13 H :    0.225199
  14 H :    0.300715
  15 H :    0.197567
  16 H :    0.199259
  17 H :    0.289098
Sum of atomic charges:    0.0000000

LOEWDIN ATOMIC CHARGES
----------------------
   0 C :    0.926392
   1 C :    0.917148
   2 C :    0.508148
   3 C :    0.475177
   4 C :   -0.221272
   5 O :    1.287892
   6 H :   -0.284982
   7 H :   -0.285862
   8 H :   -0.284983
   9 H :   -0.283920
  10 H :   -0.285773
  11 H :   -0.281750
  12 H :   -0.285646
  13 H :   -0.272330
  14 H :   -0.275693
  15 H :   -0.274336
  16 H :   -0.290506
  17 H :   -0.787705

  Mayer bond orders larger than 0.100000
B(  0-C ,  2-C ) :   1.0085 B(  0-C ,  6-H ) :   1.0272 B(  0-C ,  7-H ) :   0.9586
B(  0-C ,  8-H ) :   0.9564 B(  1-C ,  4-C ) :   0.8520 B(  1-C ,  9-H ) :   0.9542
B(  1-C , 10-H ) :   1.0008 B(  1-C , 11-H ) :   0.9794 B(  2-C ,  3-C ) :   0.8560
B(  2-C ,  6-H ) :  -0.1012 B(  2-C , 12-H ) :   0.8599 B(  2-C , 13-H ) :   0.8778
B(  3-C ,  4-C ) :   0.8260 B(  3-C ,  5-O ) :   0.1161 B(  3-C , 14-H ) :   0.8677
B(  3-C , 15-H ) :   0.9210 B(  4-C ,  5-O ) :   0.3279 B(  4-C , 16-H ) :   0.9485
B(  5-O , 17-H ) :   0.9507

MP2 TOTAL ENERGY:     -272.518221004 Eh
FINAL SINGLE POINT ENERGY      -272.518221004121

DIPOLE MOMENT
-------------
                                X             Y             Z
Electronic contribution:      2.83517       2.88415      -0.13087
Nuclear contribution   :     -2.40465      -3.18346       0.52539
                        -----------------------------------------
Total Dipole Moment    :      0.43051      -0.29931       0.39452
                        -----------------------------------------
Magnitude (a.u.)       :      0.65618
Magnitude (Debye)      :      1.66788

Rotational constants in cm-1:     0.241405     0.057607     0.050118
Rotational constants in MHz :  7237.143168  1727.014800  1502.505514

                             ****ORCA TERMINATED NORMALLY****
TOTAL RUN TIME: 0 days 0 hours 46 minutes 48 seconds 609 msec
