                         Program Version 5.0.4 -  RELEASE  -
|  1> !ri-mp2 aug-cc-pvqz aug-cc-pvqz/c tightscf
|  2> %pal nprocs 16 end
|  3>
|  4> * xyz 0 1
|  5> C     -1.943932   -1.168905   -0.210590
|  6> C     -1.162345   -0.135589    0.096240
|  7> C     -1.665731    1.281359    0.033583
|  8> C      2.748156   -0.046354    0.013425
|  9> C      0.268935   -0.331004    0.532941
| 10> C      1.316548    0.202314   -0.457619
| 11> H     -1.582768   -2.188058   -0.155400
| 12> H     -2.970744   -1.031650   -0.524857
| 13> H     -1.553525    1.775593    1.002859
| 14> H     -1.100728    1.876555   -0.687415
| 15> H     -2.716479    1.319449   -0.249678
| 16> H      2.941697   -1.113171    0.142398
| 17> H      2.938946    0.440991    0.971889
| 18> H      3.474380    0.337828   -0.704090
| 19> H      0.450856   -1.395047    0.699684
| 20> H      0.420342    0.167127    1.497865
| 21> H      1.169178    1.273433   -0.612395
| 22> H      1.159056   -0.273982   -1.428743
| 23> *
| 24>
| 25>                          ****END OF INPUT****

CARTESIAN COORDINATES (ANGSTROEM)
---------------------------------
  C     -1.943932   -1.168905   -0.210590
  C     -1.162345   -0.135589    0.096240
  C     -1.665731    1.281359    0.033583
  C      2.748156   -0.046354    0.013425
  C      0.268935   -0.331004    0.532941
  C      1.316548    0.202314   -0.457619
  H     -1.582768   -2.188058   -0.155400
  H     -2.970744   -1.031650   -0.524857
  H     -1.553525    1.775593    1.002859
  H     -1.100728    1.876555   -0.687415
  H     -2.716479    1.319449   -0.249678
  H      2.941697   -1.113171    0.142398
  H      2.938946    0.440991    0.971889
  H      3.474380    0.337828   -0.704090
  H      0.450856   -1.395047    0.699684
  H      0.420342    0.167127    1.497865
  H      1.169178    1.273433   -0.612395
  H      1.159056   -0.273982   -1.428743

 Total Charge           Charge          ....    0
 Multiplicity           Mult            ....    1
 Number of Electrons    NEL             ....   48
 Basis Dimension        Dim             .... 1032

ORBITAL ENERGIES
----------------

  NO   OCC          E(Eh)            E(eV)
   0   2.0000     -11.233894      -305.6898
   1   2.0000     -11.220012      -305.3121
   2   2.0000     -11.218922      -305.2824
   3   2.0000     -11.216719      -305.2224
   4   2.0000     -11.211314      -305.0754
   5   2.0000     -11.205959      -304.9297
   6   2.0000      -1.101074       -29.9618
   7   2.0000      -1.033967       -28.1357
   8   2.0000      -0.934559       -25.4306
   9   2.0000      -0.920039       -25.0355
  10   2.0000      -0.811315       -22.0770
  11   2.0000      -0.717274       -19.5180
  12   2.0000      -0.639640       -17.4055
  13   2.0000      -0.625720       -17.0267
  14   2.0000      -0.589052       -16.0289
  15   2.0000      -0.578708       -15.7474
  16   2.0000      -0.561702       -15.2847
  17   2.0000      -0.529692       -14.4136
  18   2.0000      -0.518989       -14.1224
  19   2.0000      -0.507713       -13.8156
  20   2.0000      -0.480421       -13.0729
  21   2.0000      -0.468333       -12.7440
  22   2.0000      -0.460425       -12.5288
  23   2.0000      -0.345743        -9.4082
  24   0.0000       0.026271         0.7149
  25   0.0000       0.031122         0.8469
  26   0.0000       0.032178         0.8756
  27   0.0000       0.034644         0.9427
  28   0.0000       0.045553         1.2396

MULLIKEN ATOMIC CHARGES
-----------------------
   0 C :   -0.908950
   1 C :    0.193848
   2 C :   -0.780113
   3 C :   -0.814493
   4 C :   -0.255570
   5 C :   -0.378775
   6 H :    0.197436
   7 H :    0.293594
   8 H :    0.230162
   9 H :    0.233494
  10 H :    0.288201
  11 H :    0.224618
  12 H :    0.222835
  13 H :    0.255402
  14 H :    0.240767
  15 H :    0.262515
  16 H :    0.238635
  17 H :    0.256394
Sum of atomic charges:   -0.0000000

LOEWDIN ATOMIC CHARGES
----------------------
   0 C :    0.806904
   1 C :   -0.043801
   2 C :    0.894351
   3 C :    0.929685
   4 C :    0.473933
   5 C :    0.508030
   6 H :   -0.349084
   7 H :   -0.351640
   8 H :   -0.278867
   9 H :   -0.293126
  10 H :   -0.308586
  11 H :   -0.284264
  12 H :   -0.283713
  13 H :   -0.283179
  14 H :   -0.306989
  15 H :   -0.274837
  16 H :   -0.287987
  17 H :   -0.266831

  Mayer bond orders larger than 0.100000
B(  0-C ,  1-C ) :   1.5729 B(  0-C ,  4-C ) :  -0.1825 B(  0-C ,  6-H ) :   1.1203
B(  0-C ,  7-H ) :   1.0269 B(  1-C ,  2-C ) :   0.6634 B(  1-C ,  4-C ) :   0.8367
B(  1-C ,  6-H ) :  -0.1057 B(  1-C ,  7-H ) :  -0.1087 B(  2-C ,  8-H ) :   0.9968
B(  2-C ,  9-H ) :   0.9906 B(  2-C , 10-H ) :   0.9902 B(  3-C ,  5-C ) :   0.9091
B(  3-C , 11-H ) :   0.9743 B(  3-C , 12-H ) :   0.9538 B(  3-C , 13-H ) :   0.9986
B(  4-C ,  5-C ) :   0.9182 B(  4-C , 14-H ) :   0.9293 B(  4-C , 15-H ) :   0.8795
B(  5-C , 16-H ) :   0.8628 B(  5-C , 17-H ) :   0.8804

MP2 TOTAL ENERGY:     -235.382780517 Eh
FINAL SINGLE POINT ENERGY      -235.382780516798

DIPOLE MOMENT
-------------
                                X             Y             Z
Electronic contribution:     -2.66477      -1.09297       0.07126
Nuclear contribution   :      2.81727       1.27363      -0.05129
                        -----------------------------------------
Total Dipole Moment    :      0.15250       0.18066       0.01997
                        -----------------------------------------
Magnitude (a.u.)       :      0.23726
Magnitude (Debye)      :      0.60308

Rotational constants in cm-1:     0.231274     0.060724     0.052631
Rotational constants in MHz :  6933.419666  1820.469963  1577.828115

                             ****ORCA TERMINATED NORMALLY****
TOTAL RUN TIME: 0 days 0 hours 46 minutes 50 seconds 403 msec
