                         Program Version 5.0.4 -  RELEASE  -
|  1> !ri-mp2 aug-cc-pvqz aug-cc-pvqz/c tightscf
|  2> %pal nprocs 16 end
|  3>
|  4> * xyz 0 1
|  5> C      0.328548    1.572029    1.131282
|  6> C     -0.328548   -1.572029    1.131282
|  7> C     -0.204552    0.748232   -0.013408
|  8> C      0.204552   -0.748232   -0.013408
|  9> F     -1.578360    0.789917   -0.017302
| 10> F      0.204552    1.293625   -1.195961
| 11> F     -0.204552   -1.293625   -1.195961
| 12> F      1.578360   -0.789917   -0.017302
| 13> H     -0.001444    2.599626    0.991670
| 14> H     -0.053588    1.204459    2.080962
| 15> H      1.415266    1.540080    1.139481
| 16> H     -1.415266   -1.540080    1.139481
| 17> H      0.001444   -2.599626    0.991670
| 18> H      0.053588   -1.204459    2.080962
| 19> *
| 20>
| 21>                          ****END OF INPUT****

CARTESIAN COORDINATES (ANGSTROEM)
---------------------------------
  C      0.328548    1.572029    1.131282
  C     -0.328548   -1.572029    1.131282
  C     -0.204552    0.748232   -0.013408
  C      0.204552   -0.748232   -0.013408
  F     -1.578360    0.789917   -0.017302
  F      0.204552    1.293625   -1.195961
  F     -0.204552   -1.293625   -1.195961
  F      1.578360   -0.789917   -0.017302
  H     -0.001444    2.599626    0.991670
  H     -0.053588    1.204459    2.080962
  H      1.415266    1.540080    1.139481
  H     -1.415266   -1.540080    1.139481
  H      0.001444   -2.599626    0.991670
  H      0.053588   -1.204459    2.080962

 Total Charge           Charge          ....    0
 Multiplicity           Mult            ....    1
 Number of Electrons    NEL             ....   66
 Basis Dimension        Dim             ....  916

ORBITAL ENERGIES
----------------

  NO   OCC          E(Eh)            E(eV)
   0   2.0000     -26.317265      -716.1292
   1   2.0000     -26.317263      -716.1291
   2   2.0000     -26.313284      -716.0209
   3   2.0000     -26.313280      -716.0208
   4   2.0000     -11.430146      -311.0301
   5   2.0000     -11.429566      -311.0143
   6   2.0000     -11.252156      -306.1867
   7   2.0000     -11.252154      -306.1867
   8   2.0000      -1.677794       -45.6551
   9   2.0000      -1.656425       -45.0736
  10   2.0000      -1.606540       -43.7162
  11   2.0000      -1.603657       -43.6377
  12   2.0000      -1.103982       -30.0409
  13   2.0000      -1.039883       -28.2967
  14   2.0000      -0.947208       -25.7748
  15   2.0000      -0.861803       -23.4509
  16   2.0000      -0.805637       -21.9225
  17   2.0000      -0.779198       -21.2031
  18   2.0000      -0.767453       -20.8834
  19   2.0000      -0.740184       -20.1414
  20   2.0000      -0.736331       -20.0366
  21   2.0000      -0.693762       -18.8782
  22   2.0000      -0.677739       -18.4422
  23   2.0000      -0.669971       -18.2308
  24   2.0000      -0.641733       -17.4624
  25   2.0000      -0.639259       -17.3951
  26   2.0000      -0.628072       -17.0907
  27   2.0000      -0.592084       -16.1114
  28   2.0000      -0.591551       -16.0969
  29   2.0000      -0.575984       -15.6733
  30   2.0000      -0.575625       -15.6636
  31   2.0000      -0.561766       -15.2864
  32   2.0000      -0.506066       -13.7708
  33   0.0000       0.022516         0.6127
  34   0.0000       0.030266         0.8236
  35   0.0000       0.037250         1.0136
  36   0.0000       0.040154         1.0926
  37   0.0000       0.050696         1.3795

MULLIKEN ATOMIC CHARGES
-----------------------
   0 C :   -0.926060
   1 C :   -0.926060
   2 C :    1.506301
   3 C :    1.506301
   4 F :   -0.730691
   5 F :   -0.725416
   6 F :   -0.725416
   7 F :   -0.730691
   8 H :    0.313290
   9 H :    0.275898
  10 H :    0.286678
  11 H :    0.286678
  12 H :    0.313290
  13 H :    0.275898
Sum of atomic charges:    0.0000000

LOEWDIN ATOMIC CHARGES
----------------------
   0 C :    0.852094
   1 C :    0.852094
   2 C :   -1.538440
   3 C :   -1.538440
   4 F :    0.789389
   5 F :    0.791908
   6 F :    0.791908
   7 F :    0.789389
   8 H :   -0.296286
   9 H :   -0.301844
  10 H :   -0.296820
  11 H :   -0.296820
  12 H :   -0.296286
  13 H :   -0.301844

  Mayer bond orders larger than 0.100000
B(  0-C ,  2-C ) :   0.9096 B(  0-C ,  8-H ) :   0.8986 B(  0-C ,  9-H ) :   0.9468
B(  0-C , 10-H ) :   0.9176 B(  1-C ,  3-C ) :   0.9096 B(  1-C , 11-H ) :   0.9176
B(  1-C , 12-H ) :   0.8986 B(  1-C , 13-H ) :   0.9468 B(  2-C ,  3-C ) :   0.9225
B(  2-C ,  4-F ) :   0.2415 B(  2-C ,  5-F ) :   0.2146 B(  3-C ,  6-F ) :   0.2146
B(  3-C ,  7-F ) :   0.2415

MP2 TOTAL ENERGY:     -554.820420643 Eh
FINAL SINGLE POINT ENERGY      -554.820420642861

DIPOLE MOMENT
-------------
                                X             Y             Z
Electronic contribution:      0.00000      -0.00000      -8.83690
Nuclear contribution   :     -0.00000       0.00000      10.31064
                        -----------------------------------------
Total Dipole Moment    :      0.00000      -0.00000       1.47373
                        -----------------------------------------
Magnitude (a.u.)       :      1.47373
Magnitude (Debye)      :      3.74593

Rotational constants in cm-1:     0.086701     0.059082     0.058946
Rotational constants in MHz :  2599.245513  1771.236963  1767.146502

                             ****ORCA TERMINATED NORMALLY****
TOTAL RUN TIME: 0 days 0 hours 29 minutes 51 seconds 229 msec
