                         Program Version 5.0.4 -  RELEASE  -
|  1> !ri-mp2 aug-cc-pvqz aug-cc-pvqz/c tightscf
|  2> %pal nprocs 16 end
|  3>
|  4> * xyz 0 1
|  5> S      2.378504   -0.996830   -0.060055
|  6> S      1.032305    1.615124   -0.000766
|  7> O     -3.857822   -0.222967   -0.090876
|  8> N     -1.504533   -0.005601    0.047838
|  9> C      0.996939   -0.123544    0.017628
| 10> C     -0.336437   -0.850557    0.141815
| 11> C     -2.693129   -0.177700   -0.020459
| 12> H     -0.301843    1.818938    0.055450
| 13> H     -0.325396   -1.359868    1.107578
| 14> H     -0.355645   -1.618027   -0.631648
| 15> *
| 16>
| 17>                          ****END OF INPUT****

CARTESIAN COORDINATES (ANGSTROEM)
---------------------------------
  S      2.378504   -0.996830   -0.060055
  S      1.032305    1.615124   -0.000766
  O     -3.857822   -0.222967   -0.090876
  N     -1.504533   -0.005601    0.047838
  C      0.996939   -0.123544    0.017628
  C     -0.336437   -0.850557    0.141815
  C     -2.693129   -0.177700   -0.020459
  H     -0.301843    1.818938    0.055450
  H     -0.325396   -1.359868    1.107578
  H     -0.355645   -1.618027   -0.631648

 Total Charge           Charge          ....    0
 Multiplicity           Mult            ....    1
 Number of Electrons    NEL             ....   68
 Basis Dimension        Dim             ....  706

ORBITAL ENERGIES
----------------

  NO   OCC          E(Eh)            E(eV)
   0   2.0000     -92.001406     -2503.4855
   1   2.0000     -91.941267     -2501.8491
   2   2.0000     -20.629737      -561.3637
   3   2.0000     -15.613177      -424.8561
   4   2.0000     -11.424611      -310.8795
   5   2.0000     -11.371664      -309.4387
   6   2.0000     -11.335991      -308.4680
   7   2.0000      -9.003880      -245.0080
   8   2.0000      -8.944946      -243.4044
   9   2.0000      -6.685150      -181.9122
  10   2.0000      -6.684190      -181.8861
  11   2.0000      -6.683539      -181.8683
  12   2.0000      -6.626161      -180.3070
  13   2.0000      -6.625219      -180.2814
  14   2.0000      -6.624041      -180.2493
  15   2.0000      -1.484187       -40.3868
  16   2.0000      -1.305436       -35.5227
  17   2.0000      -1.146580       -31.2000
  18   2.0000      -1.016379       -27.6571
  19   2.0000      -0.977460       -26.5980
  20   2.0000      -0.782824       -21.3017
  21   2.0000      -0.746361       -20.3095
  22   2.0000      -0.729852       -19.8603
  23   2.0000      -0.698924       -19.0187
  24   2.0000      -0.683795       -18.6070
  25   2.0000      -0.639828       -17.4106
  26   2.0000      -0.629106       -17.1188
  27   2.0000      -0.537380       -14.6229
  28   2.0000      -0.506809       -13.7910
  29   2.0000      -0.480558       -13.0766
  30   2.0000      -0.476588       -12.9686
  31   2.0000      -0.449029       -12.2187
  32   2.0000      -0.358197        -9.7470
  33   2.0000      -0.354801        -9.6546
  34   0.0000       0.020299         0.5524
  35   0.0000       0.028130         0.7654
  36   0.0000       0.033360         0.9078
  37   0.0000       0.045591         1.2406
  38   0.0000       0.046068         1.2536

MULLIKEN ATOMIC CHARGES
-----------------------
   0 S :   -0.064169
   1 S :    0.199690
   2 O :   -0.632152
   3 N :   -0.815856
   4 C :   -0.499941
   5 C :    0.018773
   6 C :    1.146869
   7 H :    0.018452
   8 H :    0.318410
   9 H :    0.309924
Sum of atomic charges:    0.0000000

LOEWDIN ATOMIC CHARGES
----------------------
   0 S :    0.996325
   1 S :    1.519948
   2 O :    0.605782
   3 N :    0.438224
   4 C :   -1.346242
   5 C :    0.022276
   6 C :   -0.701703
   7 H :   -0.834390
   8 H :   -0.341890
   9 H :   -0.358330

  Mayer bond orders larger than 0.100000
B(  0-S ,  4-C ) :   1.6730 B(  1-S ,  4-C ) :   1.0356 B(  1-S ,  7-H ) :   1.0260
B(  2-O ,  3-N ) :   0.3049 B(  2-O ,  6-C ) :   1.6133 B(  3-N ,  5-C ) :   0.7884
B(  3-N ,  6-C ) :   2.2552 B(  4-C ,  5-C ) :   0.8522 B(  5-C ,  8-H ) :   0.8477
B(  5-C ,  9-H ) :   0.8871

MP2 TOTAL ENERGY:    -1041.192704622 Eh
FINAL SINGLE POINT ENERGY     -1041.192704622068

DIPOLE MOMENT
-------------
                                X             Y             Z
Electronic contribution:      0.58311       1.15941      -0.35871
Nuclear contribution   :     -1.11019      -1.13302       0.51023
                        -----------------------------------------
Total Dipole Moment    :     -0.52708       0.02639       0.15153
                        -----------------------------------------
Magnitude (a.u.)       :      0.54906
Magnitude (Debye)      :      1.39560

Rotational constants in cm-1:     0.124379     0.028657     0.023431
Rotational constants in MHz :  3728.796001   859.121873   702.454422

                             ****ORCA TERMINATED NORMALLY****
TOTAL RUN TIME: 0 days 0 hours 14 minutes 29 seconds 650 msec
