                         Program Version 5.0.4 -  RELEASE  -
|  1> !ri-mp2 aug-cc-pvqz aug-cc-pvqz/c tightscf
|  2> %pal nprocs 16 end
|  3>
|  4> * xyz 0 1
|  5> C     1.119788    1.638607     0.000000
|  6> C    -1.119788   -1.638607     0.000000
|  7> C    -0.125681    0.772915     0.000000
|  8> C     0.125681   -0.772915     0.000000
|  9> Cl   -1.119788    1.196241     1.462338
| 10> Cl   -1.119788    1.196241    -1.462338
| 11> Cl    1.119788   -1.196241    -1.462338
| 12> Cl    1.119788   -1.196241     1.462338
| 13> H     1.713774    1.435038     0.887218
| 14> H     1.713774    1.435038    -0.887218
| 15> H     0.825079    2.684199     0.000000
| 16> H    -0.825079   -2.684199     0.000000
| 17> H    -1.713774   -1.435038    -0.887218
| 18> H    -1.713774   -1.435038     0.887218
| 19> *
| 20>
| 21>                          ****END OF INPUT****

CARTESIAN COORDINATES (ANGSTROEM)
---------------------------------
  C      1.119788    1.638607    0.000000
  C     -1.119788   -1.638607    0.000000
  C     -0.125681    0.772915    0.000000
  C      0.125681   -0.772915    0.000000
  Cl    -1.119788    1.196241    1.462338
  Cl    -1.119788    1.196241   -1.462338
  Cl     1.119788   -1.196241   -1.462338
  Cl     1.119788   -1.196241    1.462338
  H      1.713774    1.435038    0.887218
  H      1.713774    1.435038   -0.887218
  H      0.825079    2.684199    0.000000
  H     -0.825079   -2.684199    0.000000
  H     -1.713774   -1.435038   -0.887218
  H     -1.713774   -1.435038    0.887218

 Total Charge           Charge          ....    0
 Multiplicity           Mult            ....    1
 Number of Electrons    NEL             ....   98
 Basis Dimension        Dim             ....  932

ORBITAL ENERGIES
----------------

  NO   OCC          E(Eh)            E(eV)
   0   2.0000    -104.850111     -2853.1166
   1   2.0000    -104.850111     -2853.1166
   2   2.0000    -104.850111     -2853.1166
   3   2.0000    -104.850111     -2853.1166
   4   2.0000     -11.403328      -310.3003
   5   2.0000     -11.402790      -310.2857
   6   2.0000     -11.249572      -306.1164
   7   2.0000     -11.249570      -306.1164
   8   2.0000     -10.575815      -287.7826
   9   2.0000     -10.575811      -287.7825
  10   2.0000     -10.575805      -287.7823
  11   2.0000     -10.575805      -287.7823
  12   2.0000      -8.042733      -218.8539
  13   2.0000      -8.042732      -218.8539
  14   2.0000      -8.042731      -218.8538
  15   2.0000      -8.042730      -218.8538
  16   2.0000      -8.040979      -218.8062
  17   2.0000      -8.040979      -218.8062
  18   2.0000      -8.040978      -218.8061
  19   2.0000      -8.040978      -218.8061
  20   2.0000      -8.040950      -218.8054
  21   2.0000      -8.040950      -218.8054
  22   2.0000      -8.040949      -218.8053
  23   2.0000      -8.040949      -218.8053
  24   2.0000      -1.242112       -33.7996
  25   2.0000      -1.168135       -31.7866
  26   2.0000      -1.107121       -30.1263
  27   2.0000      -1.086238       -29.5580
  28   2.0000      -1.022277       -27.8176
  29   2.0000      -1.011770       -27.5317
  30   2.0000      -0.891677       -24.2638
  31   2.0000      -0.752922       -20.4881
  32   2.0000      -0.675571       -18.3832
  33   2.0000      -0.654323       -17.8050
  34   2.0000      -0.642185       -17.4747
  35   2.0000      -0.628102       -17.0915
  36   2.0000      -0.577571       -15.7165
  37   2.0000      -0.575302       -15.6548
  38   2.0000      -0.549383       -14.9495
  39   2.0000      -0.546625       -14.8744
  40   2.0000      -0.522170       -14.2090
  41   2.0000      -0.484916       -13.1952
  42   2.0000      -0.482051       -13.1173
  43   2.0000      -0.477174       -12.9846
  44   2.0000      -0.472332       -12.8528
  45   2.0000      -0.460906       -12.5419
  46   2.0000      -0.457955       -12.4616
  47   2.0000      -0.445050       -12.1104
  48   2.0000      -0.432051       -11.7567
  49   0.0000       0.028853         0.7851
  50   0.0000       0.030774         0.8374
  51   0.0000       0.040540         1.1031
  52   0.0000       0.043202         1.1756
  53   0.0000       0.049714         1.3528

MULLIKEN ATOMIC CHARGES
-----------------------
   0 C :   -0.903204
   1 C :   -0.903209
   2 C :    0.874586
   3 C :    0.874590
   4 Cl:   -0.443221
   5 Cl:   -0.443221
   6 Cl:   -0.443221
   7 Cl:   -0.443221
   8 H :    0.275346
   9 H :    0.275346
  10 H :    0.364368
  11 H :    0.364368
  12 H :    0.275346
  13 H :    0.275346
Sum of atomic charges:    0.0000000

LOEWDIN ATOMIC CHARGES
----------------------
   0 C :    0.592297
   1 C :    0.592296
   2 C :   -1.793828
   3 C :   -1.793828
   4 Cl:    1.139324
   5 Cl:    1.139324
   6 Cl:    1.139324
   7 Cl:    1.139324
   8 H :   -0.366177
   9 H :   -0.366177
  10 H :   -0.344762
  11 H :   -0.344762
  12 H :   -0.366177
  13 H :   -0.366177

  Mayer bond orders larger than 0.100000
B(  0-C ,  2-C ) :   0.7312 B(  0-C ,  8-H ) :   0.9366 B(  0-C ,  9-H ) :   0.9366
B(  0-C , 10-H ) :   0.9401 B(  1-C ,  3-C ) :   0.7312 B(  1-C , 11-H ) :   0.9401
B(  1-C , 12-H ) :   0.9366 B(  1-C , 13-H ) :   0.9366 B(  2-C ,  3-C ) :   0.8449
B(  2-C ,  4-Cl) :   0.4445 B(  2-C ,  5-Cl) :   0.4445 B(  3-C ,  6-Cl) :   0.4445
B(  3-C ,  7-Cl) :   0.4445

MP2 TOTAL ENERGY:    -1994.701486569 Eh
FINAL SINGLE POINT ENERGY     -1994.701486569308

DIPOLE MOMENT
-------------
                                X             Y             Z
Electronic contribution:      0.00000       0.00000      -0.00000
Nuclear contribution   :     -0.00000       0.00000       0.00000
                        -----------------------------------------
Total Dipole Moment    :      0.00000       0.00000      -0.00000
                        -----------------------------------------
Magnitude (a.u.)       :      0.00000
Magnitude (Debye)      :      0.00000

Rotational constants in cm-1:     0.039261     0.032040     0.023755
Rotational constants in MHz :  1177.029254   960.526929   712.165308

                             ****ORCA TERMINATED NORMALLY****
TOTAL RUN TIME: 0 days 0 hours 43 minutes 2 seconds 45 msec
