                         Program Version 5.0.4 -  RELEASE  -
|  1> !ri-mp2 aug-cc-pvqz aug-cc-pvqz/c tightscf
|  2> %pal nprocs 16 end
|  3>
|  4> * xyz 0 1
|  5> Cl    -2.213770   -1.116422    0.019613
|  6> S      1.043133    0.085348   -0.719629
|  7> S      2.876136   -0.099112    0.233234
|  8> C     -1.513151    0.487919    0.204363
|  9> C     -0.101760    0.501799    0.686458
| 10> C     -2.230617    1.563308   -0.088361
| 11> H      2.830146   -1.417869    0.524098
| 12> H      0.054997   -0.235049    1.469729
| 13> H      0.155816    1.491757    1.054508
| 14> H     -3.249590    1.496805   -0.437101
| 15> H     -1.792416    2.545606    0.022903
| 16> *
| 17>
| 18>                          ****END OF INPUT****

CARTESIAN COORDINATES (ANGSTROEM)
---------------------------------
  Cl    -2.213770   -1.116422    0.019613
  S      1.043133    0.085348   -0.719629
  S      2.876136   -0.099112    0.233234
  C     -1.513151    0.487919    0.204363
  C     -0.101760    0.501799    0.686458
  C     -2.230617    1.563308   -0.088361
  H      2.830146   -1.417869    0.524098
  H      0.054997   -0.235049    1.469729
  H      0.155816    1.491757    1.054508
  H     -3.249590    1.496805   -0.437101
  H     -1.792416    2.545606    0.022903

 Total Charge           Charge          ....    0
 Multiplicity           Mult            ....    1
 Number of Electrons    NEL             ....   72
 Basis Dimension        Dim             ....  722

ORBITAL ENERGIES
----------------

  NO   OCC          E(Eh)            E(eV)
   0   2.0000    -104.842995     -2852.9229
   1   2.0000     -91.988058     -2503.1223
   2   2.0000     -91.986686     -2503.0850
   3   2.0000     -11.318886      -308.0026
   4   2.0000     -11.286771      -307.1287
   5   2.0000     -11.252986      -306.2093
   6   2.0000     -10.568339      -287.5791
   7   2.0000      -8.988175      -244.5807
   8   2.0000      -8.985854      -244.5175
   9   2.0000      -8.035418      -218.6548
  10   2.0000      -8.033706      -218.6082
  11   2.0000      -8.033674      -218.6074
  12   2.0000      -6.669453      -181.4850
  13   2.0000      -6.668489      -181.4588
  14   2.0000      -6.667568      -181.4338
  15   2.0000      -6.666998      -181.4182
  16   2.0000      -6.665860      -181.3873
  17   2.0000      -6.664904      -181.3613
  18   2.0000      -1.177054       -32.0293
  19   2.0000      -1.077472       -29.3195
  20   2.0000      -1.031068       -28.0568
  21   2.0000      -0.969991       -26.3948
  22   2.0000      -0.844052       -22.9678
  23   2.0000      -0.754255       -20.5243
  24   2.0000      -0.665178       -18.1004
  25   2.0000      -0.648367       -17.6430
  26   2.0000      -0.594131       -16.1671
  27   2.0000      -0.580149       -15.7866
  28   2.0000      -0.535766       -14.5789
  29   2.0000      -0.529577       -14.4105
  30   2.0000      -0.494408       -13.4535
  31   2.0000      -0.463638       -12.6162
  32   2.0000      -0.457815       -12.4578
  33   2.0000      -0.391100       -10.6424
  34   2.0000      -0.370971       -10.0946
  35   2.0000      -0.363472        -9.8906
  36   0.0000       0.025541         0.6950
  37   0.0000       0.030107         0.8192
  38   0.0000       0.037597         1.0231
  39   0.0000       0.041436         1.1275
  40   0.0000       0.052432         1.4267

MULLIKEN ATOMIC CHARGES
-----------------------
   0 Cl:   -0.261194
   1 S :   -0.052191
   2 S :   -0.212063
   3 C :    0.000472
   4 C :   -0.165813
   5 C :   -0.727251
   6 H :    0.118641
   7 H :    0.290650
   8 H :    0.245424
   9 H :    0.469126
  10 H :    0.294199
Sum of atomic charges:    0.0000000

LOEWDIN ATOMIC CHARGES
----------------------
   0 Cl:    1.154790
   1 S :    0.691395
   2 S :    1.006849
   3 C :   -0.923639
   4 C :   -0.095865
   5 C :    0.638037
   6 H :   -0.886705
   7 H :   -0.429929
   8 H :   -0.410176
   9 H :   -0.384044
  10 H :   -0.360712

  Mayer bond orders larger than 0.100000
B(  0-Cl,  3-C ) :   0.8331 B(  1-S ,  2-S ) :   1.1245 B(  1-S ,  4-C ) :   0.8910
B(  2-S ,  6-H ) :   0.9765 B(  3-C ,  4-C ) :   0.7738 B(  3-C ,  5-C ) :   1.7460
B(  4-C ,  7-H ) :   0.9042 B(  4-C ,  8-H ) :   0.9258 B(  5-C ,  9-H ) :   0.8222
B(  5-C , 10-H ) :   0.9357

MP2 TOTAL ENERGY:    -1372.290618657 Eh
FINAL SINGLE POINT ENERGY     -1372.290618657332

DIPOLE MOMENT
-------------
                                X             Y             Z
Electronic contribution:     -1.17276      -4.85364      -1.97831
Nuclear contribution   :      1.00485       5.26757       2.51999
                        -----------------------------------------
Total Dipole Moment    :     -0.16791       0.41393       0.54168
                        -----------------------------------------
Magnitude (a.u.)       :      0.70210
Magnitude (Debye)      :      1.78460

Rotational constants in cm-1:     0.139740     0.027541     0.024934
Rotational constants in MHz :  4189.310774   825.649297   747.492311

                             ****ORCA TERMINATED NORMALLY****
TOTAL RUN TIME: 0 days 0 hours 15 minutes 41 seconds 437 msec
