                         Program Version 5.0.4 -  RELEASE  -
|  1> !ri-mp2 aug-cc-pvqz aug-cc-pvqz/c tightscf
|  2> %pal nprocs 16 end
|  3>
|  4> * xyz 0 1
|  5> C     0.000000    0.000000     0.352403
|  6> Cl    1.474178    0.000000    -0.722182
|  7> Cl   -1.474178    0.000000    -0.722182
|  8> C     0.000000    1.271429     1.177208
|  9> C     0.000000   -1.271429     1.177208
| 10> H     0.000000    2.149972     0.537521
| 11> H     0.000000   -2.149972     0.537521
| 12> H    -0.887342    1.294212     1.809560
| 13> H     0.887342    1.294212     1.809560
| 14> H     0.887342   -1.294212     1.809560
| 15> H    -0.887342   -1.294212     1.809560
| 16> *
| 17>
| 18>                          ****END OF INPUT****

CARTESIAN COORDINATES (ANGSTROEM)
---------------------------------
  C      0.000000    0.000000    0.352403
  Cl     1.474178    0.000000   -0.722182
  Cl    -1.474178    0.000000   -0.722182
  C      0.000000    1.271429    1.177208
  C      0.000000   -1.271429    1.177208
  H      0.000000    2.149972    0.537521
  H      0.000000   -2.149972    0.537521
  H     -0.887342    1.294212    1.809560
  H      0.887342    1.294212    1.809560
  H      0.887342   -1.294212    1.809560
  H     -0.887342   -1.294212    1.809560

 Total Charge           Charge          ....    0
 Multiplicity           Mult            ....    1
 Number of Electrons    NEL             ....   58
 Basis Dimension        Dim             ....  684

ORBITAL ENERGIES
----------------

  NO   OCC          E(Eh)            E(eV)
   0   2.0000    -104.833836     -2852.6737
   1   2.0000    -104.833836     -2852.6737
   2   2.0000     -11.377315      -309.5925
   3   2.0000     -11.245902      -306.0166
   4   2.0000     -11.245888      -306.0162
   5   2.0000     -10.559480      -287.3381
   6   2.0000     -10.559472      -287.3378
   7   2.0000      -8.026397      -218.4094
   8   2.0000      -8.026395      -218.4093
   9   2.0000      -8.024752      -218.3646
  10   2.0000      -8.024751      -218.3646
  11   2.0000      -8.024708      -218.3634
  12   2.0000      -8.024707      -218.3634
  13   2.0000      -1.195020       -32.5181
  14   2.0000      -1.080017       -29.3888
  15   2.0000      -1.022246       -27.8167
  16   2.0000      -0.975529       -26.5455
  17   2.0000      -0.777027       -21.1440
  18   2.0000      -0.646315       -17.5871
  19   2.0000      -0.639140       -17.3919
  20   2.0000      -0.623801       -16.9745
  21   2.0000      -0.577393       -15.7117
  22   2.0000      -0.539633       -14.6842
  23   2.0000      -0.536565       -14.6007
  24   2.0000      -0.511096       -13.9076
  25   2.0000      -0.462370       -12.5817
  26   2.0000      -0.454951       -12.3799
  27   2.0000      -0.442035       -12.0284
  28   2.0000      -0.432649       -11.7730
  29   0.0000       0.024893         0.6774
  30   0.0000       0.034051         0.9266
  31   0.0000       0.039505         1.0750
  32   0.0000       0.043902         1.1946
  33   0.0000       0.055210         1.5023

MULLIKEN ATOMIC CHARGES
-----------------------
   0 C :    0.737349
   1 Cl:   -0.392922
   2 Cl:   -0.392922
   3 C :   -0.868141
   4 C :   -0.868141
   5 H :    0.356204
   6 H :    0.356204
   7 H :    0.268092
   8 H :    0.268092
   9 H :    0.268092
  10 H :    0.268092
Sum of atomic charges:   -0.0000000

LOEWDIN ATOMIC CHARGES
----------------------
   0 C :   -1.604274
   1 Cl:    1.097927
   2 Cl:    1.097927
   3 C :    0.667216
   4 C :    0.667216
   5 H :   -0.336706
   6 H :   -0.336706
   7 H :   -0.313150
   8 H :   -0.313150
   9 H :   -0.313150
  10 H :   -0.313150

  Mayer bond orders larger than 0.100000
B(  0-C ,  1-Cl) :   0.5639 B(  0-C ,  2-Cl) :   0.5639 B(  0-C ,  3-C ) :   0.8509
B(  0-C ,  4-C ) :   0.8509 B(  3-C ,  5-H ) :   0.9162 B(  3-C ,  7-H ) :   0.9183
B(  3-C ,  8-H ) :   0.9183 B(  4-C ,  6-H ) :   0.9162 B(  4-C ,  9-H ) :   0.9183
B(  4-C , 10-H ) :   0.9183

MP2 TOTAL ENERGY:    -1037.185403210 Eh
FINAL SINGLE POINT ENERGY     -1037.185403210023

DIPOLE MOMENT
-------------
                                X             Y             Z
Electronic contribution:     -0.00000       0.00000      -8.98425
Nuclear contribution   :      0.00000       0.00000      10.00681
                        -----------------------------------------
Total Dipole Moment    :     -0.00000       0.00000       1.02255
                        -----------------------------------------
Magnitude (a.u.)       :      1.02255
Magnitude (Debye)      :      2.59912

Rotational constants in cm-1:     0.120834     0.079453     0.069696
Rotational constants in MHz :  3622.516209  2381.930111  2089.435326

                             ****ORCA TERMINATED NORMALLY****
TOTAL RUN TIME: 0 days 0 hours 14 minutes 2 seconds 135 msec
