                         Program Version 5.0.4 -  RELEASE  -
|  1> !ri-mp2 aug-cc-pvqz aug-cc-pvqz/c tightscf
|  2> %pal nprocs 16 end
|  3>
|  4> * xyz 0 1
|  5> S     -1.746638   -0.491801   -0.024174
|  6> N      1.069100   -1.539005    0.070067
|  7> N     -0.321863    1.747667    0.040754
|  8> N      2.022193    0.634247   -0.054121
|  9> C      1.041264   -0.187875   -0.000463
| 10> C     -0.357714    0.420697    0.009753
| 11> H      0.188021   -2.026997    0.000787
| 12> H      1.927591   -2.037227   -0.074943
| 13> H      0.590765    2.186653    0.033004
| 14> H     -1.174968    2.277579    0.029518
| 15> H      2.927486    0.171511   -0.054209
| 16> *
| 17>
| 18>                          ****END OF INPUT****

CARTESIAN COORDINATES (ANGSTROEM)
---------------------------------
  S     -1.746638   -0.491801   -0.024174
  N      1.069100   -1.539005    0.070067
  N     -0.321863    1.747667    0.040754
  N      2.022193    0.634247   -0.054121
  C      1.041264   -0.187875   -0.000463
  C     -0.357714    0.420697    0.009753
  H      0.188021   -2.026997    0.000787
  H      1.927591   -2.037227   -0.074943
  H      0.590765    2.186653    0.033004
  H     -1.174968    2.277579    0.029518
  H      2.927486    0.171511   -0.054209

 Total Charge           Charge          ....    0
 Multiplicity           Mult            ....    1
 Number of Electrons    NEL             ....   54
 Basis Dimension        Dim             ....  714

ORBITAL ENERGIES
----------------

  NO   OCC          E(Eh)            E(eV)
   0   2.0000     -91.911333     -2501.0345
   1   2.0000     -15.608683      -424.7339
   2   2.0000     -15.588106      -424.1739
   3   2.0000     -15.547716      -423.0749
   4   2.0000     -11.361718      -309.1681
   5   2.0000     -11.347918      -308.7926
   6   2.0000      -8.915607      -242.6060
   7   2.0000      -6.597193      -179.5188
   8   2.0000      -6.595782      -179.4804
   9   2.0000      -6.595027      -179.4598
  10   2.0000      -1.306870       -35.5617
  11   2.0000      -1.255170       -34.1549
  12   2.0000      -1.163014       -31.6472
  13   2.0000      -1.013445       -27.5773
  14   2.0000      -0.885892       -24.1063
  15   2.0000      -0.789478       -21.4828
  16   2.0000      -0.756837       -20.5946
  17   2.0000      -0.723529       -19.6882
  18   2.0000      -0.692225       -18.8364
  19   2.0000      -0.622326       -16.9344
  20   2.0000      -0.584224       -15.8975
  21   2.0000      -0.515324       -14.0227
  22   2.0000      -0.512114       -13.9353
  23   2.0000      -0.464365       -12.6360
  24   2.0000      -0.386260       -10.5107
  25   2.0000      -0.344430        -9.3724
  26   2.0000      -0.341744        -9.2993
  27   0.0000       0.020218         0.5502
  28   0.0000       0.028174         0.7667
  29   0.0000       0.036724         0.9993
  30   0.0000       0.050616         1.3773
  31   0.0000       0.053084         1.4445

MULLIKEN ATOMIC CHARGES
-----------------------
   0 S :   -0.225096
   1 N :   -0.686657
   2 N :   -0.590439
   3 N :   -0.744159
   4 C :    0.678980
   5 C :    0.034706
   6 H :    0.362226
   7 H :    0.261372
   8 H :    0.394229
   9 H :    0.238151
  10 H :    0.276688
Sum of atomic charges:    0.0000000

LOEWDIN ATOMIC CHARGES
----------------------
   0 S :    1.094761
   1 N :    1.213363
   2 N :    1.136257
   3 N :    0.982459
   4 C :   -0.584071
   5 C :   -0.965511
   6 H :   -0.654822
   7 H :   -0.478762
   8 H :   -0.596814
   9 H :   -0.499727
  10 H :   -0.647133

  Mayer bond orders larger than 0.100000
B(  0-S ,  4-C ) :  -0.1008 B(  0-S ,  5-C ) :   1.4901 B(  1-N ,  4-C ) :   1.0928
B(  1-N ,  6-H ) :   0.8389 B(  1-N ,  7-H ) :   0.9800 B(  2-N ,  5-C ) :   1.1079
B(  2-N ,  8-H ) :   0.8299 B(  2-N ,  9-H ) :   0.9965 B(  3-N ,  4-C ) :   1.6311
B(  3-N , 10-H ) :   0.8743 B(  4-C ,  5-C ) :   0.9218

MP2 TOTAL ENERGY:     -640.856423253 Eh
FINAL SINGLE POINT ENERGY      -640.856423253335

DIPOLE MOMENT
-------------
                                X             Y             Z
Electronic contribution:     -3.44139      -0.53178      -0.00438
Nuclear contribution   :      4.45321       0.58174      -0.06368
                        -----------------------------------------
Total Dipole Moment    :      1.01182       0.04995      -0.06806
                        -----------------------------------------
Magnitude (a.u.)       :      1.01533
Magnitude (Debye)      :      2.58077

Rotational constants in cm-1:     0.153019     0.083649     0.054140
Rotational constants in MHz :  4587.395693  2507.741473  1623.082193

                             ****ORCA TERMINATED NORMALLY****
TOTAL RUN TIME: 0 days 0 hours 13 minutes 37 seconds 984 msec
