                         Program Version 5.0.4 -  RELEASE  -
|  1> !ri-mp2 aug-cc-pvqz aug-cc-pvqz/c tightscf
|  2> %pal nprocs 16 end
|  3>
|  4> * xyz 0 1
|  5> O      1.035246   -0.245795    0.000000
|  6> C      0.000000    0.646987    0.000000
|  7> C      0.492364   -1.497390    0.000000
|  8> C     -1.179136   -0.026476    0.000000
|  9> C     -0.858244   -1.422573    0.000000
| 10> C      0.358496    2.086650    0.000000
| 11> H      1.190884   -2.314077    0.000000
| 12> H     -2.160525    0.415739    0.000000
| 13> H     -1.544479   -2.251632    0.000000
| 14> H     -0.545250    2.693073    0.000000
| 15> H      0.948262    2.350033    0.880725
| 16> H      0.948262    2.350033   -0.880725
| 17> *
| 18>
| 19>                          ****END OF INPUT****

CARTESIAN COORDINATES (ANGSTROEM)
---------------------------------
  O      1.035246   -0.245795    0.000000
  C      0.000000    0.646987    0.000000
  C      0.492364   -1.497390    0.000000
  C     -1.179136   -0.026476    0.000000
  C     -0.858244   -1.422573    0.000000
  C      0.358496    2.086650    0.000000
  H      1.190884   -2.314077    0.000000
  H     -2.160525    0.415739    0.000000
  H     -1.544479   -2.251632    0.000000
  H     -0.545250    2.693073    0.000000
  H      0.948262    2.350033    0.880725
  H      0.948262    2.350033   -0.880725

 Total Charge           Charge          ....    0
 Multiplicity           Mult            ....    1
 Number of Electrons    NEL             ....   44
 Basis Dimension        Dim             ....  756

ORBITAL ENERGIES
----------------

  NO   OCC          E(Eh)            E(eV)
   0   2.0000     -20.612403      -560.8920
   1   2.0000     -11.289052      -307.1907
   2   2.0000     -11.279093      -306.9197
   3   2.0000     -11.232326      -305.6471
   4   2.0000     -11.223851      -305.4165
   5   2.0000     -11.218765      -305.2781
   6   2.0000      -1.450500       -39.4701
   7   2.0000      -1.080460       -29.4008
   8   2.0000      -1.046147       -28.4671
   9   2.0000      -0.931691       -25.3526
  10   2.0000      -0.803450       -21.8630
  11   2.0000      -0.759034       -20.6544
  12   2.0000      -0.708180       -19.2706
  13   2.0000      -0.640091       -17.4178
  14   2.0000      -0.605776       -16.4840
  15   2.0000      -0.564368       -15.3572
  16   2.0000      -0.561937       -15.2911
  17   2.0000      -0.558642       -15.2014
  18   2.0000      -0.554186       -15.0802
  19   2.0000      -0.521823       -14.1995
  20   2.0000      -0.394039       -10.7223
  21   2.0000      -0.307676        -8.3723
  22   0.0000       0.026460         0.7200
  23   0.0000       0.029024         0.7898
  24   0.0000       0.032347         0.8802
  25   0.0000       0.043106         1.1730
  26   0.0000       0.044149         1.2014

MULLIKEN ATOMIC CHARGES
-----------------------
   0 O :   -0.661712
   1 C :    0.499922
   2 C :   -0.335578
   3 C :   -0.576548
   4 C :   -0.460741
   5 C :   -0.604700
   6 H :    0.575875
   7 H :    0.355031
   8 H :    0.448472
   9 H :    0.218180
  10 H :    0.270899
  11 H :    0.270899
Sum of atomic charges:    0.0000000

LOEWDIN ATOMIC CHARGES
----------------------
   0 O :    0.851719
   1 C :   -0.444288
   2 C :   -0.006635
   3 C :    0.298386
   4 C :    0.290982
   5 C :    0.905562
   6 H :   -0.339511
   7 H :   -0.325434
   8 H :   -0.333119
   9 H :   -0.310540
  10 H :   -0.293561
  11 H :   -0.293561

  Mayer bond orders larger than 0.100000
B(  0-O ,  1-C ) :   0.6817 B(  0-O ,  2-C ) :   0.9543 B(  1-C ,  3-C ) :   1.3693
B(  1-C ,  4-C ) :  -0.3092 B(  1-C ,  5-C ) :   0.6679 B(  1-C ,  9-H ) :  -0.1218
B(  2-C ,  4-C ) :   1.6987 B(  2-C ,  6-H ) :   0.7324 B(  3-C ,  4-C ) :   1.1529
B(  3-C ,  7-H ) :   0.9208 B(  4-C ,  8-H ) :   0.8362 B(  5-C ,  9-H ) :   1.0599
B(  5-C , 10-H ) :   0.9577 B(  5-C , 11-H ) :   0.9577

MP2 TOTAL ENERGY:     -268.901335463 Eh
FINAL SINGLE POINT ENERGY      -268.901335463072

DIPOLE MOMENT
-------------
                                X             Y             Z
Electronic contribution:      0.91460      -3.10338      -0.00000
Nuclear contribution   :     -1.15397       3.26033       0.00000
                        -----------------------------------------
Total Dipole Moment    :     -0.23937       0.15695      -0.00000
                        -----------------------------------------
Magnitude (a.u.)       :      0.28624
Magnitude (Debye)      :      0.72756

Rotational constants in cm-1:     0.295760     0.118339     0.085867
Rotational constants in MHz :  8866.672580  3547.702245  2574.227927

                             ****ORCA TERMINATED NORMALLY****
TOTAL RUN TIME: 0 days 0 hours 18 minutes 48 seconds 234 msec
