                         Program Version 5.0.4 -  RELEASE  -
|  1> !ri-mp2 aug-cc-pvqz aug-cc-pvqz/c tightscf
|  2> %pal nprocs 16 end
|  3>
|  4> * xyz 0 1
|  5> C     -1.876724   -0.056528    0.292117
|  6> C     -1.220756    1.238754   -0.193233
|  7> C      0.269212    1.266716    0.162963
|  8> C      0.993150    0.003566   -0.331778
|  9> N      0.336494   -1.236054    0.101240
| 10> C     -1.093530   -1.276574   -0.206570
| 11> C      2.458080   -0.022920    0.084158
| 12> H     -2.914516   -0.113656   -0.046636
| 13> H     -1.900320   -0.067386    1.387040
| 14> H     -1.331150    1.311007   -1.280554
| 15> H     -1.729106    2.108897    0.227207
| 16> H      0.744092    2.156300   -0.259637
| 17> H      0.385539    1.333833    1.250920
| 18> H      0.947191    0.002171   -1.427861
| 19> H      0.478094   -1.362314    1.097987
| 20> H     -1.506343   -2.198011    0.207370
| 21> H     -1.194856   -1.349044   -1.294590
| 22> H      2.954195   -0.908747   -0.311642
| 23> H      2.551510   -0.040360    1.173496
| 24> H      2.983619    0.861609   -0.277729
| 25> *
| 26>
| 27>                          ****END OF INPUT****

CARTESIAN COORDINATES (ANGSTROEM)
---------------------------------
  C     -1.876724   -0.056528    0.292117
  C     -1.220756    1.238754   -0.193233
  C      0.269212    1.266716    0.162963
  C      0.993150    0.003566   -0.331778
  N      0.336494   -1.236054    0.101240
  C     -1.093530   -1.276574   -0.206570
  C      2.458080   -0.022920    0.084158
  H     -2.914516   -0.113656   -0.046636
  H     -1.900320   -0.067386    1.387040
  H     -1.331150    1.311007   -1.280554
  H     -1.729106    2.108897    0.227207
  H      0.744092    2.156300   -0.259637
  H      0.385539    1.333833    1.250920
  H      0.947191    0.002171   -1.427861
  H      0.478094   -1.362314    1.097987
  H     -1.506343   -2.198011    0.207370
  H     -1.194856   -1.349044   -1.294590
  H      2.954195   -0.908747   -0.311642
  H      2.551510   -0.040360    1.173496
  H      2.983619    0.861609   -0.277729

 Total Charge           Charge          ....    0
 Multiplicity           Mult            ....    1
 Number of Electrons    NEL             ....   56
 Basis Dimension        Dim             .... 1158

ORBITAL ENERGIES
----------------

  NO   OCC          E(Eh)            E(eV)
   0   2.0000     -15.530780      -422.6140
   1   2.0000     -11.245403      -306.0030
   2   2.0000     -11.239194      -305.8340
   3   2.0000     -11.215165      -305.1801
   4   2.0000     -11.212668      -305.1122
   5   2.0000     -11.211754      -305.0873
   6   2.0000     -11.206953      -304.9567
   7   2.0000      -1.208232       -32.8777
   8   2.0000      -1.053440       -28.6656
   9   2.0000      -1.035538       -28.1784
  10   2.0000      -0.934327       -25.4243
  11   2.0000      -0.855622       -23.2827
  12   2.0000      -0.811821       -22.0908
  13   2.0000      -0.770558       -20.9680
  14   2.0000      -0.644683       -17.5427
  15   2.0000      -0.623086       -16.9550
  16   2.0000      -0.617159       -16.7938
  17   2.0000      -0.601498       -16.3676
  18   2.0000      -0.578224       -15.7343
  19   2.0000      -0.545751       -14.8506
  20   2.0000      -0.519419       -14.1341
  21   2.0000      -0.510838       -13.9006
  22   2.0000      -0.506832       -13.7916
  23   2.0000      -0.481607       -13.1052
  24   2.0000      -0.472331       -12.8528
  25   2.0000      -0.455767       -12.4020
  26   2.0000      -0.443305       -12.0629
  27   2.0000      -0.352688        -9.5971
  28   0.0000       0.026344         0.7169
  29   0.0000       0.030544         0.8312
  30   0.0000       0.031122         0.8469
  31   0.0000       0.032806         0.8927
  32   0.0000       0.045589         1.2405

MULLIKEN ATOMIC CHARGES
-----------------------
   0 C :   -0.493676
   1 C :   -0.451885
   2 C :   -0.435380
   3 C :    0.387328
   4 N :   -0.635260
   5 C :   -0.457880
   6 C :   -0.934877
   7 H :    0.285870
   8 H :    0.173411
   9 H :    0.188244
  10 H :    0.249532
  11 H :    0.304946
  12 H :    0.201226
  13 H :    0.239449
  14 H :    0.191994
  15 H :    0.351921
  16 H :    0.195163
  17 H :    0.226932
  18 H :    0.185784
  19 H :    0.227159
Sum of atomic charges:   -0.0000000

LOEWDIN ATOMIC CHARGES
----------------------
   0 C :    0.537466
   1 C :    0.533134
   2 C :    0.527026
   3 C :   -0.050793
   4 N :    0.924185
   5 C :    0.382557
   6 C :    0.923633
   7 H :   -0.264138
   8 H :   -0.268639
   9 H :   -0.266604
  10 H :   -0.262045
  11 H :   -0.260580
  12 H :   -0.267586
  13 H :   -0.284392
  14 H :   -0.509552
  15 H :   -0.278297
  16 H :   -0.282343
  17 H :   -0.276742
  18 H :   -0.278778
  19 H :   -0.277513

  Mayer bond orders larger than 0.100000
B(  0-C ,  1-C ) :   0.8805 B(  0-C ,  5-C ) :   0.9838 B(  0-C ,  7-H ) :   0.8996
B(  0-C ,  8-H ) :   0.9758 B(  1-C ,  2-C ) :   0.8806 B(  1-C ,  9-H ) :   0.9733
B(  1-C , 10-H ) :   0.9520 B(  2-C ,  3-C ) :   0.7236 B(  2-C , 11-H ) :   0.8975
B(  2-C , 12-H ) :   0.9443 B(  3-C ,  4-N ) :   0.5878 B(  3-C ,  6-C ) :   0.5230
B(  3-C , 13-H ) :   0.9691 B(  3-C , 17-H ) :  -0.1131 B(  3-C , 19-H ) :  -0.1099
B(  4-N ,  5-C ) :   0.9209 B(  4-N , 14-H ) :   0.9232 B(  5-C , 15-H ) :   0.8764
B(  5-C , 16-H ) :   0.9832 B(  6-C , 17-H ) :   1.0640 B(  6-C , 18-H ) :   1.0206
B(  6-C , 19-H ) :   1.0681

MP2 TOTAL ENERGY:     -290.685113410 Eh
FINAL SINGLE POINT ENERGY      -290.685113409765

DIPOLE MOMENT
-------------
                                X             Y             Z
Electronic contribution:     -0.70448      -1.48085      -0.27061
Nuclear contribution   :      0.49833       1.83144       0.47292
                        -----------------------------------------
Total Dipole Moment    :     -0.20615       0.35059       0.20231
                        -----------------------------------------
Magnitude (a.u.)       :      0.45425
Magnitude (Debye)      :      1.15461

Rotational constants in cm-1:     0.143765     0.075234     0.054395
Rotational constants in MHz :  4309.972493  2255.467789  1630.721755

                             ****ORCA TERMINATED NORMALLY****
TOTAL RUN TIME: 0 days 1 hours 11 minutes 8 seconds 238 msec
