                         Program Version 5.0.4 -  RELEASE  -
|  1> !ri-mp2 aug-cc-pvqz aug-cc-pvqz/c tightscf
|  2> %pal nprocs 16 end
|  3>
|  4> * xyz 0 1
|  5> C      1.751556    1.082901    0.182606
|  6> C      2.271460   -0.203318    0.214278
|  7> C      0.398740    1.250753   -0.075620
|  8> C      1.403367   -1.263547   -0.016890
|  9> C     -0.401322    0.128061   -0.295305
| 10> C     -2.726106   -0.194903    0.645780
| 11> C     -1.881035    0.248415   -0.555272
| 12> N      0.103790   -1.111829   -0.264838
| 13> H      2.388226    1.940873    0.354047
| 14> H      3.319053   -0.385161    0.408951
| 15> H     -0.037426    2.240056   -0.109962
| 16> H      1.770415   -2.283998   -0.005475
| 17> H     -2.495860   -1.225772    0.912489
| 18> H     -3.789953   -0.129702    0.414763
| 19> H     -2.530642    0.432256    1.517119
| 20> H     -2.122699    1.279481   -0.819168
| 21> H     -2.127609   -0.375408   -1.416356
| 22> *
| 23>
| 24>                          ****END OF INPUT****

CARTESIAN COORDINATES (ANGSTROEM)
---------------------------------
  C      1.751556    1.082901    0.182606
  C      2.271460   -0.203318    0.214278
  C      0.398740    1.250753   -0.075620
  C      1.403367   -1.263547   -0.016890
  C     -0.401322    0.128061   -0.295305
  C     -2.726106   -0.194903    0.645780
  C     -1.881035    0.248415   -0.555272
  N      0.103790   -1.111829   -0.264838
  H      2.388226    1.940873    0.354047
  H      3.319053   -0.385161    0.408951
  H     -0.037426    2.240056   -0.109962
  H      1.770415   -2.283998   -0.005475
  H     -2.495860   -1.225772    0.912489
  H     -3.789953   -0.129702    0.414763
  H     -2.530642    0.432256    1.517119
  H     -2.122699    1.279481   -0.819168
  H     -2.127609   -0.375408   -1.416356

 Total Charge           Charge          ....    0
 Multiplicity           Mult            ....    1
 Number of Electrons    NEL             ....   58
 Basis Dimension        Dim             .... 1054

ORBITAL ENERGIES
----------------

  NO   OCC          E(Eh)            E(eV)
   0   2.0000     -15.554546      -423.2607
   1   2.0000     -11.274627      -306.7982
   2   2.0000     -11.269888      -306.6692
   3   2.0000     -11.254105      -306.2398
   4   2.0000     -11.233035      -305.6664
   5   2.0000     -11.232695      -305.6572
   6   2.0000     -11.224514      -305.4346
   7   2.0000     -11.211973      -305.0933
   8   2.0000      -1.257251       -34.2115
   9   2.0000      -1.085698       -29.5434
  10   2.0000      -1.069466       -29.1017
  11   2.0000      -0.995686       -27.0940
  12   2.0000      -0.879303       -23.9271
  13   2.0000      -0.856206       -23.2986
  14   2.0000      -0.806311       -21.9408
  15   2.0000      -0.700750       -19.0684
  16   2.0000      -0.669638       -18.2218
  17   2.0000      -0.641719       -17.4621
  18   2.0000      -0.600658       -16.3447
  19   2.0000      -0.594328       -16.1725
  20   2.0000      -0.573633       -15.6093
  21   2.0000      -0.554218       -15.0810
  22   2.0000      -0.534401       -14.5418
  23   2.0000      -0.503539       -13.7020
  24   2.0000      -0.490335       -13.3427
  25   2.0000      -0.488767       -13.3000
  26   2.0000      -0.409996       -11.1566
  27   2.0000      -0.380011       -10.3406
  28   2.0000      -0.336457        -9.1555
  29   0.0000       0.023645         0.6434
  30   0.0000       0.028063         0.7636
  31   0.0000       0.031570         0.8591
  32   0.0000       0.039027         1.0620
  33   0.0000       0.041079         1.1178

MULLIKEN ATOMIC CHARGES
-----------------------
   0 C :   -0.159713
   1 C :   -0.328922
   2 C :   -0.527231
   3 C :   -0.393252
   4 C :    0.571662
   5 C :   -0.873886
   6 C :   -0.320314
   7 N :   -0.624288
   8 H :    0.266539
   9 H :    0.331884
  10 H :    0.283483
  11 H :    0.473989
  12 H :    0.253215
  13 H :    0.326095
  14 H :    0.241756
  15 H :    0.221793
  16 H :    0.257189
Sum of atomic charges:    0.0000000

LOEWDIN ATOMIC CHARGES
----------------------
   0 C :    0.336707
   1 C :    0.332638
   2 C :    0.345199
   3 C :    0.084769
   4 C :   -0.345303
   5 C :    0.926448
   6 C :    0.469680
   7 N :    0.614591
   8 H :   -0.312517
   9 H :   -0.331375
  10 H :   -0.322839
  11 H :   -0.350181
  12 H :   -0.291559
  13 H :   -0.282837
  14 H :   -0.281040
  15 H :   -0.303050
  16 H :   -0.289329

  Mayer bond orders larger than 0.100000
B(  0-C ,  1-C ) :   1.1934 B(  0-C ,  2-C ) :   1.2916 B(  0-C ,  4-C ) :  -0.3391
B(  0-C ,  8-H ) :   1.0916 B(  1-C ,  3-C ) :   1.2491 B(  1-C ,  9-H ) :   0.9822
B(  2-C ,  3-C ) :   0.1769 B(  2-C ,  4-C ) :   0.9433 B(  2-C ,  6-C ) :  -0.1363
B(  2-C ,  7-N ) :   0.1265 B(  2-C ,  8-H ) :  -0.1261 B(  2-C , 10-H ) :   0.9819
B(  3-C ,  7-N ) :   1.3375 B(  3-C , 11-H ) :   0.8785 B(  4-C ,  6-C ) :   0.7571
B(  4-C ,  7-N ) :   0.9371 B(  5-C ,  6-C ) :   1.0066 B(  5-C , 12-H ) :   0.9302
B(  5-C , 13-H ) :   0.9385 B(  5-C , 14-H ) :   0.9345 B(  6-C , 15-H ) :   1.0089
B(  6-C , 16-H ) :   0.9215

MP2 TOTAL ENERGY:     -326.326816517 Eh
FINAL SINGLE POINT ENERGY      -326.326816516964

DIPOLE MOMENT
-------------
                                X             Y             Z
Electronic contribution:      6.03826      -0.86883      -1.15702
Nuclear contribution   :     -5.71893       1.51068       1.27561
                        -----------------------------------------
Total Dipole Moment    :      0.31933       0.64184       0.11859
                        -----------------------------------------
Magnitude (a.u.)       :      0.72664
Magnitude (Debye)      :      1.84696

Rotational constants in cm-1:     0.157402     0.050722     0.041800
Rotational constants in MHz :  4718.798398  1520.604559  1253.135961

                             ****ORCA TERMINATED NORMALLY****
TOTAL RUN TIME: 0 days 0 hours 52 minutes 25 seconds 533 msec
