                         Program Version 5.0.4 -  RELEASE  -
|  1> !ri-mp2 aug-cc-pvqz aug-cc-pvqz/c tightscf
|  2> %pal nprocs 16 end
|  3>
|  4> * xyz 0 1
|  5> C      0.000000    2.369897    0.648656
|  6> C      1.795861    1.149187   -0.648464
|  7> C      0.000000   -2.369897    0.648656
|  8> C     -1.795861   -1.149187   -0.648464
|  9> C      0.328511    1.169473   -0.225250
| 10> C     -0.328511   -1.169473   -0.225250
| 11> O      0.000000    0.000000    0.530194
| 12> H      0.237389    3.300652    0.131809
| 13> H     -1.057482    2.376595    0.910750
| 14> H      0.579665    2.331751    1.572195
| 15> H      2.036399    2.028649   -1.248423
| 16> H      2.027144    0.266481   -1.245332
| 17> H      2.440231    1.144037    0.231844
| 18> H     -0.237389   -3.300652    0.131809
| 19> H      1.057482   -2.376595    0.910750
| 20> H     -0.579665   -2.331751    1.572195
| 21> H     -2.036399   -2.028649   -1.248423
| 22> H     -2.027144   -0.266481   -1.245332
| 23> H     -2.440231   -1.144037    0.231844
| 24> H     -0.300157    1.205375   -1.123271
| 25> H      0.300157   -1.205375   -1.123271
| 26> *
| 27>
| 28>                          ****END OF INPUT****

CARTESIAN COORDINATES (ANGSTROEM)
---------------------------------
  C      0.000000    2.369897    0.648656
  C      1.795861    1.149187   -0.648464
  C      0.000000   -2.369897    0.648656
  C     -1.795861   -1.149187   -0.648464
  C      0.328511    1.169473   -0.225250
  C     -0.328511   -1.169473   -0.225250
  O      0.000000    0.000000    0.530194
  H      0.237389    3.300652    0.131809
  H     -1.057482    2.376595    0.910750
  H      0.579665    2.331751    1.572195
  H      2.036399    2.028649   -1.248423
  H      2.027144    0.266481   -1.245332
  H      2.440231    1.144037    0.231844
  H     -0.237389   -3.300652    0.131809
  H      1.057482   -2.376595    0.910750
  H     -0.579665   -2.331751    1.572195
  H     -2.036399   -2.028649   -1.248423
  H     -2.027144   -0.266481   -1.245332
  H     -2.440231   -1.144037    0.231844
  H     -0.300157    1.205375   -1.123271
  H      0.300157   -1.205375   -1.123271

 Total Charge           Charge          ....    0
 Multiplicity           Mult            ....    1
 Number of Electrons    NEL             ....   58
 Basis Dimension        Dim             .... 1204

ORBITAL ENERGIES
----------------

  NO   OCC          E(Eh)            E(eV)
   0   2.0000     -20.538107      -558.8703
   1   2.0000     -11.274370      -306.7912
   2   2.0000     -11.274352      -306.7907
   3   2.0000     -11.209416      -305.0237
   4   2.0000     -11.209415      -305.0237
   5   2.0000     -11.206717      -304.9503
   6   2.0000     -11.206717      -304.9503
   7   2.0000      -1.359097       -36.9829
   8   2.0000      -1.068396       -29.0725
   9   2.0000      -1.012603       -27.5543
  10   2.0000      -0.935795       -25.4643
  11   2.0000      -0.932300       -25.3692
  12   2.0000      -0.811406       -22.0795
  13   2.0000      -0.778164       -21.1749
  14   2.0000      -0.677545       -18.4369
  15   2.0000      -0.631415       -17.1817
  16   2.0000      -0.621482       -16.9114
  17   2.0000      -0.579391       -15.7660
  18   2.0000      -0.577560       -15.7162
  19   2.0000      -0.560921       -15.2634
  20   2.0000      -0.537382       -14.6229
  21   2.0000      -0.536516       -14.5994
  22   2.0000      -0.516925       -14.0662
  23   2.0000      -0.512295       -13.9403
  24   2.0000      -0.507161       -13.8006
  25   2.0000      -0.483448       -13.1553
  26   2.0000      -0.473855       -12.8942
  27   2.0000      -0.446764       -12.1571
  28   2.0000      -0.406179       -11.0527
  29   0.0000       0.026292         0.7154
  30   0.0000       0.030616         0.8331
  31   0.0000       0.032359         0.8805
  32   0.0000       0.034091         0.9277
  33   0.0000       0.046250         1.2585

MULLIKEN ATOMIC CHARGES
-----------------------
   0 C :   -0.953859
   1 C :   -0.956215
   2 C :   -0.953869
   3 C :   -0.956212
   4 C :    0.552556
   5 C :    0.552555
   6 O :   -0.806046
   7 H :    0.266845
   8 H :    0.238736
   9 H :    0.205763
  10 H :    0.290197
  11 H :    0.231319
  12 H :    0.246216
  13 H :    0.266847
  14 H :    0.238735
  15 H :    0.205761
  16 H :    0.290193
  17 H :    0.231324
  18 H :    0.246215
  19 H :    0.281469
  20 H :    0.281470
Sum of atomic charges:    0.0000000

LOEWDIN ATOMIC CHARGES
----------------------
   0 C :    0.904731
   1 C :    0.920085
   2 C :    0.904731
   3 C :    0.920085
   4 C :   -0.257927
   5 C :   -0.257927
   6 O :    0.913758
   7 H :   -0.284252
   8 H :   -0.282825
   9 H :   -0.285738
  10 H :   -0.278824
  11 H :   -0.293649
  12 H :   -0.281218
  13 H :   -0.284252
  14 H :   -0.282825
  15 H :   -0.285738
  16 H :   -0.278824
  17 H :   -0.293649
  18 H :   -0.281218
  19 H :   -0.317262
  20 H :   -0.317262

  Mayer bond orders larger than 0.100000
B(  0-C ,  1-C ) :   0.1532 B(  0-C ,  4-C ) :   0.6047 B(  0-C ,  7-H ) :   1.0294
B(  0-C ,  8-H ) :   1.0075 B(  0-C ,  9-H ) :   0.9880 B(  1-C ,  4-C ) :   0.7135
B(  1-C , 10-H ) :   0.9683 B(  1-C , 11-H ) :   0.9925 B(  1-C , 12-H ) :   0.9517
B(  2-C ,  3-C ) :   0.1532 B(  2-C ,  5-C ) :   0.6047 B(  2-C , 13-H ) :   1.0294
B(  2-C , 14-H ) :   1.0075 B(  2-C , 15-H ) :   0.9880 B(  3-C ,  5-C ) :   0.7135
B(  3-C , 16-H ) :   0.9683 B(  3-C , 17-H ) :   0.9925 B(  3-C , 18-H ) :   0.9517
B(  4-C ,  6-O ) :   0.6745 B(  4-C , 19-H ) :   0.8850 B(  5-C ,  6-O ) :   0.6745
B(  5-C , 20-H ) :   0.8850

MP2 TOTAL ENERGY:     -311.745801368 Eh
FINAL SINGLE POINT ENERGY      -311.745801367774

DIPOLE MOMENT
-------------
                                X             Y             Z
Electronic contribution:     -0.00000       0.00000       1.09590
Nuclear contribution   :      0.00000      -0.00000      -1.63376
                        -----------------------------------------
Total Dipole Moment    :     -0.00000       0.00000      -0.53786
                        -----------------------------------------
Magnitude (a.u.)       :      0.53786
Magnitude (Debye)      :      1.36713

Rotational constants in cm-1:     0.136332     0.051219     0.045591
Rotational constants in MHz :  4087.116510  1535.495082  1366.789478

                             ****ORCA TERMINATED NORMALLY****
TOTAL RUN TIME: 0 days 1 hours 20 minutes 44 seconds 28 msec
