                         Program Version 5.0.4 -  RELEASE  -
|  1> !ri-mp2 aug-cc-pvqz aug-cc-pvqz/c tightscf
|  2> %pal nprocs 16 end
|  3>
|  4> * xyz 0 1
|  5> S     -1.950591   -0.686147   -0.303940
|  6> N      1.432922    1.428952   -0.545421
|  7> N     -0.711841    1.245188    1.046284
|  8> N      2.117170   -1.659656    0.627854
|  9> C      0.684478    0.164121   -0.583266
| 10> C     -0.693718    0.297052    0.111210
| 11> C      1.467167   -0.871492    0.100755
| 12> H      0.479303   -0.201586   -1.591769
| 13> H      1.137544    2.029439   -1.305751
| 14> H      2.426777    1.267897   -0.644579
| 15> H     -1.552470    1.410472    1.572884
| 16> H      0.102983    1.832653    1.159037
| 17> *
| 18>
| 19>                          ****END OF INPUT****

CARTESIAN COORDINATES (ANGSTROEM)
---------------------------------
  S     -1.950591   -0.686147   -0.303940
  N      1.432922    1.428952   -0.545421
  N     -0.711841    1.245188    1.046284
  N      2.117170   -1.659656    0.627854
  C      0.684478    0.164121   -0.583266
  C     -0.693718    0.297052    0.111210
  C      1.467167   -0.871492    0.100755
  H      0.479303   -0.201586   -1.591769
  H      1.137544    2.029439   -1.305751
  H      2.426777    1.267897   -0.644579
  H     -1.552470    1.410472    1.572884
  H      0.102983    1.832653    1.159037

 Total Charge           Charge          ....    0
 Multiplicity           Mult            ....    1
 Number of Electrons    NEL             ....   60
 Basis Dimension        Dim             ....  794

ORBITAL ENERGIES
----------------

  NO   OCC          E(Eh)            E(eV)
   0   2.0000     -91.914811     -2501.1292
   1   2.0000     -15.621890      -425.0933
   2   2.0000     -15.602287      -424.5598
   3   2.0000     -15.588224      -424.1771
   4   2.0000     -11.371584      -309.4365
   5   2.0000     -11.348392      -308.8055
   6   2.0000     -11.289835      -307.2120
   7   2.0000      -8.919015      -242.6987
   8   2.0000      -6.600604      -179.6116
   9   2.0000      -6.599153      -179.5721
  10   2.0000      -6.598322      -179.5495
  11   2.0000      -1.302476       -35.4422
  12   2.0000      -1.248754       -33.9803
  13   2.0000      -1.221770       -33.2461
  14   2.0000      -1.056686       -28.7539
  15   2.0000      -0.970072       -26.3970
  16   2.0000      -0.832789       -22.6613
  17   2.0000      -0.770863       -20.9762
  18   2.0000      -0.747986       -20.3537
  19   2.0000      -0.683379       -18.5957
  20   2.0000      -0.659790       -17.9538
  21   2.0000      -0.647789       -17.6272
  22   2.0000      -0.575641       -15.6640
  23   2.0000      -0.543124       -14.7792
  24   2.0000      -0.525980       -14.3126
  25   2.0000      -0.493534       -13.4297
  26   2.0000      -0.482580       -13.1317
  27   2.0000      -0.457690       -12.4544
  28   2.0000      -0.351590        -9.5673
  29   2.0000      -0.342611        -9.3229
  30   0.0000       0.012658         0.3444
  31   0.0000       0.025137         0.6840
  32   0.0000       0.034042         0.9263
  33   0.0000       0.039202         1.0667
  34   0.0000       0.051892         1.4120

MULLIKEN ATOMIC CHARGES
-----------------------
   0 S :   -0.182102
   1 N :   -0.662804
   2 N :   -0.651427
   3 N :   -0.664082
   4 C :    0.266694
   5 C :    0.039104
   6 C :    0.349932
   7 H :    0.419187
   8 H :    0.269035
   9 H :    0.223101
  10 H :    0.222460
  11 H :    0.370901
Sum of atomic charges:   -0.0000000

LOEWDIN ATOMIC CHARGES
----------------------
   0 S :    1.083951
   1 N :    1.271307
   2 N :    1.165335
   3 N :    0.439879
   4 C :   -0.257518
   5 C :   -1.010413
   6 C :   -0.314579
   7 H :   -0.368556
   8 H :   -0.471306
   9 H :   -0.497389
  10 H :   -0.495319
  11 H :   -0.545393

  Mayer bond orders larger than 0.100000
B(  0-S ,  5-C ) :   1.4854 B(  1-N ,  4-C ) :   0.8032 B(  1-N ,  8-H ) :   0.9119
B(  1-N ,  9-H ) :   0.9847 B(  2-N ,  5-C ) :   1.1047 B(  2-N , 10-H ) :   1.0096
B(  2-N , 11-H ) :   0.8561 B(  3-N ,  6-C ) :   2.4930 B(  4-C ,  5-C ) :   0.8980
B(  4-C ,  6-C ) :   0.9514 B(  4-C ,  7-H ) :   0.7558

MP2 TOTAL ENERGY:     -678.868587260 Eh
FINAL SINGLE POINT ENERGY      -678.868587260129

DIPOLE MOMENT
-------------
                                X             Y             Z
Electronic contribution:     -2.10609      -4.00807       0.34633
Nuclear contribution   :      2.61370       6.22947      -0.77714
                        -----------------------------------------
Total Dipole Moment    :      0.50761       2.22140      -0.43081
                        -----------------------------------------
Magnitude (a.u.)       :      2.31903
Magnitude (Debye)      :      5.89451

Rotational constants in cm-1:     0.101562     0.054612     0.042865
Rotational constants in MHz :  3044.747608  1637.227775  1285.060367

                             ****ORCA TERMINATED NORMALLY****
TOTAL RUN TIME: 0 days 0 hours 20 minutes 3 seconds 229 msec
