                         Program Version 5.0.4 -  RELEASE  -
|  1> !ri-mp2 aug-cc-pvqz aug-cc-pvqz/c tightscf
|  2> %pal nprocs 16 end
|  3>
|  4> * xyz 0 1
|  5> C    -1.589968    0.591998    0.318003
|  6> C    -1.482626   -0.731595    0.240541
|  7> C    -0.409779    1.297050   -0.271302
|  8> N    -0.319737   -1.200523   -0.391951
|  9> O     1.667032   -0.003415    0.897793
| 10> S     0.936297    0.011580   -0.400006
| 11> H    -2.429540    1.112221    0.749196
| 12> H    -2.206329   -1.457624    0.580961
| 13> H    -0.583145    1.663910   -1.286760
| 14> H     0.010173    2.099326    0.334185
| 15> H     0.024228   -2.116844   -0.139614
| 16> *
| 17>
| 18>                          ****END OF INPUT****

CARTESIAN COORDINATES (ANGSTROEM)
---------------------------------
  C     -1.589968    0.591998    0.318003
  C     -1.482626   -0.731595    0.240541
  C     -0.409779    1.297050   -0.271302
  N     -0.319737   -1.200523   -0.391951
  O      1.667032   -0.003415    0.897793
  S      0.936297    0.011580   -0.400006
  H     -2.429540    1.112221    0.749196
  H     -2.206329   -1.457624    0.580961
  H     -0.583145    1.663910   -1.286760
  H      0.010173    2.099326    0.334185
  H      0.024228   -2.116844   -0.139614

 Total Charge           Charge          ....    0
 Multiplicity           Mult            ....    1
 Number of Electrons    NEL             ....   54
 Basis Dimension        Dim             ....  714

ORBITAL ENERGIES
----------------

  NO   OCC          E(Eh)            E(eV)
   0   2.0000     -92.097883     -2506.1108
   1   2.0000     -20.519177      -558.3552
   2   2.0000     -15.600534      -424.5121
   3   2.0000     -11.287458      -307.1474
   4   2.0000     -11.274479      -306.7942
   5   2.0000     -11.236906      -305.7718
   6   2.0000      -9.080599      -247.0957
   7   2.0000      -6.762599      -184.0197
   8   2.0000      -6.761938      -184.0017
   9   2.0000      -6.760589      -183.9650
  10   2.0000      -1.359717       -36.9998
  11   2.0000      -1.249078       -33.9891
  12   2.0000      -1.069839       -29.1118
  13   2.0000      -0.993695       -27.0398
  14   2.0000      -0.839670       -22.8486
  15   2.0000      -0.789129       -21.4733
  16   2.0000      -0.729284       -19.8448
  17   2.0000      -0.642517       -17.4838
  18   2.0000      -0.614697       -16.7268
  19   2.0000      -0.602214       -16.3871
  20   2.0000      -0.583827       -15.8867
  21   2.0000      -0.563658       -15.3379
  22   2.0000      -0.546529       -14.8718
  23   2.0000      -0.504442       -13.7266
  24   2.0000      -0.437096       -11.8940
  25   2.0000      -0.386480       -10.5167
  26   2.0000      -0.341077        -9.2812
  27   0.0000       0.022390         0.6093
  28   0.0000       0.028677         0.7804
  29   0.0000       0.033931         0.9233
  30   0.0000       0.042316         1.1515
  31   0.0000       0.048118         1.3094

MULLIKEN ATOMIC CHARGES
-----------------------
   0 C :   -0.347556
   1 C :   -0.383703
   2 C :   -0.531073
   3 N :   -0.635971
   4 O :   -1.130334
   5 S :    1.250878
   6 H :    0.396511
   7 H :    0.528826
   8 H :    0.289182
   9 H :    0.306142
  10 H :    0.257098
Sum of atomic charges:    0.0000000

LOEWDIN ATOMIC CHARGES
----------------------
   0 C :    0.292789
   1 C :    0.105079
   2 C :    0.299426
   3 N :    0.594379
   4 O :    0.065339
   5 S :    0.581400
   6 H :   -0.329347
   7 H :   -0.314899
   8 H :   -0.345169
   9 H :   -0.353134
  10 H :   -0.595864

  Mayer bond orders larger than 0.100000
B(  0-C ,  1-C ) :   1.6924 B(  0-C ,  2-C ) :   0.8804 B(  0-C ,  6-H ) :   0.8576
B(  1-C ,  2-C ) :  -0.1143 B(  1-C ,  3-N ) :   1.0524 B(  1-C ,  7-H ) :   0.7558
B(  2-C ,  5-S ) :   0.9440 B(  2-C ,  8-H ) :   0.8852 B(  2-C ,  9-H ) :   0.9020
B(  3-N ,  5-S ) :   0.8547 B(  3-N , 10-H ) :   0.9636 B(  4-O ,  5-S ) :   1.2965

MP2 TOTAL ENERGY:     -644.620767860 Eh
FINAL SINGLE POINT ENERGY      -644.620767860241

DIPOLE MOMENT
-------------
                                X             Y             Z
Electronic contribution:      3.87510      -1.32682      -0.87551
Nuclear contribution   :     -5.10241       1.27192       0.25778
                        -----------------------------------------
Total Dipole Moment    :     -1.22731      -0.05490      -0.61773
                        -----------------------------------------
Magnitude (a.u.)       :      1.37510
Magnitude (Debye)      :      3.49522

Rotational constants in cm-1:     0.183660     0.099529     0.080290
Rotational constants in MHz :  5505.979745  2983.809703  2407.023537

                             ****ORCA TERMINATED NORMALLY****
TOTAL RUN TIME: 0 days 0 hours 12 minutes 52 seconds 929 msec
