                         Program Version 5.0.4 -  RELEASE  -
|  1> !ri-mp2 aug-cc-pvqz aug-cc-pvqz/c tightscf
|  2> %pal nprocs 16 end
|  3>
|  4> * xyz 0 1
|  5> S      0.301124   -1.194128   -0.000003
|  6> S     -2.516695   -0.103145   -0.000004
|  7> O      2.855536   -0.380914    0.000003
|  8> N     -0.251435    1.319996    0.000004
|  9> C     -0.891421    0.133788   -0.000001
| 10> C      1.703099   -0.063528    0.000002
| 11> C      1.190060    1.371895    0.000006
| 12> H     -0.815242    2.155712    0.000006
| 13> H      1.584859    1.877534   -0.885017
| 14> H      1.584856    1.877528    0.885033
| 15> *
| 16>
| 17>                          ****END OF INPUT****

CARTESIAN COORDINATES (ANGSTROEM)
---------------------------------
  S      0.301124   -1.194128   -0.000003
  S     -2.516695   -0.103145   -0.000004
  O      2.855536   -0.380914    0.000003
  N     -0.251435    1.319996    0.000004
  C     -0.891421    0.133788   -0.000001
  C      1.703099   -0.063528    0.000002
  C      1.190060    1.371895    0.000006
  H     -0.815242    2.155712    0.000006
  H      1.584859    1.877534   -0.885017
  H      1.584856    1.877528    0.885033

 Total Charge           Charge          ....    0
 Multiplicity           Mult            ....    1
 Number of Electrons    NEL             ....   68
 Basis Dimension        Dim             ....  706

ORBITAL ENERGIES
----------------

  NO   OCC          E(Eh)            E(eV)
   0   2.0000     -92.016998     -2503.9098
   1   2.0000     -91.923735     -2501.3720
   2   2.0000     -20.592758      -560.3574
   3   2.0000     -15.641445      -425.6254
   4   2.0000     -11.401930      -310.2623
   5   2.0000     -11.398124      -310.1587
   6   2.0000     -11.327833      -308.2460
   7   2.0000      -9.019272      -245.4269
   8   2.0000      -8.927813      -242.9382
   9   2.0000      -6.700155      -182.3205
  10   2.0000      -6.699400      -182.2999
  11   2.0000      -6.698550      -182.2768
  12   2.0000      -6.609431      -179.8517
  13   2.0000      -6.607810      -179.8077
  14   2.0000      -6.607053      -179.7871
  15   2.0000      -1.444336       -39.3024
  16   2.0000      -1.329899       -36.1884
  17   2.0000      -1.090811       -29.6825
  18   2.0000      -1.070289       -29.1241
  19   2.0000      -0.960664       -26.1410
  20   2.0000      -0.828768       -22.5519
  21   2.0000      -0.795661       -21.6510
  22   2.0000      -0.722858       -19.6700
  23   2.0000      -0.699129       -19.0243
  24   2.0000      -0.667761       -18.1707
  25   2.0000      -0.655558       -17.8386
  26   2.0000      -0.577893       -15.7253
  27   2.0000      -0.576589       -15.6898
  28   2.0000      -0.545628       -14.8473
  29   2.0000      -0.521109       -14.1801
  30   2.0000      -0.446245       -12.1429
  31   2.0000      -0.417419       -11.3585
  32   2.0000      -0.352900        -9.6029
  33   2.0000      -0.348324        -9.4784
  34   0.0000       0.015104         0.4110
  35   0.0000       0.031691         0.8623
  36   0.0000       0.037222         1.0129
  37   0.0000       0.047599         1.2952
  38   0.0000       0.060788         1.6541

MULLIKEN ATOMIC CHARGES
-----------------------
   0 S :    0.379295
   1 S :   -0.117112
   2 O :   -0.701058
   3 N :   -0.239972
   4 C :   -0.276024
   5 C :    0.399212
   6 C :   -0.253189
   7 H :    0.173676
   8 H :    0.317586
   9 H :    0.317587
Sum of atomic charges:    0.0000000

LOEWDIN ATOMIC CHARGES
----------------------
   0 S :    1.224193
   1 S :    0.935641
   2 O :    0.618643
   3 N :    0.623191
   4 C :   -1.490999
   5 C :   -1.075607
   6 C :    0.255150
   7 H :   -0.514424
   8 H :   -0.287893
   9 H :   -0.287894

  Mayer bond orders larger than 0.100000
B(  0-S ,  4-C ) :   1.0485 B(  0-S ,  5-C ) :   1.1650 B(  1-S ,  4-C ) :   1.5000
B(  2-O ,  5-C ) :   1.4485 B(  2-O ,  6-C ) :   0.1254 B(  3-N ,  4-C ) :   1.1301
B(  3-N ,  6-C ) :   0.7781 B(  3-N ,  7-H ) :   1.0380 B(  4-C ,  5-C ) :  -0.1001
B(  5-C ,  6-C ) :   1.0539 B(  6-C ,  8-H ) :   0.8601 B(  6-C ,  9-H ) :   0.8601

MP2 TOTAL ENERGY:    -1041.216916795 Eh
FINAL SINGLE POINT ENERGY     -1041.216916795030

DIPOLE MOMENT
-------------
                                X             Y             Z
Electronic contribution:     -1.75902      -4.25323      -0.00002
Nuclear contribution   :      2.36500       5.70789       0.00002
                        -----------------------------------------
Total Dipole Moment    :      0.60598       1.45465       0.00001
                        -----------------------------------------
Magnitude (a.u.)       :      1.57583
Magnitude (Debye)      :      4.00544

Rotational constants in cm-1:     0.155085     0.041518     0.032953
Rotational constants in MHz :  4649.336895  1244.679198   987.893117

                             ****ORCA TERMINATED NORMALLY****
TOTAL RUN TIME: 0 days 0 hours 16 minutes 27 seconds 588 msec
