                         Program Version 5.0.4 -  RELEASE  -
|  1> !ri-mp2 aug-cc-pvqz aug-cc-pvqz/c tightscf
|  2> %pal nprocs 16 end
|  3>
|  4> * xyz 0 1
|  5> S     0.807257   -1.220346    0.197198
|  6> S    -1.948226   -0.076615   -0.421874
|  7> N     0.326375    1.278014    0.589110
|  8> N     1.350166    1.260862   -0.340449
|  9> C    -0.427430    0.038051    0.678459
| 10> C     1.721627    0.074068   -0.599627
| 11> H    -2.794969    0.485790    0.462355
| 12> H    -0.239031    2.107672    0.478029
| 13> H    -0.761306   -0.139902    1.694067
| 14> H     2.549843   -0.147039   -1.253252
| 15> *
| 16>
| 17>                          ****END OF INPUT****

CARTESIAN COORDINATES (ANGSTROEM)
---------------------------------
  S      0.807257   -1.220346    0.197198
  S     -1.948226   -0.076615   -0.421874
  N      0.326375    1.278014    0.589110
  N      1.350166    1.260862   -0.340449
  C     -0.427430    0.038051    0.678459
  C      1.721627    0.074068   -0.599627
  H     -2.794969    0.485790    0.462355
  H     -0.239031    2.107672    0.478029
  H     -0.761306   -0.139902    1.694067
  H      2.549843   -0.147039   -1.253252

 Total Charge           Charge          ....    0
 Multiplicity           Mult            ....    1
 Number of Electrons    NEL             ....   62
 Basis Dimension        Dim             ....  672

ORBITAL ENERGIES
----------------

  NO   OCC          E(Eh)            E(eV)
   0   2.0000     -91.985688     -2503.0578
   1   2.0000     -91.966872     -2502.5458
   2   2.0000     -15.614875      -424.9023
   3   2.0000     -15.610775      -424.7908
   4   2.0000     -11.349956      -308.8480
   5   2.0000     -11.307713      -307.6985
   6   2.0000      -8.987872      -244.5724
   7   2.0000      -8.969042      -244.0600
   8   2.0000      -6.669114      -181.4758
   9   2.0000      -6.668381      -181.4559
  10   2.0000      -6.667390      -181.4289
  11   2.0000      -6.650316      -180.9643
  12   2.0000      -6.649452      -180.9408
  13   2.0000      -6.648529      -180.9157
  14   2.0000      -1.357329       -36.9348
  15   2.0000      -1.133152       -30.8346
  16   2.0000      -1.072556       -29.1857
  17   2.0000      -0.969652       -26.3856
  18   2.0000      -0.839447       -22.8425
  19   2.0000      -0.813227       -22.1290
  20   2.0000      -0.713993       -19.4287
  21   2.0000      -0.656986       -17.8775
  22   2.0000      -0.633128       -17.2283
  23   2.0000      -0.569352       -15.4929
  24   2.0000      -0.549451       -14.9513
  25   2.0000      -0.505536       -13.7563
  26   2.0000      -0.480604       -13.0779
  27   2.0000      -0.452168       -12.3041
  28   2.0000      -0.433855       -11.8058
  29   2.0000      -0.375647       -10.2219
  30   2.0000      -0.329409        -8.9637
  31   0.0000       0.023763         0.6466
  32   0.0000       0.030864         0.8399
  33   0.0000       0.037820         1.0291
  34   0.0000       0.044391         1.2079
  35   0.0000       0.058504         1.5920

MULLIKEN ATOMIC CHARGES
-----------------------
   0 S :    0.121252
   1 S :   -0.225506
   2 N :   -0.291798
   3 N :   -0.410403
   4 C :   -0.021551
   5 C :   -0.463532
   6 H :    0.059519
   7 H :    0.297351
   8 H :    0.376248
   9 H :    0.558420
Sum of atomic charges:   -0.0000000

LOEWDIN ATOMIC CHARGES
----------------------
   0 S :    1.209850
   1 S :    1.486526
   2 N :    0.464246
   3 N :    0.342431
   4 C :   -0.841419
   5 C :   -0.359865
   6 H :   -0.805663
   7 H :   -0.582942
   8 H :   -0.473503
   9 H :   -0.439663

  Mayer bond orders larger than 0.100000
B(  0-S ,  4-C ) :   0.8847 B(  0-S ,  5-C ) :   1.0982 B(  1-S ,  4-C ) :   0.8667
B(  1-S ,  6-H ) :   1.0189 B(  2-N ,  3-N ) :   0.7578 B(  2-N ,  4-C ) :   0.8886
B(  2-N ,  7-H ) :   0.8899 B(  3-N ,  5-C ) :   1.8548 B(  4-C ,  5-C ) :  -0.1357
B(  4-C ,  8-H ) :   0.7922 B(  5-C ,  9-H ) :   0.6692

MP2 TOTAL ENERGY:     -983.253803243 Eh
FINAL SINGLE POINT ENERGY      -983.253803243422

DIPOLE MOMENT
-------------
                                X             Y             Z
Electronic contribution:      0.87779      -2.29786      -0.96323
Nuclear contribution   :     -1.16299       2.28781       1.34626
                        -----------------------------------------
Total Dipole Moment    :     -0.28520      -0.01005       0.38303
                        -----------------------------------------
Magnitude (a.u.)       :      0.47765
Magnitude (Debye)      :      1.21409

Rotational constants in cm-1:     0.133949     0.067253     0.052592
Rotational constants in MHz :  4015.687724  2016.199008  1576.680124

                             ****ORCA TERMINATED NORMALLY****
TOTAL RUN TIME: 0 days 0 hours 14 minutes 10 seconds 274 msec
