                         Program Version 5.0.4 -  RELEASE  -
|  1> !ri-mp2 aug-cc-pvqz aug-cc-pvqz/c tightscf
|  2> %pal nprocs 16 end
|  3> %maxcore 3800
|  4>
|  5> * xyz 0 1
|  6> C     0.000000     0.705545    3.172599
|  7> C     0.000000    -0.705545    3.172599
|  8> C     0.000000     1.396736    1.988558
|  9> C     0.000000    -1.396736    1.988558
| 10> C     0.000000     1.384878   -0.494217
| 11> C     0.000000    -1.384878   -0.494217
| 12> C     0.000000     0.711893    0.749997
| 13> C     0.000000    -0.711893    0.749997
| 14> C     0.000000     0.714904   -1.692605
| 15> C     0.000000    -0.714904   -1.692605
| 16> C     0.000000     1.476613   -2.990942
| 17> C     0.000000    -1.476613   -2.990942
| 18> H     0.000000     1.240249    4.113143
| 19> H     0.000000    -1.240249    4.113143
| 20> H     0.000000     2.479711    1.986908
| 21> H     0.000000    -2.479711    1.986908
| 22> H     0.000000     2.468780   -0.491189
| 23> H     0.000000    -2.468780   -0.491189
| 24> H    -0.876451     1.238572   -3.598523
| 25> H     0.000000     2.550606   -2.812154
| 26> H     0.876451     1.238572   -3.598523
| 27> H    -0.876451    -1.238572   -3.598523
| 28> H     0.876451    -1.238572   -3.598523
| 29> H     0.000000    -2.550606   -2.812154
| 30> *
| 31>
| 32>                          ****END OF INPUT****

CARTESIAN COORDINATES (ANGSTROEM)
---------------------------------
  C      0.000000    0.705545    3.172599
  C      0.000000   -0.705545    3.172599
  C      0.000000    1.396736    1.988558
  C      0.000000   -1.396736    1.988558
  C      0.000000    1.384878   -0.494217
  C      0.000000   -1.384878   -0.494217
  C      0.000000    0.711893    0.749997
  C      0.000000   -0.711893    0.749997
  C      0.000000    0.714904   -1.692605
  C      0.000000   -0.714904   -1.692605
  C      0.000000    1.476613   -2.990942
  C      0.000000   -1.476613   -2.990942
  H      0.000000    1.240249    4.113143
  H      0.000000   -1.240249    4.113143
  H      0.000000    2.479711    1.986908
  H      0.000000   -2.479711    1.986908
  H      0.000000    2.468780   -0.491189
  H      0.000000   -2.468780   -0.491189
  H     -0.876451    1.238572   -3.598523
  H      0.000000    2.550606   -2.812154
  H      0.876451    1.238572   -3.598523
  H     -0.876451   -1.238572   -3.598523
  H      0.876451   -1.238572   -3.598523
  H      0.000000   -2.550606   -2.812154

 Total Charge           Charge          ....    0
 Multiplicity           Mult            ....    1
 Number of Electrons    NEL             ....   84
 Basis Dimension        Dim             .... 1512

ORBITAL ENERGIES
----------------

  NO   OCC          E(Eh)            E(eV)
   0   2.0000     -11.238886      -305.8256
   1   2.0000     -11.237877      -305.7982
   2   2.0000     -11.235805      -305.7418
   3   2.0000     -11.234756      -305.7133
   4   2.0000     -11.230505      -305.5976
   5   2.0000     -11.230275      -305.5913
   6   2.0000     -11.229057      -305.5582
   7   2.0000     -11.228187      -305.5345
   8   2.0000     -11.226110      -305.4780
   9   2.0000     -11.226101      -305.4777
  10   2.0000     -11.222911      -305.3909
  11   2.0000     -11.222907      -305.3908
  12   2.0000      -1.175977       -32.0000
  13   2.0000      -1.120179       -30.4816
  14   2.0000      -1.053360       -28.6634
  15   2.0000      -1.033992       -28.1364
  16   2.0000      -1.005822       -27.3698
  17   2.0000      -0.934115       -25.4186
  18   2.0000      -0.930694       -25.3255
  19   2.0000      -0.828390       -22.5416
  20   2.0000      -0.809784       -22.0353
  21   2.0000      -0.809658       -22.0319
  22   2.0000      -0.698185       -18.9986
  23   2.0000      -0.681568       -18.5464
  24   2.0000      -0.660310       -17.9679
  25   2.0000      -0.617857       -16.8128
  26   2.0000      -0.615633       -16.7522
  27   2.0000      -0.594667       -16.1817
  28   2.0000      -0.579783       -15.7767
  29   2.0000      -0.578820       -15.7505
  30   2.0000      -0.553379       -15.0582
  31   2.0000      -0.544795       -14.8246
  32   2.0000      -0.540176       -14.6989
  33   2.0000      -0.539864       -14.6904
  34   2.0000      -0.522300       -14.2125
  35   2.0000      -0.506281       -13.7766
  36   2.0000      -0.477464       -12.9925
  37   2.0000      -0.468571       -12.7505
  38   2.0000      -0.432014       -11.7557
  39   2.0000      -0.380135       -10.3440
  40   2.0000      -0.306545        -8.3415
  41   2.0000      -0.283493        -7.7142
  42   0.0000       0.024382         0.6635
  43   0.0000       0.025923         0.7054
  44   0.0000       0.026572         0.7231
  45   0.0000       0.035710         0.9717
  46   0.0000       0.038222         1.0401

MULLIKEN ATOMIC CHARGES
-----------------------
   0 C :   -0.385848
   1 C :   -0.385916
   2 C :   -0.645500
   3 C :   -0.646472
   4 C :   -0.512035
   5 C :   -0.512901
   6 C :    0.838375
   7 C :    0.838142
   8 C :    0.352292
   9 C :    0.351953
  10 C :   -0.897884
  11 C :   -0.897929
  12 H :    0.275628
  13 H :    0.275884
  14 H :    0.169252
  15 H :    0.169327
  16 H :    0.144150
  17 H :    0.144188
  18 H :    0.185159
  19 H :    0.292358
  20 H :    0.185163
  21 H :    0.185257
  22 H :    0.185255
  23 H :    0.292102
Sum of atomic charges:    0.0000000

LOEWDIN ATOMIC CHARGES
----------------------
   0 C :    0.348049
   1 C :    0.348049
   2 C :    0.356113
   3 C :    0.356113
   4 C :    0.369812
   5 C :    0.369812
   6 C :   -0.099675
   7 C :   -0.099675
   8 C :   -0.039527
   9 C :   -0.039527
  10 C :    0.904849
  11 C :    0.904849
  12 H :   -0.326250
  13 H :   -0.326250
  14 H :   -0.320836
  15 H :   -0.320836
  16 H :   -0.323005
  17 H :   -0.323005
  18 H :   -0.282274
  19 H :   -0.304984
  20 H :   -0.282274
  21 H :   -0.282274
  22 H :   -0.282274
  23 H :   -0.304984

  Mayer bond orders larger than 0.100000
B(  0-C ,  1-C ) :   1.1248 B(  0-C ,  2-C ) :   1.3573 B(  0-C ,  6-C ) :  -0.3085
B(  0-C , 12-H ) :   1.1089 B(  1-C ,  3-C ) :   1.3581 B(  1-C ,  7-C ) :  -0.3084
B(  1-C , 13-H ) :   1.1087 B(  2-C ,  3-C ) :   0.1791 B(  2-C ,  4-C ) :  -0.2953
B(  2-C ,  6-C ) :   0.7233 B(  2-C ,  7-C ) :  -0.3506 B(  2-C , 12-H ) :  -0.1653
B(  2-C , 14-H ) :   1.1824 B(  3-C ,  5-C ) :  -0.2955 B(  3-C ,  6-C ) :  -0.3509
B(  3-C ,  7-C ) :   0.7231 B(  3-C , 13-H ) :  -0.1651 B(  3-C , 15-H ) :   1.1823
B(  4-C ,  5-C ) :   0.2358 B(  4-C ,  6-C ) :   0.7020 B(  4-C ,  7-C ) :  -0.2768
B(  4-C ,  8-C ) :   0.9170 B(  4-C , 10-C ) :  -0.3078 B(  4-C , 16-H ) :   1.1081
B(  5-C ,  6-C ) :  -0.2765 B(  5-C ,  7-C ) :   0.7016 B(  5-C ,  9-C ) :   0.9176
B(  5-C , 11-C ) :  -0.3073 B(  5-C , 17-H ) :   1.1082 B(  6-C ,  7-C ) :   1.0648
B(  6-C ,  8-C ) :  -0.5936 B(  6-C ,  9-C ) :   0.2368 B(  6-C , 14-H ) :  -0.1689
B(  6-C , 16-H ) :  -0.1815 B(  7-C ,  8-C ) :   0.2370 B(  7-C ,  9-C ) :  -0.5941
B(  7-C , 15-H ) :  -0.1692 B(  7-C , 17-H ) :  -0.1816 B(  8-C ,  9-C ) :   0.7631
B(  8-C , 10-C ) :   0.6605 B(  8-C , 16-H ) :  -0.1449 B(  8-C , 18-H ) :  -0.1600
B(  8-C , 20-H ) :  -0.1600 B(  9-C , 11-C ) :   0.6610 B(  9-C , 17-H ) :  -0.1450
B(  9-C , 21-H ) :  -0.1599 B(  9-C , 22-H ) :  -0.1599 B( 10-C , 18-H ) :   1.0807
B( 10-C , 19-H ) :   1.0004 B( 10-C , 20-H ) :   1.0807 B( 11-C , 21-H ) :   1.0804
B( 11-C , 22-H ) :   1.0805 B( 11-C , 23-H ) :   1.0006

MP2 TOTAL ENERGY:     -463.659731024 Eh
FINAL SINGLE POINT ENERGY      -463.659731023575

DIPOLE MOMENT
-------------
                                X             Y             Z
Electronic contribution:      0.00000      -0.00000       8.52678
Nuclear contribution   :      0.00000      -0.00000      -8.88687
                        -----------------------------------------
Total Dipole Moment    :      0.00000      -0.00000      -0.36009
                        -----------------------------------------
Magnitude (a.u.)       :      0.36009
Magnitude (Debye)      :      0.91527

Rotational constants in cm-1:     0.072692     0.022382     0.017221
Rotational constants in MHz :  2179.256613   670.984065   516.272038

                             ****ORCA TERMINATED NORMALLY****
TOTAL RUN TIME: 0 days 4 hours 0 minutes 1 seconds 264 msec
