                         Program Version 5.0.4 -  RELEASE  -
|  1> !ri-mp2 aug-cc-pvqz aug-cc-pvqz/c tightscf
|  2> %pal nprocs 16 end
|  3>
|  4> * xyz 0 1
|  5> S     2.590627   -0.398383     0.022037
|  6> O    -1.809480   -1.599735    -0.671452
|  7> O    -2.549580    0.115934     0.577774
|  8> O    -0.025063    2.199939    -0.680860
|  9> N    -0.181727    1.093324    -1.068444
| 10> N    -0.043483    0.595039     1.433653
| 11> C    -0.211472    0.021895     0.148750
| 12> C    -1.585305   -0.610668    -0.028144
| 13> C     0.874555   -0.989357    -0.229063
| 14> H     2.628680   -0.584070     1.353771
| 15> H    -3.394862   -0.321472     0.396688
| 16> H    -0.824033    1.185978     1.685952
| 17> H     0.803667    1.150378     1.462821
| 18> H     0.792491   -1.224457    -1.287032
| 19> H     0.726816   -1.911112     0.325783
| 20> *
| 21>
| 22>                          ****END OF INPUT****

CARTESIAN COORDINATES (ANGSTROEM)
---------------------------------
  S      2.590627   -0.398383    0.022037
  O     -1.809480   -1.599735   -0.671452
  O     -2.549580    0.115934    0.577774
  O     -0.025063    2.199939   -0.680860
  N     -0.181727    1.093324   -1.068444
  N     -0.043483    0.595039    1.433653
  C     -0.211472    0.021895    0.148750
  C     -1.585305   -0.610668   -0.028144
  C      0.874555   -0.989357   -0.229063
  H      2.628680   -0.584070    1.353771
  H     -3.394862   -0.321472    0.396688
  H     -0.824033    1.185978    1.685952
  H      0.803667    1.150378    1.462821
  H      0.792491   -1.224457   -1.287032
  H      0.726816   -1.911112    0.325783

 Total Charge           Charge          ....    0
 Multiplicity           Mult            ....    1
 Number of Electrons    NEL             ....   78
 Basis Dimension        Dim             .... 1000

ORBITAL ENERGIES
----------------

  NO   OCC          E(Eh)            E(eV)
   0   2.0000     -91.968848     -2502.5996
   1   2.0000     -20.653726      -562.0165
   2   2.0000     -20.637136      -561.5650
   3   2.0000     -20.577207      -559.9343
   4   2.0000     -15.718531      -427.7230
   5   2.0000     -15.575189      -423.8224
   6   2.0000     -11.414191      -310.5959
   7   2.0000     -11.341189      -308.6094
   8   2.0000     -11.284829      -307.0758
   9   2.0000      -8.971029      -244.1141
  10   2.0000      -6.652563      -181.0254
  11   2.0000      -6.651675      -181.0013
  12   2.0000      -6.650768      -180.9766
  13   2.0000      -1.553658       -42.2772
  14   2.0000      -1.493832       -40.6492
  15   2.0000      -1.392352       -37.8878
  16   2.0000      -1.244968       -33.8773
  17   2.0000      -1.086621       -29.5685
  18   2.0000      -1.017077       -27.6761
  19   2.0000      -0.925632       -25.1877
  20   2.0000      -0.891878       -24.2692
  21   2.0000      -0.798378       -21.7250
  22   2.0000      -0.748014       -20.3545
  23   2.0000      -0.739521       -20.1234
  24   2.0000      -0.728460       -19.8224
  25   2.0000      -0.689715       -18.7681
  26   2.0000      -0.667852       -18.1732
  27   2.0000      -0.653629       -17.7861
  28   2.0000      -0.629263       -17.1231
  29   2.0000      -0.608652       -16.5623
  30   2.0000      -0.604418       -16.4470
  31   2.0000      -0.572324       -15.5737
  32   2.0000      -0.538457       -14.6522
  33   2.0000      -0.513188       -13.9645
  34   2.0000      -0.487275       -13.2594
  35   2.0000      -0.479950       -13.0601
  36   2.0000      -0.469029       -12.7629
  37   2.0000      -0.391059       -10.6413
  38   2.0000      -0.372940       -10.1482
  39   0.0000       0.021634         0.5887
  40   0.0000       0.029482         0.8023
  41   0.0000       0.035417         0.9637
  42   0.0000       0.044162         1.2017
  43   0.0000       0.047493         1.2923

MULLIKEN ATOMIC CHARGES
-----------------------
   0 S :   -0.203269
   1 O :   -0.823679
   2 O :   -0.728642
   3 O :   -0.480173
   4 N :   -0.001630
   5 N :   -0.834924
   6 C :    0.963648
   7 C :    1.196147
   8 C :   -0.564943
   9 H :    0.047769
  10 H :    0.327248
  11 H :    0.228063
  12 H :    0.259843
  13 H :    0.297985
  14 H :    0.316558
Sum of atomic charges:    0.0000000

LOEWDIN ATOMIC CHARGES
----------------------
   0 S :    1.615080
   1 O :    0.741557
   2 O :    1.269841
   3 O :    0.432356
   4 N :    0.025986
   5 N :    1.211106
   6 C :   -0.800349
   7 C :   -1.083977
   8 C :    0.032887
   9 H :   -0.758492
  10 H :   -0.790091
  11 H :   -0.549026
  12 H :   -0.579942
  13 H :   -0.403600
  14 H :   -0.363337

  Mayer bond orders larger than 0.100000
B(  0-S ,  6-C ) :  -0.1026 B(  0-S ,  8-C ) :   0.8027 B(  0-S ,  9-H ) :   1.0397
B(  1-O ,  2-O ) :   0.1113 B(  1-O ,  6-C ) :   0.2045 B(  1-O ,  7-C ) :   1.2725
B(  2-O ,  7-C ) :   0.8357 B(  2-O , 10-H ) :   0.9359 B(  3-O ,  4-N ) :   1.7341
B(  3-O ,  6-C ) :  -0.1222 B(  4-N ,  6-C ) :   0.5261 B(  5-N ,  6-C ) :   0.6520
B(  5-N , 11-H ) :   0.9597 B(  5-N , 12-H ) :   0.8626 B(  6-C ,  7-C ) :   0.9569
B(  6-C ,  8-C ) :   0.8212 B(  8-C , 13-H ) :   0.9241 B(  8-C , 14-H ) :   0.8802

MP2 TOTAL ENERGY:     -850.182068795 Eh
FINAL SINGLE POINT ENERGY      -850.182068794674

DIPOLE MOMENT
-------------
                                X             Y             Z
Electronic contribution:     -1.05026       1.61377      -2.95822
Nuclear contribution   :      0.56818      -1.63050       3.83145
                        -----------------------------------------
Total Dipole Moment    :     -0.48208      -0.01672       0.87323
                        -----------------------------------------
Magnitude (a.u.)       :      0.99760
Magnitude (Debye)      :      2.53569

Rotational constants in cm-1:     0.068993     0.033230     0.027948
Rotational constants in MHz :  2068.366866   996.203614   837.861036

                             ****ORCA TERMINATED NORMALLY****
TOTAL RUN TIME: 0 days 0 hours 41 minutes 51 seconds 996 msec
