                         Program Version 5.0.4 -  RELEASE  -
|  1> !ri-mp2 aug-cc-pvqz aug-cc-pvqz/c tightscf
|  2> %pal nprocs 16 end
|  3>
|  4> * xyz 0 1
|  5> C      1.153465    1.135016   -0.007007
|  6> C      0.013587   -0.948032   -0.008764
|  7> C     -0.091847    1.747296    0.002284
|  8> C      1.221900   -0.256301   -0.010428
|  9> C     -1.196914   -0.255109    0.000772
| 10> C      2.541088   -0.977755    0.007212
| 11> C     -2.516394   -0.975301    0.001562
| 12> N     -1.245756    1.082383    0.006775
| 13> H      2.053167    1.736401   -0.014432
| 14> H      0.010024   -2.030698   -0.017846
| 15> H     -0.165664    2.829419    0.003732
| 16> H      2.444441   -1.995475   -0.368921
| 17> H      3.285505   -0.457038   -0.595106
| 18> H      2.932172   -1.038201    1.025756
| 19> H     -2.388031   -2.056557   -0.001058
| 20> H     -3.098551   -0.693608    0.880030
| 21> H     -3.102079   -0.689810   -0.873359
| 22> *
| 23>
| 24>                          ****END OF INPUT****

CARTESIAN COORDINATES (ANGSTROEM)
---------------------------------
  C      1.153465    1.135016   -0.007007
  C      0.013587   -0.948032   -0.008764
  C     -0.091847    1.747296    0.002284
  C      1.221900   -0.256301   -0.010428
  C     -1.196914   -0.255109    0.000772
  C      2.541088   -0.977755    0.007212
  C     -2.516394   -0.975301    0.001562
  N     -1.245756    1.082383    0.006775
  H      2.053167    1.736401   -0.014432
  H      0.010024   -2.030698   -0.017846
  H     -0.165664    2.829419    0.003732
  H      2.444441   -1.995475   -0.368921
  H      3.285505   -0.457038   -0.595106
  H      2.932172   -1.038201    1.025756
  H     -2.388031   -2.056557   -0.001058
  H     -3.098551   -0.693608    0.880030
  H     -3.102079   -0.689810   -0.873359

 Total Charge           Charge          ....    0
 Multiplicity           Mult            ....    1
 Number of Electrons    NEL             ....   58
 Basis Dimension        Dim             .... 1054

ORBITAL ENERGIES
----------------

  NO   OCC          E(Eh)            E(eV)
   0   2.0000     -15.547853      -423.0786
   1   2.0000     -11.274994      -306.8082
   2   2.0000     -11.266867      -306.5870
   3   2.0000     -11.260026      -306.4009
   4   2.0000     -11.232875      -305.6621
   5   2.0000     -11.225800      -305.4695
   6   2.0000     -11.225651      -305.4655
   7   2.0000     -11.218306      -305.2656
   8   2.0000      -1.253327       -34.1048
   9   2.0000      -1.104740       -30.0615
  10   2.0000      -1.052272       -28.6338
  11   2.0000      -0.968740       -26.3608
  12   2.0000      -0.946181       -25.7469
  13   2.0000      -0.843604       -22.9556
  14   2.0000      -0.796487       -21.6735
  15   2.0000      -0.681531       -18.5454
  16   2.0000      -0.674748       -18.3608
  17   2.0000      -0.633250       -17.2316
  18   2.0000      -0.593213       -16.1421
  19   2.0000      -0.575409       -15.6577
  20   2.0000      -0.574714       -15.6388
  21   2.0000      -0.562475       -15.3057
  22   2.0000      -0.549720       -14.9586
  23   2.0000      -0.530939       -14.4476
  24   2.0000      -0.507098       -13.7988
  25   2.0000      -0.498856       -13.5746
  26   2.0000      -0.407522       -11.0892
  27   2.0000      -0.365260        -9.9392
  28   2.0000      -0.334170        -9.0932
  29   0.0000       0.022834         0.6213
  30   0.0000       0.027981         0.7614
  31   0.0000       0.031151         0.8476
  32   0.0000       0.037423         1.0183
  33   0.0000       0.041520         1.1298

MULLIKEN ATOMIC CHARGES
-----------------------
   0 C :   -0.324747
   1 C :   -0.416878
   2 C :   -0.344888
   3 C :    0.409283
   4 C :    0.416062
   5 C :   -0.796209
   6 C :   -0.746930
   7 N :   -0.658329
   8 H :    0.297827
   9 H :    0.294480
  10 H :    0.448002
  11 H :    0.221629
  12 H :    0.218887
  13 H :    0.264040
  14 H :    0.182474
  15 H :    0.263493
  16 H :    0.271805
Sum of atomic charges:   -0.0000000

LOEWDIN ATOMIC CHARGES
----------------------
   0 C :    0.336519
   1 C :    0.343404
   2 C :    0.087214
   3 C :   -0.081844
   4 C :   -0.335312
   5 C :    0.918210
   6 C :    0.891689
   7 N :    0.606806
   8 H :   -0.325258
   9 H :   -0.327056
  10 H :   -0.349869
  11 H :   -0.299949
  12 H :   -0.292758
  13 H :   -0.276078
  14 H :   -0.312401
  15 H :   -0.291799
  16 H :   -0.291520

  Mayer bond orders larger than 0.100000
B(  0-C ,  2-C ) :   1.3069 B(  0-C ,  3-C ) :   1.0303 B(  0-C ,  8-H ) :   0.9604
B(  0-C , 10-H ) :  -0.1064 B(  1-C ,  2-C ) :   0.1412 B(  1-C ,  3-C ) :   1.1136
B(  1-C ,  4-C ) :   1.0568 B(  1-C ,  5-C ) :  -0.1199 B(  1-C ,  6-C ) :  -0.1510
B(  1-C ,  7-N ) :   0.1113 B(  1-C ,  9-H ) :   0.9497 B(  2-C ,  3-C ) :  -0.2140
B(  2-C ,  7-N ) :   1.1554 B(  2-C , 10-H ) :   0.9611 B(  3-C ,  4-C ) :  -0.4237
B(  3-C ,  5-C ) :   0.7432 B(  3-C , 11-H ) :  -0.1272 B(  3-C , 12-H ) :  -0.1012
B(  4-C ,  6-C ) :   0.7337 B(  4-C ,  7-N ) :   0.8662 B(  5-C , 11-H ) :   1.0483
B(  5-C , 12-H ) :   1.0350 B(  5-C , 13-H ) :   0.9542 B(  6-C , 14-H ) :   1.1101
B(  6-C , 15-H ) :   0.9860 B(  6-C , 16-H ) :   0.9778 B(  7-N , 10-H ) :  -0.1192

MP2 TOTAL ENERGY:     -326.331553234 Eh
FINAL SINGLE POINT ENERGY      -326.331553234247

DIPOLE MOMENT
-------------
                                X             Y             Z
Electronic contribution:     -1.22856       3.89705      -0.02929
Nuclear contribution   :      1.99615      -4.46181       0.03948
                        -----------------------------------------
Total Dipole Moment    :      0.76758      -0.56475       0.01019
                        -----------------------------------------
Magnitude (a.u.)       :      0.95301
Magnitude (Debye)      :      2.42237

Rotational constants in cm-1:     0.127215     0.059218     0.041020
Rotational constants in MHz :  3813.819786  1775.310780  1229.736122

                             ****ORCA TERMINATED NORMALLY****
TOTAL RUN TIME: 0 days 0 hours 49 minutes 23 seconds 916 msec
