                         Program Version 5.0.4 -  RELEASE  -
|  1> !ri-mp2 aug-cc-pvqz aug-cc-pvqz/c tightscf
|  2> %pal nprocs 16 end
|  3>
|  4> * xyz 0 1
|  5> C      0.287231   -0.610477    1.268740
|  6> C      0.287231   -0.610477   -1.268740
|  7> C      0.287231    0.234800    0.000000
|  8> O     -0.802494    1.166277    0.000000
|  9> H      1.168231   -1.253175    1.311423
| 10> H      0.281273    0.027361    2.152009
| 11> H     -0.596203   -1.253979    1.303814
| 12> H      1.168231   -1.253175   -1.311423
| 13> H      0.281273    0.027361   -2.152009
| 14> H     -0.596203   -1.253979   -1.303814
| 15> H      1.172769    0.873582    0.000000
| 16> H     -1.629582    0.672719    0.000000
| 17> *
| 18>
| 19>                          ****END OF INPUT****

CARTESIAN COORDINATES (ANGSTROEM)
---------------------------------
  C      0.287231   -0.610477    1.268740
  C      0.287231   -0.610477   -1.268740
  C      0.287231    0.234800    0.000000
  O     -0.802494    1.166277    0.000000
  H      1.168231   -1.253175    1.311423
  H      0.281273    0.027361    2.152009
  H     -0.596203   -1.253979    1.303814
  H      1.168231   -1.253175   -1.311423
  H      0.281273    0.027361   -2.152009
  H     -0.596203   -1.253979   -1.303814
  H      1.172769    0.873582    0.000000
  H     -1.629582    0.672719    0.000000

 Total Charge           Charge          ....    0
 Multiplicity           Mult            ....    1
 Number of Electrons    NEL             ....   34
 Basis Dimension        Dim             ....  688

ORBITAL ENERGIES
----------------

  NO   OCC          E(Eh)            E(eV)
   0   2.0000     -20.548961      -559.1657
   1   2.0000     -11.278767      -306.9109
   2   2.0000     -11.215241      -305.1822
   3   2.0000     -11.215225      -305.1818
   4   2.0000      -1.352798       -36.8115
   5   2.0000      -1.042287       -28.3621
   6   2.0000      -0.940483       -25.5918
   7   2.0000      -0.814665       -22.1681
   8   2.0000      -0.660596       -17.9757
   9   2.0000      -0.639118       -17.3913
  10   2.0000      -0.599888       -16.3238
  11   2.0000      -0.577265       -15.7082
  12   2.0000      -0.544555       -14.8181
  13   2.0000      -0.515093       -14.0164
  14   2.0000      -0.510648       -13.8954
  15   2.0000      -0.469652       -12.7799
  16   2.0000      -0.438517       -11.9327
  17   0.0000       0.026206         0.7131
  18   0.0000       0.033523         0.9122
  19   0.0000       0.034847         0.9482
  20   0.0000       0.038539         1.0487
  21   0.0000       0.056000         1.5238

MULLIKEN ATOMIC CHARGES
-----------------------
   0 C :   -0.907511
   1 C :   -0.907511
   2 C :    0.565935
   3 O :   -0.917401
   4 H :    0.252140
   5 H :    0.279838
   6 H :    0.209857
   7 H :    0.252140
   8 H :    0.279838
   9 H :    0.209857
  10 H :    0.348178
  11 H :    0.334640
Sum of atomic charges:   -0.0000000

LOEWDIN ATOMIC CHARGES
----------------------
   0 C :    0.902872
   1 C :    0.902872
   2 C :   -0.236380
   3 O :    1.275638
   4 H :   -0.285269
   5 H :   -0.287683
   6 H :   -0.290120
   7 H :   -0.285269
   8 H :   -0.287683
   9 H :   -0.290120
  10 H :   -0.319751
  11 H :   -0.799106

  Mayer bond orders larger than 0.100000
B(  0-C ,  2-C ) :   0.8619 B(  0-C ,  4-H ) :   0.9707 B(  0-C ,  5-H ) :   0.9443
B(  0-C ,  6-H ) :   0.9435 B(  1-C ,  2-C ) :   0.8619 B(  1-C ,  7-H ) :   0.9707
B(  1-C ,  8-H ) :   0.9443 B(  1-C ,  9-H ) :   0.9435 B(  2-C ,  3-O ) :   0.4091
B(  2-C , 10-H ) :   0.8131 B(  3-O , 11-H ) :   0.8758

MP2 TOTAL ENERGY:     -194.045267991 Eh
FINAL SINGLE POINT ENERGY      -194.045267990560

DIPOLE MOMENT
-------------
                                X             Y             Z
Electronic contribution:     -1.27941       2.90157       0.00000
Nuclear contribution   :      1.31451      -3.60722       0.00000
                        -----------------------------------------
Total Dipole Moment    :      0.03510      -0.70565       0.00000
                        -----------------------------------------
Magnitude (a.u.)       :      0.70653
Magnitude (Debye)      :      1.79585

Rotational constants in cm-1:     0.282411     0.267466     0.158344
Rotational constants in MHz :  8466.481008  8018.420023  4747.031513

                             ****ORCA TERMINATED NORMALLY****
TOTAL RUN TIME: 0 days 0 hours 12 minutes 44 seconds 898 msec
