                         Program Version 5.0.4 -  RELEASE  -
|  1> !ri-mp2 aug-cc-pvqz aug-cc-pvqz/c tightscf
|  2> %pal nprocs 16 end
|  3>
|  4> * xyz 0 1
|  5> C     0.941514   -0.098483   -0.014842
|  6> C    -1.781018   -0.019406    0.390258
|  7> C    -1.091888   -1.260357   -0.181491
|  8> C    -1.137073    1.235394   -0.190517
|  9> C     2.440033   -0.025730    0.105285
| 10> N     0.363471   -1.238193   -0.066973
| 11> N     0.305683    1.121283   -0.051204
| 12> H    -2.849215   -0.030386    0.168731
| 13> H    -1.669794   -0.010999    1.476831
| 14> H    -1.454663   -2.156545    0.325164
| 15> H    -1.359693   -1.380641   -1.237877
| 16> H    -1.420985    1.347734   -1.243241
| 17> H    -1.475506    2.129505    0.335358
| 18> H     2.734140    0.509347    1.011023
| 19> H     2.874653    0.500871   -0.747674
| 20> H     2.842634   -1.033035    0.140948
| 21> H     0.864952    1.954010   -0.054174
| 22> *
| 23>
| 24>                          ****END OF INPUT****

CARTESIAN COORDINATES (ANGSTROEM)
---------------------------------
  C      0.941514   -0.098483   -0.014842
  C     -1.781018   -0.019406    0.390258
  C     -1.091888   -1.260357   -0.181491
  C     -1.137073    1.235394   -0.190517
  C      2.440033   -0.025730    0.105285
  N      0.363471   -1.238193   -0.066973
  N      0.305683    1.121283   -0.051204
  H     -2.849215   -0.030386    0.168731
  H     -1.669794   -0.010999    1.476831
  H     -1.454663   -2.156545    0.325164
  H     -1.359693   -1.380641   -1.237877
  H     -1.420985    1.347734   -1.243241
  H     -1.475506    2.129505    0.335358
  H      2.734140    0.509347    1.011023
  H      2.874653    0.500871   -0.747674
  H      2.842634   -1.033035    0.140948
  H      0.864952    1.954010   -0.054174

 Total Charge           Charge          ....    0
 Multiplicity           Mult            ....    1
 Number of Electrons    NEL             ....   54
 Basis Dimension        Dim             .... 1020

ORBITAL ENERGIES
----------------

  NO   OCC          E(Eh)            E(eV)
   0   2.0000     -15.566487      -423.5856
   1   2.0000     -15.507934      -421.9923
   2   2.0000     -11.300135      -307.4923
   3   2.0000     -11.262254      -306.4615
   4   2.0000     -11.233996      -305.6926
   5   2.0000     -11.220463      -305.3243
   6   2.0000     -11.218910      -305.2821
   7   2.0000      -1.274384       -34.6778
   8   2.0000      -1.155994       -31.4562
   9   2.0000      -1.061390       -28.8819
  10   2.0000      -0.966256       -26.2932
  11   2.0000      -0.903973       -24.5984
  12   2.0000      -0.835451       -22.7338
  13   2.0000      -0.732988       -19.9456
  14   2.0000      -0.686657       -18.6849
  15   2.0000      -0.643282       -17.5046
  16   2.0000      -0.630100       -17.1459
  17   2.0000      -0.585040       -15.9198
  18   2.0000      -0.578854       -15.7514
  19   2.0000      -0.557530       -15.1712
  20   2.0000      -0.548482       -14.9249
  21   2.0000      -0.530769       -14.4430
  22   2.0000      -0.509074       -13.8526
  23   2.0000      -0.476775       -12.9737
  24   2.0000      -0.440335       -11.9821
  25   2.0000      -0.378342       -10.2952
  26   2.0000      -0.332635        -9.0515
  27   0.0000       0.021589         0.5875
  28   0.0000       0.028831         0.7845
  29   0.0000       0.033665         0.9161
  30   0.0000       0.035226         0.9585
  31   0.0000       0.047299         1.2871

MULLIKEN ATOMIC CHARGES
-----------------------
   0 C :    0.656257
   1 C :   -0.576618
   2 C :   -0.317424
   3 C :   -0.321593
   4 C :   -0.766268
   5 N :   -0.689891
   6 N :   -0.514198
   7 H :    0.312232
   8 H :    0.198095
   9 H :    0.366753
  10 H :    0.201444
  11 H :    0.206244
  12 H :    0.348898
  13 H :    0.239945
  14 H :    0.238637
  15 H :    0.314123
  16 H :    0.103364
Sum of atomic charges:   -0.0000000

LOEWDIN ATOMIC CHARGES
----------------------
   0 C :   -0.479182
   1 C :    0.501521
   2 C :    0.268224
   3 C :    0.390119
   4 C :    0.887886
   5 N :    0.634518
   6 N :    0.874897
   7 H :   -0.266113
   8 H :   -0.271214
   9 H :   -0.313305
  10 H :   -0.300595
  11 H :   -0.267651
  12 H :   -0.275546
  13 H :   -0.286219
  14 H :   -0.286356
  15 H :   -0.322744
  16 H :   -0.488240

  Mayer bond orders larger than 0.100000
B(  0-C ,  4-C ) :   0.7128 B(  0-C ,  5-N ) :   1.4359 B(  0-C ,  6-N ) :   0.9794
B(  1-C ,  2-C ) :   1.0097 B(  1-C ,  3-C ) :   1.0358 B(  1-C ,  7-H ) :   0.8725
B(  1-C ,  8-H ) :   0.9284 B(  2-C ,  5-N ) :   0.8278 B(  2-C ,  9-H ) :   0.8844
B(  2-C , 10-H ) :   0.9401 B(  3-C ,  6-N ) :   0.6697 B(  3-C , 11-H ) :   0.9567
B(  3-C , 12-H ) :   0.8835 B(  4-C , 13-H ) :   0.9820 B(  4-C , 14-H ) :   1.0002
B(  4-C , 15-H ) :   0.9801 B(  5-N ,  6-N ) :   0.1701 B(  6-N , 16-H ) :   1.1613

MP2 TOTAL ENERGY:     -305.523644549 Eh
FINAL SINGLE POINT ENERGY      -305.523644548903

DIPOLE MOMENT
-------------
                                X             Y             Z
Electronic contribution:      0.76516      -0.63289      -0.19541
Nuclear contribution   :     -0.93983       1.89006       0.18020
                        -----------------------------------------
Total Dipole Moment    :     -0.17467       1.25717      -0.01521
                        -----------------------------------------
Magnitude (a.u.)       :      1.26934
Magnitude (Debye)      :      3.22640

Rotational constants in cm-1:     0.160430     0.081308     0.057675
Rotational constants in MHz :  4809.583134  2437.566288  1729.063899

                             ****ORCA TERMINATED NORMALLY****
TOTAL RUN TIME: 0 days 0 hours 42 minutes 23 seconds 313 msec
