                         Program Version 5.0.4 -  RELEASE  -
|  1> !ri-mp2 aug-cc-pvqz aug-cc-pvqz/c tightscf
|  2> %pal nprocs 16 end
|  3>
|  4> * xyz 0 1
|  5> C     -1.909658   -1.067465    0.000000
|  6> C      0.899358   -0.498996    1.255256
|  7> C      0.899358    1.663266    0.000000
|  8> C      0.899358   -0.498996   -1.255256
|  9> C     -1.169008    0.270451    0.000000
| 10> C      0.377490    0.217634    0.000000
| 11> H     -1.674987   -1.665724    0.881080
| 12> H     -2.987965   -0.901561    0.000000
| 13> H     -1.674987   -1.665724   -0.881080
| 14> H      0.598153   -1.546802    1.280112
| 15> H      0.527055   -0.021077    2.164092
| 16> H      1.990351   -0.471536    1.288745
| 17> H      0.553781    2.206619   -0.882017
| 18> H      0.553781    2.206619    0.882017
| 19> H      1.990950    1.686803    0.000000
| 20> H      0.598153   -1.546802   -1.280112
| 21> H      1.990351   -0.471536   -1.288745
| 22> H      0.527055   -0.021077   -2.164092
| 23> H     -1.486539    0.848219    0.873569
| 24> H     -1.486539    0.848219   -0.873569
| 25> *
| 26>
| 27>                          ****END OF INPUT****

CARTESIAN COORDINATES (ANGSTROEM)
---------------------------------
  C     -1.909658   -1.067465    0.000000
  C      0.899358   -0.498996    1.255256
  C      0.899358    1.663266    0.000000
  C      0.899358   -0.498996   -1.255256
  C     -1.169008    0.270451    0.000000
  C      0.377490    0.217634    0.000000
  H     -1.674987   -1.665724    0.881080
  H     -2.987965   -0.901561    0.000000
  H     -1.674987   -1.665724   -0.881080
  H      0.598153   -1.546802    1.280112
  H      0.527055   -0.021077    2.164092
  H      1.990351   -0.471536    1.288745
  H      0.553781    2.206619   -0.882017
  H      0.553781    2.206619    0.882017
  H      1.990950    1.686803    0.000000
  H      0.598153   -1.546802   -1.280112
  H      1.990351   -0.471536   -1.288745
  H      0.527055   -0.021077   -2.164092
  H     -1.486539    0.848219    0.873569
  H     -1.486539    0.848219   -0.873569

 Total Charge           Charge          ....    0
 Multiplicity           Mult            ....    1
 Number of Electrons    NEL             ....   50
 Basis Dimension        Dim             .... 1124

ORBITAL ENERGIES
----------------

  NO   OCC          E(Eh)            E(eV)
   0   2.0000     -11.228517      -305.5435
   1   2.0000     -11.212391      -305.1047
   2   2.0000     -11.206913      -304.9556
   3   2.0000     -11.204996      -304.9034
   4   2.0000     -11.204980      -304.9030
   5   2.0000     -11.204915      -304.9012
   6   2.0000      -1.105813       -30.0907
   7   2.0000      -0.995812       -27.0974
   8   2.0000      -0.927333       -25.2340
   9   2.0000      -0.927037       -25.2259
  10   2.0000      -0.849381       -23.1128
  11   2.0000      -0.722749       -19.6670
  12   2.0000      -0.622745       -16.9458
  13   2.0000      -0.622055       -16.9270
  14   2.0000      -0.595827       -16.2133
  15   2.0000      -0.580333       -15.7917
  16   2.0000      -0.550358       -14.9760
  17   2.0000      -0.530602       -14.4384
  18   2.0000      -0.524756       -14.2793
  19   2.0000      -0.509250       -13.8574
  20   2.0000      -0.500363       -13.6156
  21   2.0000      -0.485069       -13.1994
  22   2.0000      -0.447860       -12.1869
  23   2.0000      -0.445104       -12.1119
  24   2.0000      -0.437419       -11.9028
  25   0.0000       0.026927         0.7327
  26   0.0000       0.031030         0.8444
  27   0.0000       0.032500         0.8844
  28   0.0000       0.033194         0.9033
  29   0.0000       0.048341         1.3154

MULLIKEN ATOMIC CHARGES
-----------------------
   0 C :   -0.834605
   1 C :   -1.070475
   2 C :   -1.125325
   3 C :   -1.070476
   4 C :   -0.554827
   5 C :    1.479410
   6 H :    0.194344
   7 H :    0.263940
   8 H :    0.194343
   9 H :    0.220978
  10 H :    0.213825
  11 H :    0.258517
  12 H :    0.226291
  13 H :    0.226299
  14 H :    0.230297
  15 H :    0.220972
  16 H :    0.258517
  17 H :    0.213829
  18 H :    0.227075
  19 H :    0.227071
Sum of atomic charges:    0.0000000

LOEWDIN ATOMIC CHARGES
----------------------
   0 C :    0.938939
   1 C :    0.907750
   2 C :    0.901787
   3 C :    0.907750
   4 C :    0.498509
   5 C :   -0.293481
   6 H :   -0.289046
   7 H :   -0.275878
   8 H :   -0.289046
   9 H :   -0.285307
  10 H :   -0.265424
  11 H :   -0.271148
  12 H :   -0.270350
  13 H :   -0.270350
  14 H :   -0.272289
  15 H :   -0.285307
  16 H :   -0.271148
  17 H :   -0.265424
  18 H :   -0.275269
  19 H :   -0.275269

  Mayer bond orders larger than 0.100000
B(  0-C ,  4-C ) :   0.8483 B(  0-C ,  6-H ) :   0.9850 B(  0-C ,  7-H ) :   1.0134
B(  0-C ,  8-H ) :   0.9850 B(  1-C ,  2-C ) :   0.1458 B(  1-C ,  3-C ) :   0.1050
B(  1-C ,  5-C ) :   0.3910 B(  1-C ,  9-H ) :   1.0621 B(  1-C , 10-H ) :   1.0603
B(  1-C , 11-H ) :   1.0035 B(  2-C ,  3-C ) :   0.1458 B(  2-C ,  4-C ) :   0.1007
B(  2-C ,  5-C ) :   0.2777 B(  2-C , 12-H ) :   1.0646 B(  2-C , 13-H ) :   1.0646
B(  2-C , 14-H ) :   1.0386 B(  3-C ,  5-C ) :   0.3910 B(  3-C , 15-H ) :   1.0621
B(  3-C , 16-H ) :   1.0035 B(  3-C , 17-H ) :   1.0603 B(  4-C ,  5-C ) :   0.5871
B(  4-C ,  7-H ) :  -0.1070 B(  4-C , 18-H ) :   0.9551 B(  4-C , 19-H ) :   0.9551
B(  5-C ,  9-H ) :  -0.1206 B(  5-C , 10-H ) :  -0.1060 B(  5-C , 12-H ) :  -0.1424
B(  5-C , 13-H ) :  -0.1424 B(  5-C , 14-H ) :  -0.1114 B(  5-C , 15-H ) :  -0.1206
B(  5-C , 17-H ) :  -0.1060

MP2 TOTAL ENERGY:     -236.610622310 Eh
FINAL SINGLE POINT ENERGY      -236.610622310345

DIPOLE MOMENT
-------------
                                X             Y             Z
Electronic contribution:     -0.04049       0.56423      -0.00000
Nuclear contribution   :      0.02028      -0.56156       0.00000
                        -----------------------------------------
Total Dipole Moment    :     -0.02021       0.00267      -0.00000
                        -----------------------------------------
Magnitude (a.u.)       :      0.02038
Magnitude (Debye)      :      0.05181

Rotational constants in cm-1:     0.142933     0.082832     0.082545
Rotational constants in MHz :  4285.038442  2483.242815  2474.626663

                             ****ORCA TERMINATED NORMALLY****
TOTAL RUN TIME: 0 days 1 hours 6 minutes 9 seconds 484 msec
