                         Program Version 5.0.4 -  RELEASE  -
|  1> !ri-mp2 aug-cc-pvqz aug-cc-pvqz/c tightscf
|  2> %pal nprocs 16 end
|  3>
|  4> * xyz 0 1
|  5> F     -2.150096   -0.001053    0.020213
|  6> N     -0.814685    0.069525   -0.443341
|  7> N     -0.277930    1.215684    0.168577
|  8> N     -0.249750   -1.157396    0.094708
|  9> C      1.005130    1.204416    0.110976
| 10> C      1.127688   -1.139416    0.040064
| 11> C      1.779078    0.018424   -0.196713
| 12> H     -0.688110   -1.456788    0.966414
| 13> H      1.504722    2.099325    0.462256
| 14> H      1.610499   -2.086619    0.240445
| 15> H      2.848926    0.058329   -0.316594
| 16> *
| 17>
| 18>                          ****END OF INPUT****

CARTESIAN COORDINATES (ANGSTROEM)
---------------------------------
  F     -2.150096   -0.001053    0.020213
  N     -0.814685    0.069525   -0.443341
  N     -0.277930    1.215684    0.168577
  N     -0.249750   -1.157396    0.094708
  C      1.005130    1.204416    0.110976
  C      1.127688   -1.139416    0.040064
  C      1.779078    0.018424   -0.196713
  H     -0.688110   -1.456788    0.966414
  H      1.504722    2.099325    0.462256
  H      1.610499   -2.086619    0.240445
  H      2.848926    0.058329   -0.316594

 Total Charge           Charge          ....    0
 Multiplicity           Mult            ....    1
 Number of Electrons    NEL             ....   52
 Basis Dimension        Dim             ....  744

ORBITAL ENERGIES
----------------

  NO   OCC          E(Eh)            E(eV)
   0   2.0000     -26.309474      -715.9172
   1   2.0000     -15.729549      -428.0228
   2   2.0000     -15.632923      -425.3935
   3   2.0000     -15.601708      -424.5441
   4   2.0000     -11.319192      -308.0109
   5   2.0000     -11.303333      -307.5793
   6   2.0000     -11.249237      -306.1073
   7   2.0000      -1.621651       -44.1274
   8   2.0000      -1.363505       -37.1029
   9   2.0000      -1.233184       -33.5566
  10   2.0000      -1.111312       -30.2403
  11   2.0000      -0.980841       -26.6900
  12   2.0000      -0.901438       -24.5294
  13   2.0000      -0.777848       -21.1663
  14   2.0000      -0.763886       -20.7864
  15   2.0000      -0.735003       -20.0004
  16   2.0000      -0.691233       -18.8094
  17   2.0000      -0.667471       -18.1628
  18   2.0000      -0.641185       -17.4475
  19   2.0000      -0.612566       -16.6688
  20   2.0000      -0.595514       -16.2048
  21   2.0000      -0.570414       -15.5217
  22   2.0000      -0.506195       -13.7743
  23   2.0000      -0.450797       -12.2668
  24   2.0000      -0.432403       -11.7663
  25   2.0000      -0.339623        -9.2416
  26   0.0000       0.018509         0.5037
  27   0.0000       0.027205         0.7403
  28   0.0000       0.033917         0.9229
  29   0.0000       0.047034         1.2799
  30   0.0000       0.060542         1.6474

MULLIKEN ATOMIC CHARGES
-----------------------
   0 F :   -0.473691
   1 N :    0.302991
   2 N :   -0.426051
   3 N :   -0.387288
   4 C :   -0.099550
   5 C :   -0.182602
   6 C :   -0.525054
   7 H :    0.288111
   8 H :    0.566454
   9 H :    0.552177
  10 H :    0.384504
Sum of atomic charges:    0.0000000

LOEWDIN ATOMIC CHARGES
----------------------
   0 F :    0.501548
   1 N :   -0.410289
   2 N :    0.363469
   3 N :    0.624686
   4 C :   -0.009986
   5 C :    0.152658
   6 C :    0.331864
   7 H :   -0.534961
   8 H :   -0.360268
   9 H :   -0.308546
  10 H :   -0.350175

  Mayer bond orders larger than 0.100000
B(  0-F ,  1-N ) :   0.6499 B(  1-N ,  2-N ) :   0.8606 B(  1-N ,  3-N ) :   0.7953
B(  2-N ,  4-C ) :   1.6129 B(  3-N ,  5-C ) :   1.0782 B(  3-N ,  7-H ) :   0.8727
B(  4-C ,  5-C ) :  -0.1163 B(  4-C ,  6-C ) :   1.1180 B(  4-C ,  8-H ) :   0.6899
B(  5-C ,  6-C ) :   1.6080 B(  5-C ,  9-H ) :   0.7029 B(  6-C , 10-H ) :   0.8561

MP2 TOTAL ENERGY:     -380.132872992 Eh
FINAL SINGLE POINT ENERGY      -380.132872992413

DIPOLE MOMENT
-------------
                                X             Y             Z
Electronic contribution:     -5.56151       0.61928      -0.65495
Nuclear contribution   :      7.14118      -1.33708       1.28640
                        -----------------------------------------
Total Dipole Moment    :      1.57967      -0.71780       0.63145
                        -----------------------------------------
Magnitude (a.u.)       :      1.84643
Magnitude (Debye)      :      4.69326

Rotational constants in cm-1:     0.190021     0.092251     0.064577
Rotational constants in MHz :  5696.678475  2765.627831  1935.982893

                             ****ORCA TERMINATED NORMALLY****
TOTAL RUN TIME: 0 days 0 hours 24 minutes 21 seconds 968 msec
