                         Program Version 5.0.4 -  RELEASE  -
|  1> !ri-mp2 aug-cc-pvqz aug-cc-pvqz/c tightscf
|  2> %pal nprocs 16 end
|  3>
|  4> * xyz 0 1
|  5> C      0.054241    1.100477    1.268813
|  6> C      0.054241    1.100477   -1.268813
|  7> C     -0.409424    0.392082    0.000000
|  8> S      0.054241   -1.399668    0.000000
|  9> H     -0.309019    2.131146    1.280502
| 10> H     -0.310858    0.595967    2.161592
| 11> H      1.144294    1.131346    1.319556
| 12> H     -0.309019    2.131146   -1.280502
| 13> H     -0.310858    0.595967   -2.161592
| 14> H      1.144294    1.131346   -1.319556
| 15> H     -1.500071    0.339611    0.000000
| 16> H      1.389046   -1.220063    0.000000
| 17> *
| 18>
| 19>                          ****END OF INPUT****

CARTESIAN COORDINATES (ANGSTROEM)
---------------------------------
  C      0.054241    1.100477    1.268813
  C      0.054241    1.100477   -1.268813
  C     -0.409424    0.392082    0.000000
  S      0.054241   -1.399668    0.000000
  H     -0.309019    2.131146    1.280502
  H     -0.310858    0.595967    2.161592
  H      1.144294    1.131346    1.319556
  H     -0.309019    2.131146   -1.280502
  H     -0.310858    0.595967   -2.161592
  H      1.144294    1.131346   -1.319556
  H     -1.500071    0.339611    0.000000
  H      1.389046   -1.220063    0.000000

 Total Charge           Charge          ....    0
 Multiplicity           Mult            ....    1
 Number of Electrons    NEL             ....   42
 Basis Dimension        Dim             ....  692

ORBITAL ENERGIES
----------------

  NO   OCC          E(Eh)            E(eV)
   0   2.0000     -91.944064     -2501.9252
   1   2.0000     -11.269163      -306.6495
   2   2.0000     -11.222745      -305.3864
   3   2.0000     -11.222728      -305.3860
   4   2.0000      -8.946450      -243.4453
   5   2.0000      -6.628021      -180.3576
   6   2.0000      -6.627033      -180.3307
   7   2.0000      -6.626202      -180.3081
   8   2.0000      -1.093257       -29.7490
   9   2.0000      -0.942912       -25.6579
  10   2.0000      -0.939673       -25.5698
  11   2.0000      -0.787334       -21.4244
  12   2.0000      -0.632426       -17.2092
  13   2.0000      -0.604163       -16.4401
  14   2.0000      -0.575786       -15.6679
  15   2.0000      -0.546951       -14.8833
  16   2.0000      -0.531242       -14.4558
  17   2.0000      -0.498797       -13.5730
  18   2.0000      -0.482880       -13.1398
  19   2.0000      -0.434283       -11.8175
  20   2.0000      -0.354041        -9.6339
  21   0.0000       0.025977         0.7069
  22   0.0000       0.033229         0.9042
  23   0.0000       0.035311         0.9609
  24   0.0000       0.038517         1.0481
  25   0.0000       0.055330         1.5056

MULLIKEN ATOMIC CHARGES
-----------------------
   0 C :   -0.871065
   1 C :   -0.871065
   2 C :    0.013266
   3 S :   -0.172677
   4 H :    0.235357
   5 H :    0.320009
   6 H :    0.239343
   7 H :    0.235357
   8 H :    0.320009
   9 H :    0.239343
  10 H :    0.304307
  11 H :    0.007817
Sum of atomic charges:   -0.0000000

LOEWDIN ATOMIC CHARGES
----------------------
   0 C :    0.823071
   1 C :    0.823071
   2 C :   -0.304794
   3 S :    1.593327
   4 H :   -0.284970
   5 H :   -0.304289
   6 H :   -0.302045
   7 H :   -0.284970
   8 H :   -0.304289
   9 H :   -0.302045
  10 H :   -0.384118
  11 H :   -0.767949

  Mayer bond orders larger than 0.100000
B(  0-C ,  2-C ) :   0.8642 B(  0-C ,  4-H ) :   0.9475 B(  0-C ,  5-H ) :   0.9363
B(  0-C ,  6-H ) :   0.9573 B(  1-C ,  2-C ) :   0.8642 B(  1-C ,  7-H ) :   0.9475
B(  1-C ,  8-H ) :   0.9363 B(  1-C ,  9-H ) :   0.9573 B(  2-C ,  3-S ) :   0.8485
B(  2-C , 10-H ) :   0.8305 B(  3-S , 11-H ) :   1.0634

MP2 TOTAL ENERGY:     -516.635266623 Eh
FINAL SINGLE POINT ENERGY      -516.635266623037

DIPOLE MOMENT
-------------
                                X             Y             Z
Electronic contribution:     -0.87070      -6.40223       0.00000
Nuclear contribution   :      0.96959       7.12555       0.00000
                        -----------------------------------------
Total Dipole Moment    :      0.09889       0.72332       0.00000
                        -----------------------------------------
Magnitude (a.u.)       :      0.73005
Magnitude (Debye)      :      1.85564

Rotational constants in cm-1:     0.262889     0.144566     0.103867
Rotational constants in MHz :  7881.203601  4333.974024  3113.844635

                             ****ORCA TERMINATED NORMALLY****
TOTAL RUN TIME: 0 days 0 hours 12 minutes 42 seconds 789 msec
