                         Program Version 5.0.4 -  RELEASE  -
|  1> !ri-mp2 aug-cc-pvqz aug-cc-pvqz/c tightscf
|  2> %pal nprocs 16 end
|  3>
|  4> * xyz 0 1
|  5> C     -2.165229   -0.019777   -0.016641
|  6> C      0.534517    1.417395   -0.549756
|  7> C      1.641044   -0.836748   -0.424661
|  8> C     -0.864975   -0.710060   -0.425335
|  9> C      0.429999   -0.005131    0.007651
| 10> O      0.376349    0.043462    1.448394
| 11> H     -3.021673   -0.639001   -0.286612
| 12> H     -2.292415    0.942994   -0.512746
| 13> H     -2.195466    0.147199    1.059086
| 14> H      0.507717    1.416045   -1.640747
| 15> H     -0.278903    2.041128   -0.183517
| 16> H      1.476800    1.877169   -0.242684
| 17> H      1.695208   -0.921627   -1.511210
| 18> H      2.569524   -0.374559   -0.081065
| 19> H      1.582438   -1.839278   -0.001025
| 20> H     -0.835262   -0.834371   -1.510827
| 21> H     -0.842950   -1.714358    0.004098
| 22> H      1.172045    0.476886    1.772546
| 23> *
| 24>
| 25>                          ****END OF INPUT****

CARTESIAN COORDINATES (ANGSTROEM)
---------------------------------
  C     -2.165229   -0.019777   -0.016641
  C      0.534517    1.417395   -0.549756
  C      1.641044   -0.836748   -0.424661
  C     -0.864975   -0.710060   -0.425335
  C      0.429999   -0.005131    0.007651
  O      0.376349    0.043462    1.448394
  H     -3.021673   -0.639001   -0.286612
  H     -2.292415    0.942994   -0.512746
  H     -2.195466    0.147199    1.059086
  H      0.507717    1.416045   -1.640747
  H     -0.278903    2.041128   -0.183517
  H      1.476800    1.877169   -0.242684
  H      1.695208   -0.921627   -1.511210
  H      2.569524   -0.374559   -0.081065
  H      1.582438   -1.839278   -0.001025
  H     -0.835262   -0.834371   -1.510827
  H     -0.842950   -1.714358    0.004098
  H      1.172045    0.476886    1.772546

 Total Charge           Charge          ....    0
 Multiplicity           Mult            ....    1
 Number of Electrons    NEL             ....   50
 Basis Dimension        Dim             .... 1032

ORBITAL ENERGIES
----------------

  NO   OCC          E(Eh)            E(eV)
   0   2.0000     -20.546021      -559.0856
   1   2.0000     -11.282973      -307.0253
   2   2.0000     -11.213796      -305.1429
   3   2.0000     -11.212878      -305.1179
   4   2.0000     -11.212500      -305.1076
   5   2.0000     -11.202622      -304.8388
   6   2.0000      -1.352118       -36.7930
   7   2.0000      -1.073124       -29.2012
   8   2.0000      -0.992787       -27.0151
   9   2.0000      -0.940309       -25.5871
  10   2.0000      -0.860078       -23.4039
  11   2.0000      -0.761053       -20.7093
  12   2.0000      -0.669410       -18.2156
  13   2.0000      -0.632148       -17.2016
  14   2.0000      -0.607032       -16.5182
  15   2.0000      -0.585104       -15.9215
  16   2.0000      -0.574434       -15.6311
  17   2.0000      -0.553678       -15.0663
  18   2.0000      -0.535312       -14.5666
  19   2.0000      -0.512863       -13.9557
  20   2.0000      -0.504203       -13.7201
  21   2.0000      -0.489370       -13.3164
  22   2.0000      -0.477511       -12.9937
  23   2.0000      -0.448280       -12.1983
  24   2.0000      -0.430026       -11.7016
  25   0.0000       0.025120         0.6835
  26   0.0000       0.031130         0.8471
  27   0.0000       0.032503         0.8845
  28   0.0000       0.036184         0.9846
  29   0.0000       0.048588         1.3222

MULLIKEN ATOMIC CHARGES
-----------------------
   0 C :   -0.835940
   1 C :   -1.072347
   2 C :   -1.028216
   3 C :   -0.675429
   4 C :    1.741632
   5 O :   -1.062076
   6 H :    0.264959
   7 H :    0.204008
   8 H :    0.215398
   9 H :    0.221237
  10 H :    0.277263
  11 H :    0.267930
  12 H :    0.218998
  13 H :    0.243357
  14 H :    0.272581
  15 H :    0.251209
  16 H :    0.214376
  17 H :    0.281059
Sum of atomic charges:    0.0000000

LOEWDIN ATOMIC CHARGES
----------------------
   0 C :    0.930930
   1 C :    0.902959
   2 C :    0.900387
   3 C :    0.473739
   4 C :   -0.617140
   5 O :    1.296218
   6 H :   -0.279563
   7 H :   -0.293882
   8 H :   -0.288791
   9 H :   -0.268145
  10 H :   -0.294957
  11 H :   -0.280052
  12 H :   -0.273569
  13 H :   -0.281199
  14 H :   -0.279894
  15 H :   -0.275576
  16 H :   -0.283667
  17 H :   -0.787798

  Mayer bond orders larger than 0.100000
B(  0-C ,  3-C ) :   0.9060 B(  0-C ,  6-H ) :   1.0073 B(  0-C ,  7-H ) :   0.9720
B(  0-C ,  8-H ) :   0.9674 B(  1-C ,  2-C ) :   0.1135 B(  1-C ,  4-C ) :   0.5896
B(  1-C ,  5-O ) :   0.1587 B(  1-C ,  9-H ) :   1.0210 B(  1-C , 10-H ) :   0.9976
B(  1-C , 11-H ) :   0.9603 B(  2-C ,  4-C ) :   0.5128 B(  2-C ,  5-O ) :   0.1237
B(  2-C , 12-H ) :   1.0276 B(  2-C , 13-H ) :   1.0154 B(  2-C , 14-H ) :   0.9857
B(  3-C ,  4-C ) :   0.5260 B(  3-C ,  5-O ) :   0.2398 B(  3-C , 15-H ) :   0.9364
B(  3-C , 16-H ) :   0.9646 B(  4-C ,  5-O ) :  -0.3072 B(  5-O , 17-H ) :   0.9683

MP2 TOTAL ENERGY:     -272.523892661 Eh
FINAL SINGLE POINT ENERGY      -272.523892661427

DIPOLE MOMENT
-------------
                                X             Y             Z
Electronic contribution:      0.93673      -0.40870       2.89941
Nuclear contribution   :     -0.48683       0.61670      -3.31498
                        -----------------------------------------
Total Dipole Moment    :      0.44990       0.20800      -0.41557
                        -----------------------------------------
Magnitude (a.u.)       :      0.64682
Magnitude (Debye)      :      1.64409

Rotational constants in cm-1:     0.151175     0.086089     0.084127
Rotational constants in MHz :  4532.098624  2580.876574  2522.068819

                             ****ORCA TERMINATED NORMALLY****
TOTAL RUN TIME: 0 days 0 hours 44 minutes 41 seconds 747 msec
