                         Program Version 5.0.4 -  RELEASE  -
|  1> !ri-mp2 aug-cc-pvqz aug-cc-pvqz/c tightscf
|  2> %pal nprocs 16 end
|  3>
|  4> * xyz 0 1
|  5> F     -0.777482   -0.846334    1.091554
|  6> F     -0.777487   -0.846342   -1.091545
|  7> O      2.802791    0.007738   -0.000006
|  8> N      0.529576    0.669815   -0.000003
|  9> C     -0.715131   -0.014559    0.000002
| 10> C     -1.891632    0.924090    0.000000
| 11> C      1.670848    0.263476   -0.000005
| 12> H     -2.809445    0.341143    0.000005
| 13> H     -1.854854    1.552140   -0.887058
| 14> H     -1.854850    1.552146    0.887056
| 15> *
| 16>
| 17>                          ****END OF INPUT****

CARTESIAN COORDINATES (ANGSTROEM)
---------------------------------
  F     -0.777482   -0.846334    1.091554
  F     -0.777487   -0.846342   -1.091545
  O      2.802791    0.007738   -0.000006
  N      0.529576    0.669815   -0.000003
  C     -0.715131   -0.014559    0.000002
  C     -1.891632    0.924090    0.000000
  C      1.670848    0.263476   -0.000005
  H     -2.809445    0.341143    0.000005
  H     -1.854854    1.552140   -0.887058
  H     -1.854850    1.552146    0.887056

 Total Charge           Charge          ....    0
 Multiplicity           Mult            ....    1
 Number of Electrons    NEL             ....   54
 Basis Dimension        Dim             ....  698

ORBITAL ENERGIES
----------------

  NO   OCC          E(Eh)            E(eV)
   0   2.0000     -26.321806      -716.2528
   1   2.0000     -26.321787      -716.2522
   2   2.0000     -20.640312      -561.6514
   3   2.0000     -15.607355      -424.6977
   4   2.0000     -11.479606      -312.3760
   5   2.0000     -11.434149      -311.1390
   6   2.0000     -11.253782      -306.2310
   7   2.0000      -1.677286       -45.6413
   8   2.0000      -1.611498       -43.8511
   9   2.0000      -1.496286       -40.7160
  10   2.0000      -1.304391       -35.4943
  11   2.0000      -1.076067       -29.2813
  12   2.0000      -0.932256       -25.3680
  13   2.0000      -0.834313       -22.7028
  14   2.0000      -0.784319       -21.3424
  15   2.0000      -0.756708       -20.5911
  16   2.0000      -0.752608       -20.4795
  17   2.0000      -0.693133       -18.8611
  18   2.0000      -0.686940       -18.6926
  19   2.0000      -0.665910       -18.1203
  20   2.0000      -0.661826       -18.0092
  21   2.0000      -0.643868       -17.5205
  22   2.0000      -0.588402       -16.0112
  23   2.0000      -0.584932       -15.9168
  24   2.0000      -0.565762       -15.3952
  25   2.0000      -0.493139       -13.4190
  26   2.0000      -0.471640       -12.8340
  27   0.0000       0.023298         0.6340
  28   0.0000       0.039323         1.0700
  29   0.0000       0.039392         1.0719
  30   0.0000       0.047170         1.2836
  31   0.0000       0.066281         1.8036

MULLIKEN ATOMIC CHARGES
-----------------------
   0 F :   -0.657859
   1 F :   -0.657859
   2 O :   -0.578953
   3 N :   -0.842467
   4 C :    1.670262
   5 C :   -0.968064
   6 C :    1.085390
   7 H :    0.339390
   8 H :    0.305081
   9 H :    0.305079
Sum of atomic charges:    0.0000000

LOEWDIN ATOMIC CHARGES
----------------------
   0 F :    0.762681
   1 F :    0.762680
   2 O :    0.630176
   3 N :    0.417324
   4 C :   -1.767471
   5 C :    0.827645
   6 C :   -0.727286
   7 H :   -0.304618
   8 H :   -0.300566
   9 H :   -0.300564

  Mayer bond orders larger than 0.100000
B(  0-F ,  4-C ) :   0.2534 B(  1-F ,  4-C ) :   0.2534 B(  2-O ,  3-N ) :   0.2714
B(  2-O ,  6-C ) :   1.7307 B(  3-N ,  4-C ) :   0.8144 B(  3-N ,  6-C ) :   2.1128
B(  4-C ,  5-C ) :   0.9364 B(  5-C ,  7-H ) :   0.9004 B(  5-C ,  8-H ) :   0.9099
B(  5-C ,  9-H ) :   0.9099

MP2 TOTAL ENERGY:     -445.281557117 Eh
FINAL SINGLE POINT ENERGY      -445.281557116549

DIPOLE MOMENT
-------------
                                X             Y             Z
Electronic contribution:      3.93469      -4.18637       0.00001
Nuclear contribution   :     -4.67600       4.85122      -0.00001
                        -----------------------------------------
Total Dipole Moment    :     -0.74131       0.66485      -0.00000
                        -----------------------------------------
Magnitude (a.u.)       :      0.99577
Magnitude (Debye)      :      2.53105

Rotational constants in cm-1:     0.175875     0.056742     0.056338
Rotational constants in MHz :  5272.614273  1701.094107  1688.960875

                             ****ORCA TERMINATED NORMALLY****
TOTAL RUN TIME: 0 days 0 hours 9 minutes 43 seconds 474 msec
