                         Program Version 5.0.4 -  RELEASE  -
|  1> !ri-mp2 aug-cc-pvqz aug-cc-pvqz/c tightscf
|  2> %pal nprocs 16 end
|  3>
|  4> * xyz 0 1
|  5> C     -0.001868   -1.820771    0.000000
|  6> C     -1.182467   -1.087059    0.000000
|  7> C      1.179811    0.108531    0.000000
|  8> C      0.000000    0.858405    0.000000
|  9> C      0.008652    2.358272    0.000000
| 10> N      1.186439   -1.221482    0.000000
| 11> N     -1.186506    0.242772    0.000000
| 12> H     -0.015053   -2.903968    0.000000
| 13> H     -2.145893   -1.583765    0.000000
| 14> H      2.144697    0.602719    0.000000
| 15> H     -0.515539    2.739063    0.877425
| 16> H      1.023030    2.753583    0.000000
| 17> H     -0.515539    2.739063   -0.877425
| 18> *
| 19>
| 20>                          ****END OF INPUT****

CARTESIAN COORDINATES (ANGSTROEM)
---------------------------------
  C     -0.001868   -1.820771    0.000000
  C     -1.182467   -1.087059    0.000000
  C      1.179811    0.108531    0.000000
  C      0.000000    0.858405    0.000000
  C      0.008652    2.358272    0.000000
  N      1.186439   -1.221482    0.000000
  N     -1.186506    0.242772    0.000000
  H     -0.015053   -2.903968    0.000000
  H     -2.145893   -1.583765    0.000000
  H      2.144697    0.602719    0.000000
  H     -0.515539    2.739063    0.877425
  H      1.023030    2.753583    0.000000
  H     -0.515539    2.739063   -0.877425

 Total Charge           Charge          ....    0
 Multiplicity           Mult            ....    1
 Number of Electrons    NEL             ....   50
 Basis Dimension        Dim             ....  836

ORBITAL ENERGIES
----------------

  NO   OCC          E(Eh)            E(eV)
   0   2.0000     -15.587486      -424.1570
   1   2.0000     -15.582283      -424.0155
   2   2.0000     -11.287574      -307.1505
   3   2.0000     -11.279875      -306.9410
   4   2.0000     -11.275302      -306.8166
   5   2.0000     -11.275072      -306.8103
   6   2.0000     -11.231669      -305.6293
   7   2.0000      -1.306764       -35.5589
   8   2.0000      -1.217528       -33.1306
   9   2.0000      -1.073656       -29.2157
  10   2.0000      -0.973409       -26.4878
  11   2.0000      -0.896005       -24.3815
  12   2.0000      -0.854298       -23.2466
  13   2.0000      -0.713551       -19.4167
  14   2.0000      -0.709868       -19.3165
  15   2.0000      -0.656502       -17.8643
  16   2.0000      -0.603423       -16.4200
  17   2.0000      -0.592048       -16.1104
  18   2.0000      -0.560072       -15.2403
  19   2.0000      -0.547553       -14.8997
  20   2.0000      -0.539928       -14.6922
  21   2.0000      -0.492601       -13.4043
  22   2.0000      -0.430916       -11.7258
  23   2.0000      -0.405054       -11.0221
  24   2.0000      -0.347830        -9.4649
  25   0.0000       0.025283         0.6880
  26   0.0000       0.028628         0.7790
  27   0.0000       0.033451         0.9103
  28   0.0000       0.041735         1.1357
  29   0.0000       0.042329         1.1518

MULLIKEN ATOMIC CHARGES
-----------------------
   0 C :   -0.136591
   1 C :   -0.439337
   2 C :   -0.043746
   3 C :    0.255422
   4 C :   -0.702266
   5 N :   -0.750259
   6 N :   -0.489774
   7 H :    0.513496
   8 H :    0.484746
   9 H :    0.538497
  10 H :    0.270435
  11 H :    0.228940
  12 H :    0.270435
Sum of atomic charges:   -0.0000000

LOEWDIN ATOMIC CHARGES
----------------------
   0 C :    0.068741
   1 C :    0.075119
   2 C :    0.076491
   3 C :   -0.349080
   4 C :    0.889396
   5 N :    0.593016
   6 N :    0.604788
   7 H :   -0.356975
   8 H :   -0.353135
   9 H :   -0.353250
  10 H :   -0.291581
  11 H :   -0.311948
  12 H :   -0.291581

  Mayer bond orders larger than 0.100000
B(  0-C ,  1-C ) :   1.2459 B(  0-C ,  5-N ) :   1.2674 B(  0-C ,  7-H ) :   0.8040
B(  1-C ,  2-C ) :   0.1105 B(  1-C ,  5-N ) :   0.1594 B(  1-C ,  6-N ) :   1.1723
B(  1-C ,  8-H ) :   0.8648 B(  2-C ,  3-C ) :   1.2472 B(  2-C ,  5-N ) :   0.9915
B(  2-C ,  9-H ) :   0.7658 B(  3-C ,  4-C ) :   0.7260 B(  3-C ,  5-N ) :   0.1370
B(  3-C ,  6-N ) :   0.9247 B(  3-C , 11-H ) :  -0.1138 B(  4-C , 10-H ) :   0.9515
B(  4-C , 11-H ) :   1.0608 B(  4-C , 12-H ) :   0.9515 B(  5-N ,  7-H ) :  -0.1105
B(  5-N ,  9-H ) :  -0.1370 B(  6-N ,  8-H ) :  -0.1076

MP2 TOTAL ENERGY:     -303.123974151 Eh
FINAL SINGLE POINT ENERGY      -303.123974151301

DIPOLE MOMENT
-------------
                                X             Y             Z
Electronic contribution:     -0.02604      -4.10047       0.00000
Nuclear contribution   :     -0.02424       4.33111       0.00000
                        -----------------------------------------
Total Dipole Moment    :     -0.05028       0.23064       0.00000
                        -----------------------------------------
Magnitude (a.u.)       :      0.23606
Magnitude (Debye)      :      0.60001

Rotational constants in cm-1:     0.197584     0.090101     0.062595
Rotational constants in MHz :  5923.431919  2701.171629  1876.564863

                             ****ORCA TERMINATED NORMALLY****
TOTAL RUN TIME: 0 days 0 hours 24 minutes 38 seconds 506 msec
