                         Program Version 5.0.4 -  RELEASE  -
|  1> !ri-mp2 aug-cc-pvqz aug-cc-pvqz/c tightscf
|  2> %pal nprocs 16 end
|  3>
|  4> * xyz 0 1
|  5> C    -1.470654    0.825217    0.180286
|  6> C    -1.553390   -0.662462    0.294602
|  7> C    -0.306511    1.283031   -0.252180
|  8> N    -0.356943   -1.153514   -0.388425
|  9> O     1.719592    0.003041    0.864117
| 10> S     0.944753   -0.019129   -0.414780
| 11> H    -2.309000    1.451695    0.454288
| 12> H    -1.613318   -0.957897    1.349242
| 13> H    -2.442883   -1.050971   -0.208260
| 14> H     0.004141    2.307754   -0.379815
| 15> H    -0.029788   -2.068961   -0.109186
| 16> *
| 17>
| 18>                          ****END OF INPUT****

CARTESIAN COORDINATES (ANGSTROEM)
---------------------------------
  C     -1.470654    0.825217    0.180286
  C     -1.553390   -0.662462    0.294602
  C     -0.306511    1.283031   -0.252180
  N     -0.356943   -1.153514   -0.388425
  O      1.719592    0.003041    0.864117
  S      0.944753   -0.019129   -0.414780
  H     -2.309000    1.451695    0.454288
  H     -1.613318   -0.957897    1.349242
  H     -2.442883   -1.050971   -0.208260
  H      0.004141    2.307754   -0.379815
  H     -0.029788   -2.068961   -0.109186

 Total Charge           Charge          ....    0
 Multiplicity           Mult            ....    1
 Number of Electrons    NEL             ....   54
 Basis Dimension        Dim             ....  714

ORBITAL ENERGIES
----------------

  NO   OCC          E(Eh)            E(eV)
   0   2.0000     -92.093978     -2506.0045
   1   2.0000     -20.511465      -558.1453
   2   2.0000     -15.588377      -424.1813
   3   2.0000     -11.288388      -307.1727
   4   2.0000     -11.272416      -306.7380
   5   2.0000     -11.266728      -306.5832
   6   2.0000      -9.076030      -246.9713
   7   2.0000      -6.758220      -183.9005
   8   2.0000      -6.757601      -183.8837
   9   2.0000      -6.756159      -183.8444
  10   2.0000      -1.350963       -36.7616
  11   2.0000      -1.236807       -33.6552
  12   2.0000      -1.080287       -29.3961
  13   2.0000      -0.991679       -26.9850
  14   2.0000      -0.845538       -23.0082
  15   2.0000      -0.782589       -21.2953
  16   2.0000      -0.724920       -19.7261
  17   2.0000      -0.656774       -17.8717
  18   2.0000      -0.613712       -16.7000
  19   2.0000      -0.600545       -16.3417
  20   2.0000      -0.588225       -16.0064
  21   2.0000      -0.557441       -15.1688
  22   2.0000      -0.549271       -14.9464
  23   2.0000      -0.460093       -12.5198
  24   2.0000      -0.410041       -11.1578
  25   2.0000      -0.398353       -10.8397
  26   2.0000      -0.381497       -10.3811
  27   0.0000       0.020101         0.5470
  28   0.0000       0.029388         0.7997
  29   0.0000       0.034513         0.9392
  30   0.0000       0.038395         1.0448
  31   0.0000       0.048212         1.3119

MULLIKEN ATOMIC CHARGES
-----------------------
   0 C :   -0.357058
   1 C :   -0.303815
   2 C :   -0.680571
   3 N :   -0.582855
   4 O :   -1.123070
   5 S :    1.268024
   6 H :    0.494792
   7 H :    0.274057
   8 H :    0.327739
   9 H :    0.445843
  10 H :    0.236914
Sum of atomic charges:   -0.0000000

LOEWDIN ATOMIC CHARGES
----------------------
   0 C :    0.277215
   1 C :    0.243047
   2 C :    0.155235
   3 N :    0.598978
   4 O :    0.050405
   5 S :    0.533351
   6 H :   -0.303351
   7 H :   -0.278369
   8 H :   -0.296759
   9 H :   -0.386463
  10 H :   -0.593289

  Mayer bond orders larger than 0.100000
B(  0-C ,  1-C ) :   0.9498 B(  0-C ,  2-C ) :   1.7405 B(  0-C ,  6-H ) :   0.7344
B(  1-C ,  3-N ) :   0.9172 B(  1-C ,  7-H ) :   0.8981 B(  1-C ,  8-H ) :   0.8954
B(  2-C ,  5-S ) :   0.9789 B(  2-C ,  9-H ) :   0.8321 B(  3-N ,  5-S ) :   0.8789
B(  3-N , 10-H ) :   0.9334 B(  4-O ,  5-S ) :   1.3128

MP2 TOTAL ENERGY:     -644.612026614 Eh
FINAL SINGLE POINT ENERGY      -644.612026614305

DIPOLE MOMENT
-------------
                                X             Y             Z
Electronic contribution:      4.64986       0.30196      -1.48821
Nuclear contribution   :     -6.28815      -0.31909       1.11153
                        -----------------------------------------
Total Dipole Moment    :     -1.63830      -0.01713      -0.37669
                        -----------------------------------------
Magnitude (a.u.)       :      1.68113
Magnitude (Debye)      :      4.27309

Rotational constants in cm-1:     0.188034     0.098350     0.079060
Rotational constants in MHz :  5637.123709  2948.453800  2370.166294

                             ****ORCA TERMINATED NORMALLY****
TOTAL RUN TIME: 0 days 0 hours 15 minutes 25 seconds 544 msec
