                         Program Version 5.0.4 -  RELEASE  -
|  1> !ri-mp2 aug-cc-pvqz aug-cc-pvqz/c tightscf
|  2> %pal nprocs 16 end
|  3>
|  4> * xyz 0 1
|  5> O     -0.353454   -1.104461    0.000000
|  6> N      0.000000    1.089677    0.000000
|  7> C     -1.093179    0.134053    0.000000
|  8> C      0.952187   -0.943381    0.000000
|  9> C      1.214335    0.602031    0.000000
| 10> H     -0.198428    2.081953    0.000000
| 11> H     -1.707000    0.184886    0.898569
| 12> H     -1.707000    0.184886   -0.898569
| 13> *
| 14>
| 15>                          ****END OF INPUT****

CARTESIAN COORDINATES (ANGSTROEM)
---------------------------------
  O     -0.353454   -1.104461    0.000000
  N      0.000000    1.089677    0.000000
  C     -1.093179    0.134053    0.000000
  C      0.952187   -0.943381    0.000000
  C      1.214335    0.602031    0.000000
  H     -0.198428    2.081953    0.000000
  H     -1.707000    0.184886    0.898569
  H     -1.707000    0.184886   -0.898569

 Total Charge           Charge          ....    0
 Multiplicity           Mult            ....    1
 Number of Electrons    NEL             ....   36
 Basis Dimension        Dim             ....  538

ORBITAL ENERGIES
----------------

  NO   OCC          E(Eh)            E(eV)
   0   2.0000     -20.645973      -561.8055
   1   2.0000     -15.645409      -425.7332
   2   2.0000     -11.361297      -309.1566
   3   2.0000     -11.304603      -307.6139
   4   2.0000     -11.264943      -306.5347
   5   2.0000      -1.483527       -40.3688
   6   2.0000      -1.286824       -35.0163
   7   2.0000      -1.032174       -28.0869
   8   2.0000      -0.886335       -24.1184
   9   2.0000      -0.822522       -22.3820
  10   2.0000      -0.726826       -19.7779
  11   2.0000      -0.722250       -19.6534
  12   2.0000      -0.646022       -17.5791
  13   2.0000      -0.591884       -16.1060
  14   2.0000      -0.552916       -15.0456
  15   2.0000      -0.494367       -13.4524
  16   2.0000      -0.382757       -10.4154
  17   2.0000      -0.359965        -9.7951
  18   0.0000       0.012823         0.3489
  19   0.0000       0.028835         0.7846
  20   0.0000       0.032364         0.8807
  21   0.0000       0.048514         1.3201
  22   0.0000       0.056001         1.5239

MULLIKEN ATOMIC CHARGES
-----------------------
   0 O :   -0.585474
   1 N :   -0.398820
   2 C :    0.040479
   3 C :    0.100617
   4 C :   -0.086533
   5 H :    0.269900
   6 H :    0.329916
   7 H :    0.329916
Sum of atomic charges:    0.0000000

LOEWDIN ATOMIC CHARGES
----------------------
   0 O :    0.650453
   1 N :    0.613368
   2 C :    0.024855
   3 C :   -0.214130
   4 C :    0.021596
   5 H :   -0.504392
   6 H :   -0.295875
   7 H :   -0.295875

  Mayer bond orders larger than 0.100000
B(  0-O ,  2-C ) :   0.7156 B(  0-O ,  3-C ) :   1.1336 B(  1-N ,  2-C ) :   0.8187
B(  1-N ,  4-C ) :   1.3974 B(  1-N ,  5-H ) :   0.9338 B(  2-C ,  6-H ) :   0.8739
B(  2-C ,  7-H ) :   0.8739 B(  3-C ,  4-C ) :   0.7915

MP2 TOTAL ENERGY:     -245.522355587 Eh
FINAL SINGLE POINT ENERGY      -245.522355587058

DIPOLE MOMENT
-------------
                                X             Y             Z
Electronic contribution:      1.48488      -1.18972      -0.00000
Nuclear contribution   :     -3.54191       2.38938       0.00000
                        -----------------------------------------
Total Dipole Moment    :     -2.05704       1.19966      -0.00000
                        -----------------------------------------
Magnitude (a.u.)       :      2.38130
Magnitude (Debye)      :      6.05278

Rotational constants in cm-1:     0.324984     0.291537     0.158377
Rotational constants in MHz :  9742.760239  8740.070592  4748.020409

                             ****ORCA TERMINATED NORMALLY****
TOTAL RUN TIME: 0 days 0 hours 6 minutes 9 seconds 710 msec
