                         Program Version 5.0.4 -  RELEASE  -
|  1> !ri-mp2 aug-cc-pvqz aug-cc-pvqz/c tightscf
|  2> %pal nprocs 16 end
|  3>
|  4> * xyz 0 1
|  5> C      0.033256    1.911012   -0.006826
|  6> H     -0.986044    2.108323   -0.337943
|  7> H      0.093132    2.170909    1.052977
|  8> H      0.697112    2.582639   -0.552731
|  9> S     -2.221681   -0.406315   -0.170182
| 10> H     -2.696542   -1.507291    0.437978
| 11> C     -0.500845   -0.518317    0.493893
| 12> H     -0.520646   -0.291581    1.560399
| 13> H     -0.169368   -1.544432    0.361547
| 14> C      0.437737    0.451031   -0.231891
| 15> H      0.370711    0.237349   -1.303989
| 16> C      2.508461   -1.112816   -0.216529
| 17> H      3.564281   -1.156476    0.053666
| 18> H      2.018303   -1.959968    0.264207
| 19> H      2.437887   -1.258057   -1.296481
| 20> C      1.899038    0.226212    0.199414
| 21> H      2.499117    1.032331   -0.230492
| 22> H      1.973065    0.344573    1.285406
| 23> *
| 24>
| 25>                          ****END OF INPUT****

CARTESIAN COORDINATES (ANGSTROEM)
---------------------------------
  C      0.033256    1.911012   -0.006826
  H     -0.986044    2.108323   -0.337943
  H      0.093132    2.170909    1.052977
  H      0.697112    2.582639   -0.552731
  S     -2.221681   -0.406315   -0.170182
  H     -2.696542   -1.507291    0.437978
  C     -0.500845   -0.518317    0.493893
  H     -0.520646   -0.291581    1.560399
  H     -0.169368   -1.544432    0.361547
  C      0.437737    0.451031   -0.231891
  H      0.370711    0.237349   -1.303989
  C      2.508461   -1.112816   -0.216529
  H      3.564281   -1.156476    0.053666
  H      2.018303   -1.959968    0.264207
  H      2.437887   -1.258057   -1.296481
  C      1.899038    0.226212    0.199414
  H      2.499117    1.032331   -0.230492
  H      1.973065    0.344573    1.285406

 Total Charge           Charge          ....    0
 Multiplicity           Mult            ....    1
 Number of Electrons    NEL             ....   58
 Basis Dimension        Dim             .... 1036

ORBITAL ENERGIES
----------------

  NO   OCC          E(Eh)            E(eV)
   0   2.0000     -91.944875     -2501.9473
   1   2.0000     -11.256156      -306.2956
   2   2.0000     -11.234493      -305.7061
   3   2.0000     -11.223343      -305.4027
   4   2.0000     -11.215706      -305.1949
   5   2.0000     -11.212189      -305.0992
   6   2.0000      -8.947089      -243.4627
   7   2.0000      -6.628677      -180.3755
   8   2.0000      -6.627773      -180.3509
   9   2.0000      -6.626855      -180.3259
  10   2.0000      -1.108158       -30.1545
  11   2.0000      -1.019301       -27.7366
  12   2.0000      -0.976735       -26.5783
  13   2.0000      -0.888355       -24.1734
  14   2.0000      -0.845758       -23.0142
  15   2.0000      -0.768182       -20.9033
  16   2.0000      -0.640229       -17.4215
  17   2.0000      -0.620433       -16.8828
  18   2.0000      -0.608208       -16.5502
  19   2.0000      -0.575342       -15.6559
  20   2.0000      -0.556177       -15.1343
  21   2.0000      -0.538993       -14.6667
  22   2.0000      -0.517162       -14.0727
  23   2.0000      -0.503711       -13.7067
  24   2.0000      -0.476233       -12.9590
  25   2.0000      -0.469810       -12.7842
  26   2.0000      -0.460168       -12.5218
  27   2.0000      -0.434826       -11.8322
  28   2.0000      -0.352185        -9.5834
  29   0.0000       0.025246         0.6870
  30   0.0000       0.029813         0.8113
  31   0.0000       0.032927         0.8960
  32   0.0000       0.034046         0.9265
  33   0.0000       0.047501         1.2926

MULLIKEN ATOMIC CHARGES
-----------------------
   0 C :   -0.920854
   1 H :    0.287534
   2 H :    0.189204
   3 H :    0.251487
   4 S :   -0.247743
   5 H :   -0.043179
   6 C :   -0.420575
   7 H :    0.158846
   8 H :    0.290448
   9 C :    0.398576
  10 H :    0.239400
  11 C :   -0.848417
  12 H :    0.261701
  13 H :    0.214753
  14 H :    0.200141
  15 C :   -0.459182
  16 H :    0.246526
  17 H :    0.201336
Sum of atomic charges:   -0.0000000

LOEWDIN ATOMIC CHARGES
----------------------
   0 C :    0.891849
   1 H :   -0.315930
   2 H :   -0.273055
   3 H :   -0.276309
   4 S :    1.598442
   5 H :   -0.782313
   6 C :    0.128356
   7 H :   -0.344379
   8 H :   -0.380967
   9 C :    0.009771
  10 H :   -0.299220
  11 C :    0.939171
  12 H :   -0.279012
  13 H :   -0.295995
  14 H :   -0.275699
  15 C :    0.503842
  16 H :   -0.280857
  17 H :   -0.267695

  Mayer bond orders larger than 0.100000
B(  0-C ,  1-H ) :   1.0162 B(  0-C ,  2-H ) :   1.0157 B(  0-C ,  3-H ) :   0.9932
B(  0-C ,  9-C ) :   0.6135 B(  1-H ,  9-C ) :  -0.1033 B(  4-S ,  5-H ) :   1.1196
B(  4-S ,  6-C ) :   0.8065 B(  4-S ,  9-C ) :  -0.1398 B(  6-C ,  7-H ) :   1.0046
B(  6-C ,  8-H ) :   0.9388 B(  6-C ,  9-C ) :   0.7018 B(  9-C , 10-H ) :   0.9331
B(  9-C , 15-C ) :   0.6649 B( 11-C , 12-H ) :   1.0257 B( 11-C , 13-H ) :   0.9695
B( 11-C , 14-H ) :   0.9613 B( 11-C , 15-C ) :   0.9202 B( 15-C , 16-H ) :   0.9253
B( 15-C , 17-H ) :   0.9387

MP2 TOTAL ENERGY:     -595.105533784 Eh
FINAL SINGLE POINT ENERGY      -595.105533784389

DIPOLE MOMENT
-------------
                                X             Y             Z
Electronic contribution:     -9.16517      -1.02299      -1.04291
Nuclear contribution   :      9.77278       0.80575       1.35863
                        -----------------------------------------
Total Dipole Moment    :      0.60761      -0.21724       0.31572
                        -----------------------------------------
Magnitude (a.u.)       :      0.71838
Magnitude (Debye)      :      1.82596

Rotational constants in cm-1:     0.147763     0.049712     0.039839
Rotational constants in MHz :  4429.837584  1490.336753  1194.331828

                             ****ORCA TERMINATED NORMALLY****
TOTAL RUN TIME: 0 days 0 hours 41 minutes 45 seconds 314 msec
