                         Program Version 5.0.4 -  RELEASE  -
|  1> !ri-mp2 aug-cc-pvqz aug-cc-pvqz/c tightscf
|  2> %pal nprocs 16 end
|  3>
|  4> * xyz 0 1
|  5> C    -0.340935     2.925198       0.000000
|  6> C     0.340935    -2.925198       0.000000
|  7> C    -0.990750     1.654854       0.000000
|  8> C     0.990750    -1.654854       0.000000
|  9> C     0.990750     2.673861       0.000000
| 10> C    -0.990750    -2.673861       0.000000
| 11> C     0.001025     0.717171       0.000000
| 12> C    -0.001025    -0.717171       0.000000
| 13> O     1.221122     1.331017       0.000000
| 14> O    -1.221122    -1.331017       0.000000
| 15> H    -0.806983     3.895142       0.000000
| 16> H     0.806983    -3.895142       0.000000
| 17> H    -2.047458     1.455961       0.000000
| 18> H     2.047458    -1.455961       0.000000
| 19> H     1.864288     3.299524       0.000000
| 20> H    -1.864288    -3.299524       0.000000
| 21> *
| 22>
| 23>                          ****END OF INPUT****

CARTESIAN COORDINATES (ANGSTROEM)
---------------------------------
  C     -0.340935    2.925198    0.000000
  C      0.340935   -2.925198    0.000000
  C     -0.990750    1.654854    0.000000
  C      0.990750   -1.654854    0.000000
  C      0.990750    2.673861    0.000000
  C     -0.990750   -2.673861    0.000000
  C      0.001025    0.717171    0.000000
  C     -0.001025   -0.717171    0.000000
  O      1.221122    1.331017    0.000000
  O     -1.221122   -1.331017    0.000000
  H     -0.806983    3.895142    0.000000
  H      0.806983   -3.895142    0.000000
  H     -2.047458    1.455961    0.000000
  H      2.047458   -1.455961    0.000000
  H      1.864288    3.299524    0.000000
  H     -1.864288   -3.299524    0.000000

 Total Charge           Charge          ....    0
 Multiplicity           Mult            ....    1
 Number of Electrons    NEL             ....   70
 Basis Dimension        Dim             .... 1076

ORBITAL ENERGIES
----------------

  NO   OCC          E(Eh)            E(eV)
   0   2.0000     -20.624006      -561.2077
   1   2.0000     -20.624004      -561.2077
   2   2.0000     -11.300917      -307.5136
   3   2.0000     -11.299990      -307.4884
   4   2.0000     -11.291167      -307.2483
   5   2.0000     -11.291166      -307.2483
   6   2.0000     -11.233320      -305.6742
   7   2.0000     -11.233320      -305.6742
   8   2.0000     -11.232281      -305.6459
   9   2.0000     -11.232281      -305.6459
  10   2.0000      -1.467049       -39.9204
  11   2.0000      -1.458374       -39.6844
  12   2.0000      -1.092954       -29.7408
  13   2.0000      -1.091393       -29.6983
  14   2.0000      -1.060637       -28.8614
  15   2.0000      -0.973357       -26.4864
  16   2.0000      -0.830789       -22.6069
  17   2.0000      -0.828333       -22.5401
  18   2.0000      -0.790434       -21.5088
  19   2.0000      -0.762250       -20.7419
  20   2.0000      -0.753413       -20.5014
  21   2.0000      -0.684290       -18.6205
  22   2.0000      -0.656564       -17.8660
  23   2.0000      -0.628669       -17.1070
  24   2.0000      -0.608153       -16.5487
  25   2.0000      -0.598950       -16.2982
  26   2.0000      -0.576597       -15.6900
  27   2.0000      -0.575200       -15.6520
  28   2.0000      -0.563333       -15.3291
  29   2.0000      -0.554354       -15.0848
  30   2.0000      -0.535812       -14.5802
  31   2.0000      -0.410235       -11.1631
  32   2.0000      -0.403885       -10.9903
  33   2.0000      -0.372894       -10.1470
  34   2.0000      -0.275556        -7.4983
  35   0.0000       0.025361         0.6901
  36   0.0000       0.026268         0.7148
  37   0.0000       0.028904         0.7865
  38   0.0000       0.036866         1.0032
  39   0.0000       0.040394         1.0992

MULLIKEN ATOMIC CHARGES
-----------------------
   0 C :   -0.398179
   1 C :   -0.398066
   2 C :   -0.455111
   3 C :   -0.455240
   4 C :   -0.418108
   5 C :   -0.418246
   6 C :    0.695189
   7 C :    0.695279
   8 O :   -0.739168
   9 O :   -0.739120
  10 H :    0.410678
  11 H :    0.410667
  12 H :    0.350447
  13 H :    0.350439
  14 H :    0.554280
  15 H :    0.554258
Sum of atomic charges:   -0.0000000

LOEWDIN ATOMIC CHARGES
----------------------
   0 C :    0.304776
   1 C :    0.304776
   2 C :    0.307167
   3 C :    0.307167
   4 C :    0.008592
   5 C :    0.008592
   6 C :   -0.487965
   7 C :   -0.487965
   8 O :    0.847603
   9 O :    0.847603
  10 H :   -0.329773
  11 H :   -0.329773
  12 H :   -0.316391
  13 H :   -0.316391
  14 H :   -0.334009
  15 H :   -0.334009

  Mayer bond orders larger than 0.100000
B(  0-C ,  2-C ) :   1.0849 B(  0-C ,  4-C ) :   1.6969 B(  0-C ,  6-C ) :  -0.4334
B(  0-C , 10-H ) :   0.9185 B(  1-C ,  3-C ) :   1.0850 B(  1-C ,  5-C ) :   1.6970
B(  1-C ,  7-C ) :  -0.4335 B(  1-C , 11-H ) :   0.9185 B(  2-C ,  6-C ) :   1.1989
B(  2-C ,  7-C ) :  -0.3478 B(  2-C ,  8-O ) :   0.1099 B(  2-C ,  9-O ) :  -0.1351
B(  2-C , 12-H ) :   0.9242 B(  3-C ,  6-C ) :  -0.3477 B(  3-C ,  7-C ) :   1.1987
B(  3-C ,  8-O ) :  -0.1351 B(  3-C ,  9-O ) :   0.1099 B(  3-C , 13-H ) :   0.9242
B(  4-C ,  8-O ) :   1.0411 B(  4-C , 14-H ) :   0.7508 B(  5-C ,  9-O ) :   1.0412
B(  5-C , 15-H ) :   0.7508 B(  6-C ,  7-C ) :   0.9446 B(  6-C ,  8-O ) :   0.2270
B(  6-C ,  9-O ) :   0.1838 B(  7-C ,  8-O ) :   0.1838 B(  7-C ,  9-O ) :   0.2271

MP2 TOTAL ENERGY:     -458.143808538 Eh
FINAL SINGLE POINT ENERGY      -458.143808537783

DIPOLE MOMENT
-------------
                                X             Y             Z
Electronic contribution:     -0.00000       0.00000       0.00000
Nuclear contribution   :      0.00000       0.00000       0.00000
                        -----------------------------------------
Total Dipole Moment    :     -0.00000       0.00000       0.00000
                        -----------------------------------------
Magnitude (a.u.)       :      0.00000
Magnitude (Debye)      :      0.00000

Rotational constants in cm-1:     0.155401     0.029323     0.024668
Rotational constants in MHz :  4658.795427   879.086935   739.540121

                             ****ORCA TERMINATED NORMALLY****
TOTAL RUN TIME: 0 days 0 hours 57 minutes 50 seconds 116 msec
