                         Program Version 5.0.4 -  RELEASE  -
|  1> !ri-mp2 aug-cc-pvqz aug-cc-pvqz/c tightscf
|  2> %pal nprocs 16 end
|  3>
|  4> * xyz 0 1
|  5> C     -2.091969    0.010752   -0.180597
|  6> H     -2.635094   -0.893942    0.090351
|  7> H     -2.624543    0.872125    0.220077
|  8> H     -2.045431    0.092193   -1.265498
|  9> C     -0.698672   -0.035879    0.388299
| 10> H     -0.716959   -0.130269    1.485995
| 11> O      0.030683    1.138373    0.045279
| 12> O      0.034322   -1.115337   -0.154500
| 13> C      1.399093   -0.761458    0.034643
| 14> H      1.998042   -1.291310   -0.702163
| 15> H      1.730930   -1.043846    1.039807
| 16> C      1.397982    0.765704   -0.146745
| 17> H      1.700345    1.065105   -1.151226
| 18> H      2.034073    1.270939    0.582825
| 19> *
| 20>
| 21>                          ****END OF INPUT****

CARTESIAN COORDINATES (ANGSTROEM)
---------------------------------
  C     -2.091969    0.010752   -0.180597
  H     -2.635094   -0.893942    0.090351
  H     -2.624543    0.872125    0.220077
  H     -2.045431    0.092193   -1.265498
  C     -0.698672   -0.035879    0.388299
  H     -0.716959   -0.130269    1.485995
  O      0.030683    1.138373    0.045279
  O      0.034322   -1.115337   -0.154500
  C      1.399093   -0.761458    0.034643
  H      1.998042   -1.291310   -0.702163
  H      1.730930   -1.043846    1.039807
  C      1.397982    0.765704   -0.146745
  H      1.700345    1.065105   -1.151226
  H      2.034073    1.270939    0.582825

 Total Charge           Charge          ....    0
 Multiplicity           Mult            ....    1
 Number of Electrons    NEL             ....   48
 Basis Dimension        Dim             ....  848

ORBITAL ENERGIES
----------------

  NO   OCC          E(Eh)            E(eV)
   0   2.0000     -20.563544      -559.5625
   1   2.0000     -20.556640      -559.3746
   2   2.0000     -11.330616      -308.3217
   3   2.0000     -11.283338      -307.0352
   4   2.0000     -11.280485      -306.9576
   5   2.0000     -11.213942      -305.1469
   6   2.0000      -1.435137       -39.0521
   7   2.0000      -1.327657       -36.1274
   8   2.0000      -1.054090       -28.6832
   9   2.0000      -0.959431       -26.1074
  10   2.0000      -0.853595       -23.2275
  11   2.0000      -0.822879       -22.3917
  12   2.0000      -0.712063       -19.3762
  13   2.0000      -0.682572       -18.5737
  14   2.0000      -0.644788       -17.5456
  15   2.0000      -0.623599       -16.9690
  16   2.0000      -0.589289       -16.0354
  17   2.0000      -0.543534       -14.7903
  18   2.0000      -0.534207       -14.5365
  19   2.0000      -0.531633       -14.4665
  20   2.0000      -0.510672       -13.8961
  21   2.0000      -0.491320       -13.3695
  22   2.0000      -0.443340       -12.0639
  23   2.0000      -0.423200       -11.5159
  24   0.0000       0.026706         0.7267
  25   0.0000       0.033496         0.9115
  26   0.0000       0.034584         0.9411
  27   0.0000       0.037305         1.0151
  28   0.0000       0.049148         1.3374

MULLIKEN ATOMIC CHARGES
-----------------------
   0 C :   -0.911341
   1 H :    0.263852
   2 H :    0.265022
   3 H :    0.251747
   4 C :    0.894411
   5 H :    0.305012
   6 O :   -0.856910
   7 O :   -0.855902
   8 C :   -0.401558
   9 H :    0.434044
  10 H :    0.285045
  11 C :   -0.340147
  12 H :    0.350981
  13 H :    0.315743
Sum of atomic charges:    0.0000000

LOEWDIN ATOMIC CHARGES
----------------------
   0 C :    0.898994
   1 H :   -0.291703
   2 H :   -0.292883
   3 H :   -0.295117
   4 C :   -0.627185
   5 H :   -0.309177
   6 O :    0.877712
   7 O :    0.879910
   8 C :    0.173248
   9 H :   -0.302906
  10 H :   -0.293703
  11 C :    0.187113
  12 H :   -0.304446
  13 H :   -0.299858

  Mayer bond orders larger than 0.100000
B(  0-C ,  1-H ) :   0.9993 B(  0-C ,  2-H ) :   0.9863 B(  0-C ,  3-H ) :   0.9202
B(  0-C ,  4-C ) :   0.6795 B(  4-C ,  5-H ) :   0.8548 B(  4-C ,  6-O ) :   0.6382
B(  4-C ,  7-O ) :   0.6154 B(  4-C ,  8-C ) :  -0.1160 B(  4-C , 11-C ) :  -0.1016
B(  6-O , 11-C ) :   0.8387 B(  7-O ,  8-C ) :   0.8415 B(  8-C ,  9-H ) :   0.7833
B(  8-C , 10-H ) :   0.8695 B(  8-C , 11-C ) :   1.2293 B( 11-C , 12-H ) :   0.8307
B( 11-C , 13-H ) :   0.8621

MP2 TOTAL ENERGY:     -307.211207812 Eh
FINAL SINGLE POINT ENERGY      -307.211207812269

DIPOLE MOMENT
-------------
                                X             Y             Z
Electronic contribution:      1.04315      -0.01884      -0.06047
Nuclear contribution   :     -0.57053      -0.06000       0.30536
                        -----------------------------------------
Total Dipole Moment    :      0.47262      -0.07884       0.24489
                        -----------------------------------------
Magnitude (a.u.)       :      0.53811
Magnitude (Debye)      :      1.36775

Rotational constants in cm-1:     0.234596     0.113682     0.084258
Rotational constants in MHz :  7033.009160  3408.111806  2525.991787

                             ****ORCA TERMINATED NORMALLY****
TOTAL RUN TIME: 0 days 0 hours 24 minutes 12 seconds 645 msec
