                         Program Version 5.0.4 -  RELEASE  -
|  1> !ri-mp2 aug-cc-pvqz aug-cc-pvqz/c tightscf
|  2> %pal nprocs 16 end
|  3>
|  4> * xyz 0 1
|  5> C      0.000000    0.000000    0.697725
|  6> C      0.000000    1.263786    1.332760
|  7> C      0.000000    0.000000   -0.697725
|  8> N      0.000000    2.398784    0.679888
|  9> C      0.000000    1.263786   -1.332760
| 10> N      0.000000    2.398784   -0.679888
| 11> C      0.000000   -1.263786   -1.332760
| 12> N      0.000000   -2.398784   -0.679888
| 13> C      0.000000   -1.263786    1.332760
| 14> N      0.000000   -2.398784    0.679888
| 15> H      0.000000   -1.340928   -2.414429
| 16> H      0.000000    1.340928    2.414429
| 17> H      0.000000   -1.340928    2.414429
| 18> H      0.000000    1.340928   -2.414429
| 19> *
| 20>
| 21>                          ****END OF INPUT****

CARTESIAN COORDINATES (ANGSTROEM)
---------------------------------
  C      0.000000    0.000000    0.697725
  C      0.000000    1.263786    1.332760
  C      0.000000    0.000000   -0.697725
  N      0.000000    2.398784    0.679888
  C      0.000000    1.263786   -1.332760
  N      0.000000    2.398784   -0.679888
  C      0.000000   -1.263786   -1.332760
  N      0.000000   -2.398784   -0.679888
  C      0.000000   -1.263786    1.332760
  N      0.000000   -2.398784    0.679888
  H      0.000000   -1.340928   -2.414429
  H      0.000000    1.340928    2.414429
  H      0.000000   -1.340928    2.414429
  H      0.000000    1.340928   -2.414429

 Total Charge           Charge          ....    0
 Multiplicity           Mult            ....    1
 Number of Electrons    NEL             ....   68
 Basis Dimension        Dim             ....  984

ORBITAL ENERGIES
----------------

  NO   OCC          E(Eh)            E(eV)
   0   2.0000     -15.630792      -425.3355
   1   2.0000     -15.630792      -425.3355
   2   2.0000     -15.630080      -425.3161
   3   2.0000     -15.630078      -425.3161
   4   2.0000     -11.312668      -307.8334
   5   2.0000     -11.312651      -307.8329
   6   2.0000     -11.312639      -307.8326
   7   2.0000     -11.312613      -307.8318
   8   2.0000     -11.300487      -307.5019
   9   2.0000     -11.299248      -307.4682
  10   2.0000      -1.370129       -37.2831
  11   2.0000      -1.358066       -36.9549
  12   2.0000      -1.166038       -31.7295
  13   2.0000      -1.160156       -31.5695
  14   2.0000      -1.139506       -31.0075
  15   2.0000      -0.958916       -26.0934
  16   2.0000      -0.957785       -26.0627
  17   2.0000      -0.893117       -24.3029
  18   2.0000      -0.771178       -20.9848
  19   2.0000      -0.765839       -20.8395
  20   2.0000      -0.760846       -20.7037
  21   2.0000      -0.681426       -18.5425
  22   2.0000      -0.680085       -18.5060
  23   2.0000      -0.639860       -17.4115
  24   2.0000      -0.625738       -17.0272
  25   2.0000      -0.622969       -16.9518
  26   2.0000      -0.569195       -15.4886
  27   2.0000      -0.499192       -13.5837
  28   2.0000      -0.490643       -13.3511
  29   2.0000      -0.457140       -12.4394
  30   2.0000      -0.454756       -12.3745
  31   2.0000      -0.422529       -11.4976
  32   2.0000      -0.419106       -11.4044
  33   2.0000      -0.378755       -10.3064
  34   0.0000       0.021039         0.5725
  35   0.0000       0.022388         0.6092
  36   0.0000       0.035111         0.9554
  37   0.0000       0.036411         0.9908
  38   0.0000       0.038090         1.0365

MULLIKEN ATOMIC CHARGES
-----------------------
   0 C :    0.102204
   1 C :    0.003683
   2 C :    0.102235
   3 N :   -0.499710
   4 C :    0.003648
   5 N :   -0.499699
   6 C :    0.003579
   7 N :   -0.499703
   8 C :    0.003586
   9 N :   -0.499689
  10 H :    0.444966
  11 H :    0.444984
  12 H :    0.444963
  13 H :    0.444954
Sum of atomic charges:   -0.0000000

LOEWDIN ATOMIC CHARGES
----------------------
   0 C :   -0.162488
   1 C :    0.072418
   2 C :   -0.162488
   3 N :    0.359408
   4 C :    0.072418
   5 N :    0.359408
   6 C :    0.072418
   7 N :    0.359408
   8 C :    0.072418
   9 N :    0.359408
  10 H :   -0.350582
  11 H :   -0.350582
  12 H :   -0.350582
  13 H :   -0.350582

  Mayer bond orders larger than 0.100000
B(  0-C ,  1-C ) :   0.8923 B(  0-C ,  2-C ) :   1.1344 B(  0-C ,  4-C ) :  -0.2050
B(  0-C ,  6-C ) :  -0.2050 B(  0-C ,  8-C ) :   0.8921 B(  0-C , 11-H ) :  -0.1701
B(  0-C , 12-H ) :  -0.1701 B(  1-C ,  2-C ) :  -0.2050 B(  1-C ,  3-N ) :   1.2940
B(  1-C ,  8-C ) :  -0.2416 B(  1-C , 11-H ) :   0.8832 B(  2-C ,  4-C ) :   0.8922
B(  2-C ,  6-C ) :   0.8922 B(  2-C ,  8-C ) :  -0.2050 B(  2-C , 10-H ) :  -0.1701
B(  2-C , 13-H ) :  -0.1701 B(  3-N ,  5-N ) :   0.6740 B(  3-N , 11-H ) :  -0.1115
B(  4-C ,  5-N ) :   1.2940 B(  4-C ,  6-C ) :  -0.2416 B(  4-C , 13-H ) :   0.8832
B(  5-N , 13-H ) :  -0.1116 B(  6-C ,  7-N ) :   1.2940 B(  6-C , 10-H ) :   0.8832
B(  7-N ,  9-N ) :   0.6739 B(  7-N , 10-H ) :  -0.1115 B(  8-C ,  9-N ) :   1.2940
B(  8-C , 12-H ) :   0.8832 B(  9-N , 12-H ) :  -0.1115

MP2 TOTAL ENERGY:     -449.251188065 Eh
FINAL SINGLE POINT ENERGY      -449.251188065026

DIPOLE MOMENT
-------------
                                X             Y             Z
Electronic contribution:      0.00000       0.00000      -0.00000
Nuclear contribution   :      0.00000       0.00000       0.00000
                        -----------------------------------------
Total Dipole Moment    :      0.00000       0.00000      -0.00000
                        -----------------------------------------
Magnitude (a.u.)       :      0.00000
Magnitude (Debye)      :      0.00000

Rotational constants in cm-1:     0.115120     0.041483     0.030494
Rotational constants in MHz :  3451.203148  1243.619355   914.194952

                             ****ORCA TERMINATED NORMALLY****
TOTAL RUN TIME: 0 days 0 hours 40 minutes 31 seconds 943 msec
