                         Program Version 5.0.4 -  RELEASE  -
|  1> !ri-mp2 aug-cc-pvqz aug-cc-pvqz/c tightscf
|  2> %pal nprocs 16 end
|  3>
|  4> * xyz 0 1
|  5> C     -0.078596   -1.271647    0.190282
|  6> H     -0.054339   -1.558641    1.240593
|  7> H      0.112578   -2.148979   -0.421154
|  8> C     -1.395081   -0.560009   -0.160033
|  9> H     -2.213837   -0.949245    0.447464
| 10> H     -1.665515   -0.738605   -1.207404
| 11> C      0.114747    1.280233    0.074877
| 12> H      0.490719    2.289118    0.151229
| 13> C     -1.163345    0.913938    0.056193
| 14> H     -1.979816    1.619897    0.117529
| 15> S      1.277741   -0.043040   -0.081011
| 16> *
| 17>
| 18>                          ****END OF INPUT****

CARTESIAN COORDINATES (ANGSTROEM)
---------------------------------
  C     -0.078596   -1.271647    0.190282
  H     -0.054339   -1.558641    1.240593
  H      0.112578   -2.148979   -0.421154
  C     -1.395081   -0.560009   -0.160033
  H     -2.213837   -0.949245    0.447464
  H     -1.665515   -0.738605   -1.207404
  C      0.114747    1.280233    0.074877
  H      0.490719    2.289118    0.151229
  C     -1.163345    0.913938    0.056193
  H     -1.979816    1.619897    0.117529
  S      1.277741   -0.043040   -0.081011

 Total Charge           Charge          ....    0
 Multiplicity           Mult            ....    1
 Number of Electrons    NEL             ....   46
 Basis Dimension        Dim             ....  680

ORBITAL ENERGIES
----------------

  NO   OCC          E(Eh)            E(eV)
   0   2.0000     -91.949176     -2502.0643
   1   2.0000     -11.260719      -306.4197
   2   2.0000     -11.256682      -306.3099
   3   2.0000     -11.240385      -305.8664
   4   2.0000     -11.232426      -305.6498
   5   2.0000      -8.950902      -243.5664
   6   2.0000      -6.632377      -180.4762
   7   2.0000      -6.631573      -180.4543
   8   2.0000      -6.630663      -180.4295
   9   2.0000      -1.137839       -30.9622
  10   2.0000      -0.988944       -26.9105
  11   2.0000      -0.967701       -26.3325
  12   2.0000      -0.802432       -21.8353
  13   2.0000      -0.739111       -20.1122
  14   2.0000      -0.671295       -18.2669
  15   2.0000      -0.640160       -17.4196
  16   2.0000      -0.547855       -14.9079
  17   2.0000      -0.531361       -14.4591
  18   2.0000      -0.514919       -14.0117
  19   2.0000      -0.492327       -13.3969
  20   2.0000      -0.446551       -12.1513
  21   2.0000      -0.426642       -11.6095
  22   2.0000      -0.303416        -8.2564
  23   0.0000       0.025700         0.6993
  24   0.0000       0.031897         0.8679
  25   0.0000       0.036157         0.9839
  26   0.0000       0.037646         1.0244
  27   0.0000       0.048864         1.3297

MULLIKEN ATOMIC CHARGES
-----------------------
   0 C :   -0.499115
   1 H :    0.237332
   2 H :    0.299041
   3 C :   -0.398541
   4 H :    0.248244
   5 H :    0.274209
   6 C :   -0.640630
   7 H :    0.431251
   8 C :   -0.395329
   9 H :    0.433667
  10 S :    0.009872
Sum of atomic charges:   -0.0000000

LOEWDIN ATOMIC CHARGES
----------------------
   0 C :    0.164961
   1 H :   -0.356554
   2 H :   -0.354663
   3 C :    0.389376
   4 H :   -0.286436
   5 H :   -0.286507
   6 C :   -0.071021
   7 H :   -0.411960
   8 C :    0.254526
   9 H :   -0.323394
  10 S :    1.281672

  Mayer bond orders larger than 0.100000
B(  0-C ,  1-H ) :   0.9139 B(  0-C ,  2-H ) :   0.9043 B(  0-C ,  3-C ) :   1.0092
B(  0-C , 10-S ) :   0.8992 B(  3-C ,  4-H ) :   0.9484 B(  3-C ,  5-H ) :   0.8406
B(  3-C ,  8-C ) :   0.8648 B(  6-C ,  7-H ) :   0.8182 B(  6-C ,  8-C ) :   1.6992
B(  6-C , 10-S ) :   0.9980 B(  8-C ,  9-H ) :   0.8193

MP2 TOTAL ENERGY:     -553.452648392 Eh
FINAL SINGLE POINT ENERGY      -553.452648391787

DIPOLE MOMENT
-------------
                                X             Y             Z
Electronic contribution:      4.65132       1.34235      -0.26137
Nuclear contribution   :     -5.36450      -1.48925       0.33168
                        -----------------------------------------
Total Dipole Moment    :     -0.71318      -0.14690       0.07030
                        -----------------------------------------
Magnitude (a.u.)       :      0.73154
Magnitude (Debye)      :      1.85942

Rotational constants in cm-1:     0.228172     0.155572     0.097297
Rotational constants in MHz :  6840.434941  4663.920063  2916.877626

                             ****ORCA TERMINATED NORMALLY****
TOTAL RUN TIME: 0 days 0 hours 16 minutes 52 seconds 292 msec
