                         Program Version 5.0.4 -  RELEASE  -
|  1> !ri-mp2 aug-cc-pvqz aug-cc-pvqz/c tightscf
|  2> %pal nprocs 16 end
|  3>
|  4> * xyz 0 1
|  5> C      2.099858    0.369973    0.299455
|  6> S      0.769670   -0.705032   -0.323442
|  7> C     -0.727952    0.124983    0.364432
|  8> C     -0.985167    1.492597   -0.260375
|  9> C     -1.906973   -0.823775    0.163596
| 10> H      3.037274   -0.105810    0.018885
| 11> H      2.064635    1.361496   -0.147229
| 12> H      2.058488    0.449131    1.385117
| 13> H     -0.544665    0.242009    1.434900
| 14> H     -0.145508    2.172003   -0.117608
| 15> H     -1.738088   -1.779969    0.657497
| 16> H     -1.166779    1.398813   -1.331795
| 17> H     -1.863937    1.955096    0.196475
| 18> H     -2.816392   -0.380971    0.573674
| 19> H     -2.078342   -1.013952   -0.897490
| 20> *
| 21>
| 22>                          ****END OF INPUT****

CARTESIAN COORDINATES (ANGSTROEM)
---------------------------------
  C      2.099858    0.369973    0.299455
  S      0.769670   -0.705032   -0.323442
  C     -0.727952    0.124983    0.364432
  C     -0.985167    1.492597   -0.260375
  C     -1.906973   -0.823775    0.163596
  H      3.037274   -0.105810    0.018885
  H      2.064635    1.361496   -0.147229
  H      2.058488    0.449131    1.385117
  H     -0.544665    0.242009    1.434900
  H     -0.145508    2.172003   -0.117608
  H     -1.738088   -1.779969    0.657497
  H     -1.166779    1.398813   -1.331795
  H     -1.863937    1.955096    0.196475
  H     -2.816392   -0.380971    0.573674
  H     -2.078342   -1.013952   -0.897490

 Total Charge           Charge          ....    0
 Multiplicity           Mult            ....    1
 Number of Electrons    NEL             ....   50
 Basis Dimension        Dim             ....  864

ORBITAL ENERGIES
----------------

  NO   OCC          E(Eh)            E(eV)
   0   2.0000     -91.935296     -2501.6866
   1   2.0000     -11.260418      -306.4116
   2   2.0000     -11.247101      -306.0492
   3   2.0000     -11.218919      -305.2823
   4   2.0000     -11.218532      -305.2718
   5   2.0000      -8.936995      -243.1880
   6   2.0000      -6.618527      -180.0993
   7   2.0000      -6.617611      -180.0743
   8   2.0000      -6.616784      -180.0518
   9   2.0000      -1.093793       -29.7636
  10   2.0000      -1.004209       -27.3259
  11   2.0000      -0.939042       -25.5526
  12   2.0000      -0.863305       -23.4917
  13   2.0000      -0.763454       -20.7746
  14   2.0000      -0.629578       -17.1317
  15   2.0000      -0.610848       -16.6220
  16   2.0000      -0.587401       -15.9840
  17   2.0000      -0.577189       -15.7061
  18   2.0000      -0.556000       -15.1295
  19   2.0000      -0.542809       -14.7706
  20   2.0000      -0.499781       -13.5997
  21   2.0000      -0.493619       -13.4321
  22   2.0000      -0.463672       -12.6172
  23   2.0000      -0.415550       -11.3077
  24   2.0000      -0.333391        -9.0720
  25   0.0000       0.026406         0.7185
  26   0.0000       0.030919         0.8414
  27   0.0000       0.035182         0.9573
  28   0.0000       0.036608         0.9962
  29   0.0000       0.048613         1.3228

MULLIKEN ATOMIC CHARGES
-----------------------
   0 C :   -1.016774
   1 S :   -0.102971
   2 C :    0.153105
   3 C :   -0.970818
   4 C :   -0.907190
   5 H :    0.424493
   6 H :    0.298649
   7 H :    0.278363
   8 H :    0.252434
   9 H :    0.281151
  10 H :    0.282474
  11 H :    0.256509
  12 H :    0.270536
  13 H :    0.272682
  14 H :    0.227356
Sum of atomic charges:    0.0000000

LOEWDIN ATOMIC CHARGES
----------------------
   0 C :    0.557594
   1 S :    1.325456
   2 C :   -0.262011
   3 C :    0.839554
   4 C :    0.810114
   5 H :   -0.395043
   6 H :   -0.377907
   7 H :   -0.365141
   8 H :   -0.358897
   9 H :   -0.313051
  10 H :   -0.301175
  11 H :   -0.293916
  12 H :   -0.281567
  13 H :   -0.285605
  14 H :   -0.298407

  Mayer bond orders larger than 0.100000
B(  0-C ,  1-S ) :   1.0434 B(  0-C ,  5-H ) :   0.8134 B(  0-C ,  6-H ) :   0.9001
B(  0-C ,  7-H ) :   0.9173 B(  1-S ,  2-C ) :   0.7906 B(  2-C ,  3-C ) :   0.8362
B(  2-C ,  4-C ) :   0.7043 B(  2-C ,  8-H ) :   0.8756 B(  3-C ,  9-H ) :   0.9614
B(  3-C , 11-H ) :   0.9488 B(  3-C , 12-H ) :   0.9292 B(  4-C , 10-H ) :   0.9656
B(  4-C , 13-H ) :   0.9849 B(  4-C , 14-H ) :   0.9677

MP2 TOTAL ENERGY:     -555.870422327 Eh
FINAL SINGLE POINT ENERGY      -555.870422326755

DIPOLE MOMENT
-------------
                                X             Y             Z
Electronic contribution:      3.22687      -3.92316      -1.44800
Nuclear contribution   :     -3.34975       4.49776       1.85592
                        -----------------------------------------
Total Dipole Moment    :     -0.12289       0.57461       0.40792
                        -----------------------------------------
Magnitude (a.u.)       :      0.71531
Magnitude (Debye)      :      1.81818

Rotational constants in cm-1:     0.200731     0.090299     0.069767
Rotational constants in MHz :  6017.770668  2707.094575  2091.566419

                             ****ORCA TERMINATED NORMALLY****
TOTAL RUN TIME: 0 days 0 hours 24 minutes 4 seconds 897 msec
