                         Program Version 5.0.4 -  RELEASE  -
|  1> !ri-mp2 aug-cc-pvqz aug-cc-pvqz/c tightscf
|  2> %pal nprocs 16 end
|  3>
|  4> * xyz 0 1
|  5> C      1.837929   -0.075225    0.168133
|  6> H      1.826268    0.039396    1.255725
|  7> H      2.650139   -0.742755   -0.108297
|  8> H      2.008448    0.898348   -0.296127
|  9> O      0.647190   -0.693975   -0.300207
| 10> C     -0.598702    1.412224   -0.036759
| 11> H     -0.014163    1.839066    0.780446
| 12> H     -0.198576    1.814610   -0.970439
| 13> H     -1.625342    1.752574    0.072846
| 14> C     -0.558029   -0.087441   -0.037725
| 15> C     -1.627694   -0.863197    0.124504
| 16> H     -2.606952   -0.428216    0.248327
| 17> H     -1.538361   -1.939393    0.110257
| 18> *
| 19>
| 20>                          ****END OF INPUT****

CARTESIAN COORDINATES (ANGSTROEM)
---------------------------------
  C      1.837929   -0.075225    0.168133
  H      1.826268    0.039396    1.255725
  H      2.650139   -0.742755   -0.108297
  H      2.008448    0.898348   -0.296127
  O      0.647190   -0.693975   -0.300207
  C     -0.598702    1.412224   -0.036759
  H     -0.014163    1.839066    0.780446
  H     -0.198576    1.814610   -0.970439
  H     -1.625342    1.752574    0.072846
  C     -0.558029   -0.087441   -0.037725
  C     -1.627694   -0.863197    0.124504
  H     -2.606952   -0.428216    0.248327
  H     -1.538361   -1.939393    0.110257

 Total Charge           Charge          ....    0
 Multiplicity           Mult            ....    1
 Number of Electrons    NEL             ....   40
 Basis Dimension        Dim             ....  768

ORBITAL ENERGIES
----------------

  NO   OCC          E(Eh)            E(eV)
   0   2.0000     -20.569652      -559.7287
   1   2.0000     -11.291022      -307.2443
   2   2.0000     -11.279175      -306.9219
   3   2.0000     -11.229181      -305.5615
   4   2.0000     -11.199021      -304.7409
   5   2.0000      -1.394007       -37.9329
   6   2.0000      -1.060327       -28.8530
   7   2.0000      -0.962993       -26.2044
   8   2.0000      -0.917796       -24.9745
   9   2.0000      -0.750623       -20.4255
  10   2.0000      -0.662384       -18.0244
  11   2.0000      -0.655995       -17.8505
  12   2.0000      -0.645099       -17.5540
  13   2.0000      -0.576612       -15.6904
  14   2.0000      -0.562328       -15.3017
  15   2.0000      -0.557934       -15.1822
  16   2.0000      -0.531261       -14.4563
  17   2.0000      -0.497654       -13.5419
  18   2.0000      -0.465837       -12.6761
  19   2.0000      -0.333188        -9.0665
  20   0.0000       0.025135         0.6839
  21   0.0000       0.033171         0.9026
  22   0.0000       0.034840         0.9481
  23   0.0000       0.038727         1.0538
  24   0.0000       0.049108         1.3363

MULLIKEN ATOMIC CHARGES
-----------------------
   0 C :   -0.621372
   1 H :    0.265165
   2 H :    0.458002
   3 H :    0.270276
   4 O :   -0.743322
   5 C :   -0.677552
   6 H :    0.232076
   7 H :    0.230507
   8 H :    0.277045
   9 C :    0.590020
  10 C :   -0.868534
  11 H :    0.226770
  12 H :    0.360918
Sum of atomic charges:   -0.0000000

LOEWDIN ATOMIC CHARGES
----------------------
   0 C :    0.573265
   1 H :   -0.298715
   2 H :   -0.323708
   3 H :   -0.325318
   4 O :    0.848012
   5 C :    0.864198
   6 H :   -0.299476
   7 H :   -0.284917
   8 H :   -0.314109
   9 C :   -0.443507
  10 C :    0.752865
  11 H :   -0.378093
  12 H :   -0.370496

  Mayer bond orders larger than 0.100000
B(  0-C ,  1-H ) :   0.9168 B(  0-C ,  2-H ) :   0.7843 B(  0-C ,  3-H ) :   0.9170
B(  0-C ,  4-O ) :   0.9368 B(  4-O ,  9-C ) :   0.6807 B(  5-C ,  6-H ) :   0.9732
B(  5-C ,  7-H ) :   0.9631 B(  5-C ,  8-H ) :   0.9709 B(  5-C ,  9-C ) :   0.7662
B(  9-C , 10-C ) :   1.4242 B(  9-C , 11-H ) :  -0.1125 B( 10-C , 11-H ) :   1.1229
B( 10-C , 12-H ) :   0.9130

MP2 TOTAL ENERGY:     -232.039380957 Eh
FINAL SINGLE POINT ENERGY      -232.039380957201

DIPOLE MOMENT
-------------
                                X             Y             Z
Electronic contribution:     -0.18123      -2.68117      -0.91420
Nuclear contribution   :      0.53306       3.35748       1.13351
                        -----------------------------------------
Total Dipole Moment    :      0.35183       0.67631       0.21931
                        -----------------------------------------
Magnitude (a.u.)       :      0.79327
Magnitude (Debye)      :      2.01634

Rotational constants in cm-1:     0.275897     0.141774     0.099518
Rotational constants in MHz :  8271.198443  4250.265411  2983.461489

                             ****ORCA TERMINATED NORMALLY****
TOTAL RUN TIME: 0 days 0 hours 18 minutes 13 seconds 976 msec
