                         Program Version 5.0.4 -  RELEASE  -
|  1> !ri-mp2 aug-cc-pvqz aug-cc-pvqz/c tightscf
|  2> %pal nprocs 16 end
|  3>
|  4> * xyz 0 1
|  5> Cl     0.000000    0.000000    2.618722
|  6> F      0.000000    0.000000   -3.087327
|  7> N      0.000000    1.187499    0.290904
|  8> N      0.000000   -1.187499    0.290904
|  9> C      0.000000    0.000000    0.875246
| 10> C      0.000000    0.000000   -1.745780
| 11> C      0.000000    1.189332   -1.040282
| 12> C      0.000000   -1.189332   -1.040282
| 13> H      0.000000    2.145496   -1.549203
| 14> H      0.000000   -2.145496   -1.549203
| 15> *
| 16>
| 17>                          ****END OF INPUT****

CARTESIAN COORDINATES (ANGSTROEM)
---------------------------------
  Cl     0.000000    0.000000    2.618722
  F      0.000000    0.000000   -3.087327
  N      0.000000    1.187499    0.290904
  N      0.000000   -1.187499    0.290904
  C      0.000000    0.000000    0.875246
  C      0.000000    0.000000   -1.745780
  C      0.000000    1.189332   -1.040282
  C      0.000000   -1.189332   -1.040282
  H      0.000000    2.145496   -1.549203
  H      0.000000   -2.145496   -1.549203

 Total Charge           Charge          ....    0
 Multiplicity           Mult            ....    1
 Number of Electrons    NEL             ....   66
 Basis Dimension        Dim             ....  736

ORBITAL ENERGIES
----------------

  NO   OCC          E(Eh)            E(eV)
   0   2.0000    -104.851373     -2853.1509
   1   2.0000     -26.340571      -716.7634
   2   2.0000     -15.605953      -424.6596
   3   2.0000     -15.605925      -424.6588
   4   2.0000     -11.391327      -309.9738
   5   2.0000     -11.356040      -309.0136
   6   2.0000     -11.327882      -308.2473
   7   2.0000     -11.327845      -308.2463
   8   2.0000     -10.576823      -287.8100
   9   2.0000      -8.043911      -218.8860
  10   2.0000      -8.042069      -218.8358
  11   2.0000      -8.042026      -218.8346
  12   2.0000      -1.660215       -45.1768
  13   2.0000      -1.360374       -37.0177
  14   2.0000      -1.235652       -33.6238
  15   2.0000      -1.158224       -31.5169
  16   2.0000      -1.069651       -29.1067
  17   2.0000      -0.949242       -25.8302
  18   2.0000      -0.898568       -24.4513
  19   2.0000      -0.784309       -21.3421
  20   2.0000      -0.781910       -21.2768
  21   2.0000      -0.730320       -19.8730
  22   2.0000      -0.724498       -19.7146
  23   2.0000      -0.672877       -18.3099
  24   2.0000      -0.629671       -17.1342
  25   2.0000      -0.623063       -16.9544
  26   2.0000      -0.604363       -16.4456
  27   2.0000      -0.520108       -14.1529
  28   2.0000      -0.491908       -13.3855
  29   2.0000      -0.474026       -12.8989
  30   2.0000      -0.457449       -12.4478
  31   2.0000      -0.442604       -12.0439
  32   2.0000      -0.381524       -10.3818
  33   0.0000       0.023290         0.6338
  34   0.0000       0.028261         0.7690
  35   0.0000       0.050748         1.3809
  36   0.0000       0.052082         1.4172
  37   0.0000       0.054916         1.4943

MULLIKEN ATOMIC CHARGES
-----------------------
   0 Cl:   -0.163005
   1 F :   -0.741169
   2 N :   -0.365374
   3 N :   -0.365374
   4 C :    0.198895
   5 C :    0.948048
   6 C :   -0.258348
   7 C :   -0.258348
   8 H :    0.502337
   9 H :    0.502337
Sum of atomic charges:   -0.0000000

LOEWDIN ATOMIC CHARGES
----------------------
   0 Cl:    1.120543
   1 F :    0.770741
   2 N :    0.439244
   3 N :    0.439244
   4 C :   -1.425559
   5 C :   -0.709402
   6 C :    0.023409
   7 C :    0.023409
   8 H :   -0.340815
   9 H :   -0.340815

  Mayer bond orders larger than 0.100000
B(  0-Cl,  2-N ) :  -0.1050 B(  0-Cl,  3-N ) :  -0.1050 B(  0-Cl,  4-C ) :   1.0512
B(  1-F ,  5-C ) :   0.1278 B(  2-N ,  4-C ) :   1.3052 B(  2-N ,  6-C ) :   1.1995
B(  3-N ,  4-C ) :   1.3052 B(  3-N ,  7-C ) :   1.1995 B(  5-C ,  6-C ) :   1.2706
B(  5-C ,  7-C ) :   1.2706 B(  6-C ,  8-H ) :   0.7555 B(  7-C ,  9-H ) :   0.7555

MP2 TOTAL ENERGY:     -822.186692802 Eh
FINAL SINGLE POINT ENERGY      -822.186692801906

DIPOLE MOMENT
-------------
                                X             Y             Z
Electronic contribution:      0.00000      -0.00000       2.62772
Nuclear contribution   :      0.00000       0.00000      -3.54716
                        -----------------------------------------
Total Dipole Moment    :      0.00000      -0.00000      -0.91943
                        -----------------------------------------
Magnitude (a.u.)       :      0.91943
Magnitude (Debye)      :      2.33701

Rotational constants in cm-1:     0.203685     0.033507     0.028773
Rotational constants in MHz :  6106.317471  1004.504600   862.604060

                             ****ORCA TERMINATED NORMALLY****
TOTAL RUN TIME: 0 days 0 hours 14 minutes 59 seconds 97 msec
