                         Program Version 5.0.4 -  RELEASE  -
|  1> !ri-mp2 aug-cc-pvqz aug-cc-pvqz/c tightscf
|  2> %pal nprocs 16 end
|  3>
|  4> * xyz 0 1
|  5> N     -0.400750   -2.173012    0.000000
|  6> C     -0.026829   -1.085083    0.000000
|  7> H      1.527406    0.267302    0.000000
|  8> C      0.434603    0.306529    0.000000
|  9> H      0.322951    0.513931    2.170270
| 10> H      0.322951    0.513931   -2.170270
| 11> H     -1.114559    1.081957   -1.317044
| 12> H     -1.114559    1.081957    1.317044
| 13> C     -0.026829    1.027994   -1.276481
| 14> C     -0.026829    1.027994    1.276481
| 15> H      0.368182    2.043699   -1.284867
| 16> H      0.368182    2.043699    1.284867
| 17> *
| 18>
| 19>                          ****END OF INPUT****

CARTESIAN COORDINATES (ANGSTROEM)
---------------------------------
  N     -0.400750   -2.173012    0.000000
  C     -0.026829   -1.085083    0.000000
  H      1.527406    0.267302    0.000000
  C      0.434603    0.306529    0.000000
  H      0.322951    0.513931    2.170270
  H      0.322951    0.513931   -2.170270
  H     -1.114559    1.081957   -1.317044
  H     -1.114559    1.081957    1.317044
  C     -0.026829    1.027994   -1.276481
  C     -0.026829    1.027994    1.276481
  H      0.368182    2.043699   -1.284867
  H      0.368182    2.043699    1.284867

 Total Charge           Charge          ....    0
 Multiplicity           Mult            ....    1
 Number of Electrons    NEL             ....   38
 Basis Dimension        Dim             ....  722

ORBITAL ENERGIES
----------------

  NO   OCC          E(Eh)            E(eV)
   0   2.0000     -15.562301      -423.4717
   1   2.0000     -11.287266      -307.1421
   2   2.0000     -11.265621      -306.5531
   3   2.0000     -11.243121      -305.9409
   4   2.0000     -11.243106      -305.9405
   5   2.0000      -1.218832       -33.1661
   6   2.0000      -1.108215       -30.1561
   7   2.0000      -0.962156       -26.1816
   8   2.0000      -0.879801       -23.9406
   9   2.0000      -0.705914       -19.2089
  10   2.0000      -0.644430       -17.5358
  11   2.0000      -0.600371       -16.3369
  12   2.0000      -0.574314       -15.6279
  13   2.0000      -0.566984       -15.4284
  14   2.0000      -0.534963       -14.5571
  15   2.0000      -0.527549       -14.3553
  16   2.0000      -0.524091       -14.2612
  17   2.0000      -0.454323       -12.3628
  18   2.0000      -0.453717       -12.3463
  19   0.0000       0.020249         0.5510
  20   0.0000       0.031377         0.8538
  21   0.0000       0.031431         0.8553
  22   0.0000       0.039311         1.0697
  23   0.0000       0.053203         1.4477

MULLIKEN ATOMIC CHARGES
-----------------------
   0 N :   -0.714070
   1 C :    0.452568
   2 H :    0.339180
   3 C :    0.014910
   4 H :    0.287546
   5 H :    0.287546
   6 H :    0.243071
   7 H :    0.243071
   8 C :   -0.856248
   9 C :   -0.856248
  10 H :    0.279338
  11 H :    0.279338
Sum of atomic charges:   -0.0000000

LOEWDIN ATOMIC CHARGES
----------------------
   0 N :    0.424947
   1 C :   -0.284999
   2 H :   -0.304214
   3 C :    0.004724
   4 H :   -0.275901
   5 H :   -0.275901
   6 H :   -0.277668
   7 H :   -0.277668
   8 C :    0.911047
   9 C :    0.911047
  10 H :   -0.277707
  11 H :   -0.277707

  Mayer bond orders larger than 0.100000
B(  0-N ,  1-C ) :   2.4811 B(  1-C ,  3-C ) :   1.0074 B(  2-H ,  3-C ) :   0.8058
B(  3-C ,  8-C ) :   0.8584 B(  3-C ,  9-C ) :   0.8584 B(  4-H ,  9-C ) :   0.9404
B(  5-H ,  8-C ) :   0.9404 B(  6-H ,  8-C ) :   0.9487 B(  7-H ,  9-C ) :   0.9487
B(  8-C , 10-H ) :   0.9465 B(  9-C , 11-H ) :   0.9465

MP2 TOTAL ENERGY:     -211.008059372 Eh
FINAL SINGLE POINT ENERGY      -211.008059371583

DIPOLE MOMENT
-------------
                                X             Y             Z
Electronic contribution:     -0.20433      -6.11780       0.00000
Nuclear contribution   :      0.70038       7.78007       0.00000
                        -----------------------------------------
Total Dipole Moment    :      0.49605       1.66228       0.00000
                        -----------------------------------------
Magnitude (a.u.)       :      1.73471
Magnitude (Debye)      :      4.40929

Rotational constants in cm-1:     0.264510     0.132479     0.096638
Rotational constants in MHz :  7929.816385  3971.625079  2897.147785

                             ****ORCA TERMINATED NORMALLY****
TOTAL RUN TIME: 0 days 0 hours 12 minutes 44 seconds 614 msec
