                         Program Version 5.0.4 -  RELEASE  -
|  1> !ri-mp2 aug-cc-pvqz aug-cc-pvqz/c tightscf
|  2> %pal nprocs 16 end
|  3>
|  4> * xyz 0 1
|  5> C     -2.206969   -0.247941    0.120536
|  6> C      1.308098    1.482588   -0.007133
|  7> C     -1.084035    0.682292   -0.327997
|  8> C      0.256250    0.451574    0.355516
|  9> Cl     0.901845   -1.220351   -0.068863
| 10> H     -3.140782    0.008425   -0.380359
| 11> H     -2.375597   -0.171892    1.196607
| 12> H     -1.974733   -1.286618   -0.109767
| 13> H      0.967730    2.473657    0.301639
| 14> H      2.253331    1.274190    0.490384
| 15> H      1.481667    1.499431   -1.083110
| 16> H     -1.364879    1.719380   -0.116341
| 17> H     -0.943092    0.614242   -1.409190
| 18> H      0.124917    0.404075    1.435284
| 19> *
| 20>
| 21>                          ****END OF INPUT****

CARTESIAN COORDINATES (ANGSTROEM)
---------------------------------
  C     -2.206969   -0.247941    0.120536
  C      1.308098    1.482588   -0.007133
  C     -1.084035    0.682292   -0.327997
  C      0.256250    0.451574    0.355516
  Cl     0.901845   -1.220351   -0.068863
  H     -3.140782    0.008425   -0.380359
  H     -2.375597   -0.171892    1.196607
  H     -1.974733   -1.286618   -0.109767
  H      0.967730    2.473657    0.301639
  H      2.253331    1.274190    0.490384
  H      1.481667    1.499431   -1.083110
  H     -1.364879    1.719380   -0.116341
  H     -0.943092    0.614242   -1.409190
  H      0.124917    0.404075    1.435284

 Total Charge           Charge          ....    0
 Multiplicity           Mult            ....    1
 Number of Electrons    NEL             ....   50
 Basis Dimension        Dim             ....  818

ORBITAL ENERGIES
----------------

  NO   OCC          E(Eh)            E(eV)
   0   2.0000    -104.809491     -2852.0112
   1   2.0000     -11.298090      -307.4366
   2   2.0000     -11.235027      -305.7206
   3   2.0000     -11.229072      -305.5586
   4   2.0000     -11.216564      -305.2182
   5   2.0000     -10.535202      -286.6774
   6   2.0000      -8.002140      -217.7493
   7   2.0000      -8.000673      -217.7094
   8   2.0000      -8.000656      -217.7089
   9   2.0000      -1.141184       -31.0532
  10   2.0000      -1.035815       -28.1859
  11   2.0000      -0.991495       -26.9799
  12   2.0000      -0.876568       -23.8526
  13   2.0000      -0.790424       -21.5085
  14   2.0000      -0.649276       -17.6677
  15   2.0000      -0.612170       -16.6580
  16   2.0000      -0.604637       -16.4530
  17   2.0000      -0.583363       -15.8741
  18   2.0000      -0.539177       -14.6718
  19   2.0000      -0.513689       -13.9782
  20   2.0000      -0.499780       -13.5997
  21   2.0000      -0.493617       -13.4320
  22   2.0000      -0.475595       -12.9416
  23   2.0000      -0.425913       -11.5897
  24   2.0000      -0.425167       -11.5694
  25   0.0000       0.025169         0.6849
  26   0.0000       0.031019         0.8441
  27   0.0000       0.033675         0.9164
  28   0.0000       0.039515         1.0753
  29   0.0000       0.050103         1.3634

MULLIKEN ATOMIC CHARGES
-----------------------
   0 C :   -0.815084
   1 C :   -0.866680
   2 C :   -0.413951
   3 C :    0.231537
   4 Cl:   -0.495870
   5 H :    0.247677
   6 H :    0.231397
   7 H :    0.262903
   8 H :    0.243902
   9 H :    0.290459
  10 H :    0.231713
  11 H :    0.278511
  12 H :    0.259383
  13 H :    0.314104
Sum of atomic charges:   -0.0000000

LOEWDIN ATOMIC CHARGES
----------------------
   0 C :    0.896866
   1 C :    0.810793
   2 C :    0.389197
   3 C :   -0.493059
   4 Cl:    1.152682
   5 H :   -0.283295
   6 H :   -0.284902
   7 H :   -0.320992
   8 H :   -0.285728
   9 H :   -0.308256
  10 H :   -0.302455
  11 H :   -0.285574
  12 H :   -0.296765
  13 H :   -0.388511

  Mayer bond orders larger than 0.100000
B(  0-C ,  2-C ) :   0.9317 B(  0-C ,  5-H ) :   1.0173 B(  0-C ,  6-H ) :   0.9467
B(  0-C ,  7-H ) :   0.9359 B(  1-C ,  3-C ) :   0.7738 B(  1-C ,  8-H ) :   0.9441
B(  1-C ,  9-H ) :   0.9974 B(  1-C , 10-H ) :   0.9663 B(  2-C ,  3-C ) :   0.8566
B(  2-C , 11-H ) :   0.8447 B(  2-C , 12-H ) :   0.8832 B(  3-C ,  4-Cl) :   0.5243
B(  3-C , 13-H ) :   0.8438

MP2 TOTAL ENERGY:     -617.279822923 Eh
FINAL SINGLE POINT ENERGY      -617.279822923080

DIPOLE MOMENT
-------------
                                X             Y             Z
Electronic contribution:      5.97214      -7.50324      -0.26573
Nuclear contribution   :     -6.35195       8.40018       0.42977
                        -----------------------------------------
Total Dipole Moment    :     -0.37981       0.89694       0.16404
                        -----------------------------------------
Magnitude (a.u.)       :      0.98776
Magnitude (Debye)      :      2.51069

Rotational constants in cm-1:     0.151177     0.102324     0.065966
Rotational constants in MHz :  4532.181864  3067.588372  1977.603923

                             ****ORCA TERMINATED NORMALLY****
TOTAL RUN TIME: 0 days 0 hours 17 minutes 52 seconds 825 msec
