                         Program Version 5.0.4 -  RELEASE  -
|  1> !ri-mp2 aug-cc-pvqz aug-cc-pvqz/c tightscf
|  2> %pal nprocs 16 end
|  3>
|  4> * xyz 0 1
|  5> C     -0.735351   -0.665405    0.000000
|  6> C      0.000000    0.449055    0.000000
|  7> C     -0.272212   -2.090707    0.000000
|  8> C     -0.654331    1.805181    0.000000
|  9> C      1.503840    0.487539    0.000000
| 10> H     -1.815046   -0.542325    0.000000
| 11> H      0.811162   -2.190686    0.000000
| 12> H     -0.654737   -2.622552    0.875627
| 13> H     -0.654737   -2.622552   -0.875627
| 14> H     -1.741078    1.730857    0.000000
| 15> H     -0.352201    2.386480    0.876320
| 16> H     -0.352201    2.386480   -0.876320
| 17> H      1.872880    1.029375   -0.875759
| 18> H      1.872880    1.029375    0.875759
| 19> H      1.961399   -0.498430    0.000000
| 20> *
| 21>
| 22>                          ****END OF INPUT****

CARTESIAN COORDINATES (ANGSTROEM)
---------------------------------
  C     -0.735351   -0.665405    0.000000
  C      0.000000    0.449055    0.000000
  C     -0.272212   -2.090707    0.000000
  C     -0.654331    1.805181    0.000000
  C      1.503840    0.487539    0.000000
  H     -1.815046   -0.542325    0.000000
  H      0.811162   -2.190686    0.000000
  H     -0.654737   -2.622552    0.875627
  H     -0.654737   -2.622552   -0.875627
  H     -1.741078    1.730857    0.000000
  H     -0.352201    2.386480    0.876320
  H     -0.352201    2.386480   -0.876320
  H      1.872880    1.029375   -0.875759
  H      1.872880    1.029375    0.875759
  H      1.961399   -0.498430    0.000000

 Total Charge           Charge          ....    0
 Multiplicity           Mult            ....    1
 Number of Electrons    NEL             ....   40
 Basis Dimension        Dim             ....  860

ORBITAL ENERGIES
----------------

  NO   OCC          E(Eh)            E(eV)
   0   2.0000     -11.227068      -305.5040
   1   2.0000     -11.214369      -305.1585
   2   2.0000     -11.213612      -305.1379
   3   2.0000     -11.212939      -305.1196
   4   2.0000     -11.212868      -305.1177
   5   2.0000      -1.093921       -29.7671
   6   2.0000      -0.990649       -26.9569
   7   2.0000      -0.937154       -25.5013
   8   2.0000      -0.870033       -23.6748
   9   2.0000      -0.701197       -19.0805
  10   2.0000      -0.629842       -17.1389
  11   2.0000      -0.594353       -16.1732
  12   2.0000      -0.589962       -16.0537
  13   2.0000      -0.554685       -15.0938
  14   2.0000      -0.531717       -14.4688
  15   2.0000      -0.530879       -14.4460
  16   2.0000      -0.515981       -14.0406
  17   2.0000      -0.503324       -13.6961
  18   2.0000      -0.464397       -12.6369
  19   2.0000      -0.331352        -9.0165
  20   0.0000       0.027178         0.7395
  21   0.0000       0.031014         0.8439
  22   0.0000       0.033537         0.9126
  23   0.0000       0.038986         1.0609
  24   0.0000       0.045889         1.2487

MULLIKEN ATOMIC CHARGES
-----------------------
   0 C :   -0.492485
   1 C :    0.332714
   2 C :   -0.723943
   3 C :   -0.781882
   4 C :   -0.692864
   5 H :    0.203188
   6 H :    0.264352
   7 H :    0.219210
   8 H :    0.219210
   9 H :    0.218433
  10 H :    0.238667
  11 H :    0.238667
  12 H :    0.250093
  13 H :    0.250093
  14 H :    0.256547
Sum of atomic charges:   -0.0000000

LOEWDIN ATOMIC CHARGES
----------------------
   0 C :    0.388244
   1 C :   -0.029990
   2 C :    0.899806
   3 C :    0.880987
   4 C :    0.896558
   5 H :   -0.342271
   6 H :   -0.336150
   7 H :   -0.290503
   8 H :   -0.290503
   9 H :   -0.314736
  10 H :   -0.284727
  11 H :   -0.284727
  12 H :   -0.281086
  13 H :   -0.281086
  14 H :   -0.329817

  Mayer bond orders larger than 0.100000
B(  0-C ,  1-C ) :   1.4253 B(  0-C ,  2-C ) :   0.8582 B(  0-C ,  5-H ) :   1.0491
B(  1-C ,  2-C ) :  -0.1217 B(  1-C ,  3-C ) :   0.7671 B(  1-C ,  4-C ) :   0.6532
B(  2-C ,  6-H ) :   0.9255 B(  2-C ,  7-H ) :   1.0206 B(  2-C ,  8-H ) :   1.0206
B(  3-C ,  9-H ) :   1.0248 B(  3-C , 10-H ) :   0.9876 B(  3-C , 11-H ) :   0.9876
B(  4-C , 12-H ) :   0.9708 B(  4-C , 13-H ) :   0.9708 B(  4-C , 14-H ) :   1.0059

MP2 TOTAL ENERGY:     -196.148546908 Eh
FINAL SINGLE POINT ENERGY      -196.148546907851

DIPOLE MOMENT
-------------
                                X             Y             Z
Electronic contribution:     -0.93254      -0.06696       0.00000
Nuclear contribution   :      1.01577       0.09214       0.00000
                        -----------------------------------------
Total Dipole Moment    :      0.08322       0.02518       0.00000
                        -----------------------------------------
Magnitude (a.u.)       :      0.08695
Magnitude (Debye)      :      0.22100

Rotational constants in cm-1:     0.269333     0.117398     0.085613
Rotational constants in MHz :  8074.407490  3519.493672  2566.621603

                             ****ORCA TERMINATED NORMALLY****
TOTAL RUN TIME: 0 days 0 hours 24 minutes 0 seconds 427 msec
