                         Program Version 5.0.4 -  RELEASE  -
|  1> !ri-mp2 aug-cc-pvqz aug-cc-pvqz/c tightscf
|  2> %pal nprocs 16 end
|  3>
|  4> * xyz 0 1
|  5> S     0.000000     0.000000    1.252467
|  6> C     0.000000     1.350899   -0.004471
|  7> C     0.000000    -1.350899   -0.004471
|  8> C     0.000000     0.662535   -1.335066
|  9> C     0.000000    -0.662535   -1.335066
| 10> H    -0.881617     1.980110    0.130213
| 11> H     0.881617     1.980110    0.130213
| 12> H     0.881617    -1.980110    0.130213
| 13> H    -0.881617    -1.980110    0.130213
| 14> H     0.000000     1.252912   -2.242943
| 15> H     0.000000    -1.252912   -2.242943
| 16> *
| 17>
| 18>                          ****END OF INPUT****

CARTESIAN COORDINATES (ANGSTROEM)
---------------------------------
  S      0.000000    0.000000    1.252467
  C      0.000000    1.350899   -0.004471
  C      0.000000   -1.350899   -0.004471
  C      0.000000    0.662535   -1.335066
  C      0.000000   -0.662535   -1.335066
  H     -0.881617    1.980110    0.130213
  H      0.881617    1.980110    0.130213
  H      0.881617   -1.980110    0.130213
  H     -0.881617   -1.980110    0.130213
  H      0.000000    1.252912   -2.242943
  H      0.000000   -1.252912   -2.242943

 Total Charge           Charge          ....    0
 Multiplicity           Mult            ....    1
 Number of Electrons    NEL             ....   46
 Basis Dimension        Dim             ....  680

ORBITAL ENERGIES
----------------

  NO   OCC          E(Eh)            E(eV)
   0   2.0000     -91.940095     -2501.8172
   1   2.0000     -11.260564      -306.4155
   2   2.0000     -11.260552      -306.4152
   3   2.0000     -11.240384      -305.8664
   4   2.0000     -11.238576      -305.8172
   5   2.0000      -8.941617      -243.3138
   6   2.0000      -6.623051      -180.2224
   7   2.0000      -6.622315      -180.2023
   8   2.0000      -6.621369      -180.1766
   9   2.0000      -1.134944       -30.8834
  10   2.0000      -0.984590       -26.7921
  11   2.0000      -0.972173       -26.4542
  12   2.0000      -0.800795       -21.7907
  13   2.0000      -0.740888       -20.1606
  14   2.0000      -0.671612       -18.2755
  15   2.0000      -0.619565       -16.8592
  16   2.0000      -0.579808       -15.7774
  17   2.0000      -0.559603       -15.2276
  18   2.0000      -0.518640       -14.1129
  19   2.0000      -0.486191       -13.2299
  20   2.0000      -0.431658       -11.7460
  21   2.0000      -0.370876       -10.0921
  22   2.0000      -0.332400        -9.0451
  23   0.0000       0.025118         0.6835
  24   0.0000       0.030651         0.8341
  25   0.0000       0.038102         1.0368
  26   0.0000       0.039021         1.0618
  27   0.0000       0.046408         1.2628

MULLIKEN ATOMIC CHARGES
-----------------------
   0 S :   -0.048395
   1 C :   -0.516181
   2 C :   -0.516181
   3 C :   -0.418687
   4 C :   -0.418687
   5 H :    0.268947
   6 H :    0.268947
   7 H :    0.268947
   8 H :    0.268947
   9 H :    0.421171
  10 H :    0.421171
Sum of atomic charges:   -0.0000000

LOEWDIN ATOMIC CHARGES
----------------------
   0 S :    1.284845
   1 C :    0.128747
   2 C :    0.128747
   3 C :    0.279276
   4 C :    0.279276
   5 H :   -0.366954
   6 H :   -0.366954
   7 H :   -0.366954
   8 H :   -0.366954
   9 H :   -0.316539
  10 H :   -0.316539

  Mayer bond orders larger than 0.100000
B(  0-S ,  1-C ) :   0.9124 B(  0-S ,  2-C ) :   0.9124 B(  1-C ,  3-C ) :   0.9079
B(  1-C ,  5-H ) :   0.9090 B(  1-C ,  6-H ) :   0.9090 B(  2-C ,  4-C ) :   0.9079
B(  2-C ,  7-H ) :   0.9090 B(  2-C ,  8-H ) :   0.9090 B(  3-C ,  4-C ) :   1.7063
B(  3-C ,  9-H ) :   0.8092 B(  4-C , 10-H ) :   0.8092

MP2 TOTAL ENERGY:     -553.451467070 Eh
FINAL SINGLE POINT ENERGY      -553.451467070014

DIPOLE MOMENT
-------------
                                X             Y             Z
Electronic contribution:      0.00000       0.00000       3.25446
Nuclear contribution   :      0.00000       0.00000      -4.01480
                        -----------------------------------------
Total Dipole Moment    :      0.00000       0.00000      -0.76034
                        -----------------------------------------
Magnitude (a.u.)       :      0.76034
Magnitude (Debye)      :      1.93264

Rotational constants in cm-1:     0.220389     0.158631     0.095515
Rotational constants in MHz :  6607.104448  4755.638350  2863.467745

                             ****ORCA TERMINATED NORMALLY****
TOTAL RUN TIME: 0 days 0 hours 12 minutes 24 seconds 665 msec
