                         Program Version 5.0.4 -  RELEASE  -
|  1> !ri-mp2 aug-cc-pvqz aug-cc-pvqz/c tightscf
|  2> %pal nprocs 16 end
|  3>
|  4> * xyz 0 1
|  5> C      1.691694   -1.059638    0.022200
|  6> C      0.834706    0.103985   -0.438962
|  7> C     -0.626301   -0.051282   -0.007120
|  8> O      1.377143    1.294553    0.099907
|  9> F     -1.202071   -1.107944   -0.616961
| 10> F     -0.772758   -0.215589    1.316667
| 11> F     -1.341353    1.047142   -0.354298
| 12> H      1.723765   -1.097280    1.109737
| 13> H      2.704918   -0.923400   -0.350521
| 14> H      1.303296   -2.003475   -0.356524
| 15> H      0.809896    0.144005   -1.533728
| 16> H      0.886012    2.052862   -0.233600
| 17> *
| 18>
| 19>                          ****END OF INPUT****

CARTESIAN COORDINATES (ANGSTROEM)
---------------------------------
  C      1.691694   -1.059638    0.022200
  C      0.834706    0.103985   -0.438962
  C     -0.626301   -0.051282   -0.007120
  O      1.377143    1.294553    0.099907
  F     -1.202071   -1.107944   -0.616961
  F     -0.772758   -0.215589    1.316667
  F     -1.341353    1.047142   -0.354298
  H      1.723765   -1.097280    1.109737
  H      2.704918   -0.923400   -0.350521
  H      1.303296   -2.003475   -0.356524
  H      0.809896    0.144005   -1.533728
  H      0.886012    2.052862   -0.233600

 Total Charge           Charge          ....    0
 Multiplicity           Mult            ....    1
 Number of Electrons    NEL             ....   58
 Basis Dimension        Dim             ....  790

ORBITAL ENERGIES
----------------

  NO   OCC          E(Eh)            E(eV)
   0   2.0000     -26.338845      -716.7164
   1   2.0000     -26.338206      -716.6990
   2   2.0000     -26.336252      -716.6458
   3   2.0000     -20.585101      -560.1491
   4   2.0000     -11.504836      -313.0625
   5   2.0000     -11.323170      -308.1191
   6   2.0000     -11.236177      -305.7519
   7   2.0000      -1.726510       -46.9807
   8   2.0000      -1.634040       -44.4645
   9   2.0000      -1.632771       -44.4300
  10   2.0000      -1.394478       -37.9457
  11   2.0000      -1.077137       -29.3104
  12   2.0000      -0.973996       -26.5038
  13   2.0000      -0.881400       -23.9841
  14   2.0000      -0.823808       -22.4169
  15   2.0000      -0.820801       -22.3351
  16   2.0000      -0.788079       -21.4447
  17   2.0000      -0.732909       -19.9435
  18   2.0000      -0.712988       -19.4014
  19   2.0000      -0.699966       -19.0470
  20   2.0000      -0.667749       -18.1704
  21   2.0000      -0.664922       -18.0935
  22   2.0000      -0.651663       -17.7326
  23   2.0000      -0.634229       -17.2582
  24   2.0000      -0.599888       -16.3238
  25   2.0000      -0.561396       -15.2764
  26   2.0000      -0.553282       -15.0556
  27   2.0000      -0.521941       -14.2027
  28   2.0000      -0.482013       -13.1163
  29   0.0000       0.024695         0.6720
  30   0.0000       0.033993         0.9250
  31   0.0000       0.038308         1.0424
  32   0.0000       0.043836         1.1928
  33   0.0000       0.055702         1.5157

MULLIKEN ATOMIC CHARGES
-----------------------
   0 C :   -0.877181
   1 C :    0.317463
   2 C :    1.886480
   3 O :   -0.823899
   4 F :   -0.653449
   5 F :   -0.640259
   6 F :   -0.666038
   7 H :    0.255006
   8 H :    0.278442
   9 H :    0.249901
  10 H :    0.350186
  11 H :    0.323347
Sum of atomic charges:   -0.0000000

LOEWDIN ATOMIC CHARGES
----------------------
   0 C :    0.889011
   1 C :   -0.355708
   2 C :   -2.122515
   3 O :    1.277689
   4 F :    0.766979
   5 F :    0.772847
   6 F :    0.756622
   7 H :   -0.293763
   8 H :   -0.283786
   9 H :   -0.290411
  10 H :   -0.320064
  11 H :   -0.796900

  Mayer bond orders larger than 0.100000
B(  0-C ,  1-C ) :   0.8365 B(  0-C ,  7-H ) :   0.9237 B(  0-C ,  8-H ) :   0.9441
B(  0-C ,  9-H ) :   0.9917 B(  1-C ,  2-C ) :   0.9735 B(  1-C ,  3-O ) :   0.5491
B(  1-C , 10-H ) :   0.8171 B(  2-C ,  4-F ) :   0.4319 B(  2-C ,  5-F ) :   0.4495
B(  2-C ,  6-F ) :   0.4131 B(  3-O , 11-H ) :   0.9123

MP2 TOTAL ENERGY:     -491.568043391 Eh
FINAL SINGLE POINT ENERGY      -491.568043390935

DIPOLE MOMENT
-------------
                                X             Y             Z
Electronic contribution:     -9.75715       1.45663       1.02568
Nuclear contribution   :     10.24157      -1.46483      -1.62742
                        -----------------------------------------
Total Dipole Moment    :      0.48441      -0.00820      -0.60175
                        -----------------------------------------
Magnitude (a.u.)       :      0.77254
Magnitude (Debye)      :      1.96365

Rotational constants in cm-1:     0.116768     0.079281     0.065036
Rotational constants in MHz :  3500.624039  2376.793361  1949.731357

                             ****ORCA TERMINATED NORMALLY****
TOTAL RUN TIME: 0 days 0 hours 17 minutes 41 seconds 189 msec
