                         Program Version 5.0.4 -  RELEASE  -
|  1> !ri-mp2 aug-cc-pvqz aug-cc-pvqz/c tightscf
|  2> %pal nprocs 16 end
|  3>
|  4> * xyz 0 1
|  5> C      0.295502    2.961166    0.000000
|  6> H      1.366295    2.756811    0.000000
|  7> H      0.066568    3.574997    0.875789
|  8> H      0.066568    3.574997   -0.875789
|  9> C      1.035454   -2.497577    0.000000
| 10> H      1.764853   -1.690390    0.000000
| 11> H      1.228827   -3.123576   -0.875540
| 12> H      1.228827   -3.123576    0.875540
| 13> C     -0.380018   -2.011080    0.000000
| 14> H     -1.135032   -2.790309    0.000000
| 15> C     -0.810657   -0.742182    0.000000
| 16> H     -1.883957   -0.578533    0.000000
| 17> C      0.000000    0.461923    0.000000
| 18> H      1.078980    0.347754    0.000000
| 19> C     -0.506126    1.700221    0.000000
| 20> H     -1.586860    1.816991    0.000000
| 21> *
| 22>
| 23>                          ****END OF INPUT****

CARTESIAN COORDINATES (ANGSTROEM)
---------------------------------
  C      0.295502    2.961166    0.000000
  H      1.366295    2.756811    0.000000
  H      0.066568    3.574997    0.875789
  H      0.066568    3.574997   -0.875789
  C      1.035454   -2.497577    0.000000
  H      1.764853   -1.690390    0.000000
  H      1.228827   -3.123576   -0.875540
  H      1.228827   -3.123576    0.875540
  C     -0.380018   -2.011080    0.000000
  H     -1.135032   -2.790309    0.000000
  C     -0.810657   -0.742182    0.000000
  H     -1.883957   -0.578533    0.000000
  C      0.000000    0.461923    0.000000
  H      1.078980    0.347754    0.000000
  C     -0.506126    1.700221    0.000000
  H     -1.586860    1.816991    0.000000

 Total Charge           Charge          ....    0
 Multiplicity           Mult            ....    1
 Number of Electrons    NEL             ....   46
 Basis Dimension        Dim             ....  940

ORBITAL ENERGIES
----------------

  NO   OCC          E(Eh)            E(eV)
   0   2.0000     -11.229899      -305.5811
   1   2.0000     -11.227057      -305.5038
   2   2.0000     -11.222997      -305.3933
   3   2.0000     -11.222139      -305.3699
   4   2.0000     -11.220355      -305.3214
   5   2.0000     -11.218897      -305.2817
   6   2.0000      -1.099024       -29.9060
   7   2.0000      -1.046488       -28.4764
   8   2.0000      -0.965047       -26.2603
   9   2.0000      -0.903028       -24.5726
  10   2.0000      -0.778595       -21.1867
  11   2.0000      -0.729333       -19.8462
  12   2.0000      -0.647146       -17.6097
  13   2.0000      -0.616744       -16.7825
  14   2.0000      -0.569485       -15.4965
  15   2.0000      -0.568180       -15.4610
  16   2.0000      -0.564417       -15.3586
  17   2.0000      -0.539222       -14.6730
  18   2.0000      -0.517809       -14.0903
  19   2.0000      -0.508471       -13.8362
  20   2.0000      -0.471737       -12.8366
  21   2.0000      -0.423650       -11.5281
  22   2.0000      -0.301308        -8.1990
  23   0.0000       0.024967         0.6794
  24   0.0000       0.028701         0.7810
  25   0.0000       0.031310         0.8520
  26   0.0000       0.040137         1.0922
  27   0.0000       0.044858         1.2206

MULLIKEN ATOMIC CHARGES
-----------------------
   0 C :   -0.683863
   1 H :    0.240022
   2 H :    0.226263
   3 H :    0.226263
   4 C :   -0.708575
   5 H :    0.293991
   6 H :    0.223254
   7 H :    0.223254
   8 C :   -0.243773
   9 H :    0.334683
  10 C :   -0.548626
  11 H :    0.314131
  12 C :   -0.377277
  13 H :    0.378897
  14 C :   -0.244029
  15 H :    0.345384
Sum of atomic charges:    0.0000000

LOEWDIN ATOMIC CHARGES
----------------------
   0 C :    0.889296
   1 H :   -0.315765
   2 H :   -0.295777
   3 H :   -0.295777
   4 C :    0.887903
   5 H :   -0.333619
   6 H :   -0.291997
   7 H :   -0.291997
   8 C :    0.380456
   9 H :   -0.336244
  10 C :    0.338663
  11 H :   -0.361410
  12 C :    0.340586
  13 H :   -0.364409
  14 C :    0.378735
  15 H :   -0.328646

  Mayer bond orders larger than 0.100000
B(  0-C ,  1-H ) :   0.9574 B(  0-C ,  2-H ) :   0.9890 B(  0-C ,  3-H ) :   0.9890
B(  0-C , 12-C ) :  -0.2364 B(  0-C , 14-C ) :   0.9101 B(  4-C ,  5-H ) :   0.9340
B(  4-C ,  6-H ) :   0.9764 B(  4-C ,  7-H ) :   0.9764 B(  4-C ,  8-C ) :   0.8375
B(  8-C ,  9-H ) :   0.9391 B(  8-C , 10-C ) :   1.6666 B(  8-C , 12-C ) :  -0.3234
B(  9-H , 10-C ) :  -0.1544 B( 10-C , 11-H ) :   0.9117 B( 10-C , 12-C ) :   0.9144
B( 10-C , 14-C ) :  -0.3472 B( 12-C , 13-H ) :   0.8123 B( 12-C , 14-C ) :   1.4197
B( 14-C , 15-H ) :   0.8484

MP2 TOTAL ENERGY:     -234.163081119 Eh
FINAL SINGLE POINT ENERGY      -234.163081119238

DIPOLE MOMENT
-------------
                                X             Y             Z
Electronic contribution:     -2.20455      -0.73033       0.00000
Nuclear contribution   :      2.30851       0.80471       0.00000
                        -----------------------------------------
Total Dipole Moment    :      0.10397       0.07438       0.00000
                        -----------------------------------------
Magnitude (a.u.)       :      0.12783
Magnitude (Debye)      :      0.32493

Rotational constants in cm-1:     0.373861     0.048912     0.043951
Rotational constants in MHz : 11208.067508  1466.345943  1317.603548

                             ****ORCA TERMINATED NORMALLY****
TOTAL RUN TIME: 0 days 0 hours 31 minutes 15 seconds 250 msec
