                         Program Version 5.0.4 -  RELEASE  -
|  1> !ri-mp2 aug-cc-pvqz aug-cc-pvqz/c tightscf
|  2> %pal nprocs 16 end
|  3>
|  4> * xyz 0 1
|  5> C     1.447868    1.099623    0.000000
|  6> C    -1.447868   -1.099623    0.000000
|  7> C     2.286737    0.027705    0.000000
|  8> C    -2.286737   -0.027705    0.000000
|  9> C     0.088213    0.687881    0.000000
| 10> C    -0.088213   -0.687881    0.000000
| 11> S     1.447868   -1.498577    0.000000
| 12> S    -1.447868    1.498577    0.000000
| 13> H     1.786562    2.124058    0.000000
| 14> H    -1.786562   -2.124058    0.000000
| 15> H     3.363551    0.035733    0.000000
| 16> H    -3.363551   -0.035733    0.000000
| 17> *
| 18>
| 19>                          ****END OF INPUT****

CARTESIAN COORDINATES (ANGSTROEM)
---------------------------------
  C      1.447868    1.099623    0.000000
  C     -1.447868   -1.099623    0.000000
  C      2.286737    0.027705    0.000000
  C     -2.286737   -0.027705    0.000000
  C      0.088213    0.687881    0.000000
  C     -0.088213   -0.687881    0.000000
  S      1.447868   -1.498577    0.000000
  S     -1.447868    1.498577    0.000000
  H      1.786562    2.124058    0.000000
  H     -1.786562   -2.124058    0.000000
  H      3.363551    0.035733    0.000000
  H     -3.363551   -0.035733    0.000000

 Total Charge           Charge          ....    0
 Multiplicity           Mult            ....    1
 Number of Electrons    NEL             ....   72
 Basis Dimension        Dim             ....  832

ORBITAL ENERGIES
----------------

  NO   OCC          E(Eh)            E(eV)
   0   2.0000     -91.986919     -2503.0913
   1   2.0000     -91.986919     -2503.0913
   2   2.0000     -11.270519      -306.6864
   3   2.0000     -11.270518      -306.6864
   4   2.0000     -11.268327      -306.6268
   5   2.0000     -11.267025      -306.5913
   6   2.0000     -11.250800      -306.1498
   7   2.0000     -11.250796      -306.1497
   8   2.0000      -8.987848      -244.5718
   9   2.0000      -8.987846      -244.5717
  10   2.0000      -6.669173      -181.4774
  11   2.0000      -6.669173      -181.4774
  12   2.0000      -6.668736      -181.4655
  13   2.0000      -6.668736      -181.4655
  14   2.0000      -6.667954      -181.4443
  15   2.0000      -6.667954      -181.4442
  16   2.0000      -1.206426       -32.8285
  17   2.0000      -1.119084       -30.4518
  18   2.0000      -1.022294       -27.8180
  19   2.0000      -0.964545       -26.2466
  20   2.0000      -0.944906       -25.7122
  21   2.0000      -0.801656       -21.8142
  22   2.0000      -0.764643       -20.8070
  23   2.0000      -0.717177       -19.5154
  24   2.0000      -0.668586       -18.1931
  25   2.0000      -0.641396       -17.4533
  26   2.0000      -0.566206       -15.4072
  27   2.0000      -0.564015       -15.3476
  28   2.0000      -0.536529       -14.5997
  29   2.0000      -0.530779       -14.4432
  30   2.0000      -0.498647       -13.5689
  31   2.0000      -0.468465       -12.7476
  32   2.0000      -0.461226       -12.5506
  33   2.0000      -0.389339       -10.5944
  34   2.0000      -0.322179        -8.7669
  35   2.0000      -0.301806        -8.2126
  36   0.0000       0.025737         0.7003
  37   0.0000       0.026463         0.7201
  38   0.0000       0.033291         0.9059
  39   0.0000       0.038945         1.0598
  40   0.0000       0.058843         1.6012

MULLIKEN ATOMIC CHARGES
-----------------------
   0 C :   -0.279016
   1 C :   -0.279011
   2 C :   -0.739414
   3 C :   -0.739416
   4 C :    0.059441
   5 C :    0.059440
   6 S :    0.122690
   7 S :    0.122687
   8 H :    0.397753
   9 H :    0.397750
  10 H :    0.438549
  11 H :    0.438549
Sum of atomic charges:    0.0000000

LOEWDIN ATOMIC CHARGES
----------------------
   0 C :    0.157048
   1 C :    0.157048
   2 C :   -0.070581
   3 C :   -0.070581
   4 C :   -0.695542
   5 C :   -0.695542
   6 S :    1.356106
   7 S :    1.356106
   8 H :   -0.338120
   9 H :   -0.338120
  10 H :   -0.408910
  11 H :   -0.408910

  Mayer bond orders larger than 0.100000
B(  0-C ,  2-C ) :   1.6013 B(  0-C ,  4-C ) :   0.8108 B(  0-C ,  5-C ) :  -0.1274
B(  0-C ,  8-H ) :   0.8800 B(  1-C ,  3-C ) :   1.6013 B(  1-C ,  4-C ) :  -0.1274
B(  1-C ,  5-C ) :   0.8108 B(  1-C ,  9-H ) :   0.8800 B(  2-C ,  4-C ) :  -0.1733
B(  2-C ,  5-C ) :  -0.1860 B(  2-C ,  6-S ) :   1.2565 B(  2-C , 10-H ) :   0.8177
B(  3-C ,  4-C ) :  -0.1860 B(  3-C ,  5-C ) :  -0.1733 B(  3-C ,  7-S ) :   1.2565
B(  3-C , 11-H ) :   0.8177 B(  4-C ,  5-C ) :   0.9476 B(  4-C ,  7-S ) :   0.8776
B(  5-C ,  6-S ) :   0.8776

MP2 TOTAL ENERGY:    -1026.094749009 Eh
FINAL SINGLE POINT ENERGY     -1026.094749008594

DIPOLE MOMENT
-------------
                                X             Y             Z
Electronic contribution:     -0.00000      -0.00000       0.00000
Nuclear contribution   :      0.00000       0.00000       0.00000
                        -----------------------------------------
Total Dipole Moment    :     -0.00000      -0.00000       0.00000
                        -----------------------------------------
Magnitude (a.u.)       :      0.00000
Magnitude (Debye)      :      0.00000

Rotational constants in cm-1:     0.111868     0.044055     0.031607
Rotational constants in MHz :  3353.724472  1320.725729   947.566025

                             ****ORCA TERMINATED NORMALLY****
TOTAL RUN TIME: 0 days 0 hours 31 minutes 18 seconds 677 msec
