                         Program Version 5.0.4 -  RELEASE  -
|  1> !ri-mp2 aug-cc-pvqz aug-cc-pvqz/c tightscf
|  2> %pal nprocs 16 end
|  3>
|  4> * xyz 0 1
|  5> O    -0.433596    1.791440   -0.034122
|  6> C     0.092369    0.494830   -0.264861
|  7> C    -0.760877   -0.602898    0.406048
|  8> S    -2.513763   -0.566762   -0.143480
|  9> S     2.654148   -0.553579   -0.123783
| 10> C     1.477017    0.465249    0.314637
| 11> H    -1.327788    1.811360   -0.398006
| 12> H     0.147240    0.280150   -1.336058
| 13> H    -0.734102   -0.508767    1.489120
| 14> H    -0.369979   -1.580613    0.134186
| 15> H    -2.975713    0.256316    0.814023
| 16> H     1.631903    1.192396    1.110975
| 17> *
| 18>
| 19>                          ****END OF INPUT****

CARTESIAN COORDINATES (ANGSTROEM)
---------------------------------
  O     -0.433596    1.791440   -0.034122
  C      0.092369    0.494830   -0.264861
  C     -0.760877   -0.602898    0.406048
  S     -2.513763   -0.566762   -0.143480
  S      2.654148   -0.553579   -0.123783
  C      1.477017    0.465249    0.314637
  H     -1.327788    1.811360   -0.398006
  H      0.147240    0.280150   -1.336058
  H     -0.734102   -0.508767    1.489120
  H     -0.369979   -1.580613    0.134186
  H     -2.975713    0.256316    0.814023
  H      1.631903    1.192396    1.110975

 Total Charge           Charge          ....    0
 Multiplicity           Mult            ....    1
 Number of Electrons    NEL             ....   64
 Basis Dimension        Dim             ....  764

ORBITAL ENERGIES
----------------

  NO   OCC          E(Eh)            E(eV)
   0   2.0000     -91.973965     -2502.7388
   1   2.0000     -91.949862     -2502.0829
   2   2.0000     -20.580060      -560.0119
   3   2.0000     -11.325107      -308.1718
   4   2.0000     -11.318066      -307.9802
   5   2.0000     -11.285981      -307.1072
   6   2.0000      -8.976143      -244.2533
   7   2.0000      -8.953168      -243.6281
   8   2.0000      -6.657659      -181.1641
   9   2.0000      -6.656791      -181.1405
  10   2.0000      -6.655924      -181.1169
  11   2.0000      -6.634120      -180.5236
  12   2.0000      -6.633772      -180.5141
  13   2.0000      -6.632137      -180.4696
  14   2.0000      -1.390865       -37.8473
  15   2.0000      -1.113949       -30.3121
  16   2.0000      -1.055547       -28.7229
  17   2.0000      -0.953368       -25.9425
  18   2.0000      -0.860157       -23.4061
  19   2.0000      -0.787754       -21.4359
  20   2.0000      -0.709802       -19.3147
  21   2.0000      -0.664708       -18.0876
  22   2.0000      -0.644058       -17.5257
  23   2.0000      -0.605822       -16.4853
  24   2.0000      -0.551575       -15.0091
  25   2.0000      -0.539502       -14.6806
  26   2.0000      -0.531148       -14.4533
  27   2.0000      -0.486414       -13.2360
  28   2.0000      -0.471955       -12.8426
  29   2.0000      -0.408508       -11.1161
  30   2.0000      -0.382903       -10.4193
  31   2.0000      -0.351988        -9.5781
  32   0.0000       0.024307         0.6614
  33   0.0000       0.033058         0.8995
  34   0.0000       0.035326         0.9613
  35   0.0000       0.037387         1.0173
  36   0.0000       0.039078         1.0634

MULLIKEN ATOMIC CHARGES
-----------------------
   0 O :   -0.882117
   1 C :    0.674298
   2 C :   -0.623035
   3 S :   -0.183889
   4 S :   -0.039098
   5 C :   -0.684103
   6 H :    0.337106
   7 H :    0.386904
   8 H :    0.298852
   9 H :    0.310721
  10 H :    0.050064
  11 H :    0.354297
Sum of atomic charges:   -0.0000000

LOEWDIN ATOMIC CHARGES
----------------------
   0 O :    1.257224
   1 C :   -0.477300
   2 C :    0.086696
   3 S :    1.606884
   4 S :    1.148886
   5 C :   -0.441605
   6 H :   -0.858683
   7 H :   -0.360697
   8 H :   -0.362395
   9 H :   -0.393739
  10 H :   -0.762605
  11 H :   -0.442666

  Mayer bond orders larger than 0.100000
B(  0-O ,  1-C ) :   0.4739 B(  0-O ,  2-C ) :   0.1040 B(  0-O ,  5-C ) :   0.1299
B(  0-O ,  6-H ) :   0.8923 B(  1-C ,  2-C ) :   0.8524 B(  1-C ,  5-C ) :   0.7506
B(  1-C ,  7-H ) :   0.8314 B(  2-C ,  3-S ) :   0.8684 B(  2-C ,  8-H ) :   0.8762
B(  2-C ,  9-H ) :   0.9015 B(  3-S , 10-H ) :   1.0383 B(  4-S ,  5-C ) :   1.7618
B(  5-C , 11-H ) :   0.8724

MP2 TOTAL ENERGY:     -988.293510655 Eh
FINAL SINGLE POINT ENERGY      -988.293510654962

DIPOLE MOMENT
-------------
                                X             Y             Z
Electronic contribution:      2.82851      -1.34118      -1.46483
Nuclear contribution   :     -3.57994       1.48884       1.79208
                        -----------------------------------------
Total Dipole Moment    :     -0.75143       0.14766       0.32725
                        -----------------------------------------
Magnitude (a.u.)       :      0.83280
Magnitude (Debye)      :      2.11680

Rotational constants in cm-1:     0.168079     0.034406     0.029694
Rotational constants in MHz :  5038.890775  1031.470054   890.202053

                             ****ORCA TERMINATED NORMALLY****
TOTAL RUN TIME: 0 days 0 hours 20 minutes 0 seconds 857 msec
