                         Program Version 5.0.4 -  RELEASE  -
|  1> !ri-mp2 aug-cc-pvqz aug-cc-pvqz/c tightscf
|  2> %pal nprocs 16 end
|  3>
|  4> * xyz 0 1
|  5> F      2.232197   -0.973360        0.000000
|  6> F     -2.243497   -1.002072        0.000000
|  7> N     -0.001263   -1.004142        0.000000
|  8> N      1.229175    1.028037        0.000001
|  9> C      1.103378   -0.278453        0.000000
| 10> C     -1.109868   -0.306047        0.000000
| 11> C     -1.160118    1.080797        0.000001
| 12> C      0.074651    1.704920        0.000001
| 13> H     -2.093703    1.619545        0.000001
| 14> H      0.151768    2.784779        0.000002
| 15> *
| 16>
| 17>                          ****END OF INPUT****

CARTESIAN COORDINATES (ANGSTROEM)
---------------------------------
  F      2.232197   -0.973360    0.000000
  F     -2.243497   -1.002072    0.000000
  N     -0.001263   -1.004142    0.000000
  N      1.229175    1.028037    0.000001
  C      1.103378   -0.278453    0.000000
  C     -1.109868   -0.306047    0.000000
  C     -1.160118    1.080797    0.000001
  C      0.074651    1.704920    0.000001
  H     -2.093703    1.619545    0.000001
  H      0.151768    2.784779    0.000002

 Total Charge           Charge          ....    0
 Multiplicity           Mult            ....    1
 Number of Electrons    NEL             ....   58
 Basis Dimension        Dim             ....  732

ORBITAL ENERGIES
----------------

  NO   OCC          E(Eh)            E(eV)
   0   2.0000     -26.348695      -716.9844
   1   2.0000     -26.336925      -716.6642
   2   2.0000     -15.603095      -424.5818
   3   2.0000     -15.596190      -424.3939
   4   2.0000     -11.429726      -311.0186
   5   2.0000     -11.416135      -310.6488
   6   2.0000     -11.333883      -308.4106
   7   2.0000     -11.271579      -306.7153
   8   2.0000      -1.675267       -45.5863
   9   2.0000      -1.667847       -45.3844
  10   2.0000      -1.356302       -36.9069
  11   2.0000      -1.244676       -33.8694
  12   2.0000      -1.105631       -30.0858
  13   2.0000      -0.943439       -25.6723
  14   2.0000      -0.937267       -25.5043
  15   2.0000      -0.823113       -22.3980
  16   2.0000      -0.804909       -21.9027
  17   2.0000      -0.744430       -20.2570
  18   2.0000      -0.729951       -19.8630
  19   2.0000      -0.726189       -19.7606
  20   2.0000      -0.711302       -19.3555
  21   2.0000      -0.689891       -18.7729
  22   2.0000      -0.645446       -17.5635
  23   2.0000      -0.620902       -16.8956
  24   2.0000      -0.591067       -16.0837
  25   2.0000      -0.533150       -14.5078
  26   2.0000      -0.460470       -12.5300
  27   2.0000      -0.459231       -12.4963
  28   2.0000      -0.401222       -10.9178
  29   0.0000       0.018907         0.5145
  30   0.0000       0.031972         0.8700
  31   0.0000       0.048645         1.3237
  32   0.0000       0.053511         1.4561
  33   0.0000       0.063169         1.7189

MULLIKEN ATOMIC CHARGES
-----------------------
   0 F :   -0.660940
   1 F :   -0.691172
   2 N :   -0.421153
   3 N :   -0.463523
   4 C :    1.028784
   5 C :    1.021517
   6 C :   -0.476721
   7 C :   -0.249231
   8 H :    0.457183
   9 H :    0.455256
Sum of atomic charges:    0.0000000

LOEWDIN ATOMIC CHARGES
----------------------
   0 F :    0.767578
   1 F :    0.791384
   2 N :    0.494285
   3 N :    0.537357
   4 C :   -1.264693
   5 C :   -0.996762
   6 C :    0.292350
   7 C :    0.051432
   8 H :   -0.339683
   9 H :   -0.333247

  Mayer bond orders larger than 0.100000
B(  0-F ,  4-C ) :   0.6409 B(  1-F ,  5-C ) :   0.4997 B(  2-N ,  4-C ) :   1.4174
B(  2-N ,  5-C ) :   1.3427 B(  3-N ,  4-C ) :   1.5133 B(  3-N ,  7-C ) :   1.2210
B(  5-C ,  6-C ) :   1.3520 B(  5-C ,  7-C ) :  -0.1261 B(  6-C ,  7-C ) :   1.2716
B(  6-C ,  8-H ) :   0.7830 B(  7-C ,  9-H ) :   0.8943

MP2 TOTAL ENERGY:     -462.233128781 Eh
FINAL SINGLE POINT ENERGY      -462.233128780608

DIPOLE MOMENT
-------------
                                X             Y             Z
Electronic contribution:      0.98160      -4.75187      -0.00000
Nuclear contribution   :     -1.80521       5.96434       0.00000
                        -----------------------------------------
Total Dipole Moment    :     -0.82361       1.21247      -0.00000
                        -----------------------------------------
Magnitude (a.u.)       :      1.46575
Magnitude (Debye)      :      3.72564

Rotational constants in cm-1:     0.132688     0.064446     0.043377
Rotational constants in MHz :  3977.887130  1932.030844  1300.424247

                             ****ORCA TERMINATED NORMALLY****
TOTAL RUN TIME: 0 days 0 hours 14 minutes 34 seconds 917 msec
