                         Program Version 5.0.4 -  RELEASE  -
|  1> !ri-mp2 aug-cc-pvqz aug-cc-pvqz/c tightscf
|  2> %pal nprocs 16 end
|  3> %maxcore 3800
|  4>
|  5> * xyz 0 1
|  6> C     2.997773    0.483515    0.000057
|  7> C     1.557720    0.984322    0.000121
|  8> S     0.416742   -0.436191   -0.000065
|  9> O     0.613609   -1.153289    1.261894
| 10> O     0.613589   -1.152943   -1.262224
| 11> C    -1.319656    0.252037    0.000043
| 12> C    -1.530669    1.078796   -1.268848
| 13> C    -2.218473   -0.990363   -0.000134
| 14> C    -1.530653    1.078424    1.269179
| 15> H     3.200853   -0.118000    0.883955
| 16> H     3.200858   -0.117760   -0.884004
| 17> H     3.675634    1.337082    0.000174
| 18> H     1.333115    1.569196   -0.889556
| 19> H     1.333115    1.568964    0.889950
| 20> H    -1.294421    0.500665   -2.160245
| 21> H    -2.578720    1.378917   -1.323741
| 22> H    -0.931778    1.989640   -1.272598
| 23> H    -2.047743   -1.601398    0.884308
| 24> H    -3.260021   -0.665474   -0.000085
| 25> H    -2.047745   -1.601141   -0.884754
| 26> H    -0.931790    1.989286    1.273173
| 27> H    -2.578712    1.378497    1.324194
| 28> H    -1.294359    0.500043    2.160402
| 29> *
| 30>
| 31>                          ****END OF INPUT****

CARTESIAN COORDINATES (ANGSTROEM)
---------------------------------
  C      2.997773    0.483515    0.000057
  C      1.557720    0.984322    0.000121
  S      0.416742   -0.436191   -0.000065
  O      0.613609   -1.153289    1.261894
  O      0.613589   -1.152943   -1.262224
  C     -1.319656    0.252037    0.000043
  C     -1.530669    1.078796   -1.268848
  C     -2.218473   -0.990363   -0.000134
  C     -1.530653    1.078424    1.269179
  H      3.200853   -0.118000    0.883955
  H      3.200858   -0.117760   -0.884004
  H      3.675634    1.337082    0.000174
  H      1.333115    1.569196   -0.889556
  H      1.333115    1.568964    0.889950
  H     -1.294421    0.500665   -2.160245
  H     -2.578720    1.378917   -1.323741
  H     -0.931778    1.989640   -1.272598
  H     -2.047743   -1.601398    0.884308
  H     -3.260021   -0.665474   -0.000085
  H     -2.047745   -1.601141   -0.884754
  H     -0.931790    1.989286    1.273173
  H     -2.578712    1.378497    1.324194
  H     -1.294359    0.500043    2.160402

 Total Charge           Charge          ....    0
 Multiplicity           Mult            ....    1
 Number of Electrons    NEL             ....   82
 Basis Dimension        Dim             .... 1368

ORBITAL ENERGIES
----------------

  NO   OCC          E(Eh)            E(eV)
   0   2.0000     -92.153695     -2507.6295
   1   2.0000     -20.529083      -558.6247
   2   2.0000     -20.529063      -558.6242
   3   2.0000     -11.289079      -307.1914
   4   2.0000     -11.274128      -306.7846
   5   2.0000     -11.237508      -305.7881
   6   2.0000     -11.237492      -305.7877
   7   2.0000     -11.233689      -305.6842
   8   2.0000     -11.228473      -305.5423
   9   2.0000      -9.125048      -248.3052
  10   2.0000      -6.809930      -185.3076
  11   2.0000      -6.809392      -185.2930
  12   2.0000      -6.809120      -185.2856
  13   2.0000      -1.425689       -38.7950
  14   2.0000      -1.315778       -35.8042
  15   2.0000      -1.126652       -30.6578
  16   2.0000      -1.071251       -29.1502
  17   2.0000      -0.961978       -26.1768
  18   2.0000      -0.956418       -26.0255
  19   2.0000      -0.923810       -25.1382
  20   2.0000      -0.840108       -22.8605
  21   2.0000      -0.750256       -20.4155
  22   2.0000      -0.689829       -18.7712
  23   2.0000      -0.659146       -17.9363
  24   2.0000      -0.654408       -17.8073
  25   2.0000      -0.631691       -17.1892
  26   2.0000      -0.624425       -16.9915
  27   2.0000      -0.604853       -16.4589
  28   2.0000      -0.581736       -15.8299
  29   2.0000      -0.566525       -15.4159
  30   2.0000      -0.562568       -15.3083
  31   2.0000      -0.546250       -14.8642
  32   2.0000      -0.539733       -14.6869
  33   2.0000      -0.539294       -14.6749
  34   2.0000      -0.522619       -14.2212
  35   2.0000      -0.498533       -13.5658
  36   2.0000      -0.498363       -13.5611
  37   2.0000      -0.482243       -13.1225
  38   2.0000      -0.468720       -12.7545
  39   2.0000      -0.454986       -12.3808
  40   2.0000      -0.407725       -11.0948
  41   0.0000       0.018680         0.5083
  42   0.0000       0.025093         0.6828
  43   0.0000       0.030385         0.8268
  44   0.0000       0.033906         0.9226
  45   0.0000       0.043105         1.1730

MULLIKEN ATOMIC CHARGES
-----------------------
   0 C :   -0.878650
   1 C :   -0.513875
   2 S :    2.611279
   3 O :   -1.460468
   4 O :   -1.460492
   5 C :    1.513104
   6 C :   -1.175575
   7 C :   -1.231270
   8 C :   -1.175559
   9 H :    0.241659
  10 H :    0.241658
  11 H :    0.309018
  12 H :    0.328890
  13 H :    0.328883
  14 H :    0.267367
  15 H :    0.279145
  16 H :    0.215979
  17 H :    0.253926
  18 H :    0.288559
  19 H :    0.253906
  20 H :    0.215995
  21 H :    0.279138
  22 H :    0.267382
Sum of atomic charges:    0.0000000

LOEWDIN ATOMIC CHARGES
----------------------
   0 C :    0.894792
   1 C :    0.422138
   2 S :   -0.156094
   3 O :    0.335975
   4 O :    0.335974
   5 C :   -0.375892
   6 C :    0.876907
   7 C :    0.864607
   8 C :    0.876906
   9 H :   -0.295657
  10 H :   -0.295655
  11 H :   -0.281320
  12 H :   -0.328035
  13 H :   -0.328035
  14 H :   -0.289548
  15 H :   -0.268880
  16 H :   -0.290334
  17 H :   -0.288246
  18 H :   -0.272593
  19 H :   -0.288248
  20 H :   -0.290332
  21 H :   -0.268880
  22 H :   -0.289551

  Mayer bond orders larger than 0.100000
B(  0-C ,  1-C ) :   0.7236 B(  0-C ,  9-H ) :   0.9839 B(  0-C , 10-H ) :   0.9839
B(  0-C , 11-H ) :   0.9722 B(  1-C ,  2-S ) :   0.9131 B(  1-C , 11-H ) :  -0.1182
B(  1-C , 12-H ) :   0.8310 B(  1-C , 13-H ) :   0.8310 B(  2-S ,  3-O ) :   0.6794
B(  2-S ,  4-O ) :   0.6794 B(  2-S ,  5-C ) :   0.9807 B(  2-S ,  7-C ) :   0.1467
B(  3-O ,  4-O ) :   0.1440 B(  3-O ,  5-C ) :  -0.1920 B(  3-O ,  8-C ) :   0.1231
B(  4-O ,  5-C ) :  -0.1920 B(  4-O ,  6-C ) :   0.1231 B(  5-C ,  6-C ) :   0.3791
B(  5-C ,  7-C ) :   0.2177 B(  5-C ,  8-C ) :   0.3791 B(  5-C , 16-H ) :  -0.1513
B(  5-C , 17-H ) :  -0.1381 B(  5-C , 19-H ) :  -0.1381 B(  5-C , 20-H ) :  -0.1513
B(  6-C ,  7-C ) :   0.1374 B(  6-C ,  8-C ) :   0.1080 B(  6-C , 14-H ) :   1.0509
B(  6-C , 15-H ) :   0.9810 B(  6-C , 16-H ) :   1.0693 B(  7-C ,  8-C ) :   0.1374
B(  7-C , 17-H ) :   1.0548 B(  7-C , 18-H ) :   0.9706 B(  7-C , 19-H ) :   1.0548
B(  8-C , 20-H ) :   1.0693 B(  8-C , 21-H ) :   0.9810 B(  8-C , 22-H ) :   1.0509

MP2 TOTAL ENERGY:     -784.644629532 Eh
FINAL SINGLE POINT ENERGY      -784.644629531798

DIPOLE MOMENT
-------------
                                X             Y             Z
Electronic contribution:      3.71475      -6.38994      -0.00093
Nuclear contribution   :     -4.32089       8.28831       0.00120
                        -----------------------------------------
Total Dipole Moment    :     -0.60614       1.89837       0.00027
                        -----------------------------------------
Magnitude (a.u.)       :      1.99279
Magnitude (Debye)      :      5.06527

Rotational constants in cm-1:     0.070713     0.035330     0.034102
Rotational constants in MHz :  2119.926187  1059.160177  1022.355102

                             ****ORCA TERMINATED NORMALLY****
TOTAL RUN TIME: 0 days 2 hours 10 minutes 46 seconds 725 msec
