                         Program Version 5.0.4 -  RELEASE  -
|  1> !ri-mp2 aug-cc-pvqz aug-cc-pvqz/c tightscf
|  2> %pal nprocs 16 end
|  3>
|  4> * xyz 0 1
|  5> C      1.353431    1.270810    0.013760
|  6> H      0.841398    2.180726   -0.302096
|  7> H      1.417446    1.279075    1.101271
|  8> H      2.364879    1.292140   -0.393745
|  9> C      1.362786   -1.262502   -0.056829
| 10> H      0.858541   -2.157090   -0.424699
| 11> H      1.425064   -1.331889    1.028585
| 12> C      0.615424    0.013505   -0.461515
| 13> H      0.538032    0.043857   -1.552099
| 14> N     -1.818851    0.026866   -0.759937
| 15> H     -2.762329    0.014931   -0.411347
| 16> H     -1.665858    0.059091   -1.750368
| 17> C     -0.791440   -0.007396    0.135988
| 18> O     -0.987670   -0.050347    1.337337
| 19> H      2.374939   -1.252626   -0.463060
| 20> *
| 21>
| 22>                          ****END OF INPUT****

CARTESIAN COORDINATES (ANGSTROEM)
---------------------------------
  C      1.353431    1.270810    0.013760
  H      0.841398    2.180726   -0.302096
  H      1.417446    1.279075    1.101271
  H      2.364879    1.292140   -0.393745
  C      1.362786   -1.262502   -0.056829
  H      0.858541   -2.157090   -0.424699
  H      1.425064   -1.331889    1.028585
  C      0.615424    0.013505   -0.461515
  H      0.538032    0.043857   -1.552099
  N     -1.818851    0.026866   -0.759937
  H     -2.762329    0.014931   -0.411347
  H     -1.665858    0.059091   -1.750368
  C     -0.791440   -0.007396    0.135988
  O     -0.987670   -0.050347    1.337337
  H      2.374939   -1.252626   -0.463060

 Total Charge           Charge          ....    0
 Multiplicity           Mult            ....    1
 Number of Electrons    NEL             ....   48
 Basis Dimension        Dim             ....  894

ORBITAL ENERGIES
----------------

  NO   OCC          E(Eh)            E(eV)
   0   2.0000     -20.511343      -558.1420
   1   2.0000     -15.583425      -424.0466
   2   2.0000     -11.345297      -308.7212
   3   2.0000     -11.245150      -305.9961
   4   2.0000     -11.219191      -305.2897
   5   2.0000     -11.218953      -305.2832
   6   2.0000      -1.377064       -37.4718
   7   2.0000      -1.209832       -32.9212
   8   2.0000      -1.079586       -29.3770
   9   2.0000      -0.937933       -25.5225
  10   2.0000      -0.871502       -23.7148
  11   2.0000      -0.773089       -21.0368
  12   2.0000      -0.713457       -19.4142
  13   2.0000      -0.682906       -18.5828
  14   2.0000      -0.606797       -16.5118
  15   2.0000      -0.606319       -16.4988
  16   2.0000      -0.595903       -16.2154
  17   2.0000      -0.547194       -14.8899
  18   2.0000      -0.530019       -14.4226
  19   2.0000      -0.523405       -14.2426
  20   2.0000      -0.486242       -13.2313
  21   2.0000      -0.484230       -13.1766
  22   2.0000      -0.415361       -11.3026
  23   2.0000      -0.413200       -11.2437
  24   0.0000       0.018750         0.5102
  25   0.0000       0.029744         0.8094
  26   0.0000       0.033626         0.9150
  27   0.0000       0.037106         1.0097
  28   0.0000       0.049162         1.3378

MULLIKEN ATOMIC CHARGES
-----------------------
   0 C :   -0.912407
   1 H :    0.268214
   2 H :    0.243607
   3 H :    0.263040
   4 C :   -0.911404
   5 H :    0.267345
   6 H :    0.243896
   7 C :    0.138822
   8 H :    0.280293
   9 N :   -0.809151
  10 H :    0.189507
  11 H :    0.334134
  12 C :    1.032780
  13 O :   -0.890516
  14 H :    0.261840
Sum of atomic charges:   -0.0000000

LOEWDIN ATOMIC CHARGES
----------------------
   0 C :    0.913761
   1 H :   -0.270706
   2 H :   -0.288267
   3 H :   -0.278379
   4 C :    0.913348
   5 H :   -0.270649
   6 H :   -0.288761
   7 C :    0.045059
   8 H :   -0.312269
   9 N :    1.253973
  10 H :   -0.494142
  11 H :   -0.499377
  12 C :   -0.855033
  13 O :    0.709876
  14 H :   -0.278434

  Mayer bond orders larger than 0.100000
B(  0-C ,  1-H ) :   0.9654 B(  0-C ,  2-H ) :   0.9526 B(  0-C ,  3-H ) :   0.9816
B(  0-C ,  7-C ) :   0.7811 B(  4-C ,  5-H ) :   0.9666 B(  4-C ,  6-H ) :   0.9525
B(  4-C ,  7-C ) :   0.7787 B(  4-C , 14-H ) :   0.9834 B(  7-C ,  8-H ) :   0.9038
B(  7-C , 12-C ) :   0.8733 B(  9-N , 10-H ) :   1.0539 B(  9-N , 11-H ) :   0.8482
B(  9-N , 12-C ) :   1.0283 B(  9-N , 13-O ) :   0.1900 B( 12-C , 13-O ) :   1.1937

MP2 TOTAL ENERGY:     -287.389144727 Eh
FINAL SINGLE POINT ENERGY      -287.389144727222

DIPOLE MOMENT
-------------
                                X             Y             Z
Electronic contribution:     -5.49167      -0.07684       1.69843
Nuclear contribution   :      5.55221       0.13201      -3.26036
                        -----------------------------------------
Total Dipole Moment    :      0.06054       0.05517      -1.56193
                        -----------------------------------------
Magnitude (a.u.)       :      1.56407
Magnitude (Debye)      :      3.97555

Rotational constants in cm-1:     0.164138     0.087047     0.084062
Rotational constants in MHz :  4920.725429  2609.604625  2520.107980

                             ****ORCA TERMINATED NORMALLY****
TOTAL RUN TIME: 0 days 0 hours 29 minutes 24 seconds 695 msec
