                         Program Version 5.0.4 -  RELEASE  -
|  1> !ri-mp2 aug-cc-pvqz aug-cc-pvqz/c tightscf
|  2> %pal nprocs 16 end
|  3>
|  4> * xyz 0 1
|  5> N     -2.017293   -0.027830   -0.195165
|  6> H     -2.820908   -0.592269    0.048212
|  7> H     -2.147266    0.872192    0.248999
|  8> C     -0.776018   -0.669821    0.249843
|  9> H     -0.672045   -0.698833    1.345476
| 10> H     -0.809076   -1.707432   -0.088935
| 11> C      1.722505   -0.804982    0.017003
| 12> H      1.877218   -0.832599    1.098733
| 13> H      1.649672   -1.835748   -0.334919
| 14> H      2.613446   -0.362479   -0.430967
| 15> C      0.606424    1.454776    0.111148
| 16> H      1.501894    1.911846   -0.313053
| 17> H     -0.244796    2.059218   -0.204351
| 18> H      0.687235    1.520067    1.200032
| 19> C      0.469897   -0.001587   -0.340529
| 20> H      0.348831   -0.009471   -1.427859
| 21> *
| 22>
| 23>                          ****END OF INPUT****

CARTESIAN COORDINATES (ANGSTROEM)
---------------------------------
  N     -2.017293   -0.027830   -0.195165
  H     -2.820908   -0.592269    0.048212
  H     -2.147266    0.872192    0.248999
  C     -0.776018   -0.669821    0.249843
  H     -0.672045   -0.698833    1.345476
  H     -0.809076   -1.707432   -0.088935
  C      1.722505   -0.804982    0.017003
  H      1.877218   -0.832599    1.098733
  H      1.649672   -1.835748   -0.334919
  H      2.613446   -0.362479   -0.430967
  C      0.606424    1.454776    0.111148
  H      1.501894    1.911846   -0.313053
  H     -0.244796    2.059218   -0.204351
  H      0.687235    1.520067    1.200032
  C      0.469897   -0.001587   -0.340529
  H      0.348831   -0.009471   -1.427859

 Total Charge           Charge          ....    0
 Multiplicity           Mult            ....    1
 Number of Electrons    NEL             ....   42
 Basis Dimension        Dim             ....  906

ORBITAL ENERGIES
----------------

  NO   OCC          E(Eh)            E(eV)
   0   2.0000     -15.534615      -422.7184
   1   2.0000     -11.241882      -305.9072
   2   2.0000     -11.218847      -305.2803
   3   2.0000     -11.207803      -304.9798
   4   2.0000     -11.207591      -304.9741
   5   2.0000      -1.175314       -31.9819
   6   2.0000      -1.061731       -28.8912
   7   2.0000      -0.928098       -25.2548
   8   2.0000      -0.893670       -24.3180
   9   2.0000      -0.763725       -20.7820
  10   2.0000      -0.667254       -18.1569
  11   2.0000      -0.633745       -17.2451
  12   2.0000      -0.594904       -16.1882
  13   2.0000      -0.580493       -15.7960
  14   2.0000      -0.552831       -15.0433
  15   2.0000      -0.534518       -14.5450
  16   2.0000      -0.517581       -14.0841
  17   2.0000      -0.468889       -12.7591
  18   2.0000      -0.464453       -12.6384
  19   2.0000      -0.459636       -12.5073
  20   2.0000      -0.385935       -10.5018
  21   0.0000       0.026340         0.7168
  22   0.0000       0.031956         0.8696
  23   0.0000       0.033818         0.9202
  24   0.0000       0.035973         0.9789
  25   0.0000       0.050546         1.3754

MULLIKEN ATOMIC CHARGES
-----------------------
   0 N :   -0.762018
   1 H :    0.173514
   2 H :    0.269330
   3 C :   -0.187657
   4 H :    0.207187
   5 H :    0.272978
   6 C :   -0.864995
   7 H :    0.196821
   8 H :    0.244102
   9 H :    0.232388
  10 C :   -0.905766
  11 H :    0.278171
  12 H :    0.243440
  13 H :    0.189118
  14 C :    0.125167
  15 H :    0.288219
Sum of atomic charges:    0.0000000

LOEWDIN ATOMIC CHARGES
----------------------
   0 N :    1.294499
   1 H :   -0.505819
   2 H :   -0.527530
   3 C :    0.342712
   4 H :   -0.269485
   5 H :   -0.294127
   6 C :    0.913163
   7 H :   -0.277599
   8 H :   -0.277645
   9 H :   -0.278984
  10 C :    0.915878
  11 H :   -0.277480
  12 H :   -0.291372
  13 H :   -0.274046
  14 C :    0.085664
  15 H :   -0.277831

  Mayer bond orders larger than 0.100000
B(  0-N ,  1-H ) :   1.0157 B(  0-N ,  2-H ) :   0.8922 B(  0-N ,  3-C ) :   0.8532
B(  3-C ,  4-H ) :   0.9357 B(  3-C ,  5-H ) :   0.9353 B(  3-C , 14-C ) :   0.7940
B(  6-C ,  7-H ) :   0.9839 B(  6-C ,  8-H ) :   0.9998 B(  6-C ,  9-H ) :   1.0287
B(  6-C , 14-C ) :   0.7031 B( 10-C , 11-H ) :   0.9762 B( 10-C , 12-H ) :   0.9982
B( 10-C , 13-H ) :   0.9874 B( 10-C , 14-C ) :   0.7254 B( 14-C , 15-H ) :   0.8568

MP2 TOTAL ENERGY:     -213.409772649 Eh
FINAL SINGLE POINT ENERGY      -213.409772648958

DIPOLE MOMENT
-------------
                                X             Y             Z
Electronic contribution:     -2.16650      -0.41487      -0.78564
Nuclear contribution   :      2.12716       0.34978       1.22971
                        -----------------------------------------
Total Dipole Moment    :     -0.03934      -0.06508       0.44406
                        -----------------------------------------
Magnitude (a.u.)       :      0.45053
Magnitude (Debye)      :      1.14515

Rotational constants in cm-1:     0.249641     0.114944     0.086688
Rotational constants in MHz :  7484.047145  3445.930340  2598.833597

                             ****ORCA TERMINATED NORMALLY****
TOTAL RUN TIME: 0 days 0 hours 22 minutes 48 seconds 314 msec
