                         Program Version 5.0.4 -  RELEASE  -
|  1> !ri-mp2 aug-cc-pvqz aug-cc-pvqz/c tightscf
|  2> %pal nprocs 16 end
|  3>
|  4> * xyz 0 1
|  5> C     -1.194148   -1.273079   -0.003365
|  6> C      0.157194   -1.604887   -0.000788
|  7> C     -0.609182    1.039610   -0.002377
|  8> C     -1.601991    0.056026   -0.003248
|  9> C      0.749394    0.743892   -0.000095
| 10> C      1.120492   -0.606384    0.001279
| 11> C     -3.061050    0.433615    0.003949
| 12> C      1.799096    1.819578   -0.000742
| 13> O      2.465444   -0.884994    0.002866
| 14> H     -1.932914   -2.064353   -0.006041
| 15> H      0.460474   -2.645819   -0.001658
| 16> H     -0.904309    2.082983   -0.004426
| 17> H     -3.301613    1.113926   -0.815300
| 18> H     -3.696847   -0.445427   -0.096389
| 19> H     -3.338323    0.937663    0.932716
| 20> H      2.446613    1.742179    0.874661
| 21> H      2.448306    1.739421   -0.874651
| 22> H      1.340514    2.807196   -0.002729
| 23> H      2.595723   -1.838040    0.003211
| 24> *
| 25>
| 26>                          ****END OF INPUT****

CARTESIAN COORDINATES (ANGSTROEM)
---------------------------------
  C     -1.194148   -1.273079   -0.003365
  C      0.157194   -1.604887   -0.000788
  C     -0.609182    1.039610   -0.002377
  C     -1.601991    0.056026   -0.003248
  C      0.749394    0.743892   -0.000095
  C      1.120492   -0.606384    0.001279
  C     -3.061050    0.433615    0.003949
  C      1.799096    1.819578   -0.000742
  O      2.465444   -0.884994    0.002866
  H     -1.932914   -2.064353   -0.006041
  H      0.460474   -2.645819   -0.001658
  H     -0.904309    2.082983   -0.004426
  H     -3.301613    1.113926   -0.815300
  H     -3.696847   -0.445427   -0.096389
  H     -3.338323    0.937663    0.932716
  H      2.446613    1.742179    0.874661
  H      2.448306    1.739421   -0.874651
  H      1.340514    2.807196   -0.002729
  H      2.595723   -1.838040    0.003211

 Total Charge           Charge          ....    0
 Multiplicity           Mult            ....    1
 Number of Electrons    NEL             ....   66
 Basis Dimension        Dim             .... 1180

ORBITAL ENERGIES
----------------

  NO   OCC          E(Eh)            E(eV)
   0   2.0000     -20.583332      -560.1009
   1   2.0000     -11.290670      -307.2347
   2   2.0000     -11.232709      -305.6576
   3   2.0000     -11.229709      -305.5759
   4   2.0000     -11.228396      -305.5402
   5   2.0000     -11.227251      -305.5090
   6   2.0000     -11.225518      -305.4619
   7   2.0000     -11.218715      -305.2768
   8   2.0000     -11.215127      -305.1791
   9   2.0000      -1.398662       -38.0595
  10   2.0000      -1.151462       -31.3329
  11   2.0000      -1.051970       -28.6256
  12   2.0000      -1.027158       -27.9504
  13   2.0000      -0.935548       -25.4576
  14   2.0000      -0.920937       -25.0600
  15   2.0000      -0.836608       -22.7653
  16   2.0000      -0.781113       -21.2552
  17   2.0000      -0.726428       -19.7671
  18   2.0000      -0.672134       -18.2897
  19   2.0000      -0.631423       -17.1819
  20   2.0000      -0.602121       -16.3845
  21   2.0000      -0.598778       -16.2936
  22   2.0000      -0.573690       -15.6109
  23   2.0000      -0.569272       -15.4907
  24   2.0000      -0.567060       -15.4305
  25   2.0000      -0.549063       -14.9408
  26   2.0000      -0.544945       -14.8287
  27   2.0000      -0.523224       -14.2376
  28   2.0000      -0.493363       -13.4251
  29   2.0000      -0.479588       -13.0502
  30   2.0000      -0.464162       -12.6305
  31   2.0000      -0.331369        -9.0170
  32   2.0000      -0.300663        -8.1814
  33   0.0000       0.023752         0.6463
  34   0.0000       0.027504         0.7484
  35   0.0000       0.029649         0.8068
  36   0.0000       0.040141         1.0923
  37   0.0000       0.041058         1.1172

MULLIKEN ATOMIC CHARGES
-----------------------
   0 C :   -0.433495
   1 C :   -0.525914
   2 C :   -0.416482
   3 C :    0.287811
   4 C :    0.151423
   5 C :    1.033072
   6 C :   -0.842824
   7 C :   -0.849455
   8 O :   -0.798579
   9 H :    0.188060
  10 H :    0.166927
  11 H :    0.276600
  12 H :    0.226021
  13 H :    0.243569
  14 H :    0.245686
  15 H :    0.219658
  16 H :    0.222666
  17 H :    0.269801
  18 H :    0.335457
Sum of atomic charges:    0.0000000

LOEWDIN ATOMIC CHARGES
----------------------
   0 C :    0.340018
   1 C :    0.341801
   2 C :    0.342571
   3 C :   -0.070644
   4 C :   -0.083508
   5 C :   -0.425498
   6 C :    0.902459
   7 C :    0.899640
   8 O :    1.279697
   9 H :   -0.322728
  10 H :   -0.324437
  11 H :   -0.316927
  12 H :   -0.287851
  13 H :   -0.311003
  14 H :   -0.283252
  15 H :   -0.284769
  16 H :   -0.284782
  17 H :   -0.309304
  18 H :   -0.801484

  Mayer bond orders larger than 0.100000
B(  0-C ,  1-C ) :   1.2303 B(  0-C ,  3-C ) :   1.0274 B(  0-C ,  9-H ) :   1.0759
B(  0-C , 10-H ) :  -0.1945 B(  1-C ,  2-C ) :   0.1353 B(  1-C ,  3-C ) :  -0.2840
B(  1-C ,  4-C ) :  -0.1988 B(  1-C ,  5-C ) :   1.2906 B(  1-C ,  8-O ) :   0.2624
B(  1-C ,  9-H ) :  -0.1437 B(  1-C , 10-H ) :   1.1482 B(  2-C ,  3-C ) :   0.9593
B(  2-C ,  4-C ) :   0.9803 B(  2-C ,  6-C ) :  -0.1832 B(  2-C ,  7-C ) :  -0.1532
B(  2-C , 11-H ) :   0.9493 B(  3-C ,  4-C ) :  -0.4194 B(  3-C ,  6-C ) :   0.7635
B(  3-C , 11-H ) :  -0.1070 B(  3-C , 12-H ) :  -0.1151 B(  4-C ,  5-C ) :   1.1431
B(  4-C ,  7-C ) :   0.7427 B(  4-C ,  8-O ) :   0.3741 B(  4-C , 16-H ) :  -0.1010
B(  4-C , 17-H ) :  -0.1107 B(  5-C ,  8-O ) :  -0.2550 B(  5-C , 10-H ) :  -0.1222
B(  5-C , 18-H ) :  -0.1293 B(  6-C , 12-H ) :   1.0347 B(  6-C , 13-H ) :   1.0381
B(  6-C , 14-H ) :   1.0059 B(  7-C , 15-H ) :   1.0189 B(  7-C , 16-H ) :   1.0205
B(  7-C , 17-H ) :   1.0231 B(  8-O , 18-H ) :   0.9444

MP2 TOTAL ENERGY:     -385.444973349 Eh
FINAL SINGLE POINT ENERGY      -385.444973349260

DIPOLE MOMENT
-------------
                                X             Y             Z
Electronic contribution:      3.69767      -3.81355      -0.00653
Nuclear contribution   :     -3.89970       3.46571       0.00958
                        -----------------------------------------
Total Dipole Moment    :     -0.20203      -0.34784       0.00304
                        -----------------------------------------
Magnitude (a.u.)       :      0.40226
Magnitude (Debye)      :      1.02248

Rotational constants in cm-1:     0.100629     0.043481     0.030705
Rotational constants in MHz :  3016.771450  1303.520439   920.498366

                             ****ORCA TERMINATED NORMALLY****
TOTAL RUN TIME: 0 days 1 hours 27 minutes 38 seconds 15 msec
