                         Program Version 5.0.4 -  RELEASE  -
|  1> !ri-mp2 aug-cc-pvqz aug-cc-pvqz/c tightscf
|  2> %pal nprocs 16 end
|  3>
|  4> * xyz 0 1
|  5> C      0.729471    1.904216   -0.107889
|  6> C     -0.016491    0.615252   -0.425867
|  7> N      0.850921   -0.558678    0.026714
|  8> O      1.306585   -1.287691   -0.838614
|  9> O      1.039827   -0.688006    1.224692
| 10> C     -1.386010    0.520666    0.241641
| 11> C     -2.166261   -0.746449   -0.100809
| 12> H      0.857898    2.020360    0.966917
| 13> H      1.709251    1.922511   -0.584185
| 14> H      0.153750    2.749659   -0.483645
| 15> H     -0.096788    0.467156   -1.500194
| 16> H     -1.947266    1.400933   -0.080637
| 17> H     -1.253956    0.607897    1.320918
| 18> H     -2.318382   -0.842024   -1.177079
| 19> H     -1.649746   -1.642316    0.245321
| 20> H     -3.146754   -0.729962    0.374509
| 21> *
| 22>
| 23>                          ****END OF INPUT****

CARTESIAN COORDINATES (ANGSTROEM)
---------------------------------
  C      0.729471    1.904216   -0.107889
  C     -0.016491    0.615252   -0.425867
  N      0.850921   -0.558678    0.026714
  O      1.306585   -1.287691   -0.838614
  O      1.039827   -0.688006    1.224692
  C     -1.386010    0.520666    0.241641
  C     -2.166261   -0.746449   -0.100809
  H      0.857898    2.020360    0.966917
  H      1.709251    1.922511   -0.584185
  H      0.153750    2.749659   -0.483645
  H     -0.096788    0.467156   -1.500194
  H     -1.947266    1.400933   -0.080637
  H     -1.253956    0.607897    1.320918
  H     -2.318382   -0.842024   -1.177079
  H     -1.649746   -1.642316    0.245321
  H     -3.146754   -0.729962    0.374509

 Total Charge           Charge          ....    0
 Multiplicity           Mult            ....    1
 Number of Electrons    NEL             ....   56
 Basis Dimension        Dim             ....  974

ORBITAL ENERGIES
----------------

  NO   OCC          E(Eh)            E(eV)
   0   2.0000     -20.598084      -560.5024
   1   2.0000     -20.595090      -560.4209
   2   2.0000     -15.835830      -430.9149
   3   2.0000     -11.308419      -307.7177
   4   2.0000     -11.249950      -306.1267
   5   2.0000     -11.246464      -306.0319
   6   2.0000     -11.229555      -305.5717
   7   2.0000      -1.599825       -43.5334
   8   2.0000      -1.395223       -37.9659
   9   2.0000      -1.142885       -31.0995
  10   2.0000      -1.027176       -27.9509
  11   2.0000      -0.958411       -26.0797
  12   2.0000      -0.882562       -24.0157
  13   2.0000      -0.811761       -22.0891
  14   2.0000      -0.745259       -20.2795
  15   2.0000      -0.718568       -19.5532
  16   2.0000      -0.715354       -19.4658
  17   2.0000      -0.637805       -17.3556
  18   2.0000      -0.613788       -16.7020
  19   2.0000      -0.603915       -16.4334
  20   2.0000      -0.581700       -15.8289
  21   2.0000      -0.548889       -14.9360
  22   2.0000      -0.523576       -14.2472
  23   2.0000      -0.507445       -13.8083
  24   2.0000      -0.502625       -13.6771
  25   2.0000      -0.488128       -13.2826
  26   2.0000      -0.469168       -12.7667
  27   2.0000      -0.450195       -12.2504
  28   0.0000       0.020856         0.5675
  29   0.0000       0.027988         0.7616
  30   0.0000       0.031353         0.8532
  31   0.0000       0.038161         1.0384
  32   0.0000       0.048397         1.3169

MULLIKEN ATOMIC CHARGES
-----------------------
   0 C :   -0.890463
   1 C :    0.072197
   2 N :    1.018983
   3 O :   -0.723205
   4 O :   -0.660476
   5 C :   -0.403450
   6 C :   -0.824780
   7 H :    0.230501
   8 H :    0.262130
   9 H :    0.275043
  10 H :    0.403388
  11 H :    0.273431
  12 H :    0.245254
  13 H :    0.242848
  14 H :    0.218435
  15 H :    0.260163
Sum of atomic charges:   -0.0000000

LOEWDIN ATOMIC CHARGES
----------------------
   0 C :    0.926944
   1 C :   -0.076124
   2 N :   -0.830899
   3 O :    0.557208
   4 O :    0.559090
   5 C :    0.491571
   6 C :    0.937543
   7 H :   -0.286530
   8 H :   -0.270361
   9 H :   -0.274038
  10 H :   -0.329439
  11 H :   -0.272067
  12 H :   -0.288440
  13 H :   -0.277738
  14 H :   -0.289479
  15 H :   -0.277241

  Mayer bond orders larger than 0.100000
B(  0-C ,  1-C ) :   0.7010 B(  0-C ,  7-H ) :   0.9626 B(  0-C ,  8-H ) :   1.0138
B(  0-C ,  9-H ) :   0.9597 B(  1-C ,  2-N ) :   0.7702 B(  1-C ,  5-C ) :   0.7517
B(  1-C , 10-H ) :   0.8329 B(  2-N ,  3-O ) :   1.1139 B(  2-N ,  4-O ) :   1.1835
B(  3-O ,  4-O ) :   0.1220 B(  5-C ,  6-C ) :   0.9144 B(  5-C , 11-H ) :   0.8756
B(  5-C , 12-H ) :   0.8864 B(  6-C , 13-H ) :   0.9299 B(  6-C , 14-H ) :   0.9601
B(  6-C , 15-H ) :   1.0119

MP2 TOTAL ENERGY:     -362.430646350 Eh
FINAL SINGLE POINT ENERGY      -362.430646350179

DIPOLE MOMENT
-------------
                                X             Y             Z
Electronic contribution:      6.74534      -4.70864       0.55000
Nuclear contribution   :     -7.80217       6.03753      -0.92997
                        -----------------------------------------
Total Dipole Moment    :     -1.05683       1.32889      -0.37997
                        -----------------------------------------
Magnitude (a.u.)       :      1.73990
Magnitude (Debye)      :      4.42246

Rotational constants in cm-1:     0.103831     0.078694     0.059049
Rotational constants in MHz :  3112.766436  2359.197768  1770.247734

                             ****ORCA TERMINATED NORMALLY****
TOTAL RUN TIME: 0 days 0 hours 39 minutes 55 seconds 388 msec
