                         Program Version 5.0.4 -  RELEASE  -
|  1> !ri-mp2 aug-cc-pvqz aug-cc-pvqz/c tightscf
|  2> %pal nprocs 16 end
|  3>
|  4> * xyz 0 1
|  5> C     -0.634025    0.771526    1.262380
|  6> C      1.518392    1.037638    0.000000
|  7> C     -0.634025    0.771526   -1.262380
|  8> C     -0.634025   -1.948562    0.000000
|  9> C      0.140834    0.377397    0.000000
| 10> O      0.443226   -1.034249    0.000000
| 11> H     -0.101780    0.437781    2.153609
| 12> H     -0.741929    1.855478    1.313981
| 13> H     -1.636409    0.343353    1.277197
| 14> H      2.081691    0.735411   -0.882718
| 15> H      2.081691    0.735411    0.882718
| 16> H      1.426783    2.124044    0.000000
| 17> H     -1.636409    0.343353   -1.277197
| 18> H     -0.741929    1.855478   -1.313981
| 19> H     -0.101780    0.437781   -2.153609
| 20> H     -1.264755   -1.854556   -0.889485
| 21> H     -1.264755   -1.854556    0.889485
| 22> H     -0.189132   -2.942139    0.000000
| 23> *
| 24>
| 25>                          ****END OF INPUT****

CARTESIAN COORDINATES (ANGSTROEM)
---------------------------------
  C     -0.634025    0.771526    1.262380
  C      1.518392    1.037638    0.000000
  C     -0.634025    0.771526   -1.262380
  C     -0.634025   -1.948562    0.000000
  C      0.140834    0.377397    0.000000
  O      0.443226   -1.034249    0.000000
  H     -0.101780    0.437781    2.153609
  H     -0.741929    1.855478    1.313981
  H     -1.636409    0.343353    1.277197
  H      2.081691    0.735411   -0.882718
  H      2.081691    0.735411    0.882718
  H      1.426783    2.124044    0.000000
  H     -1.636409    0.343353   -1.277197
  H     -0.741929    1.855478   -1.313981
  H     -0.101780    0.437781   -2.153609
  H     -1.264755   -1.854556   -0.889485
  H     -1.264755   -1.854556    0.889485
  H     -0.189132   -2.942139    0.000000

 Total Charge           Charge          ....    0
 Multiplicity           Mult            ....    1
 Number of Electrons    NEL             ....   50
 Basis Dimension        Dim             .... 1032

ORBITAL ENERGIES
----------------

  NO   OCC          E(Eh)            E(eV)
   0   2.0000     -20.541627      -558.9661
   1   2.0000     -11.283057      -307.0276
   2   2.0000     -11.261742      -306.4476
   3   2.0000     -11.210999      -305.0668
   4   2.0000     -11.210983      -305.0664
   5   2.0000     -11.205107      -304.9065
   6   2.0000      -1.358795       -36.9747
   7   2.0000      -1.071706       -29.1626
   8   2.0000      -0.943655       -25.6782
   9   2.0000      -0.939115       -25.5546
  10   2.0000      -0.908810       -24.7300
  11   2.0000      -0.749867       -20.4049
  12   2.0000      -0.652913       -17.7667
  13   2.0000      -0.640012       -17.4156
  14   2.0000      -0.632703       -17.2167
  15   2.0000      -0.593039       -16.1374
  16   2.0000      -0.573506       -15.6059
  17   2.0000      -0.552076       -15.0227
  18   2.0000      -0.533016       -14.5041
  19   2.0000      -0.522763       -14.2251
  20   2.0000      -0.514622       -14.0036
  21   2.0000      -0.487499       -13.2655
  22   2.0000      -0.485459       -13.2100
  23   2.0000      -0.444145       -12.0858
  24   2.0000      -0.411656       -11.2017
  25   0.0000       0.026379         0.7178
  26   0.0000       0.031992         0.8705
  27   0.0000       0.033531         0.9124
  28   0.0000       0.034689         0.9439
  29   0.0000       0.048502         1.3198

MULLIKEN ATOMIC CHARGES
-----------------------
   0 C :   -1.108309
   1 C :   -1.100608
   2 C :   -1.108308
   3 C :   -0.697566
   4 C :    1.745428
   5 O :   -0.901318
   6 H :    0.240990
   7 H :    0.314435
   8 H :    0.224309
   9 H :    0.240886
  10 H :    0.240888
  11 H :    0.241009
  12 H :    0.224309
  13 H :    0.314434
  14 H :    0.240988
  15 H :    0.240726
  16 H :    0.240727
  17 H :    0.406981
Sum of atomic charges:    0.0000000

LOEWDIN ATOMIC CHARGES
----------------------
   0 C :    0.895333
   1 C :    0.877272
   2 C :    0.895333
   3 C :    0.565850
   4 C :   -0.639537
   5 O :    0.897003
   6 H :   -0.271915
   7 H :   -0.275697
   8 H :   -0.296486
   9 H :   -0.280883
  10 H :   -0.280883
  11 H :   -0.280294
  12 H :   -0.296486
  13 H :   -0.275697
  14 H :   -0.271915
  15 H :   -0.319062
  16 H :   -0.319062
  17 H :   -0.322872

  Mayer bond orders larger than 0.100000
B(  0-C ,  1-C ) :   0.1107 B(  0-C ,  4-C ) :   0.6171 B(  0-C ,  5-O ) :   0.1062
B(  0-C ,  6-H ) :   1.0166 B(  0-C ,  7-H ) :   0.9174 B(  0-C ,  8-H ) :   1.0070
B(  1-C ,  2-C ) :   0.1107 B(  1-C ,  4-C ) :   0.3017 B(  1-C ,  5-O ) :   0.1395
B(  1-C ,  9-H ) :   1.0442 B(  1-C , 10-H ) :   1.0442 B(  1-C , 11-H ) :   1.0209
B(  2-C ,  4-C ) :   0.6171 B(  2-C ,  5-O ) :   0.1062 B(  2-C , 12-H ) :   1.0070
B(  2-C , 13-H ) :   0.9174 B(  2-C , 14-H ) :   1.0166 B(  3-C ,  4-C ) :  -0.1835
B(  3-C ,  5-O ) :   0.9911 B(  3-C , 15-H ) :   0.9493 B(  3-C , 16-H ) :   0.9493
B(  3-C , 17-H ) :   0.8574 B(  4-C ,  9-H ) :  -0.1215 B(  4-C , 10-H ) :  -0.1215

MP2 TOTAL ENERGY:     -272.504429470 Eh
FINAL SINGLE POINT ENERGY      -272.504429469543

DIPOLE MOMENT
-------------
                                X             Y             Z
Electronic contribution:      1.72019      -2.11387      -0.00000
Nuclear contribution   :     -2.21760       2.34417       0.00000
                        -----------------------------------------
Total Dipole Moment    :     -0.49741       0.23030      -0.00000
                        -----------------------------------------
Magnitude (a.u.)       :      0.54814
Magnitude (Debye)      :      1.39325

Rotational constants in cm-1:     0.146131     0.090472     0.090363
Rotational constants in MHz :  4380.901471  2712.292604  2709.010193

                             ****ORCA TERMINATED NORMALLY****
TOTAL RUN TIME: 0 days 0 hours 50 minutes 42 seconds 200 msec
