                         Program Version 5.0.4 -  RELEASE  -
|  1> !ri-mp2 aug-cc-pvqz aug-cc-pvqz/c tightscf
|  2> %pal nprocs 16 end
|  3> %maxcore 3800
|  4>
|  5> * xyz 0 1
|  6> C      0.266243   -2.381801   -0.314834
|  7> C      2.705992    0.000050    0.290476
|  8> C      0.265910    2.381868   -0.314817
|  9> C     -0.892239   -0.000056    0.940151
| 10> C      0.318956    0.000034   -0.011152
| 11> O      0.356269   -1.082293   -0.886845
| 12> O      1.407928    0.000118    0.889584
| 13> O      0.356106    1.082375   -0.886837
| 14> Cl    -2.460390   -0.000138    0.062875
| 15> H      0.547176   -3.074651   -1.104011
| 16> H     -0.754234   -2.608050    0.002453
| 17> H      0.948511   -2.502078    0.529039
| 18> H      2.859400   -0.886862   -0.324693
| 19> H      3.413060    0.000864    1.115990
| 20> H      2.858879    0.886125   -0.326020
| 21> H      0.948187    2.502235    0.529035
| 22> H     -0.754592    2.607970    0.002494
| 23> H      0.546724    3.074761   -1.104000
| 24> H     -0.869091    0.879866    1.572354
| 25> H     -0.868985   -0.879996    1.572325
| 26> *
| 27>
| 28>                          ****END OF INPUT****

CARTESIAN COORDINATES (ANGSTROEM)
---------------------------------
  C      0.266243   -2.381801   -0.314834
  C      2.705992    0.000050    0.290476
  C      0.265910    2.381868   -0.314817
  C     -0.892239   -0.000056    0.940151
  C      0.318956    0.000034   -0.011152
  O      0.356269   -1.082293   -0.886845
  O      1.407928    0.000118    0.889584
  O      0.356106    1.082375   -0.886837
  Cl    -2.460390   -0.000138    0.062875
  H      0.547176   -3.074651   -1.104011
  H     -0.754234   -2.608050    0.002453
  H      0.948511   -2.502078    0.529039
  H      2.859400   -0.886862   -0.324693
  H      3.413060    0.000864    1.115990
  H      2.858879    0.886125   -0.326020
  H      0.948187    2.502235    0.529035
  H     -0.754592    2.607970    0.002494
  H      0.546724    3.074761   -1.104000
  H     -0.869091    0.879866    1.572354
  H     -0.868985   -0.879996    1.572325

 Total Charge           Charge          ....    0
 Multiplicity           Mult            ....    1
 Number of Electrons    NEL             ....   82
 Basis Dimension        Dim             .... 1230

ORBITAL ENERGIES
----------------

  NO   OCC          E(Eh)            E(eV)
   0   2.0000    -104.824011     -2852.4064
   1   2.0000     -20.572610      -559.8092
   2   2.0000     -20.568050      -559.6851
   3   2.0000     -20.568035      -559.6847
   4   2.0000     -11.406027      -310.3738
   5   2.0000     -11.296171      -307.3845
   6   2.0000     -11.277670      -306.8810
   7   2.0000     -11.277667      -306.8809
   8   2.0000     -11.275958      -306.8344
   9   2.0000     -10.549361      -287.0627
  10   2.0000      -8.016452      -218.1388
  11   2.0000      -8.014763      -218.0928
  12   2.0000      -8.014755      -218.0926
  13   2.0000      -1.464714       -39.8569
  14   2.0000      -1.358474       -36.9659
  15   2.0000      -1.358185       -36.9581
  16   2.0000      -1.132580       -30.8191
  17   2.0000      -1.012292       -27.5459
  18   2.0000      -0.967959       -26.3395
  19   2.0000      -0.922621       -25.1058
  20   2.0000      -0.911827       -24.8121
  21   2.0000      -0.791659       -21.5421
  22   2.0000      -0.727371       -19.7928
  23   2.0000      -0.718033       -19.5387
  24   2.0000      -0.696354       -18.9487
  25   2.0000      -0.662407       -18.0250
  26   2.0000      -0.622876       -16.9493
  27   2.0000      -0.613989       -16.7075
  28   2.0000      -0.605594       -16.4791
  29   2.0000      -0.590926       -16.0799
  30   2.0000      -0.588787       -16.0217
  31   2.0000      -0.573158       -15.5964
  32   2.0000      -0.541668       -14.7395
  33   2.0000      -0.531989       -14.4762
  34   2.0000      -0.518442       -14.1075
  35   2.0000      -0.482009       -13.1161
  36   2.0000      -0.462701       -12.5907
  37   2.0000      -0.455582       -12.3970
  38   2.0000      -0.455467       -12.3939
  39   2.0000      -0.436505       -11.8779
  40   2.0000      -0.427569       -11.6347
  41   0.0000       0.023976         0.6524
  42   0.0000       0.029795         0.8108
  43   0.0000       0.031838         0.8664
  44   0.0000       0.036224         0.9857
  45   0.0000       0.045673         1.2428

MULLIKEN ATOMIC CHARGES
-----------------------
   0 C :   -0.756709
   1 C :   -0.858189
   2 C :   -0.756731
   3 C :   -0.562339
   4 C :    2.522273
   5 O :   -0.979280
   6 O :   -0.866477
   7 O :   -0.979252
   8 Cl:   -0.440009
   9 H :    0.381990
  10 H :    0.310325
  11 H :    0.285621
  12 H :    0.328902
  13 H :    0.401875
  14 H :    0.328903
  15 H :    0.285693
  16 H :    0.310282
  17 H :    0.382005
  18 H :    0.330523
  19 H :    0.330598
Sum of atomic charges:   -0.0000000

LOEWDIN ATOMIC CHARGES
----------------------
   0 C :    0.564969
   1 C :    0.590508
   2 C :    0.564977
   3 C :   -0.208496
   4 C :   -1.535719
   5 O :    0.841873
   6 O :    0.858990
   7 O :    0.841861
   8 Cl:    1.184607
   9 H :   -0.313808
  10 H :   -0.326585
  11 H :   -0.314724
  12 H :   -0.317019
  13 H :   -0.318201
  14 H :   -0.317044
  15 H :   -0.314708
  16 H :   -0.326591
  17 H :   -0.313812
  18 H :   -0.420538
  19 H :   -0.420541

  Mayer bond orders larger than 0.100000
B(  0-C ,  4-C ) :  -0.1379 B(  0-C ,  5-O ) :   0.9603 B(  0-C ,  9-H ) :   0.8891
B(  0-C , 10-H ) :   0.9122 B(  0-C , 11-H ) :   0.8961 B(  1-C ,  4-C ) :  -0.1603
B(  1-C ,  6-O ) :   0.9287 B(  1-C , 12-H ) :   0.8974 B(  1-C , 13-H ) :   0.8734
B(  1-C , 14-H ) :   0.8975 B(  2-C ,  4-C ) :  -0.1379 B(  2-C ,  7-O ) :   0.9603
B(  2-C , 15-H ) :   0.8961 B(  2-C , 16-H ) :   0.9122 B(  2-C , 17-H ) :   0.8891
B(  3-C ,  4-C ) :   0.7364 B(  3-C ,  6-O ) :   0.1114 B(  3-C ,  8-Cl) :   0.6369
B(  3-C , 18-H ) :   0.9009 B(  3-C , 19-H ) :   0.9009 B(  4-C ,  6-O ) :   0.3128
B(  5-O ,  7-O ) :   0.1262

MP2 TOTAL ENERGY:     -881.920770694 Eh
FINAL SINGLE POINT ENERGY      -881.920770693501

DIPOLE MOMENT
-------------
                                X             Y             Z
Electronic contribution:    -11.55756      -0.00038      -1.56641
Nuclear contribution   :     12.38091       0.00038       2.35205
                        -----------------------------------------
Total Dipole Moment    :      0.82336       0.00000       0.78564
                        -----------------------------------------
Magnitude (a.u.)       :      1.13804
Magnitude (Debye)      :      2.89267

Rotational constants in cm-1:     0.059417     0.037920     0.027843
Rotational constants in MHz :  1781.266576  1136.802033   834.720383

                             ****ORCA TERMINATED NORMALLY****
TOTAL RUN TIME: 0 days 1 hours 26 minutes 46 seconds 41 msec
