                         Program Version 5.0.4 -  RELEASE  -
|  1> !ri-mp2 aug-cc-pvqz aug-cc-pvqz/c tightscf
|  2> %pal nprocs 16 end
|  3>
|  4> * xyz 0 1
|  5> C      2.068952   -0.029590    0.114749
|  6> C     -1.781327   -0.695111    0.003653
|  7> C      0.738327   -0.671951   -0.270753
|  8> C     -0.478716    0.030019    0.319827
|  9> O     -0.490635    1.363576   -0.211065
| 10> H      2.209786   -0.036654    1.197896
| 11> H      2.114065    1.005156   -0.221346
| 12> H      2.905645   -0.568790   -0.331134
| 13> H     -1.921866   -0.773729   -1.075400
| 14> H     -1.779793   -1.700291    0.428681
| 15> H     -2.637934   -0.160756    0.420748
| 16> H      0.719889   -1.714419    0.057213
| 17> H      0.628666   -0.681241   -1.358792
| 18> H     -0.354839    0.083409    1.410162
| 19> H     -1.241958    1.838511    0.155634
| 20> *
| 21>
| 22>                          ****END OF INPUT****

CARTESIAN COORDINATES (ANGSTROEM)
---------------------------------
  C      2.068952   -0.029590    0.114749
  C     -1.781327   -0.695111    0.003653
  C      0.738327   -0.671951   -0.270753
  C     -0.478716    0.030019    0.319827
  O     -0.490635    1.363576   -0.211065
  H      2.209786   -0.036654    1.197896
  H      2.114065    1.005156   -0.221346
  H      2.905645   -0.568790   -0.331134
  H     -1.921866   -0.773729   -1.075400
  H     -1.779793   -1.700291    0.428681
  H     -2.637934   -0.160756    0.420748
  H      0.719889   -1.714419    0.057213
  H      0.628666   -0.681241   -1.358792
  H     -0.354839    0.083409    1.410162
  H     -1.241958    1.838511    0.155634

 Total Charge           Charge          ....    0
 Multiplicity           Mult            ....    1
 Number of Electrons    NEL             ....   42
 Basis Dimension        Dim             ....  860

ORBITAL ENERGIES
----------------

  NO   OCC          E(Eh)            E(eV)
   0   2.0000     -20.549011      -559.1670
   1   2.0000     -11.276503      -306.8492
   2   2.0000     -11.215327      -305.1846
   3   2.0000     -11.214477      -305.1614
   4   2.0000     -11.203393      -304.8598
   5   2.0000      -1.352970       -36.8162
   6   2.0000      -1.059230       -28.8231
   7   2.0000      -0.983465       -26.7614
   8   2.0000      -0.867704       -23.6114
   9   2.0000      -0.785810       -21.3830
  10   2.0000      -0.697262       -18.9735
  11   2.0000      -0.623047       -16.9540
  12   2.0000      -0.598268       -16.2797
  13   2.0000      -0.580781       -15.8039
  14   2.0000      -0.562394       -15.3035
  15   2.0000      -0.538290       -14.6476
  16   2.0000      -0.509843       -13.8735
  17   2.0000      -0.495576       -13.4853
  18   2.0000      -0.480385       -13.0719
  19   2.0000      -0.456746       -12.4287
  20   2.0000      -0.435419       -11.8484
  21   0.0000       0.025526         0.6946
  22   0.0000       0.031851         0.8667
  23   0.0000       0.034295         0.9332
  24   0.0000       0.037232         1.0131
  25   0.0000       0.050176         1.3654

MULLIKEN ATOMIC CHARGES
-----------------------
   0 C :   -0.838933
   1 C :   -0.881854
   2 C :   -0.468298
   3 C :    0.580733
   4 O :   -0.866878
   5 H :    0.214435
   6 H :    0.250727
   7 H :    0.256319
   8 H :    0.234704
   9 H :    0.244118
  10 H :    0.251220
  11 H :    0.267682
  12 H :    0.215191
  13 H :    0.243161
  14 H :    0.297672
Sum of atomic charges:    0.0000000

LOEWDIN ATOMIC CHARGES
----------------------
   0 C :    0.925420
   1 C :    0.913756
   2 C :    0.472170
   3 C :   -0.234624
   4 O :    1.283832
   5 H :   -0.284443
   6 H :   -0.296057
   7 H :   -0.284579
   8 H :   -0.284741
   9 H :   -0.282666
  10 H :   -0.286013
  11 H :   -0.281091
  12 H :   -0.279516
  13 H :   -0.293207
  14 H :   -0.788240

  Mayer bond orders larger than 0.100000
B(  0-C ,  2-C ) :   0.9227 B(  0-C ,  5-H ) :   0.9551 B(  0-C ,  6-H ) :   0.9381
B(  0-C ,  7-H ) :   1.0168 B(  1-C ,  3-C ) :   0.8054 B(  1-C ,  8-H ) :   0.9452
B(  1-C ,  9-H ) :   0.9722 B(  1-C , 10-H ) :   0.9957 B(  2-C ,  3-C ) :   0.7489
B(  2-C , 11-H ) :   0.9068 B(  2-C , 12-H ) :   0.9167 B(  3-C ,  4-O ) :   0.3793
B(  3-C , 13-H ) :   0.9085 B(  4-O , 14-H ) :   0.9435

MP2 TOTAL ENERGY:     -233.282044373 Eh
FINAL SINGLE POINT ENERGY      -233.282044373281

DIPOLE MOMENT
-------------
                                X             Y             Z
Electronic contribution:     -1.11356       2.57091      -0.32278
Nuclear contribution   :      0.67460      -2.85974       0.72399
                        -----------------------------------------
Total Dipole Moment    :     -0.43896      -0.28883       0.40121
                        -----------------------------------------
Magnitude (a.u.)       :      0.66112
Magnitude (Debye)      :      1.68044

Rotational constants in cm-1:     0.269222     0.114573     0.088814
Rotational constants in MHz :  8071.076606  3434.799118  2662.589117

                             ****ORCA TERMINATED NORMALLY****
TOTAL RUN TIME: 0 days 0 hours 23 minutes 8 seconds 68 msec
