                         Program Version 5.0.4 -  RELEASE  -
|  1> !ri-mp2 aug-cc-pvqz aug-cc-pvqz/c tightscf
|  2> %pal nprocs 16 end
|  3>
|  4> * xyz 0 1
|  5> C     -0.019580    1.273801    1.273937
|  6> C     -0.019580    1.273801   -1.273937
|  7> C      0.466570    0.597774    0.000000
|  8> N     -0.019580   -0.850943    0.000000
|  9> O      0.828786   -1.727382    0.000000
| 10> O     -1.224451   -1.038289    0.000000
| 11> H      0.370883    2.290811    1.305811
| 12> H     -1.106994    1.317390    1.296364
| 13> H      0.330843    0.747565    2.161338
| 14> H      0.330843    0.747565   -2.161338
| 15> H      0.370883    2.290811   -1.305811
| 16> H     -1.106994    1.317390   -1.296364
| 17> H      1.548465    0.498180    0.000000
| 18> *
| 19>
| 20>                          ****END OF INPUT****

CARTESIAN COORDINATES (ANGSTROEM)
---------------------------------
  C     -0.019580    1.273801    1.273937
  C     -0.019580    1.273801   -1.273937
  C      0.466570    0.597774    0.000000
  N     -0.019580   -0.850943    0.000000
  O      0.828786   -1.727382    0.000000
  O     -1.224451   -1.038289    0.000000
  H      0.370883    2.290811    1.305811
  H     -1.106994    1.317390    1.296364
  H      0.330843    0.747565    2.161338
  H      0.330843    0.747565   -2.161338
  H      0.370883    2.290811   -1.305811
  H     -1.106994    1.317390   -1.296364
  H      1.548465    0.498180    0.000000

 Total Charge           Charge          ....    0
 Multiplicity           Mult            ....    1
 Number of Electrons    NEL             ....   48
 Basis Dimension        Dim             ....  802

ORBITAL ENERGIES
----------------

  NO   OCC          E(Eh)            E(eV)
   0   2.0000     -20.599065      -560.5291
   1   2.0000     -20.596240      -560.4522
   2   2.0000     -15.837188      -430.9518
   3   2.0000     -11.312716      -307.8346
   4   2.0000     -11.247524      -306.0607
   5   2.0000     -11.247510      -306.0603
   6   2.0000      -1.600928       -43.5635
   7   2.0000      -1.396465       -37.9997
   8   2.0000      -1.138662       -30.9846
   9   2.0000      -0.973141       -26.4805
  10   2.0000      -0.956367       -26.0241
  11   2.0000      -0.817731       -22.2516
  12   2.0000      -0.745308       -20.2809
  13   2.0000      -0.720479       -19.6052
  14   2.0000      -0.714323       -19.4377
  15   2.0000      -0.650578       -17.7031
  16   2.0000      -0.594561       -16.1788
  17   2.0000      -0.588600       -16.0166
  18   2.0000      -0.569789       -15.5047
  19   2.0000      -0.529359       -14.4046
  20   2.0000      -0.525223       -14.2920
  21   2.0000      -0.490047       -13.3348
  22   2.0000      -0.472848       -12.8669
  23   2.0000      -0.450998       -12.2723
  24   0.0000       0.020448         0.5564
  25   0.0000       0.030824         0.8388
  26   0.0000       0.032137         0.8745
  27   0.0000       0.039647         1.0789
  28   0.0000       0.052401         1.4259

MULLIKEN ATOMIC CHARGES
-----------------------
   0 C :   -0.870130
   1 C :   -0.870130
   2 C :    0.040946
   3 N :    0.956395
   4 O :   -0.672254
   5 O :   -0.618172
   6 H :    0.285827
   7 H :    0.234924
   8 H :    0.285704
   9 H :    0.285704
  10 H :    0.285827
  11 H :    0.234924
  12 H :    0.420434
Sum of atomic charges:    0.0000000

LOEWDIN ATOMIC CHARGES
----------------------
   0 C :    0.916074
   1 C :    0.916074
   2 C :   -0.083341
   3 N :   -0.830898
   4 O :    0.547267
   5 O :    0.548641
   6 H :   -0.276374
   7 H :   -0.292190
   8 H :   -0.271897
   9 H :   -0.271897
  10 H :   -0.276374
  11 H :   -0.292190
  12 H :   -0.332895

  Mayer bond orders larger than 0.100000
B(  0-C ,  2-C ) :   0.8262 B(  0-C ,  6-H ) :   0.9407 B(  0-C ,  7-H ) :   0.9359
B(  0-C ,  8-H ) :   0.9581 B(  1-C ,  2-C ) :   0.8262 B(  1-C ,  9-H ) :   0.9581
B(  1-C , 10-H ) :   0.9407 B(  1-C , 11-H ) :   0.9359 B(  2-C ,  3-N ) :   0.8103
B(  2-C ,  4-O ) :   0.1063 B(  2-C , 12-H ) :   0.7728 B(  3-N ,  4-O ) :   1.1627
B(  3-N ,  5-O ) :   1.2388 B(  4-O ,  5-O ) :   0.1218

MP2 TOTAL ENERGY:     -323.193180370 Eh
FINAL SINGLE POINT ENERGY      -323.193180370083

DIPOLE MOMENT
-------------
                                X             Y             Z
Electronic contribution:     -0.30795      -7.56934       0.00000
Nuclear contribution   :      0.74023       9.26945      -0.00000
                        -----------------------------------------
Total Dipole Moment    :      0.43228       1.70010       0.00000
                        -----------------------------------------
Magnitude (a.u.)       :      1.75420
Magnitude (Debye)      :      4.45882

Rotational constants in cm-1:     0.171645     0.095832     0.089595
Rotational constants in MHz :  5145.792480  2872.976410  2685.998231

                             ****ORCA TERMINATED NORMALLY****
TOTAL RUN TIME: 0 days 0 hours 16 minutes 47 seconds 788 msec
