                         Program Version 5.0.4 -  RELEASE  -
|  1> !ri-mp2 aug-cc-pvqz aug-cc-pvqz/c tightscf
|  2> %pal nprocs 16 end
|  3>
|  4> * xyz 0 1
|  5> S      2.745348   -0.356309    0.000063
|  6> O     -0.994220   -1.299184    0.000009
|  7> N     -3.011806   -0.267700   -0.000097
|  8> N      0.394126    1.102920   -0.000391
|  9> C     -1.019553    1.122041    0.000287
| 10> C     -1.651289   -0.284113    0.000026
| 11> C      1.362947    0.407332   -0.000131
| 12> H     -1.377130    1.669767   -0.876347
| 13> H     -1.376320    1.668960    0.877770
| 14> H     -3.544575    0.582927   -0.000097
| 15> H     -3.502658   -1.145330   -0.000094
| 16> *
| 17>
| 18>                          ****END OF INPUT****

CARTESIAN COORDINATES (ANGSTROEM)
---------------------------------
  S      2.745348   -0.356309    0.000063
  O     -0.994220   -1.299184    0.000009
  N     -3.011806   -0.267700   -0.000097
  N      0.394126    1.102920   -0.000391
  C     -1.019553    1.122041    0.000287
  C     -1.651289   -0.284113    0.000026
  C      1.362947    0.407332   -0.000131
  H     -1.377130    1.669767   -0.876347
  H     -1.376320    1.668960    0.877770
  H     -3.544575    0.582927   -0.000097
  H     -3.502658   -1.145330   -0.000094

 Total Charge           Charge          ....    0
 Multiplicity           Mult            ....    1
 Number of Electrons    NEL             ....   60
 Basis Dimension        Dim             ....  748

ORBITAL ENERGIES
----------------

  NO   OCC          E(Eh)            E(eV)
   0   2.0000     -91.938331     -2501.7692
   1   2.0000     -20.543449      -559.0157
   2   2.0000     -15.606907      -424.6855
   3   2.0000     -15.601033      -424.5257
   4   2.0000     -11.378529      -309.6255
   5   2.0000     -11.371857      -309.4440
   6   2.0000     -11.324295      -308.1497
   7   2.0000      -8.942544      -243.3390
   8   2.0000      -6.624384      -180.2586
   9   2.0000      -6.622080      -180.1960
  10   2.0000      -6.621863      -180.1901
  11   2.0000      -1.411595       -38.4115
  12   2.0000      -1.293277       -35.1919
  13   2.0000      -1.238241       -33.6942
  14   2.0000      -1.069617       -29.1058
  15   2.0000      -1.000283       -27.2191
  16   2.0000      -0.849601       -23.1188
  17   2.0000      -0.772343       -21.0165
  18   2.0000      -0.711786       -19.3687
  19   2.0000      -0.697684       -18.9850
  20   2.0000      -0.681141       -18.5348
  21   2.0000      -0.632430       -17.2093
  22   2.0000      -0.588237       -16.0067
  23   2.0000      -0.579203       -15.7609
  24   2.0000      -0.535797       -14.5798
  25   2.0000      -0.523315       -14.2401
  26   2.0000      -0.457121       -12.4389
  27   2.0000      -0.440164       -11.9775
  28   2.0000      -0.359758        -9.7895
  29   2.0000      -0.349999        -9.5240
  30   0.0000       0.010330         0.2811
  31   0.0000       0.029015         0.7895
  32   0.0000       0.032464         0.8834
  33   0.0000       0.040021         1.0890
  34   0.0000       0.057610         1.5676

MULLIKEN ATOMIC CHARGES
-----------------------
   0 S :    0.023790
   1 O :   -0.716960
   2 N :   -0.675835
   3 N :   -0.486466
   4 C :   -0.274810
   5 C :    0.767102
   6 C :    0.141214
   7 H :    0.327698
   8 H :    0.327980
   9 H :    0.317400
  10 H :    0.248887
Sum of atomic charges:    0.0000000

LOEWDIN ATOMIC CHARGES
----------------------
   0 S :    0.959814
   1 O :    0.697226
   2 N :    1.238881
   3 N :    0.386369
   4 C :    0.215684
   5 C :   -0.845082
   6 C :   -1.037638
   7 H :   -0.315805
   8 H :   -0.315749
   9 H :   -0.491494
  10 H :   -0.492206

  Mayer bond orders larger than 0.100000
B(  0-S ,  6-C ) :   1.5248 B(  1-O ,  4-C ) :   0.1415 B(  1-O ,  5-C ) :   1.3789
B(  2-N ,  5-C ) :   1.1601 B(  2-N ,  9-H ) :   0.8889 B(  2-N , 10-H ) :   0.9798
B(  3-N ,  4-C ) :   0.8018 B(  3-N ,  6-C ) :   2.1166 B(  4-C ,  5-C ) :   1.0968
B(  4-C ,  7-H ) :   0.8831 B(  4-C ,  8-H ) :   0.8826

MP2 TOTAL ENERGY:     -698.755480570 Eh
FINAL SINGLE POINT ENERGY      -698.755480569636

DIPOLE MOMENT
-------------
                                X             Y             Z
Electronic contribution:      7.23152      -1.48492      -0.00077
Nuclear contribution   :     -9.62155       2.68932       0.00119
                        -----------------------------------------
Total Dipole Moment    :     -2.39002       1.20440       0.00043
                        -----------------------------------------
Magnitude (a.u.)       :      2.67634
Magnitude (Debye)      :      6.80271

Rotational constants in cm-1:     0.221957     0.034843     0.030283
Rotational constants in MHz :  6654.116703  1044.569240   907.870851

                             ****ORCA TERMINATED NORMALLY****
TOTAL RUN TIME: 0 days 0 hours 16 minutes 55 seconds 691 msec
