                         Program Version 5.0.4 -  RELEASE  -
|  1> !ri-mp2 aug-cc-pvqz aug-cc-pvqz/c tightscf
|  2> %pal nprocs 16 end
|  3>
|  4> * xyz 0 1
|  5> C      0.000000    1.243074    0.098143
|  6> C      0.000000   -1.243074    0.098143
|  7> C      1.350214    1.778331   -0.300826
|  8> C     -1.350214   -1.778331   -0.300826
|  9> C      0.000000    0.000000    0.994477
| 10> O     -1.040368    1.730141   -0.279145
| 11> O      1.040368   -1.730141   -0.279145
| 12> H      1.852898    2.184930    0.580181
| 13> H      1.978873    0.968481   -0.675930
| 14> H      1.241245    2.557857   -1.049844
| 15> H     -1.241245   -2.557857   -1.049844
| 16> H     -1.852898   -2.184930    0.580181
| 17> H     -1.978873   -0.968481   -0.675930
| 18> H     -0.895614    0.031398    1.611420
| 19> H      0.895614   -0.031398    1.611420
| 20> *
| 21>
| 22>                          ****END OF INPUT****

CARTESIAN COORDINATES (ANGSTROEM)
---------------------------------
  C      0.000000    1.243074    0.098143
  C      0.000000   -1.243074    0.098143
  C      1.350214    1.778331   -0.300826
  C     -1.350214   -1.778331   -0.300826
  C      0.000000    0.000000    0.994477
  O     -1.040368    1.730141   -0.279145
  O      1.040368   -1.730141   -0.279145
  H      1.852898    2.184930    0.580181
  H      1.978873    0.968481   -0.675930
  H      1.241245    2.557857   -1.049844
  H     -1.241245   -2.557857   -1.049844
  H     -1.852898   -2.184930    0.580181
  H     -1.978873   -0.968481   -0.675930
  H     -0.895614    0.031398    1.611420
  H      0.895614   -0.031398    1.611420

 Total Charge           Charge          ....    0
 Multiplicity           Mult            ....    1
 Number of Electrons    NEL             ....   54
 Basis Dimension        Dim             ....  928

ORBITAL ENERGIES
----------------

  NO   OCC          E(Eh)            E(eV)
   0   2.0000     -20.558561      -559.4269
   1   2.0000     -20.558560      -559.4269
   2   2.0000     -11.348473      -308.8077
   3   2.0000     -11.348472      -308.8076
   4   2.0000     -11.254831      -306.2595
   5   2.0000     -11.239120      -305.8320
   6   2.0000     -11.239120      -305.8320
   7   2.0000      -1.406753       -38.2797
   8   2.0000      -1.400457       -38.1084
   9   2.0000      -1.076660       -29.2974
  10   2.0000      -1.022952       -27.8359
  11   2.0000      -0.975882       -26.5551
  12   2.0000      -0.782358       -21.2891
  13   2.0000      -0.739739       -20.1293
  14   2.0000      -0.672979       -18.3127
  15   2.0000      -0.664811       -18.0904
  16   2.0000      -0.664124       -18.0717
  17   2.0000      -0.628445       -17.1009
  18   2.0000      -0.602668       -16.3994
  19   2.0000      -0.596035       -16.2189
  20   2.0000      -0.574965       -15.6456
  21   2.0000      -0.557961       -15.1829
  22   2.0000      -0.539697       -14.6859
  23   2.0000      -0.512754       -13.9527
  24   2.0000      -0.509561       -13.8658
  25   2.0000      -0.435309       -11.8454
  26   2.0000      -0.415295       -11.3007
  27   0.0000       0.023499         0.6394
  28   0.0000       0.028992         0.7889
  29   0.0000       0.032395         0.8815
  30   0.0000       0.040664         1.1065
  31   0.0000       0.047065         1.2807

MULLIKEN ATOMIC CHARGES
-----------------------
   0 C :    0.831191
   1 C :    0.831191
   2 C :   -0.892270
   3 C :   -0.892270
   4 C :   -0.571436
   5 O :   -0.814665
   6 O :   -0.814665
   7 H :    0.281926
   8 H :    0.253777
   9 H :    0.305839
  10 H :    0.305839
  11 H :    0.281926
  12 H :    0.253777
  13 H :    0.319920
  14 H :    0.319920
Sum of atomic charges:   -0.0000000

LOEWDIN ATOMIC CHARGES
----------------------
   0 C :   -0.655004
   1 C :   -0.655004
   2 C :    0.902362
   3 C :    0.902362
   4 C :    0.445830
   5 O :    0.745261
   6 O :    0.745261
   7 H :   -0.287484
   8 H :   -0.300062
   9 H :   -0.309250
  10 H :   -0.309250
  11 H :   -0.287484
  12 H :   -0.300062
  13 H :   -0.318738
  14 H :   -0.318738

  Mayer bond orders larger than 0.100000
B(  0-C ,  2-C ) :   0.8777 B(  0-C ,  4-C ) :   0.8789 B(  0-C ,  5-O ) :   1.2181
B(  1-C ,  3-C ) :   0.8777 B(  1-C ,  4-C ) :   0.8789 B(  1-C ,  6-O ) :   1.2181
B(  2-C ,  7-H ) :   0.9297 B(  2-C ,  8-H ) :   0.9473 B(  2-C ,  9-H ) :   0.9552
B(  3-C , 10-H ) :   0.9552 B(  3-C , 11-H ) :   0.9297 B(  3-C , 12-H ) :   0.9473
B(  4-C ,  5-O ) :   0.1082 B(  4-C ,  6-O ) :   0.1082 B(  4-C , 13-H ) :   0.9053
B(  4-C , 14-H ) :   0.9053

MP2 TOTAL ENERGY:     -345.265937155 Eh
FINAL SINGLE POINT ENERGY      -345.265937155238

DIPOLE MOMENT
-------------
                                X             Y             Z
Electronic contribution:      0.00000      -0.00000      -0.23112
Nuclear contribution   :      0.00000      -0.00000       0.93483
                        -----------------------------------------
Total Dipole Moment    :      0.00000      -0.00000       0.70371
                        -----------------------------------------
Magnitude (a.u.)       :      0.70371
Magnitude (Debye)      :      1.78868

Rotational constants in cm-1:     0.138945     0.064374     0.050846
Rotational constants in MHz :  4165.473102  1929.891375  1524.319733

                             ****ORCA TERMINATED NORMALLY****
TOTAL RUN TIME: 0 days 0 hours 39 minutes 6 seconds 135 msec
