                         Program Version 5.0.4 -  RELEASE  -
|  1> !ri-mp2 aug-cc-pvqz aug-cc-pvqz/c tightscf
|  2> %pal nprocs 16 end
|  3>
|  4> * xyz 0 1
|  5> Cl    -1.849785   -1.123139   -0.022675
|  6> Cl    -0.868753    1.577128   -0.107884
|  7> O      3.067182   -0.524320   -0.216469
|  8> N     -0.501598   -0.072327    0.461280
|  9> C      0.718626   -0.556060   -0.215103
| 10> C      1.945213    0.179416    0.310336
| 11> H      0.651673   -0.480227   -1.301963
| 12> H      0.800148   -1.607945    0.057284
| 13> H      1.941056    0.161427    1.404237
| 14> H      1.942057    1.219714   -0.021165
| 15> H      3.870903   -0.050056    0.012492
| 16> *
| 17>
| 18>                          ****END OF INPUT****

CARTESIAN COORDINATES (ANGSTROEM)
---------------------------------
  Cl    -1.849785   -1.123139   -0.022675
  Cl    -0.868753    1.577128   -0.107884
  O      3.067182   -0.524320   -0.216469
  N     -0.501598   -0.072327    0.461280
  C      0.718626   -0.556060   -0.215103
  C      1.945213    0.179416    0.310336
  H      0.651673   -0.480227   -1.301963
  H      0.800148   -1.607945    0.057284
  H      1.941056    0.161427    1.404237
  H      1.942057    1.219714   -0.021165
  H      3.870903   -0.050056    0.012492

 Total Charge           Charge          ....    0
 Multiplicity           Mult            ....    1
 Number of Electrons    NEL             ....   66
 Basis Dimension        Dim             ....  718

ORBITAL ENERGIES
----------------

  NO   OCC          E(Eh)            E(eV)
   0   2.0000    -104.870646     -2853.6754
   1   2.0000    -104.870263     -2853.6649
   2   2.0000     -20.573723      -559.8395
   3   2.0000     -15.697956      -427.1631
   4   2.0000     -11.295165      -307.3571
   5   2.0000     -11.284438      -307.0652
   6   2.0000     -10.593302      -288.2584
   7   2.0000     -10.593102      -288.2530
   8   2.0000      -8.060328      -219.3327
   9   2.0000      -8.060108      -219.3267
  10   2.0000      -8.058095      -219.2719
  11   2.0000      -8.057934      -219.2675
  12   2.0000      -8.057923      -219.2672
  13   2.0000      -8.057763      -219.2629
  14   2.0000      -1.377007       -37.4703
  15   2.0000      -1.293256       -35.1913
  16   2.0000      -1.101767       -29.9806
  17   2.0000      -1.065221       -28.9861
  18   2.0000      -0.944674       -25.7059
  19   2.0000      -0.836642       -22.7662
  20   2.0000      -0.718548       -19.5527
  21   2.0000      -0.689959       -18.7747
  22   2.0000      -0.641402       -17.4534
  23   2.0000      -0.616630       -16.7794
  24   2.0000      -0.614995       -16.7349
  25   2.0000      -0.565505       -15.3882
  26   2.0000      -0.531402       -14.4602
  27   2.0000      -0.518136       -14.0992
  28   2.0000      -0.478233       -13.0134
  29   2.0000      -0.472024       -12.8444
  30   2.0000      -0.465680       -12.6718
  31   2.0000      -0.450506       -12.2589
  32   2.0000      -0.409316       -11.1380
  33   0.0000       0.022827         0.6212
  34   0.0000       0.037470         1.0196
  35   0.0000       0.038546         1.0489
  36   0.0000       0.042154         1.1471
  37   0.0000       0.053766         1.4630

MULLIKEN ATOMIC CHARGES
-----------------------
   0 Cl:   -0.095771
   1 Cl:   -0.103289
   2 O :   -0.806141
   3 N :   -0.323234
   4 C :   -0.171147
   5 C :   -0.003158
   6 H :    0.287191
   7 H :    0.347508
   8 H :    0.272498
   9 H :    0.279913
  10 H :    0.315630
Sum of atomic charges:    0.0000000

LOEWDIN ATOMIC CHARGES
----------------------
   0 Cl:    0.825288
   1 Cl:    0.833663
   2 O :    1.266136
   3 N :   -0.831341
   4 C :   -0.052196
   5 C :    0.109485
   6 H :   -0.344721
   7 H :   -0.377576
   8 H :   -0.302447
   9 H :   -0.342565
  10 H :   -0.783727

  Mayer bond orders larger than 0.100000
B(  0-Cl,  3-N ) :   1.0328 B(  0-Cl,  4-C ) :  -0.1664 B(  1-Cl,  3-N ) :   0.9337
B(  2-O ,  4-C ) :   0.1044 B(  2-O ,  5-C ) :   0.6744 B(  2-O , 10-H ) :   0.9283
B(  3-N ,  4-C ) :   0.8698 B(  4-C ,  5-C ) :   1.0779 B(  4-C ,  6-H ) :   0.8665
B(  4-C ,  7-H ) :   0.8069 B(  5-C ,  8-H ) :   0.8903 B(  5-C ,  9-H ) :   0.8767

MP2 TOTAL ENERGY:    -1128.276178425 Eh
FINAL SINGLE POINT ENERGY     -1128.276178424815

DIPOLE MOMENT
-------------
                                X             Y             Z
Electronic contribution:    -11.74799       1.64829      -0.24615
Nuclear contribution   :     12.53179      -1.34971       0.32136
                        -----------------------------------------
Total Dipole Moment    :      0.78379       0.29857       0.07520
                        -----------------------------------------
Magnitude (a.u.)       :      0.84210
Magnitude (Debye)      :      2.14045

Rotational constants in cm-1:     0.108484     0.043697     0.032290
Rotational constants in MHz :  3252.260880  1310.000481   968.043637

                             ****ORCA TERMINATED NORMALLY****
TOTAL RUN TIME: 0 days 0 hours 11 minutes 57 seconds 245 msec
