                         Program Version 5.0.4 -  RELEASE  -
|  1> !ri-mp2 aug-cc-pvqz aug-cc-pvqz/c tightscf
|  2> %pal nprocs 16 end
|  3>
|  4> * xyz 0 1
|  5> O    -2.366456   -0.102241    0.000000
|  6> O     2.366456   -0.102242    0.000000
|  7> N     0.000000    1.711499    0.000000
|  8> N     0.000000    2.831814    0.000000
|  9> C     0.000000    0.410913    0.000000
| 10> C    -1.204476   -0.433611    0.000000
| 11> C     1.204475   -0.433612    0.000000
| 12> C    -0.666466   -1.837920    0.000000
| 13> C     0.666466   -1.837921    0.000000
| 14> H    -1.332425   -2.687206    0.000000
| 15> H     1.332424   -2.687207    0.000000
| 16> *
| 17>
| 18>                          ****END OF INPUT****

CARTESIAN COORDINATES (ANGSTROEM)
---------------------------------
  O     -2.366456   -0.102241    0.000000
  O      2.366456   -0.102242    0.000000
  N      0.000000    1.711499    0.000000
  N      0.000000    2.831814    0.000000
  C      0.000000    0.410913    0.000000
  C     -1.204476   -0.433611    0.000000
  C      1.204475   -0.433612    0.000000
  C     -0.666466   -1.837920    0.000000
  C      0.666466   -1.837921    0.000000
  H     -1.332425   -2.687206    0.000000
  H      1.332424   -2.687207    0.000000

 Total Charge           Charge          ....    0
 Multiplicity           Mult            ....    1
 Number of Electrons    NEL             ....   62
 Basis Dimension        Dim             ....  812

ORBITAL ENERGIES
----------------

  NO   OCC          E(Eh)            E(eV)
   0   2.0000     -20.569604      -559.7274
   1   2.0000     -20.569604      -559.7274
   2   2.0000     -15.792352      -429.7318
   3   2.0000     -15.731165      -428.0668
   4   2.0000     -11.370488      -309.4067
   5   2.0000     -11.370480      -309.4065
   6   2.0000     -11.300905      -307.5133
   7   2.0000     -11.287872      -307.1586
   8   2.0000     -11.286125      -307.1111
   9   2.0000      -1.529084       -41.6085
  10   2.0000      -1.417078       -38.5607
  11   2.0000      -1.411821       -38.4176
  12   2.0000      -1.207518       -32.8582
  13   2.0000      -1.136699       -30.9312
  14   2.0000      -0.926406       -25.2088
  15   2.0000      -0.925024       -25.1712
  16   2.0000      -0.805443       -21.9172
  17   2.0000      -0.736236       -20.0340
  18   2.0000      -0.723496       -19.6873
  19   2.0000      -0.717221       -19.5166
  20   2.0000      -0.692951       -18.8561
  21   2.0000      -0.682089       -18.5606
  22   2.0000      -0.640746       -17.4356
  23   2.0000      -0.626537       -17.0489
  24   2.0000      -0.614220       -16.7138
  25   2.0000      -0.601027       -16.3548
  26   2.0000      -0.555413       -15.1136
  27   2.0000      -0.476526       -12.9669
  28   2.0000      -0.430623       -11.7179
  29   2.0000      -0.427182       -11.6242
  30   2.0000      -0.369946       -10.0667
  31   0.0000       0.021205         0.5770
  32   0.0000       0.034034         0.9261
  33   0.0000       0.035324         0.9612
  34   0.0000       0.044570         1.2128
  35   0.0000       0.058007         1.5784

MULLIKEN ATOMIC CHARGES
-----------------------
   0 O :   -0.767025
   1 O :   -0.767028
   2 N :    0.025257
   3 N :   -0.230951
   4 C :    0.191870
   5 C :    0.963602
   6 C :    0.963580
   7 C :   -0.607506
   8 C :   -0.607537
   9 H :    0.417859
  10 H :    0.417880
Sum of atomic charges:    0.0000000

LOEWDIN ATOMIC CHARGES
----------------------
   0 O :    0.682134
   1 O :    0.682133
   2 N :    0.094001
   3 N :    0.483124
   4 C :   -0.438940
   5 C :   -0.782595
   6 C :   -0.782595
   7 C :    0.345209
   8 C :    0.345209
   9 H :   -0.313839
  10 H :   -0.313839

  Mayer bond orders larger than 0.100000
B(  0-O ,  4-C ) :   0.4027 B(  0-O ,  5-C ) :   0.8412 B(  0-O ,  7-C ) :   0.2243
B(  1-O ,  4-C ) :   0.4027 B(  1-O ,  6-C ) :   0.8413 B(  1-O ,  8-C ) :   0.2243
B(  2-N ,  3-N ) :   2.2322 B(  2-N ,  4-C ) :   0.9189 B(  4-C ,  5-C ) :   0.9542
B(  4-C ,  6-C ) :   0.9542 B(  4-C ,  7-C ) :  -0.2202 B(  4-C ,  8-C ) :  -0.2202
B(  5-C ,  7-C ) :   1.1828 B(  5-C ,  8-C ) :  -0.1072 B(  6-C ,  7-C ) :  -0.1072
B(  6-C ,  8-C ) :   1.1828 B(  7-C ,  8-C ) :   1.4955 B(  7-C ,  9-H ) :   0.8322
B(  8-C , 10-H ) :   0.8322

MP2 TOTAL ENERGY:     -450.966322278 Eh
FINAL SINGLE POINT ENERGY      -450.966322277953

DIPOLE MOMENT
-------------
                                X             Y             Z
Electronic contribution:     -0.00000       4.45038       0.00000
Nuclear contribution   :     -0.00000      -5.10366       0.00000
                        -----------------------------------------
Total Dipole Moment    :     -0.00000      -0.65327       0.00000
                        -----------------------------------------
Magnitude (a.u.)       :      0.65327
Magnitude (Debye)      :      1.66049

Rotational constants in cm-1:     0.073843     0.065926     0.034830
Rotational constants in MHz :  2213.743772  1976.419538  1044.180410

                             ****ORCA TERMINATED NORMALLY****
TOTAL RUN TIME: 0 days 0 hours 23 minutes 59 seconds 678 msec
