                         Program Version 5.0.4 -  RELEASE  -
|  1> !ri-mp2 aug-cc-pvqz aug-cc-pvqz/c tightscf
|  2> %pal nprocs 16 end
|  3>
|  4> * xyz 0 1
|  5> C     -0.213058    2.110789   -0.000013
|  6> C      1.042586    1.522127    0.000007
|  7> C     -1.349117    1.314820   -0.000027
|  8> C      1.187094    0.132469   -0.000047
|  9> C      0.046570   -0.684289   -0.000161
| 10> C     -1.210519   -0.067972   -0.000041
| 11> C      2.574664   -0.460211    0.000086
| 12> C      0.106756   -2.189188   -0.000088
| 13> O     -2.303561   -0.899154    0.000146
| 14> H     -0.310027    3.188042    0.000026
| 15> H      1.926806    2.145506    0.000092
| 16> H     -2.337118    1.760334    0.000039
| 17> H      2.748533   -1.085830    0.877800
| 18> H      2.749167   -1.084718   -0.878307
| 19> H      3.326642    0.326983    0.000827
| 20> H     -0.398378   -2.599980    0.876317
| 21> H     -0.408082   -2.600325   -0.870566
| 22> H      1.128274   -2.557539   -0.005554
| 23> H     -3.107182   -0.370501   -0.000145
| 24> *
| 25>
| 26>                          ****END OF INPUT****

CARTESIAN COORDINATES (ANGSTROEM)
---------------------------------
  C     -0.213058    2.110789   -0.000013
  C      1.042586    1.522127    0.000007
  C     -1.349117    1.314820   -0.000027
  C      1.187094    0.132469   -0.000047
  C      0.046570   -0.684289   -0.000161
  C     -1.210519   -0.067972   -0.000041
  C      2.574664   -0.460211    0.000086
  C      0.106756   -2.189188   -0.000088
  O     -2.303561   -0.899154    0.000146
  H     -0.310027    3.188042    0.000026
  H      1.926806    2.145506    0.000092
  H     -2.337118    1.760334    0.000039
  H      2.748533   -1.085830    0.877800
  H      2.749167   -1.084718   -0.878307
  H      3.326642    0.326983    0.000827
  H     -0.398378   -2.599980    0.876317
  H     -0.408082   -2.600325   -0.870566
  H      1.128274   -2.557539   -0.005554
  H     -3.107182   -0.370501   -0.000145

 Total Charge           Charge          ....    0
 Multiplicity           Mult            ....    1
 Number of Electrons    NEL             ....   66
 Basis Dimension        Dim             .... 1180

ORBITAL ENERGIES
----------------

  NO   OCC          E(Eh)            E(eV)
   0   2.0000     -20.584564      -560.1345
   1   2.0000     -11.293878      -307.3220
   2   2.0000     -11.240060      -305.8576
   3   2.0000     -11.232042      -305.6394
   4   2.0000     -11.228789      -305.5509
   5   2.0000     -11.224681      -305.4391
   6   2.0000     -11.220469      -305.3245
   7   2.0000     -11.216640      -305.2203
   8   2.0000     -11.212946      -305.1198
   9   2.0000      -1.400497       -38.1095
  10   2.0000      -1.151341       -31.3296
  11   2.0000      -1.052416       -28.6377
  12   2.0000      -1.023741       -27.8574
  13   2.0000      -0.946316       -25.7506
  14   2.0000      -0.916360       -24.9354
  15   2.0000      -0.822187       -22.3728
  16   2.0000      -0.798117       -21.7179
  17   2.0000      -0.708508       -19.2795
  18   2.0000      -0.673019       -18.3138
  19   2.0000      -0.655524       -17.8377
  20   2.0000      -0.602637       -16.3986
  21   2.0000      -0.600281       -16.3345
  22   2.0000      -0.569481       -15.4964
  23   2.0000      -0.569300       -15.4915
  24   2.0000      -0.559922       -15.2363
  25   2.0000      -0.544101       -14.8057
  26   2.0000      -0.543471       -14.7886
  27   2.0000      -0.530139       -14.4258
  28   2.0000      -0.494658       -13.4603
  29   2.0000      -0.476286       -12.9604
  30   2.0000      -0.467680       -12.7262
  31   2.0000      -0.323235        -8.7957
  32   2.0000      -0.307584        -8.3698
  33   0.0000       0.023984         0.6526
  34   0.0000       0.028137         0.7656
  35   0.0000       0.029606         0.8056
  36   0.0000       0.039337         1.0704
  37   0.0000       0.040607         1.1050

MULLIKEN ATOMIC CHARGES
-----------------------
   0 C :   -0.285655
   1 C :   -0.771478
   2 C :   -0.532554
   3 C :    0.378445
   4 C :    0.102415
   5 C :    1.147496
   6 C :   -0.772197
   7 C :   -0.859938
   8 O :   -0.788739
   9 H :    0.235953
  10 H :    0.215549
  11 H :    0.269424
  12 H :    0.176250
  13 H :    0.176523
  14 H :    0.231151
  15 H :    0.232696
  16 H :    0.233947
  17 H :    0.279752
  18 H :    0.330960
Sum of atomic charges:   -0.0000000

LOEWDIN ATOMIC CHARGES
----------------------
   0 C :    0.339433
   1 C :    0.340301
   2 C :    0.334211
   3 C :   -0.061240
   4 C :   -0.074949
   5 C :   -0.426092
   6 C :    0.906083
   7 C :    0.897809
   8 O :    1.284352
   9 H :   -0.321148
  10 H :   -0.332625
  11 H :   -0.327085
  12 H :   -0.278277
  13 H :   -0.278348
  14 H :   -0.308949
  15 H :   -0.279750
  16 H :   -0.280406
  17 H :   -0.333959
  18 H :   -0.799361

  Mayer bond orders larger than 0.100000
B(  0-C ,  1-C ) :   1.2794 B(  0-C ,  2-C ) :   1.1811 B(  0-C ,  3-C ) :  -0.3320
B(  0-C ,  4-C ) :   0.1254 B(  0-C ,  5-C ) :  -0.2000 B(  0-C ,  9-H ) :   1.1577
B(  0-C , 10-H ) :  -0.1044 B(  1-C ,  2-C ) :   0.1401 B(  1-C ,  3-C ) :   0.8924
B(  1-C ,  6-C ) :  -0.1362 B(  1-C ,  9-H ) :  -0.1738 B(  1-C , 10-H ) :   1.0807
B(  2-C ,  5-C ) :   1.2375 B(  2-C ,  8-O ) :   0.2136 B(  2-C ,  9-H ) :  -0.1568
B(  2-C , 11-H ) :   1.0291 B(  3-C ,  4-C ) :   0.9301 B(  3-C ,  5-C ) :  -0.2081
B(  3-C ,  6-C ) :   0.6826 B(  3-C , 12-H ) :  -0.1008 B(  3-C , 13-H ) :  -0.1014
B(  4-C ,  5-C ) :   1.2495 B(  4-C ,  6-C ) :  -0.1260 B(  4-C ,  7-C ) :   0.4907
B(  4-C ,  8-O ) :   0.4389 B(  4-C , 15-H ) :  -0.1277 B(  4-C , 16-H ) :  -0.1286
B(  4-C , 17-H ) :  -0.1551 B(  5-C ,  8-O ) :  -0.2048 B(  5-C , 11-H ) :  -0.1034
B(  5-C , 18-H ) :  -0.1090 B(  6-C , 12-H ) :   1.0578 B(  6-C , 13-H ) :   1.0578
B(  6-C , 14-H ) :   1.0455 B(  7-C , 15-H ) :   1.0197 B(  7-C , 16-H ) :   1.0195
B(  7-C , 17-H ) :   1.0428 B(  8-O , 18-H ) :   0.9369

MP2 TOTAL ENERGY:     -385.444624896 Eh
FINAL SINGLE POINT ENERGY      -385.444624895709

DIPOLE MOMENT
-------------
                                X             Y             Z
Electronic contribution:     -5.47658       3.18925      -0.00060
Nuclear contribution   :      5.35954      -2.93448       0.00054
                        -----------------------------------------
Total Dipole Moment    :     -0.11704       0.25476      -0.00006
                        -----------------------------------------
Magnitude (a.u.)       :      0.28036
Magnitude (Debye)      :      0.71263

Rotational constants in cm-1:     0.075121     0.059124     0.033491
Rotational constants in MHz :  2252.083400  1772.507113  1004.048127

                             ****ORCA TERMINATED NORMALLY****
TOTAL RUN TIME: 0 days 1 hours 31 minutes 24 seconds 170 msec
