                         Program Version 5.0.4 -  RELEASE  -
|  1> !ri-mp2 aug-cc-pvqz aug-cc-pvqz/c tightscf
|  2> %pal nprocs 16 end
|  3>
|  4> * xyz 0 1
|  5> C      1.757085   -1.091084   -0.817160
|  6> C      1.865711    1.150795    0.344263
|  7> C     -2.561944   -0.479494    0.222334
|  8> C     -0.108652   -0.438664    0.811498
|  9> C      1.383699   -0.300756    0.441026
| 10> C     -1.155311   -0.134494   -0.257223
| 11> O     -1.063482    1.259171   -0.592699
| 12> H      1.319591   -0.646459   -1.712763
| 13> H      1.420349   -2.128425   -0.757181
| 14> H      2.839293   -1.101666   -0.956361
| 15> H      1.631351    1.705127    1.254703
| 16> H      2.948329    1.182645    0.204223
| 17> H      1.395373    1.671994   -0.487552
| 18> H     -2.805836    0.079162    1.127243
| 19> H     -3.304011   -0.233062   -0.540810
| 20> H     -2.651586   -1.545510    0.436884
| 21> H     -0.321008    0.193554    1.678818
| 22> H     -0.280510   -1.470795    1.130737
| 23> H      1.924875   -0.758063    1.276660
| 24> H     -0.937758   -0.728497   -1.152861
| 25> H     -1.754119    1.468806   -1.228574
| 26> *
| 27>
| 28>                          ****END OF INPUT****

CARTESIAN COORDINATES (ANGSTROEM)
---------------------------------
  C      1.757085   -1.091084   -0.817160
  C      1.865711    1.150795    0.344263
  C     -2.561944   -0.479494    0.222334
  C     -0.108652   -0.438664    0.811498
  C      1.383699   -0.300756    0.441026
  C     -1.155311   -0.134494   -0.257223
  O     -1.063482    1.259171   -0.592699
  H      1.319591   -0.646459   -1.712763
  H      1.420349   -2.128425   -0.757181
  H      2.839293   -1.101666   -0.956361
  H      1.631351    1.705127    1.254703
  H      2.948329    1.182645    0.204223
  H      1.395373    1.671994   -0.487552
  H     -2.805836    0.079162    1.127243
  H     -3.304011   -0.233062   -0.540810
  H     -2.651586   -1.545510    0.436884
  H     -0.321008    0.193554    1.678818
  H     -0.280510   -1.470795    1.130737
  H      1.924875   -0.758063    1.276660
  H     -0.937758   -0.728497   -1.152861
  H     -1.754119    1.468806   -1.228574

 Total Charge           Charge          ....    0
 Multiplicity           Mult            ....    1
 Number of Electrons    NEL             ....   58
 Basis Dimension        Dim             .... 1204

ORBITAL ENERGIES
----------------

  NO   OCC          E(Eh)            E(eV)
   0   2.0000     -20.549047      -559.1680
   1   2.0000     -11.276426      -306.8472
   2   2.0000     -11.218908      -305.2820
   3   2.0000     -11.215808      -305.1977
   4   2.0000     -11.212499      -305.1076
   5   2.0000     -11.204252      -304.8832
   6   2.0000     -11.193185      -304.5821
   7   2.0000      -1.353108       -36.8199
   8   2.0000      -1.083683       -29.4885
   9   2.0000      -1.021695       -27.8017
  10   2.0000      -0.927125       -25.2284
  11   2.0000      -0.918872       -25.0038
  12   2.0000      -0.821217       -22.3465
  13   2.0000      -0.746062       -20.3014
  14   2.0000      -0.693167       -18.8620
  15   2.0000      -0.638659       -17.3788
  16   2.0000      -0.604562       -16.4510
  17   2.0000      -0.598830       -16.2950
  18   2.0000      -0.573409       -15.6033
  19   2.0000      -0.561462       -15.2782
  20   2.0000      -0.541424       -14.7329
  21   2.0000      -0.524503       -14.2724
  22   2.0000      -0.518042       -14.0966
  23   2.0000      -0.508427       -13.8350
  24   2.0000      -0.494609       -13.4590
  25   2.0000      -0.458997       -12.4899
  26   2.0000      -0.454614       -12.3707
  27   2.0000      -0.435596       -11.8532
  28   2.0000      -0.429319       -11.6824
  29   0.0000       0.024265         0.6603
  30   0.0000       0.029587         0.8051
  31   0.0000       0.032132         0.8744
  32   0.0000       0.034402         0.9361
  33   0.0000       0.045039         1.2256

MULLIKEN ATOMIC CHARGES
-----------------------
   0 C :   -0.910230
   1 C :   -0.946006
   2 C :   -0.867507
   3 C :   -0.423880
   4 C :    0.197640
   5 C :    0.634370
   6 O :   -0.902749
   7 H :    0.160483
   8 H :    0.188417
   9 H :    0.281392
  10 H :    0.204160
  11 H :    0.291640
  12 H :    0.206248
  13 H :    0.226548
  14 H :    0.262517
  15 H :    0.239802
  16 H :    0.241374
  17 H :    0.288615
  18 H :    0.227736
  19 H :    0.159732
  20 H :    0.239697
Sum of atomic charges:    0.0000000

LOEWDIN ATOMIC CHARGES
----------------------
   0 C :    0.919273
   1 C :    0.921662
   2 C :    0.922111
   3 C :    0.499826
   4 C :    0.120514
   5 C :   -0.211024
   6 O :    1.297940
   7 H :   -0.287540
   8 H :   -0.269226
   9 H :   -0.275344
  10 H :   -0.274665
  11 H :   -0.278463
  12 H :   -0.310854
  13 H :   -0.280915
  14 H :   -0.283697
  15 H :   -0.279111
  16 H :   -0.275632
  17 H :   -0.280969
  18 H :   -0.282946
  19 H :   -0.309298
  20 H :   -0.781642

  Mayer bond orders larger than 0.100000
B(  0-C ,  4-C ) :   0.6623 B(  0-C ,  7-H ) :   1.0281 B(  0-C ,  8-H ) :   1.0480
B(  0-C ,  9-H ) :   0.9968 B(  1-C ,  4-C ) :   0.7310 B(  1-C , 10-H ) :   1.0400
B(  1-C , 11-H ) :   0.9962 B(  1-C , 12-H ) :   0.9792 B(  2-C ,  5-C ) :   0.7579
B(  2-C , 13-H ) :   0.9855 B(  2-C , 14-H ) :   1.0014 B(  2-C , 15-H ) :   0.9838
B(  3-C ,  4-C ) :   0.8412 B(  3-C ,  5-C ) :   0.7100 B(  3-C , 16-H ) :   0.9095
B(  3-C , 17-H ) :   0.9195 B(  4-C , 18-H ) :   0.9274 B(  5-C ,  6-O ) :   0.2881
B(  5-C , 14-H ) :  -0.1027 B(  5-C , 19-H ) :   0.9559 B(  6-O , 20-H ) :   1.0171

MP2 TOTAL ENERGY:     -311.753732692 Eh
FINAL SINGLE POINT ENERGY      -311.753732691554

DIPOLE MOMENT
-------------
                                X             Y             Z
Electronic contribution:     -1.96791       1.99955      -0.47499
Nuclear contribution   :      1.50057      -2.44274       0.28125
                        -----------------------------------------
Total Dipole Moment    :     -0.46734      -0.44319      -0.19374
                        -----------------------------------------
Magnitude (a.u.)       :      0.67257
Magnitude (Debye)      :      1.70955

Rotational constants in cm-1:     0.133155     0.053071     0.047149
Rotational constants in MHz :  3991.885975  1591.027165  1413.477433

                             ****ORCA TERMINATED NORMALLY****
TOTAL RUN TIME: 0 days 1 hours 16 minutes 33 seconds 139 msec
