                         Program Version 5.0.4 -  RELEASE  -
|  1> !ri-mp2 aug-cc-pvqz aug-cc-pvqz/c tightscf
|  2> %pal nprocs 16 end
|  3>
|  4> * xyz 0 1
|  5> H      1.261590   -2.270226    0.000000
|  6> C      0.638250   -1.394165    0.000000
|  7> N      1.115640   -0.158335    0.000000
|  8> N     -0.709343   -1.427292    0.000000
|  9> N     -1.101004   -0.179300    0.000000
| 10> N      0.000000    0.555258    0.000000
| 11> H      0.482613    2.378013    0.888585
| 12> H     -1.062032    2.314158    0.000000
| 13> H      0.482613    2.378013   -0.888585
| 14> C     -0.021889    2.005452    0.000000
| 15> *
| 16>
| 17>                          ****END OF INPUT****

CARTESIAN COORDINATES (ANGSTROEM)
---------------------------------
  H      1.261590   -2.270226    0.000000
  C      0.638250   -1.394165    0.000000
  N      1.115640   -0.158335    0.000000
  N     -0.709343   -1.427292    0.000000
  N     -1.101004   -0.179300    0.000000
  N      0.000000    0.555258    0.000000
  H      0.482613    2.378013    0.888585
  H     -1.062032    2.314158    0.000000
  H      0.482613    2.378013   -0.888585
  C     -0.021889    2.005452    0.000000

 Total Charge           Charge          ....    0
 Multiplicity           Mult            ....    1
 Number of Electrons    NEL             ....   44
 Basis Dimension        Dim             ....  664

ORBITAL ENERGIES
----------------

  NO   OCC          E(Eh)            E(eV)
   0   2.0000     -15.705156      -427.3590
   1   2.0000     -15.664541      -426.2538
   2   2.0000     -15.622129      -425.0997
   3   2.0000     -15.604515      -424.6204
   4   2.0000     -11.298757      -307.4548
   5   2.0000     -11.296137      -307.3835
   6   2.0000      -1.503460       -40.9112
   7   2.0000      -1.266356       -34.4593
   8   2.0000      -1.193900       -32.4877
   9   2.0000      -1.019854       -27.7516
  10   2.0000      -0.881952       -23.9991
  11   2.0000      -0.850910       -23.1544
  12   2.0000      -0.737112       -20.0578
  13   2.0000      -0.706818       -19.2335
  14   2.0000      -0.641213       -17.4483
  15   2.0000      -0.601307       -16.3624
  16   2.0000      -0.598614       -16.2891
  17   2.0000      -0.562150       -15.2969
  18   2.0000      -0.496912       -13.5217
  19   2.0000      -0.469569       -12.7776
  20   2.0000      -0.435815       -11.8591
  21   2.0000      -0.402548       -10.9539
  22   0.0000       0.022345         0.6080
  23   0.0000       0.033792         0.9195
  24   0.0000       0.037883         1.0308
  25   0.0000       0.041863         1.1391
  26   0.0000       0.066653         1.8137

MULLIKEN ATOMIC CHARGES
-----------------------
   0 H :    0.586714
   1 C :   -0.098251
   2 N :   -0.606056
   3 N :   -0.443636
   4 N :   -0.096015
   5 N :    0.366492
   6 H :    0.307684
   7 H :    0.367523
   8 H :    0.307684
   9 C :   -0.692139
Sum of atomic charges:    0.0000000

LOEWDIN ATOMIC CHARGES
----------------------
   0 H :   -0.373069
   1 C :   -0.260527
   2 N :    0.433579
   3 N :    0.276021
   4 N :    0.198233
   5 N :   -0.167670
   6 H :   -0.288028
   7 H :   -0.316679
   8 H :   -0.288028
   9 C :    0.786167

  Mayer bond orders larger than 0.100000
B(  0-H ,  1-C ) :   0.6680 B(  1-C ,  2-N ) :   1.5899 B(  1-C ,  3-N ) :   1.4297
B(  2-N ,  3-N ) :   0.1453 B(  2-N ,  4-N ) :   0.1490 B(  2-N ,  5-N ) :   0.8261
B(  3-N ,  4-N ) :   1.2483 B(  4-N ,  5-N ) :   1.1561 B(  5-N ,  9-C ) :   0.6468
B(  6-H ,  9-C ) :   0.9358 B(  7-H ,  9-C ) :   0.8908 B(  8-H ,  9-C ) :   0.9358

MP2 TOTAL ENERGY:     -297.140733458 Eh
FINAL SINGLE POINT ENERGY      -297.140733457597

DIPOLE MOMENT
-------------
                                X             Y             Z
Electronic contribution:     -0.60564      -3.71819       0.00000
Nuclear contribution   :      1.14073       4.71039       0.00000
                        -----------------------------------------
Total Dipole Moment    :      0.53509       0.99220       0.00000
                        -----------------------------------------
Magnitude (a.u.)       :      1.12729
Magnitude (Debye)      :      2.86534

Rotational constants in cm-1:     0.329597     0.131063     0.095465
Rotational constants in MHz :  9881.059717  3929.170116  2861.959413

                             ****ORCA TERMINATED NORMALLY****
TOTAL RUN TIME: 0 days 0 hours 10 minutes 39 seconds 858 msec
