                         Program Version 5.0.4 -  RELEASE  -
|  1> !ri-mp2 aug-cc-pvqz aug-cc-pvqz/c tightscf
|  2> %pal nprocs 16 end
|  3>
|  4> * xyz 0 1
|  5> Cl    1.404145    1.587201    0.000000
|  6> Cl    1.404145   -1.587200    0.000000
|  7> C    -0.099467    0.708116    0.000000
|  8> C    -0.099467   -0.708116    0.000000
|  9> C    -1.288023    1.457987    0.000000
| 10> C    -1.288023   -1.457988    0.000000
| 11> C    -2.378023    0.619733    0.000000
| 12> C    -2.378023   -0.619734    0.000000
| 13> H    -1.277395    2.536568    0.000000
| 14> H    -1.277395   -2.536568    0.000000
| 15> *
| 16>
| 17>                          ****END OF INPUT****

CARTESIAN COORDINATES (ANGSTROEM)
---------------------------------
  Cl     1.404145    1.587201    0.000000
  Cl     1.404145   -1.587200    0.000000
  C     -0.099467    0.708116    0.000000
  C     -0.099467   -0.708116    0.000000
  C     -1.288023    1.457987    0.000000
  C     -1.288023   -1.457988    0.000000
  C     -2.378023    0.619733    0.000000
  C     -2.378023   -0.619734    0.000000
  H     -1.277395    2.536568    0.000000
  H     -1.277395   -2.536568    0.000000

 Total Charge           Charge          ....    0
 Multiplicity           Mult            ....    1
 Number of Electrons    NEL             ....   72
 Basis Dimension        Dim             ....  740

ORBITAL ENERGIES
----------------

  NO   OCC          E(Eh)            E(eV)
   0   2.0000    -104.855731     -2853.2695
   1   2.0000    -104.855731     -2853.2695
   2   2.0000     -11.337591      -308.5115
   3   2.0000     -11.336500      -308.4819
   4   2.0000     -11.300880      -307.5126
   5   2.0000     -11.300869      -307.5123
   6   2.0000     -11.274629      -306.7983
   7   2.0000     -11.271468      -306.7122
   8   2.0000     -10.580942      -287.9221
   9   2.0000     -10.580939      -287.9220
  10   2.0000      -8.048068      -218.9991
  11   2.0000      -8.048067      -218.9990
  12   2.0000      -8.046243      -218.9494
  13   2.0000      -8.046243      -218.9494
  14   2.0000      -8.046191      -218.9480
  15   2.0000      -8.046190      -218.9480
  16   2.0000      -1.236691       -33.6521
  17   2.0000      -1.149206       -31.2715
  18   2.0000      -1.147393       -31.2222
  19   2.0000      -1.040300       -28.3080
  20   2.0000      -0.994532       -27.0626
  21   2.0000      -0.879246       -23.9255
  22   2.0000      -0.789666       -21.4879
  23   2.0000      -0.694882       -18.9087
  24   2.0000      -0.684839       -18.6354
  25   2.0000      -0.673588       -18.3293
  26   2.0000      -0.592016       -16.1096
  27   2.0000      -0.575916       -15.6715
  28   2.0000      -0.574776       -15.6405
  29   2.0000      -0.501141       -13.6367
  30   2.0000      -0.497520       -13.5382
  31   2.0000      -0.489511       -13.3203
  32   2.0000      -0.459003       -12.4901
  33   2.0000      -0.400045       -10.8858
  34   2.0000      -0.372925       -10.1478
  35   2.0000      -0.359379        -9.7792
  36   0.0000       0.023152         0.6300
  37   0.0000       0.026914         0.7324
  38   0.0000       0.036091         0.9821
  39   0.0000       0.049341         1.3426
  40   0.0000       0.059907         1.6301

MULLIKEN ATOMIC CHARGES
-----------------------
   0 Cl:   -0.246364
   1 Cl:   -0.246367
   2 C :   -0.022562
   3 C :   -0.022487
   4 C :   -0.003502
   5 C :   -0.003519
   6 C :   -0.327488
   7 C :   -0.327464
   8 H :    0.599875
   9 H :    0.599877
Sum of atomic charges:   -0.0000000

LOEWDIN ATOMIC CHARGES
----------------------
   0 Cl:    1.160088
   1 Cl:    1.160089
   2 C :   -1.019634
   3 C :   -1.019634
   4 C :    0.111643
   5 C :    0.111644
   6 C :    0.121757
   7 C :    0.121757
   8 H :   -0.373855
   9 H :   -0.373856

  Mayer bond orders larger than 0.100000
B(  0-Cl,  2-C ) :   0.9546 B(  0-Cl,  3-C ) :  -0.1687 B(  0-Cl,  4-C ) :  -0.1038
B(  1-Cl,  2-C ) :  -0.1686 B(  1-Cl,  3-C ) :   0.9545 B(  1-Cl,  5-C ) :  -0.1038
B(  2-C ,  3-C ) :   1.0205 B(  2-C ,  4-C ) :   1.1981 B(  2-C ,  7-C ) :   0.1649
B(  3-C ,  5-C ) :   1.1981 B(  3-C ,  6-C ) :   0.1649 B(  4-C ,  6-C ) :   1.2070
B(  4-C ,  7-C ) :  -0.1234 B(  4-C ,  8-H ) :   0.6399 B(  5-C ,  6-C ) :  -0.1235
B(  5-C ,  7-C ) :   1.2070 B(  5-C ,  9-H ) :   0.6399 B(  6-C ,  7-C ) :   2.7420

MP2 TOTAL ENERGY:    -1148.770402042 Eh
FINAL SINGLE POINT ENERGY     -1148.770402042103

DIPOLE MOMENT
-------------
                                X             Y             Z
Electronic contribution:      5.75317       0.00000      -0.00000
Nuclear contribution   :     -6.12975      -0.00000       0.00000
                        -----------------------------------------
Total Dipole Moment    :     -0.37658      -0.00000      -0.00000
                        -----------------------------------------
Magnitude (a.u.)       :      0.37658
Magnitude (Debye)      :      0.95718

Rotational constants in cm-1:     0.063871     0.052890     0.028932
Rotational constants in MHz :  1914.796806  1585.605144   867.360866

                             ****ORCA TERMINATED NORMALLY****
TOTAL RUN TIME: 0 days 0 hours 22 minutes 9 seconds 859 msec
