                         Program Version 5.0.4 -  RELEASE  -
|  1> !ri-mp2 aug-cc-pvqz aug-cc-pvqz/c tightscf
|  2> %pal nprocs 16 end
|  3> %maxcore 3800
|  4>
|  5> * xyz 0 1
|  6> C      1.213746   -0.485195   -0.451299
|  7> C     -0.186751    1.291886   -0.452061
|  8> C     -1.025519   -0.809540   -0.451492
|  9> C      3.106193   -1.226077    1.022311
| 10> C     -0.489286    3.302497    1.020270
| 11> C     -2.620272   -2.070057    1.021573
| 12> C      2.607524   -1.040956   -0.418867
| 13> C     -0.402257    2.776850   -0.420576
| 14> C     -2.203885   -1.738495   -0.419487
| 15> N      1.071093    0.842916   -0.451579
| 16> N      0.196001   -1.350037   -0.450873
| 17> N     -1.265574    0.504278   -0.451645
| 18> H      3.118887   -0.274436    1.553900
| 19> H      4.118823   -1.629272    1.024095
| 20> H      2.464865   -1.917378    1.569345
| 21> H     -1.319148    2.838266    1.553364
| 22> H     -0.646245    4.381085    1.021356
| 23> H      0.430754    3.093039    1.566254
| 24> H     -1.805223   -2.554587    1.559462
| 25> H     -3.476138   -2.744948    1.022972
| 26> H     -2.900234   -1.165995    1.562599
| 27> H      2.608917   -2.000696   -0.934359
| 28> H      3.265833   -0.353860   -0.949473
| 29> H      0.427560    3.257459   -0.937555
| 30> H     -1.327118    3.003015   -0.950185
| 31> H     -3.033410   -1.262410   -0.941151
| 32> H     -1.935724   -2.654865   -0.944181
| 33> *
| 34>
| 35>                          ****END OF INPUT****

CARTESIAN COORDINATES (ANGSTROEM)
---------------------------------
  C      1.213746   -0.485195   -0.451299
  C     -0.186751    1.291886   -0.452061
  C     -1.025519   -0.809540   -0.451492
  C      3.106193   -1.226077    1.022311
  C     -0.489286    3.302497    1.020270
  C     -2.620272   -2.070057    1.021573
  C      2.607524   -1.040956   -0.418867
  C     -0.402257    2.776850   -0.420576
  C     -2.203885   -1.738495   -0.419487
  N      1.071093    0.842916   -0.451579
  N      0.196001   -1.350037   -0.450873
  N     -1.265574    0.504278   -0.451645
  H      3.118887   -0.274436    1.553900
  H      4.118823   -1.629272    1.024095
  H      2.464865   -1.917378    1.569345
  H     -1.319148    2.838266    1.553364
  H     -0.646245    4.381085    1.021356
  H      0.430754    3.093039    1.566254
  H     -1.805223   -2.554587    1.559462
  H     -3.476138   -2.744948    1.022972
  H     -2.900234   -1.165995    1.562599
  H      2.608917   -2.000696   -0.934359
  H      3.265833   -0.353860   -0.949473
  H      0.427560    3.257459   -0.937555
  H     -1.327118    3.003015   -0.950185
  H     -3.033410   -1.262410   -0.941151
  H     -1.935724   -2.654865   -0.944181

 Total Charge           Charge          ....    0
 Multiplicity           Mult            ....    1
 Number of Electrons    NEL             ....   90
 Basis Dimension        Dim             .... 1650

ORBITAL ENERGIES
----------------

  NO   OCC          E(Eh)            E(eV)
   0   2.0000     -15.555044      -423.2743
   1   2.0000     -15.555033      -423.2740
   2   2.0000     -15.554996      -423.2730
   3   2.0000     -11.324631      -308.1589
   4   2.0000     -11.324629      -308.1588
   5   2.0000     -11.324616      -308.1585
   6   2.0000     -11.230054      -305.5853
   7   2.0000     -11.230051      -305.5852
   8   2.0000     -11.230050      -305.5852
   9   2.0000     -11.221190      -305.3441
  10   2.0000     -11.221188      -305.3440
  11   2.0000     -11.221185      -305.3440
  12   2.0000      -1.345276       -36.6068
  13   2.0000      -1.202226       -32.7142
  14   2.0000      -1.202218       -32.7140
  15   2.0000      -1.051513       -28.6131
  16   2.0000      -1.051486       -28.6124
  17   2.0000      -1.040999       -28.3270
  18   2.0000      -0.919037       -25.0083
  19   2.0000      -0.918993       -25.0071
  20   2.0000      -0.874309       -23.7912
  21   2.0000      -0.803885       -21.8748
  22   2.0000      -0.803836       -21.8735
  23   2.0000      -0.747923       -20.3520
  24   2.0000      -0.670282       -18.2393
  25   2.0000      -0.619864       -16.8674
  26   2.0000      -0.619855       -16.8671
  27   2.0000      -0.613693       -16.6994
  28   2.0000      -0.595879       -16.2147
  29   2.0000      -0.595771       -16.2118
  30   2.0000      -0.595707       -16.2100
  31   2.0000      -0.563676       -15.3384
  32   2.0000      -0.536732       -14.6052
  33   2.0000      -0.536698       -14.6043
  34   2.0000      -0.518103       -14.0983
  35   2.0000      -0.511398       -13.9158
  36   2.0000      -0.511390       -13.9156
  37   2.0000      -0.500940       -13.6313
  38   2.0000      -0.496005       -13.4970
  39   2.0000      -0.495990       -13.4966
  40   2.0000      -0.495185       -13.4747
  41   2.0000      -0.413337       -11.2475
  42   2.0000      -0.413329       -11.2473
  43   2.0000      -0.406631       -11.0650
  44   2.0000      -0.406601       -11.0642
  45   0.0000       0.025885         0.7044
  46   0.0000       0.027637         0.7520
  47   0.0000       0.027641         0.7522
  48   0.0000       0.033579         0.9137
  49   0.0000       0.041188         1.1208

MULLIKEN ATOMIC CHARGES
-----------------------
   0 C :    0.518907
   1 C :    0.517497
   2 C :    0.518063
   3 C :   -0.895737
   4 C :   -0.895940
   5 C :   -0.895662
   6 C :   -0.385323
   7 C :   -0.385681
   8 C :   -0.385216
   9 N :   -0.657302
  10 N :   -0.656755
  11 N :   -0.657294
  12 H :    0.246291
  13 H :    0.328828
  14 H :    0.245761
  15 H :    0.246361
  16 H :    0.328775
  17 H :    0.245891
  18 H :    0.245867
  19 H :    0.328839
  20 H :    0.246282
  21 H :    0.300045
  22 H :    0.299223
  23 H :    0.299855
  24 H :    0.299284
  25 H :    0.299211
  26 H :    0.299929
Sum of atomic charges:    0.0000000

LOEWDIN ATOMIC CHARGES
----------------------
   0 C :   -0.595247
   1 C :   -0.595215
   2 C :   -0.595210
   3 C :    0.930780
   4 C :    0.930780
   5 C :    0.930793
   6 C :    0.468059
   7 C :    0.468074
   8 C :    0.468075
   9 N :    0.642486
  10 N :    0.642559
  11 N :    0.642436
  12 H :   -0.283429
  13 H :   -0.281622
  14 H :   -0.283135
  15 H :   -0.283405
  16 H :   -0.281620
  17 H :   -0.283154
  18 H :   -0.283311
  19 H :   -0.281629
  20 H :   -0.283246
  21 H :   -0.299246
  22 H :   -0.298693
  23 H :   -0.299210
  24 H :   -0.298723
  25 H :   -0.299038
  26 H :   -0.298908

  Mayer bond orders larger than 0.100000
B(  0-C ,  1-C ) :   0.1737 B(  0-C ,  2-C ) :   0.1739 B(  0-C ,  6-C ) :   0.6606
B(  0-C ,  9-N ) :   1.0887 B(  0-C , 10-N ) :   1.0906 B(  0-C , 11-N ) :   0.1829
B(  1-C ,  2-C ) :   0.1739 B(  1-C ,  7-C ) :   0.6616 B(  1-C ,  9-N ) :   1.0915
B(  1-C , 10-N ) :   0.1827 B(  1-C , 11-N ) :   1.0892 B(  2-C ,  8-C ) :   0.6610
B(  2-C ,  9-N ) :   0.1826 B(  2-C , 10-N ) :   1.0892 B(  2-C , 11-N ) :   1.0907
B(  3-C ,  6-C ) :   0.9684 B(  3-C , 12-H ) :   0.9200 B(  3-C , 13-H ) :   0.9334
B(  3-C , 14-H ) :   0.9207 B(  4-C ,  7-C ) :   0.9687 B(  4-C , 15-H ) :   0.9199
B(  4-C , 16-H ) :   0.9334 B(  4-C , 17-H ) :   0.9205 B(  5-C ,  8-C ) :   0.9684
B(  5-C , 18-H ) :   0.9206 B(  5-C , 19-H ) :   0.9333 B(  5-C , 20-H ) :   0.9200
B(  6-C , 21-H ) :   0.9524 B(  6-C , 22-H ) :   0.9531 B(  7-C , 23-H ) :   0.9525
B(  7-C , 24-H ) :   0.9530 B(  8-C , 25-H ) :   0.9530 B(  8-C , 26-H ) :   0.9525
B(  9-N , 10-N ) :   0.1203 B(  9-N , 11-N ) :   0.1204 B( 10-N , 11-N ) :   0.1202

MP2 TOTAL ENERGY:     -515.377911704 Eh
FINAL SINGLE POINT ENERGY      -515.377911703658

DIPOLE MOMENT
-------------
                                X             Y             Z
Electronic contribution:      0.00738      -0.01418      -6.76732
Nuclear contribution   :     -0.00777       0.01473       6.92360
                        -----------------------------------------
Total Dipole Moment    :     -0.00038       0.00055       0.15628
                        -----------------------------------------
Magnitude (a.u.)       :      0.15628
Magnitude (Debye)      :      0.39724

Rotational constants in cm-1:     0.028725     0.028681     0.016708
Rotational constants in MHz :   861.159360   859.827491   500.903831

                             ****ORCA TERMINATED NORMALLY****
TOTAL RUN TIME: 0 days 2 hours 42 minutes 59 seconds 687 msec
