                         Program Version 5.0.4 -  RELEASE  -
|  1> !ri-mp2 aug-cc-pvqz aug-cc-pvqz/c tightscf
|  2> %pal nprocs 16 end
|  3>
|  4> * xyz 0 1
|  5> N     -1.199731   -1.156343        0.000000
|  6> C     -1.178706    0.173175        0.000000
|  7> C      0.000000    0.918177        0.000000
|  8> C      1.213975    0.242243        0.000000
|  9> C      1.190617   -1.143321        0.000000
| 10> C     -0.034471   -1.802433        0.000000
| 11> O      0.013506    2.282556        0.000000
| 12> H     -2.141010    0.679327        0.000000
| 13> H      2.140074    0.800041        0.000000
| 14> H      2.112543   -1.708300        0.000000
| 15> H     -0.081634   -2.884350        0.000000
| 16> H     -0.888395    2.620187        0.000000
| 17> *
| 18>
| 19>                          ****END OF INPUT****

CARTESIAN COORDINATES (ANGSTROEM)
---------------------------------
  N     -1.199731   -1.156343    0.000000
  C     -1.178706    0.173175    0.000000
  C      0.000000    0.918177    0.000000
  C      1.213975    0.242243    0.000000
  C      1.190617   -1.143321    0.000000
  C     -0.034471   -1.802433    0.000000
  O      0.013506    2.282556    0.000000
  H     -2.141010    0.679327    0.000000
  H      2.140074    0.800041    0.000000
  H      2.112543   -1.708300    0.000000
  H     -0.081634   -2.884350    0.000000
  H     -0.888395    2.620187    0.000000

 Total Charge           Charge          ....    0
 Multiplicity           Mult            ....    1
 Number of Electrons    NEL             ....   50
 Basis Dimension        Dim             ....  790

ORBITAL ENERGIES
----------------

  NO   OCC          E(Eh)            E(eV)
   0   2.0000     -20.599513      -560.5412
   1   2.0000     -15.571094      -423.7110
   2   2.0000     -11.309961      -307.7597
   3   2.0000     -11.273026      -306.7546
   4   2.0000     -11.266396      -306.5742
   5   2.0000     -11.252516      -306.1965
   6   2.0000     -11.246679      -306.0377
   7   2.0000      -1.417030       -38.5594
   8   2.0000      -1.261932       -34.3389
   9   2.0000      -1.089191       -29.6384
  10   2.0000      -1.029040       -28.0016
  11   2.0000      -0.879650       -23.9365
  12   2.0000      -0.856633       -23.3102
  13   2.0000      -0.753886       -20.5143
  14   2.0000      -0.712754       -19.3950
  15   2.0000      -0.677282       -18.4298
  16   2.0000      -0.616989       -16.7891
  17   2.0000      -0.607356       -16.5270
  18   2.0000      -0.591905       -16.1066
  19   2.0000      -0.577727       -15.7208
  20   2.0000      -0.540918       -14.7191
  21   2.0000      -0.525661       -14.3040
  22   2.0000      -0.422938       -11.5087
  23   2.0000      -0.383162       -10.4264
  24   2.0000      -0.330979        -9.0064
  25   0.0000       0.023249         0.6326
  26   0.0000       0.026722         0.7272
  27   0.0000       0.033457         0.9104
  28   0.0000       0.044723         1.2170
  29   0.0000       0.047787         1.3003

MULLIKEN ATOMIC CHARGES
-----------------------
   0 N :   -0.531363
   1 C :   -0.400685
   2 C :    0.890218
   3 C :   -0.381034
   4 C :   -0.401668
   5 C :   -0.322498
   6 O :   -0.807775
   7 H :    0.420050
   8 H :    0.392105
   9 H :    0.319976
  10 H :    0.470117
  11 H :    0.352557
Sum of atomic charges:    0.0000000

LOEWDIN ATOMIC CHARGES
----------------------
   0 N :    0.580336
   1 C :    0.061664
   2 C :   -0.450516
   3 C :    0.315591
   4 C :    0.320389
   5 C :    0.067179
   6 O :    1.266699
   7 H :   -0.353582
   8 H :   -0.317969
   9 H :   -0.326552
  10 H :   -0.359102
  11 H :   -0.804137

  Mayer bond orders larger than 0.100000
B(  0-N ,  1-C ) :   1.2973 B(  0-N ,  5-C ) :   1.3772 B(  1-C ,  2-C ) :   1.3410
B(  1-C ,  6-O ) :   0.1780 B(  1-C ,  7-H ) :   0.8721 B(  2-C ,  3-C ) :   1.2180
B(  2-C ,  4-C ) :  -0.1704 B(  2-C ,  6-O ) :   0.2944 B(  3-C ,  4-C ) :   1.2832
B(  3-C ,  6-O ) :   0.1794 B(  3-C ,  8-H ) :   0.8662 B(  4-C ,  5-C ) :   1.2290
B(  4-C ,  9-H ) :   1.0045 B(  5-C , 10-H ) :   0.8507 B(  6-O , 11-H ) :   0.9141

MP2 TOTAL ENERGY:     -322.998538238 Eh
FINAL SINGLE POINT ENERGY      -322.998538237854

DIPOLE MOMENT
-------------
                                X             Y             Z
Electronic contribution:     -0.85497       0.82027       0.00000
Nuclear contribution   :      1.12046      -0.45806       0.00000
                        -----------------------------------------
Total Dipole Moment    :      0.26549       0.36221       0.00000
                        -----------------------------------------
Magnitude (a.u.)       :      0.44909
Magnitude (Debye)      :      1.14150

Rotational constants in cm-1:     0.195751     0.089978     0.061643
Rotational constants in MHz :  5868.475855  2697.465034  1848.017471

                             ****ORCA TERMINATED NORMALLY****
TOTAL RUN TIME: 0 days 0 hours 19 minutes 45 seconds 954 msec
