                         Program Version 5.0.4 -  RELEASE  -
|  1> !ri-mp2 aug-cc-pvqz aug-cc-pvqz/c tightscf
|  2> %pal nprocs 16 end
|  3>
|  4> * xyz 0 1
|  5> F      0.201937    2.092857   -0.235362
|  6> O      2.218016   -1.126868   -0.702067
|  7> O      2.244199    0.459327    0.785864
|  8> N     -0.418686   -1.425726    0.129866
|  9> N      1.685363   -0.319981    0.031773
| 10> C      0.196563   -0.271665    0.023108
| 11> C     -0.463634    0.946200   -0.091353
| 12> C     -1.846644    0.947840   -0.089972
| 13> C     -2.503225   -0.267010    0.041067
| 14> C     -1.749398   -1.430562    0.150722
| 15> H     -2.376584    1.884122   -0.192026
| 16> H     -3.582748   -0.311349    0.052145
| 17> H     -2.224534   -2.397029    0.254856
| 18> *
| 19>
| 20>                          ****END OF INPUT****

CARTESIAN COORDINATES (ANGSTROEM)
---------------------------------
  F      0.201937    2.092857   -0.235362
  O      2.218016   -1.126868   -0.702067
  O      2.244199    0.459327    0.785864
  N     -0.418686   -1.425726    0.129866
  N      1.685363   -0.319981    0.031773
  C      0.196563   -0.271665    0.023108
  C     -0.463634    0.946200   -0.091353
  C     -1.846644    0.947840   -0.089972
  C     -2.503225   -0.267010    0.041067
  C     -1.749398   -1.430562    0.150722
  H     -2.376584    1.884122   -0.192026
  H     -3.582748   -0.311349    0.052145
  H     -2.224534   -2.397029    0.254856

 Total Charge           Charge          ....    0
 Multiplicity           Mult            ....    1
 Number of Electrons    NEL             ....   72
 Basis Dimension        Dim             ....  938

ORBITAL ENERGIES
----------------

  NO   OCC          E(Eh)            E(eV)
   0   2.0000     -26.347547      -716.9532
   1   2.0000     -20.612738      -560.9011
   2   2.0000     -20.610332      -560.8357
   3   2.0000     -15.860980      -431.5992
   4   2.0000     -15.620185      -425.0468
   5   2.0000     -11.381238      -309.6992
   6   2.0000     -11.366701      -309.3037
   7   2.0000     -11.314372      -307.8797
   8   2.0000     -11.300302      -307.4969
   9   2.0000     -11.290501      -307.2302
  10   2.0000      -1.670439       -45.4550
  11   2.0000      -1.618824       -44.0504
  12   2.0000      -1.413890       -38.4739
  13   2.0000      -1.326138       -36.0860
  14   2.0000      -1.142927       -31.1006
  15   2.0000      -1.115480       -30.3537
  16   2.0000      -0.996356       -27.1122
  17   2.0000      -0.922394       -25.0996
  18   2.0000      -0.878543       -23.9064
  19   2.0000      -0.802668       -21.8417
  20   2.0000      -0.786201       -21.3936
  21   2.0000      -0.768244       -20.9050
  22   2.0000      -0.742158       -20.1951
  23   2.0000      -0.732172       -19.9234
  24   2.0000      -0.714128       -19.4324
  25   2.0000      -0.703454       -19.1419
  26   2.0000      -0.667217       -18.1559
  27   2.0000      -0.626982       -17.0610
  28   2.0000      -0.603013       -16.4088
  29   2.0000      -0.593047       -16.1376
  30   2.0000      -0.513172       -13.9641
  31   2.0000      -0.509430       -13.8623
  32   2.0000      -0.473747       -12.8913
  33   2.0000      -0.457354       -12.4452
  34   2.0000      -0.431152       -11.7323
  35   2.0000      -0.390255       -10.6194
  36   0.0000       0.013552         0.3688
  37   0.0000       0.024600         0.6694
  38   0.0000       0.034200         0.9306
  39   0.0000       0.039773         1.0823
  40   0.0000       0.053850         1.4653

MULLIKEN ATOMIC CHARGES
-----------------------
   0 F :   -0.697832
   1 O :   -0.558910
   2 O :   -0.580927
   3 N :   -0.483306
   4 N :    0.851281
   5 C :    0.351816
   6 C :    0.936347
   7 C :   -0.339104
   8 C :   -0.342531
   9 C :   -0.317011
  10 H :    0.397823
  11 H :    0.340459
  12 H :    0.441896
Sum of atomic charges:    0.0000000

LOEWDIN ATOMIC CHARGES
----------------------
   0 F :    0.806156
   1 O :    0.534693
   2 O :    0.530214
   3 N :    0.576362
   4 N :   -0.890136
   5 C :   -0.629751
   6 C :   -0.718173
   7 C :    0.312332
   8 C :    0.346295
   9 C :    0.105131
  10 H :   -0.314728
  11 H :   -0.315840
  12 H :   -0.342554

  Mayer bond orders larger than 0.100000
B(  0-F ,  5-C ) :   0.1316 B(  0-F ,  6-C ) :   0.1064 B(  0-F ,  7-C ) :   0.1481
B(  1-O ,  2-O ) :   0.1333 B(  1-O ,  4-N ) :   1.3403 B(  2-O ,  4-N ) :   1.2793
B(  3-N ,  5-C ) :   1.1437 B(  3-N ,  6-C ) :   0.1045 B(  3-N ,  9-C ) :   1.3210
B(  4-N ,  5-C ) :   0.9154 B(  5-C ,  6-C ) :   1.2472 B(  6-C ,  7-C ) :   1.3481
B(  6-C ,  8-C ) :  -0.1305 B(  6-C ,  9-C ) :   0.1561 B(  7-C ,  8-C ) :   1.2103
B(  7-C ,  9-C ) :  -0.1120 B(  7-C , 10-H ) :   0.8760 B(  8-C ,  9-C ) :   1.2521
B(  8-C , 11-H ) :   0.9770 B(  9-C , 12-H ) :   0.9000

MP2 TOTAL ENERGY:     -551.289082366 Eh
FINAL SINGLE POINT ENERGY      -551.289082366198

DIPOLE MOMENT
-------------
                                X             Y             Z
Electronic contribution:      5.27495       3.03091      -0.36846
Nuclear contribution   :     -7.90408      -2.77117       0.33278
                        -----------------------------------------
Total Dipole Moment    :     -2.62913       0.25975      -0.03568
                        -----------------------------------------
Magnitude (a.u.)       :      2.64217
Magnitude (Debye)      :      6.71585

Rotational constants in cm-1:     0.078869     0.042023     0.029289
Rotational constants in MHz :  2364.442333  1259.815338   878.070937

                             ****ORCA TERMINATED NORMALLY****
TOTAL RUN TIME: 0 days 0 hours 37 minutes 36 seconds 496 msec
