                         Program Version 5.0.4 -  RELEASE  -
|  1> !ri-mp2 aug-cc-pvqz aug-cc-pvqz/c tightscf
|  2> %pal nprocs 16 end
|  3>
|  4> * xyz 0 1
|  5> C     -1.178493   -1.652194    0.116805
|  6> H     -2.072764   -2.053240   -0.361889
|  7> H     -0.342512   -2.298223   -0.146619
|  8> H     -1.321481   -1.719640    1.198086
|  9> C      0.547343    1.874508   -0.035601
| 10> H     -0.265216    2.515201    0.308948
| 11> H      1.466983    2.246656    0.415537
| 12> H      0.637818    1.980802   -1.117431
| 13> S      1.773454   -0.622977   -0.100054
| 14> H      2.704710    0.202406    0.408749
| 15> C      0.298134    0.419562    0.349892
| 16> H      0.183677    0.344478    1.433269
| 17> C     -0.951456   -0.197739   -0.311553
| 18> H     -0.786007   -0.181121   -1.393993
| 19> C     -2.209169    0.629016   -0.010608
| 20> H     -2.374526    0.713213    1.066488
| 21> H     -2.158055    1.634905   -0.423808
| 22> H     -3.086048    0.143279   -0.440087
| 23> *
| 24>
| 25>                          ****END OF INPUT****

CARTESIAN COORDINATES (ANGSTROEM)
---------------------------------
  C     -1.178493   -1.652194    0.116805
  H     -2.072764   -2.053240   -0.361889
  H     -0.342512   -2.298223   -0.146619
  H     -1.321481   -1.719640    1.198086
  C      0.547343    1.874508   -0.035601
  H     -0.265216    2.515201    0.308948
  H      1.466983    2.246656    0.415537
  H      0.637818    1.980802   -1.117431
  S      1.773454   -0.622977   -0.100054
  H      2.704710    0.202406    0.408749
  C      0.298134    0.419562    0.349892
  H      0.183677    0.344478    1.433269
  C     -0.951456   -0.197739   -0.311553
  H     -0.786007   -0.181121   -1.393993
  C     -2.209169    0.629016   -0.010608
  H     -2.374526    0.713213    1.066488
  H     -2.158055    1.634905   -0.423808
  H     -3.086048    0.143279   -0.440087

 Total Charge           Charge          ....    0
 Multiplicity           Mult            ....    1
 Number of Electrons    NEL             ....   58
 Basis Dimension        Dim             .... 1036

ORBITAL ENERGIES
----------------

  NO   OCC          E(Eh)            E(eV)
   0   2.0000     -91.941360     -2501.8516
   1   2.0000     -11.265238      -306.5427
   2   2.0000     -11.235997      -305.7470
   3   2.0000     -11.222009      -305.3664
   4   2.0000     -11.216422      -305.2144
   5   2.0000     -11.211402      -305.0778
   6   2.0000      -8.943892      -243.3757
   7   2.0000      -6.625456      -180.2878
   8   2.0000      -6.624490      -180.2615
   9   2.0000      -6.623634      -180.2382
  10   2.0000      -1.113788       -30.3077
  11   2.0000      -1.020161       -27.7600
  12   2.0000      -0.948612       -25.8131
  13   2.0000      -0.920592       -25.0506
  14   2.0000      -0.847433       -23.0598
  15   2.0000      -0.761776       -20.7290
  16   2.0000      -0.634066       -17.2538
  17   2.0000      -0.619549       -16.8588
  18   2.0000      -0.595144       -16.1947
  19   2.0000      -0.587320       -15.9818
  20   2.0000      -0.548426       -14.9234
  21   2.0000      -0.541642       -14.7388
  22   2.0000      -0.517957       -14.0943
  23   2.0000      -0.514946       -14.0124
  24   2.0000      -0.488192       -13.2844
  25   2.0000      -0.471097       -12.8192
  26   2.0000      -0.461212       -12.5502
  27   2.0000      -0.425613       -11.5815
  28   2.0000      -0.351146        -9.5552
  29   0.0000       0.025921         0.7054
  30   0.0000       0.029615         0.8059
  31   0.0000       0.033381         0.9083
  32   0.0000       0.035239         0.9589
  33   0.0000       0.047268         1.2862

MULLIKEN ATOMIC CHARGES
-----------------------
   0 C :   -0.909273
   1 H :    0.245721
   2 H :    0.287155
   3 H :    0.184089
   4 C :   -0.974307
   5 H :    0.240359
   6 H :    0.314115
   7 H :    0.230428
   8 S :   -0.279012
   9 H :   -0.081302
  10 C :    0.242014
  11 H :    0.165503
  12 C :    0.306305
  13 H :    0.221798
  14 C :   -0.925615
  15 H :    0.196380
  16 H :    0.252667
  17 H :    0.282975
Sum of atomic charges:   -0.0000000

LOEWDIN ATOMIC CHARGES
----------------------
   0 C :    0.882307
   1 H :   -0.278371
   2 H :   -0.333603
   3 H :   -0.272544
   4 C :    0.838186
   5 H :   -0.299230
   6 H :   -0.306716
   7 H :   -0.283673
   8 S :    1.633347
   9 H :   -0.770999
  10 C :   -0.250565
  11 H :   -0.352040
  12 C :    0.007163
  13 H :   -0.294674
  14 C :    0.918362
  15 H :   -0.265551
  16 H :   -0.294129
  17 H :   -0.277271

  Mayer bond orders larger than 0.100000
B(  0-C ,  1-H ) :   1.0312 B(  0-C ,  2-H ) :   0.9779 B(  0-C ,  3-H ) :   1.0238
B(  0-C , 12-C ) :   0.5953 B(  0-C , 14-C ) :   0.1204 B(  1-H , 12-C ) :  -0.1037
B(  4-C ,  5-H ) :   0.9623 B(  4-C ,  6-H ) :   0.9866 B(  4-C ,  7-H ) :   0.9816
B(  4-C , 10-C ) :   0.7768 B(  8-S ,  9-H ) :   1.1620 B(  8-S , 10-C ) :   0.5960
B(  9-H , 10-C ) :  -0.1101 B( 10-C , 11-H ) :   0.9485 B( 10-C , 12-C ) :   0.7659
B( 12-C , 13-H ) :   0.9366 B( 12-C , 14-C ) :   0.6242 B( 14-C , 15-H ) :   1.0004
B( 14-C , 16-H ) :   1.0048 B( 14-C , 17-H ) :   0.9996

MP2 TOTAL ENERGY:     -595.109283607 Eh
FINAL SINGLE POINT ENERGY      -595.109283606656

DIPOLE MOMENT
-------------
                                X             Y             Z
Electronic contribution:      7.38754      -3.16158      -0.77079
Nuclear contribution   :     -7.80620       3.70854       0.99336
                        -----------------------------------------
Total Dipole Moment    :     -0.41866       0.54696       0.22256
                        -----------------------------------------
Magnitude (a.u.)       :      0.72386
Magnitude (Debye)      :      1.83991

Rotational constants in cm-1:     0.122457     0.070139     0.047611
Rotational constants in MHz :  3671.157660  2102.723859  1427.353901

                             ****ORCA TERMINATED NORMALLY****
TOTAL RUN TIME: 0 days 0 hours 51 minutes 26 seconds 808 msec
