                         Program Version 5.0.4 -  RELEASE  -
|  1> !ri-mp2 aug-cc-pvqz aug-cc-pvqz/c tightscf
|  2> %pal nprocs 16 end
|  3>
|  4> * xyz 0 1
|  5> O      1.772604   -1.164175    0.005094
|  6> O      1.810770    1.063763    0.003743
|  7> N     -2.805856    0.007250   -0.044985
|  8> C      1.155229   -0.132919    0.000440
|  9> C     -0.273472   -0.038262   -0.008028
| 10> C     -1.481370   -0.002709   -0.003032
| 11> H      1.173225    1.788219   -0.008235
| 12> H     -3.302718   -0.848895    0.140583
| 13> H     -3.298834    0.856562    0.175579
| 14> *
| 15>
| 16>                          ****END OF INPUT****

CARTESIAN COORDINATES (ANGSTROEM)
---------------------------------
  O      1.772604   -1.164175    0.005094
  O      1.810770    1.063763    0.003743
  N     -2.805856    0.007250   -0.044985
  C      1.155229   -0.132919    0.000440
  C     -0.273472   -0.038262   -0.008028
  C     -1.481370   -0.002709   -0.003032
  H      1.173225    1.788219   -0.008235
  H     -3.302718   -0.848895    0.140583
  H     -3.298834    0.856562    0.175579

 Total Charge           Charge          ....    0
 Multiplicity           Mult            ....    1
 Number of Electrons    NEL             ....   44
 Basis Dimension        Dim             ....  618

ORBITAL ENERGIES
----------------

  NO   OCC          E(Eh)            E(eV)
   0   2.0000     -20.609454      -560.8118
   1   2.0000     -20.539987      -558.9215
   2   2.0000     -15.628219      -425.2655
   3   2.0000     -11.402328      -310.2731
   4   2.0000     -11.312603      -307.8316
   5   2.0000     -11.245903      -306.0166
   6   2.0000      -1.456358       -39.6295
   7   2.0000      -1.361415       -37.0460
   8   2.0000      -1.272907       -34.6376
   9   2.0000      -1.055197       -28.7134
  10   2.0000      -0.893641       -24.3172
  11   2.0000      -0.806418       -21.9438
  12   2.0000      -0.773009       -21.0346
  13   2.0000      -0.750621       -20.4254
  14   2.0000      -0.658535       -17.9197
  15   2.0000      -0.632638       -17.2150
  16   2.0000      -0.600377       -16.3371
  17   2.0000      -0.560817       -15.2606
  18   2.0000      -0.484987       -13.1972
  19   2.0000      -0.470361       -12.7992
  20   2.0000      -0.423075       -11.5125
  21   2.0000      -0.374866       -10.2006
  22   0.0000       0.009276         0.2524
  23   0.0000       0.026646         0.7251
  24   0.0000       0.037461         1.0194
  25   0.0000       0.058500         1.5919
  26   0.0000       0.067431         1.8349

MULLIKEN ATOMIC CHARGES
-----------------------
   0 O :   -0.694986
   1 O :   -0.705265
   2 N :   -0.887962
   3 C :    1.384807
   4 C :   -0.489000
   5 C :    0.347171
   6 H :    0.360409
   7 H :    0.344603
   8 H :    0.340222
Sum of atomic charges:    0.0000000

LOEWDIN ATOMIC CHARGES
----------------------
   0 O :    0.619893
   1 O :    1.205786
   2 N :    1.187077
   3 C :   -1.173453
   4 C :    0.032054
   5 C :   -0.028598
   6 H :   -0.834183
   7 H :   -0.503050
   8 H :   -0.505527

  Mayer bond orders larger than 0.100000
B(  0-O ,  3-C ) :   1.4945 B(  0-O ,  4-C ) :   0.1337 B(  1-O ,  3-C ) :   0.7254
B(  1-O ,  4-C ) :   0.1301 B(  1-O ,  6-H ) :   0.8649 B(  2-N ,  5-C ) :   1.0663
B(  2-N ,  7-H ) :   0.8656 B(  2-N ,  8-H ) :   0.8748 B(  3-C ,  4-C ) :   1.0194
B(  4-C ,  5-C ) :   2.8335

MP2 TOTAL ENERGY:     -320.826540970 Eh
FINAL SINGLE POINT ENERGY      -320.826540969797

DIPOLE MOMENT
-------------
                                X             Y             Z
Electronic contribution:      2.69772      -0.59671      -0.05682
Nuclear contribution   :     -5.23458       1.74315       0.29902
                        -----------------------------------------
Total Dipole Moment    :     -2.53686       1.14644       0.24220
                        -----------------------------------------
Magnitude (a.u.)       :      2.79440
Magnitude (Debye)      :      7.10279

Rotational constants in cm-1:     0.376876     0.060335     0.052033
Rotational constants in MHz : 11298.466461  1808.798620  1559.914252

                             ****ORCA TERMINATED NORMALLY****
TOTAL RUN TIME: 0 days 0 hours 8 minutes 10 seconds 951 msec
