                         Program Version 5.0.4 -  RELEASE  -
|  1> !ri-mp2 aug-cc-pvqz aug-cc-pvqz/c tightscf
|  2> %pal nprocs 16 end
|  3>
|  4> * xyz 0 1
|  5> C      2.526085   -0.224091   -0.000065
|  6> C      1.294342   -0.739554    0.000012
|  7> C      0.034400    0.006499   -0.000010
|  8> C     -1.115939   -0.688795    0.000099
|  9> C     -2.521058   -0.179706    0.000118
| 10> C      0.114883    1.508528   -0.000144
| 11> H      3.396043   -0.865751   -0.000039
| 12> H      2.711374    0.841312   -0.000153
| 13> H      1.189188   -1.820097    0.000100
| 14> H     -1.028922   -1.771727    0.000189
| 15> H     -3.063558   -0.549262    0.875060
| 16> H     -2.589482    0.905588   -0.000006
| 17> H     -3.063659   -0.549470   -0.874672
| 18> H      0.658431    1.866471   -0.877450
| 19> H     -0.864162    1.979015   -0.000164
| 20> H      0.658474    1.866628    0.877071
| 21> *
| 22>
| 23>                          ****END OF INPUT****

CARTESIAN COORDINATES (ANGSTROEM)
---------------------------------
  C      2.526085   -0.224091   -0.000065
  C      1.294342   -0.739554    0.000012
  C      0.034400    0.006499   -0.000010
  C     -1.115939   -0.688795    0.000099
  C     -2.521058   -0.179706    0.000118
  C      0.114883    1.508528   -0.000144
  H      3.396043   -0.865751   -0.000039
  H      2.711374    0.841312   -0.000153
  H      1.189188   -1.820097    0.000100
  H     -1.028922   -1.771727    0.000189
  H     -3.063558   -0.549262    0.875060
  H     -2.589482    0.905588   -0.000006
  H     -3.063659   -0.549470   -0.874672
  H      0.658431    1.866471   -0.877450
  H     -0.864162    1.979015   -0.000164
  H      0.658474    1.866628    0.877071

 Total Charge           Charge          ....    0
 Multiplicity           Mult            ....    1
 Number of Electrons    NEL             ....   46
 Basis Dimension        Dim             ....  940

ORBITAL ENERGIES
----------------

  NO   OCC          E(Eh)            E(eV)
   0   2.0000     -11.233741      -305.6856
   1   2.0000     -11.230373      -305.5940
   2   2.0000     -11.229083      -305.5589
   3   2.0000     -11.221329      -305.3479
   4   2.0000     -11.216756      -305.2235
   5   2.0000     -11.216733      -305.2228
   6   2.0000      -1.112106       -30.2620
   7   2.0000      -1.026457       -27.9313
   8   2.0000      -0.971183       -26.4272
   9   2.0000      -0.909750       -24.7555
  10   2.0000      -0.786665       -21.4062
  11   2.0000      -0.709662       -19.3109
  12   2.0000      -0.661189       -17.9919
  13   2.0000      -0.612675       -16.6717
  14   2.0000      -0.579590       -15.7714
  15   2.0000      -0.572402       -15.5759
  16   2.0000      -0.557444       -15.1688
  17   2.0000      -0.537511       -14.6264
  18   2.0000      -0.521554       -14.1922
  19   2.0000      -0.509065       -13.8524
  20   2.0000      -0.473266       -12.8782
  21   2.0000      -0.415975       -11.3193
  22   2.0000      -0.308807        -8.4031
  23   0.0000       0.026121         0.7108
  24   0.0000       0.029385         0.7996
  25   0.0000       0.031922         0.8686
  26   0.0000       0.040595         1.1046
  27   0.0000       0.043637         1.1874

MULLIKEN ATOMIC CHARGES
-----------------------
   0 C :   -0.827920
   1 C :   -0.427194
   2 C :    0.195721
   3 C :   -0.222132
   4 C :   -0.739556
   5 C :   -0.594867
   6 H :    0.309643
   7 H :    0.351825
   8 H :    0.292919
   9 H :    0.208314
  10 H :    0.225131
  11 H :    0.257846
  12 H :    0.225130
  13 H :    0.219420
  14 H :    0.306297
  15 H :    0.219422
Sum of atomic charges:    0.0000000

LOEWDIN ATOMIC CHARGES
----------------------
   0 C :    0.796648
   1 C :    0.314731
   2 C :   -0.056395
   3 C :    0.387518
   4 C :    0.910584
   5 C :    0.877294
   6 H :   -0.353091
   7 H :   -0.370390
   8 H :   -0.362345
   9 H :   -0.343030
  10 H :   -0.287161
  11 H :   -0.332905
  12 H :   -0.287163
  13 H :   -0.282606
  14 H :   -0.329084
  15 H :   -0.282605

  Mayer bond orders larger than 0.100000
B(  0-C ,  1-C ) :   1.5887 B(  0-C ,  2-C ) :  -0.2335 B(  0-C ,  6-H ) :   1.0521
B(  0-C ,  7-H ) :   0.8901 B(  1-C ,  2-C ) :   0.8712 B(  1-C ,  3-C ) :  -0.2605
B(  1-C ,  6-H ) :  -0.1580 B(  1-C ,  8-H ) :   0.9303 B(  2-C ,  3-C ) :   1.3028
B(  2-C ,  4-C ) :  -0.1251 B(  2-C ,  5-C ) :   0.7185 B(  2-C ,  9-H ) :  -0.1089
B(  3-C ,  4-C ) :   0.7432 B(  3-C ,  9-H ) :   1.0549 B(  4-C , 10-H ) :   1.0160
B(  4-C , 11-H ) :   0.9567 B(  4-C , 12-H ) :   1.0160 B(  5-C , 13-H ) :   0.9912
B(  5-C , 14-H ) :   0.9499 B(  5-C , 15-H ) :   0.9912

MP2 TOTAL ENERGY:     -234.164005729 Eh
FINAL SINGLE POINT ENERGY      -234.164005728581

DIPOLE MOMENT
-------------
                                X             Y             Z
Electronic contribution:      1.82182      -1.93218       0.00008
Nuclear contribution   :     -2.09944       2.00104      -0.00007
                        -----------------------------------------
Total Dipole Moment    :     -0.27763       0.06886       0.00001
                        -----------------------------------------
Magnitude (a.u.)       :      0.28604
Magnitude (Debye)      :      0.72705

Rotational constants in cm-1:     0.263321     0.070205     0.056579
Rotational constants in MHz :  7894.168451  2104.695051  1696.186798

                             ****ORCA TERMINATED NORMALLY****
TOTAL RUN TIME: 0 days 0 hours 35 minutes 43 seconds 772 msec
