                         Program Version 5.0.4 -  RELEASE  -
|  1> !ri-mp2 aug-cc-pvqz aug-cc-pvqz/c tightscf
|  2> %pal nprocs 16 end
|  3> %maxcore 3800
|  4>
|  5> * xyz 0 1
|  6> C      2.517544   -1.436630   -0.005275
|  7> C      1.212170   -0.683611    0.014104
|  8> C     -0.002777   -1.367699    0.003328
|  9> C     -1.215431   -0.678269   -0.013052
| 10> C     -2.523027   -1.427228    0.013340
| 11> C     -1.202251    0.712541   -0.023179
| 12> C      0.003078    1.420199   -0.008027
| 13> C      1.204894    0.707957    0.012682
| 14> N      0.006024    2.814868   -0.071872
| 15> H      2.865912   -1.586339   -1.030476
| 16> H      2.415107   -2.420997    0.451010
| 17> H      3.299264   -0.894762    0.527510
| 18> H     -0.005117   -2.450862    0.008225
| 19> H     -3.318321   -0.859422   -0.469576
| 20> H     -2.839478   -1.624369    1.040910
| 21> H     -2.438852   -2.390051   -0.490594
| 22> H     -2.138287    1.258871   -0.046205
| 23> H      2.143579    1.250287    0.019305
| 24> H      0.839819    3.263374    0.270906
| 25> H     -0.830989    3.266634    0.258566
| 26> *
| 27>
| 28>                          ****END OF INPUT****

CARTESIAN COORDINATES (ANGSTROEM)
---------------------------------
  C      2.517544   -1.436630   -0.005275
  C      1.212170   -0.683611    0.014104
  C     -0.002777   -1.367699    0.003328
  C     -1.215431   -0.678269   -0.013052
  C     -2.523027   -1.427228    0.013340
  C     -1.202251    0.712541   -0.023179
  C      0.003078    1.420199   -0.008027
  C      1.204894    0.707957    0.012682
  N      0.006024    2.814868   -0.071872
  H      2.865912   -1.586339   -1.030476
  H      2.415107   -2.420997    0.451010
  H      3.299264   -0.894762    0.527510
  H     -0.005117   -2.450862    0.008225
  H     -3.318321   -0.859422   -0.469576
  H     -2.839478   -1.624369    1.040910
  H     -2.438852   -2.390051   -0.490594
  H     -2.138287    1.258871   -0.046205
  H      2.143579    1.250287    0.019305
  H      0.839819    3.263374    0.270906
  H     -0.830989    3.266634    0.258566

 Total Charge           Charge          ....    0
 Multiplicity           Mult            ....    1
 Number of Electrons    NEL             ....   66
 Basis Dimension        Dim             .... 1226

ORBITAL ENERGIES
----------------

  NO   OCC          E(Eh)            E(eV)
   0   2.0000     -15.559482      -423.3950
   1   2.0000     -11.272218      -306.7326
   2   2.0000     -11.236501      -305.7607
   3   2.0000     -11.236487      -305.7603
   4   2.0000     -11.217288      -305.2379
   5   2.0000     -11.217239      -305.2366
   6   2.0000     -11.208582      -305.0010
   7   2.0000     -11.208417      -304.9965
   8   2.0000     -11.203405      -304.8602
   9   2.0000      -1.220191       -33.2031
  10   2.0000      -1.132766       -30.8241
  11   2.0000      -1.051345       -28.6085
  12   2.0000      -0.998037       -27.1580
  13   2.0000      -0.931545       -25.3486
  14   2.0000      -0.924787       -25.1647
  15   2.0000      -0.800891       -21.7933
  16   2.0000      -0.785655       -21.3788
  17   2.0000      -0.687915       -18.7191
  18   2.0000      -0.676086       -18.3972
  19   2.0000      -0.644903       -17.5487
  20   2.0000      -0.611960       -16.6523
  21   2.0000      -0.578311       -15.7366
  22   2.0000      -0.569251       -15.4901
  23   2.0000      -0.563985       -15.3468
  24   2.0000      -0.554314       -15.0837
  25   2.0000      -0.546271       -14.8648
  26   2.0000      -0.519328       -14.1316
  27   2.0000      -0.518042       -14.0966
  28   2.0000      -0.490119       -13.3368
  29   2.0000      -0.474030       -12.8990
  30   2.0000      -0.429294       -11.6817
  31   2.0000      -0.318028        -8.6540
  32   2.0000      -0.288116        -7.8400
  33   0.0000       0.023538         0.6405
  34   0.0000       0.028034         0.7628
  35   0.0000       0.028885         0.7860
  36   0.0000       0.039443         1.0733
  37   0.0000       0.040117         1.0916

MULLIKEN ATOMIC CHARGES
-----------------------
   0 C :   -0.835587
   1 C :    0.203261
   2 C :   -0.338976
   3 C :    0.222871
   4 C :   -0.838411
   5 C :   -0.511855
   6 C :    0.547278
   7 C :   -0.476340
   8 N :   -0.834689
   9 H :    0.272417
  10 H :    0.219752
  11 H :    0.212345
  12 H :    0.301301
  13 H :    0.216891
  14 H :    0.276544
  15 H :    0.213787
  16 H :    0.315011
  17 H :    0.300566
  18 H :    0.269267
  19 H :    0.264566
Sum of atomic charges:   -0.0000000

LOEWDIN ATOMIC CHARGES
----------------------
   0 C :    0.909336
   1 C :   -0.075076
   2 C :    0.343871
   3 C :   -0.074844
   4 C :    0.909438
   5 C :    0.344136
   6 C :   -0.227693
   7 C :    0.343703
   8 N :    1.274242
   9 H :   -0.276758
  10 H :   -0.300555
  11 H :   -0.298382
  12 H :   -0.327454
  13 H :   -0.300279
  14 H :   -0.277020
  15 H :   -0.298440
  16 H :   -0.325177
  17 H :   -0.324513
  18 H :   -0.509491
  19 H :   -0.509042

  Mayer bond orders larger than 0.100000
B(  0-C ,  1-C ) :   0.9404 B(  0-C ,  2-C ) :  -0.1485 B(  0-C ,  7-C ) :  -0.1745
B(  0-C ,  9-H ) :   0.9463 B(  0-C , 10-H ) :   1.0403 B(  0-C , 11-H ) :   1.0365
B(  1-C ,  2-C ) :   1.0683 B(  1-C ,  3-C ) :  -0.3644 B(  1-C ,  6-C ) :  -0.3958
B(  1-C ,  7-C ) :   1.0529 B(  2-C ,  3-C ) :   1.0573 B(  2-C ,  4-C ) :  -0.1515
B(  2-C , 12-H ) :   0.9218 B(  3-C ,  4-C ) :   0.9409 B(  3-C ,  5-C ) :   1.0529
B(  3-C ,  6-C ) :  -0.4149 B(  4-C ,  5-C ) :  -0.1676 B(  4-C , 13-H ) :   1.0380
B(  4-C , 14-H ) :   0.9417 B(  4-C , 15-H ) :   1.0443 B(  5-C ,  6-C ) :   1.3794
B(  5-C ,  7-C ) :   0.1287 B(  5-C , 16-H ) :   0.8733 B(  6-C ,  7-C ) :   1.3639
B(  6-C ,  8-N ) :   0.7584 B(  7-C , 17-H ) :   0.8786 B(  8-N , 18-H ) :   0.9401
B(  8-N , 19-H ) :   0.9454

MP2 TOTAL ENERGY:     -365.577461537 Eh
FINAL SINGLE POINT ENERGY      -365.577461537417

DIPOLE MOMENT
-------------
                                X             Y             Z
Electronic contribution:      0.00514       3.51317      -0.17702
Nuclear contribution   :     -0.00750      -3.24359       0.55148
                        -----------------------------------------
Total Dipole Moment    :     -0.00236       0.26958       0.37447
                        -----------------------------------------
Magnitude (a.u.)       :      0.46142
Magnitude (Debye)      :      1.17283

Rotational constants in cm-1:     0.059655     0.058715     0.029941
Rotational constants in MHz :  1788.421145  1760.235491   897.613224

                             ****ORCA TERMINATED NORMALLY****
TOTAL RUN TIME: 0 days 1 hours 17 minutes 17 seconds 132 msec
