                         Program Version 5.0.4 -  RELEASE  -
|  1> !ri-mp2 aug-cc-pvqz aug-cc-pvqz/c tightscf
|  2> %pal nprocs 16 end
|  3>
|  4> * xyz 0 1
|  5> O     -2.088631   -0.584833   -0.000019
|  6> O     -0.935596    1.306407    0.000008
|  7> O      2.497307    0.192352   -0.000016
|  8> C     -1.014648   -0.052431    0.000002
|  9> C      0.243940   -0.824199    0.000019
| 10> C      1.450682   -0.297452    0.000000
| 11> H     -0.029116    1.634178    0.000053
| 12> H      0.164626   -1.901098    0.000033
| 13> *
| 14>
| 15>                          ****END OF INPUT****

CARTESIAN COORDINATES (ANGSTROEM)
---------------------------------
  O     -2.088631   -0.584833   -0.000019
  O     -0.935596    1.306407    0.000008
  O      2.497307    0.192352   -0.000016
  C     -1.014648   -0.052431    0.000002
  C      0.243940   -0.824199    0.000019
  C      1.450682   -0.297452    0.000000
  H     -0.029116    1.634178    0.000053
  H      0.164626   -1.901098    0.000033

 Total Charge           Charge          ....    0
 Multiplicity           Mult            ....    1
 Number of Electrons    NEL             ....   44
 Basis Dimension        Dim             ....  572

ORBITAL ENERGIES
----------------

  NO   OCC          E(Eh)            E(eV)
   0   2.0000     -20.681678      -562.7771
   1   2.0000     -20.626395      -561.2727
   2   2.0000     -20.552114      -559.2515
   3   2.0000     -11.434000      -311.1350
   4   2.0000     -11.413056      -310.5650
   5   2.0000     -11.283339      -307.0353
   6   2.0000      -1.529173       -41.6109
   7   2.0000      -1.473328       -40.0913
   8   2.0000      -1.377304       -37.4783
   9   2.0000      -1.117050       -30.3965
  10   2.0000      -0.877590       -23.8804
  11   2.0000      -0.822588       -22.3838
  12   2.0000      -0.778265       -21.1777
  13   2.0000      -0.725974       -19.7548
  14   2.0000      -0.697292       -18.9743
  15   2.0000      -0.658728       -17.9249
  16   2.0000      -0.642979       -17.4963
  17   2.0000      -0.638163       -17.3653
  18   2.0000      -0.586930       -15.9712
  19   2.0000      -0.502850       -13.6832
  20   2.0000      -0.474255       -12.9051
  21   2.0000      -0.406624       -11.0648
  22   0.0000       0.017881         0.4866
  23   0.0000       0.031252         0.8504
  24   0.0000       0.048128         1.3096
  25   0.0000       0.058894         1.6026
  26   0.0000       0.069493         1.8910

MULLIKEN ATOMIC CHARGES
-----------------------
   0 O :   -0.672171
   1 O :   -0.579250
   2 O :   -0.632791
   3 C :    1.134793
   4 C :   -0.931726
   5 C :    0.934052
   6 H :    0.297068
   7 H :    0.450024
Sum of atomic charges:   -0.0000000

LOEWDIN ATOMIC CHARGES
----------------------
   0 O :    0.649604
   1 O :    1.228716
   2 O :    0.680972
   3 C :   -1.117047
   4 C :    0.232198
   5 C :   -0.422597
   6 H :   -0.842448
   7 H :   -0.409397

  Mayer bond orders larger than 0.100000
B(  0-O ,  3-C ) :   1.5506 B(  0-O ,  4-C ) :   0.2034 B(  1-O ,  3-C ) :   0.8562
B(  1-O ,  6-H ) :   0.9092 B(  2-O ,  4-C ) :   0.1913 B(  2-O ,  5-C ) :   1.6746
B(  3-C ,  4-C ) :   1.0779 B(  3-C ,  5-C ) :  -0.1233 B(  4-C ,  5-C ) :   1.8203
B(  4-C ,  7-H ) :   0.7751

MP2 TOTAL ENERGY:     -340.734012142 Eh
FINAL SINGLE POINT ENERGY      -340.734012141596

DIPOLE MOMENT
-------------
                                X             Y             Z
Electronic contribution:      1.37478       0.19448      -0.00003
Nuclear contribution   :      0.12216      -0.24250       0.00008
                        -----------------------------------------
Total Dipole Moment    :      1.49694      -0.04803       0.00005
                        -----------------------------------------
Magnitude (a.u.)       :      1.49771
Magnitude (Debye)      :      3.80689

Rotational constants in cm-1:     0.344329     0.075948     0.062224
Rotational constants in MHz : 10322.724769  2276.868889  1865.416577

                             ****ORCA TERMINATED NORMALLY****
TOTAL RUN TIME: 0 days 0 hours 8 minutes 6 seconds 239 msec
