                         Program Version 5.0.4 -  RELEASE  -
|  1> !ri-mp2 aug-cc-pvqz aug-cc-pvqz/c tightscf
|  2> %pal nprocs 16 end
|  3>
|  4> * xyz 0 1
|  5> O     -1.742727   -1.171659   -0.000001
|  6> O     -1.798817    1.053904    0.000000
|  7> O      2.791456    0.110796    0.000000
|  8> C     -1.139153   -0.134860    0.000000
|  9> C      0.298037   -0.026971    0.000000
| 10> C      1.499219    0.000183    0.000000
| 11> H     -1.166265    1.783255    0.000000
| 12> H      3.218346   -0.757686    0.000000
| 13> *
| 14>
| 15>                          ****END OF INPUT****

CARTESIAN COORDINATES (ANGSTROEM)
---------------------------------
  O     -1.742727   -1.171659   -0.000001
  O     -1.798817    1.053904    0.000000
  O      2.791456    0.110796    0.000000
  C     -1.139153   -0.134860    0.000000
  C      0.298037   -0.026971    0.000000
  C      1.499219    0.000183    0.000000
  H     -1.166265    1.783255    0.000000
  H      3.218346   -0.757686    0.000000

 Total Charge           Charge          ....    0
 Multiplicity           Mult            ....    1
 Number of Electrons    NEL             ....   44
 Basis Dimension        Dim             ....  572

ORBITAL ENERGIES
----------------

  NO   OCC          E(Eh)            E(eV)
   0   2.0000     -20.673265      -562.5481
   1   2.0000     -20.618106      -561.0472
   2   2.0000     -20.552123      -559.2517
   3   2.0000     -11.413157      -310.5678
   4   2.0000     -11.347085      -308.7699
   5   2.0000     -11.258782      -306.3670
   6   2.0000      -1.491801       -40.5940
   7   2.0000      -1.467472       -39.9319
   8   2.0000      -1.372980       -37.3607
   9   2.0000      -1.077821       -29.3290
  10   2.0000      -0.910720       -24.7820
  11   2.0000      -0.849301       -23.1106
  12   2.0000      -0.803463       -21.8633
  13   2.0000      -0.707775       -19.2595
  14   2.0000      -0.669334       -18.2135
  15   2.0000      -0.664411       -18.0796
  16   2.0000      -0.636368       -17.3164
  17   2.0000      -0.609488       -16.5850
  18   2.0000      -0.495556       -13.4848
  19   2.0000      -0.481411       -13.0999
  20   2.0000      -0.428666       -11.6646
  21   2.0000      -0.411530       -11.1983
  22   0.0000       0.011875         0.3231
  23   0.0000       0.028468         0.7747
  24   0.0000       0.056939         1.5494
  25   0.0000       0.057319         1.5597
  26   0.0000       0.068060         1.8520

MULLIKEN ATOMIC CHARGES
-----------------------
   0 O :   -0.667009
   1 O :   -0.689587
   2 O :   -0.765311
   3 C :    1.247683
   4 C :   -0.526100
   5 C :    0.658303
   6 H :    0.366225
   7 H :    0.375796
Sum of atomic charges:    0.0000000

LOEWDIN ATOMIC CHARGES
----------------------
   0 O :    0.626574
   1 O :    1.209151
   2 O :    1.192836
   3 C :   -1.174036
   4 C :    0.000396
   5 C :   -0.250952
   6 H :   -0.830819
   7 H :   -0.773150

  Mayer bond orders larger than 0.100000
B(  0-O ,  3-C ) :   1.5491 B(  0-O ,  4-C ) :   0.1274 B(  1-O ,  3-C ) :   0.7479
B(  1-O ,  4-C ) :   0.1137 B(  1-O ,  6-H ) :   0.8641 B(  2-O ,  4-C ) :   0.3059
B(  2-O ,  5-C ) :   0.6734 B(  2-O ,  7-H ) :   0.8762 B(  3-C ,  4-C ) :   1.0944
B(  4-C ,  5-C ) :   2.8878

MP2 TOTAL ENERGY:     -340.681970322 Eh
FINAL SINGLE POINT ENERGY      -340.681970322019

DIPOLE MOMENT
-------------
                                X             Y             Z
Electronic contribution:      0.00241      -0.44303       0.00000
Nuclear contribution   :      1.95938       0.98481       0.00000
                        -----------------------------------------
Total Dipole Moment    :      1.96180       0.54178       0.00000
                        -----------------------------------------
Magnitude (a.u.)       :      2.03523
Magnitude (Debye)      :      5.17315

Rotational constants in cm-1:     0.384482     0.060093     0.051970
Rotational constants in MHz : 11526.481050  1801.550443  1558.034812

                             ****ORCA TERMINATED NORMALLY****
TOTAL RUN TIME: 0 days 0 hours 7 minutes 0 seconds 541 msec
