                         Program Version 5.0.4 -  RELEASE  -
|  1> !ri-mp2 aug-cc-pvqz aug-cc-pvqz/c tightscf
|  2> %pal nprocs 16 end
|  3>
|  4> * xyz 0 1
|  5> F    -1.107399    1.972598   -0.000008
|  6> F     3.142849   -0.010796    0.000001
|  7> N    -0.115794   -1.478474    0.000005
|  8> N    -3.450688   -0.659364    0.000001
|  9> C    -0.881069   -0.381590    0.000001
| 10> C    -0.318666    0.896498   -0.000003
| 11> C     1.807176   -0.095422    0.000001
| 12> C     1.053220    1.060726   -0.000003
| 13> C     1.201271   -1.347746    0.000005
| 14> C    -2.305482   -0.546687    0.000001
| 15> H     1.504868    2.041454   -0.000006
| 16> H     1.802744   -2.247483    0.000009
| 17> *
| 18>
| 19>                          ****END OF INPUT****

CARTESIAN COORDINATES (ANGSTROEM)
---------------------------------
  F     -1.107399    1.972598   -0.000008
  F      3.142849   -0.010796    0.000001
  N     -0.115794   -1.478474    0.000005
  N     -3.450688   -0.659364    0.000001
  C     -0.881069   -0.381590    0.000001
  C     -0.318666    0.896498   -0.000003
  C      1.807176   -0.095422    0.000001
  C      1.053220    1.060726   -0.000003
  C      1.201271   -1.347746    0.000005
  C     -2.305482   -0.546687    0.000001
  H      1.504868    2.041454   -0.000006
  H      1.802744   -2.247483    0.000009

 Total Charge           Charge          ....    0
 Multiplicity           Mult            ....    1
 Number of Electrons    NEL             ....   70
 Basis Dimension        Dim             ....  892

ORBITAL ENERGIES
----------------

  NO   OCC          E(Eh)            E(eV)
   0   2.0000     -26.356901      -717.2077
   1   2.0000     -26.355449      -717.1682
   2   2.0000     -15.629993      -425.3137
   3   2.0000     -15.589256      -424.2052
   4   2.0000     -11.391146      -309.9688
   5   2.0000     -11.385057      -309.8031
   6   2.0000     -11.347462      -308.7801
   7   2.0000     -11.318696      -307.9974
   8   2.0000     -11.305340      -307.6340
   9   2.0000     -11.289506      -307.2031
  10   2.0000      -1.679444       -45.7000
  11   2.0000      -1.676375       -45.6165
  12   2.0000      -1.327037       -36.1105
  13   2.0000      -1.235708       -33.6253
  14   2.0000      -1.150978       -31.3197
  15   2.0000      -1.101311       -29.9682
  16   2.0000      -0.958085       -26.0708
  17   2.0000      -0.933098       -25.3909
  18   2.0000      -0.821548       -22.3555
  19   2.0000      -0.811560       -22.0837
  20   2.0000      -0.804347       -21.8874
  21   2.0000      -0.748917       -20.3791
  22   2.0000      -0.743044       -20.2193
  23   2.0000      -0.738982       -20.1087
  24   2.0000      -0.713197       -19.4071
  25   2.0000      -0.672399       -18.2969
  26   2.0000      -0.645686       -17.5700
  27   2.0000      -0.620808       -16.8931
  28   2.0000      -0.603416       -16.4198
  29   2.0000      -0.574216       -15.6252
  30   2.0000      -0.505737       -13.7618
  31   2.0000      -0.490318       -13.3422
  32   2.0000      -0.483283       -13.1508
  33   2.0000      -0.434419       -11.8211
  34   2.0000      -0.382036       -10.3957
  35   0.0000       0.018634         0.5071
  36   0.0000       0.025786         0.7017
  37   0.0000       0.039485         1.0744
  38   0.0000       0.046794         1.2733
  39   0.0000       0.050998         1.3877

MULLIKEN ATOMIC CHARGES
-----------------------
   0 F :   -0.717086
   1 F :   -0.757797
   2 N :   -0.517484
   3 N :   -0.705049
   4 C :    0.016608
   5 C :    1.024316
   6 C :    0.927684
   7 C :   -0.614762
   8 C :   -0.333144
   9 C :    0.665919
  10 H :    0.505053
  11 H :    0.505742
Sum of atomic charges:    0.0000000

LOEWDIN ATOMIC CHARGES
----------------------
   0 F :    0.816973
   1 F :    0.795316
   2 N :    0.565756
   3 N :    0.416018
   4 C :   -0.502311
   5 C :   -0.734981
   6 C :   -0.690735
   7 C :    0.280507
   8 C :    0.063522
   9 C :   -0.337833
  10 H :   -0.321601
  11 H :   -0.350631

  Mayer bond orders larger than 0.100000
B(  0-F ,  4-C ) :   0.1307 B(  0-F ,  5-C ) :   0.1182 B(  0-F ,  7-C ) :   0.1481
B(  1-F ,  6-C ) :   0.1115 B(  1-F ,  7-C ) :   0.1504 B(  2-N ,  4-C ) :   0.8994
B(  2-N ,  8-C ) :   1.3929 B(  3-N ,  9-C ) :   2.3840 B(  4-C ,  5-C ) :   1.1558
B(  4-C ,  7-C ) :  -0.1360 B(  4-C ,  9-C ) :   1.3446 B(  5-C ,  6-C ) :  -0.1551
B(  5-C ,  7-C ) :   1.3932 B(  5-C ,  8-C ) :   0.1086 B(  5-C ,  9-C ) :  -0.2021
B(  6-C ,  7-C ) :   1.4933 B(  6-C ,  8-C ) :   1.2977 B(  7-C , 10-H ) :   0.6949
B(  8-C , 11-H ) :   0.7378

MP2 TOTAL ENERGY:     -538.274780760 Eh
FINAL SINGLE POINT ENERGY      -538.274780760247

DIPOLE MOMENT
-------------
                                X             Y             Z
Electronic contribution:      0.69312       2.51767      -0.00001
Nuclear contribution   :      1.19788      -2.02326       0.00001
                        -----------------------------------------
Total Dipole Moment    :      1.89100       0.49441      -0.00000
                        -----------------------------------------
Magnitude (a.u.)       :      1.95457
Magnitude (Debye)      :      4.96811

Rotational constants in cm-1:     0.098975     0.031943     0.024149
Rotational constants in MHz :  2967.207165   957.626093   723.973432

                             ****ORCA TERMINATED NORMALLY****
TOTAL RUN TIME: 0 days 0 hours 26 minutes 24 seconds 791 msec
