                         Program Version 5.0.4 -  RELEASE  -
|  1> !ri-mp2 aug-cc-pvqz aug-cc-pvqz/c tightscf
|  2> %pal nprocs 16 end
|  3>
|  4> * xyz 0 1
|  5> C     0.000000     0.000000    2.232657
|  6> C     0.000000     0.000000    0.930096
|  7> H    -0.923706     0.000000    2.800709
|  8> H     0.923706     0.000000    2.800709
|  9> C     0.000000     0.000000   -0.374142
| 10> C     0.000000     1.284198   -1.168462
| 11> C     0.000000    -1.284198   -1.168462
| 12> H     0.000000     2.158725   -0.521798
| 13> H     0.000000    -2.158725   -0.521798
| 14> H     0.878905     1.332755   -1.816985
| 15> H    -0.878905     1.332755   -1.816985
| 16> H    -0.878905    -1.332755   -1.816985
| 17> H     0.878905    -1.332755   -1.816985
| 18> *
| 19>
| 20>                          ****END OF INPUT****

CARTESIAN COORDINATES (ANGSTROEM)
---------------------------------
  C      0.000000    0.000000    2.232657
  C      0.000000    0.000000    0.930096
  H     -0.923706    0.000000    2.800709
  H      0.923706    0.000000    2.800709
  C      0.000000    0.000000   -0.374142
  C      0.000000    1.284198   -1.168462
  C      0.000000   -1.284198   -1.168462
  H      0.000000    2.158725   -0.521798
  H      0.000000   -2.158725   -0.521798
  H      0.878905    1.332755   -1.816985
  H     -0.878905    1.332755   -1.816985
  H     -0.878905   -1.332755   -1.816985
  H      0.878905   -1.332755   -1.816985

 Total Charge           Charge          ....    0
 Multiplicity           Mult            ....    1
 Number of Electrons    NEL             ....   38
 Basis Dimension        Dim             ....  768

ORBITAL ENERGIES
----------------

  NO   OCC          E(Eh)            E(eV)
   0   2.0000     -11.242775      -305.9315
   1   2.0000     -11.237792      -305.7959
   2   2.0000     -11.224532      -305.4350
   3   2.0000     -11.224213      -305.4264
   4   2.0000     -11.224188      -305.4257
   5   2.0000      -1.103183       -30.0191
   6   2.0000      -1.006080       -27.3768
   7   2.0000      -0.944324       -25.6964
   8   2.0000      -0.868325       -23.6283
   9   2.0000      -0.677553       -18.4372
  10   2.0000      -0.627701       -17.0806
  11   2.0000      -0.608064       -16.5463
  12   2.0000      -0.584113       -15.8945
  13   2.0000      -0.581863       -15.8333
  14   2.0000      -0.541833       -14.7440
  15   2.0000      -0.531980       -14.4759
  16   2.0000      -0.507419       -13.8076
  17   2.0000      -0.367157        -9.9909
  18   2.0000      -0.347422        -9.4538
  19   0.0000       0.026477         0.7205
  20   0.0000       0.032478         0.8838
  21   0.0000       0.034676         0.9436
  22   0.0000       0.036753         1.0001
  23   0.0000       0.049675         1.3517

MULLIKEN ATOMIC CHARGES
-----------------------
   0 C :   -0.674271
   1 C :   -0.228180
   2 H :    0.319757
   3 H :    0.319757
   4 C :    0.191126
   5 C :   -0.725416
   6 C :   -0.725416
   7 H :    0.267530
   8 H :    0.267530
   9 H :    0.246895
  10 H :    0.246895
  11 H :    0.246895
  12 H :    0.246895
Sum of atomic charges:    0.0000000

LOEWDIN ATOMIC CHARGES
----------------------
   0 C :    0.729278
   1 C :    0.191149
   2 H :   -0.390873
   3 H :   -0.390873
   4 C :   -0.113398
   5 C :    0.872780
   6 C :    0.872780
   7 H :   -0.306331
   8 H :   -0.306331
   9 H :   -0.289546
  10 H :   -0.289546
  11 H :   -0.289546
  12 H :   -0.289546

  Mayer bond orders larger than 0.100000
B(  0-C ,  1-C ) :   1.8397 B(  0-C ,  2-H ) :   0.9699 B(  0-C ,  3-H ) :   0.9699
B(  0-C ,  4-C ) :  -0.1937 B(  1-C ,  4-C ) :   1.8884 B(  4-C ,  5-C ) :   0.6875
B(  4-C ,  6-C ) :   0.6875 B(  5-C ,  7-H ) :   0.9732 B(  5-C ,  9-H ) :   0.9762
B(  5-C , 10-H ) :   0.9762 B(  6-C ,  8-H ) :   0.9732 B(  6-C , 11-H ) :   0.9762
B(  6-C , 12-H ) :   0.9762

MP2 TOTAL ENERGY:     -194.904271916 Eh
FINAL SINGLE POINT ENERGY      -194.904271915539

DIPOLE MOMENT
-------------
                                X             Y             Z
Electronic contribution:     -0.00000       0.00000       2.56840
Nuclear contribution   :      0.00000       0.00000      -2.83933
                        -----------------------------------------
Total Dipole Moment    :     -0.00000       0.00000      -0.27093
                        -----------------------------------------
Magnitude (a.u.)       :      0.27093
Magnitude (Debye)      :      0.68864

Rotational constants in cm-1:     0.276321     0.121153     0.088500
Rotational constants in MHz :  8283.891808  3632.087207  2653.174987

                             ****ORCA TERMINATED NORMALLY****
TOTAL RUN TIME: 0 days 0 hours 17 minutes 55 seconds 117 msec
