                         Program Version 5.0.4 -  RELEASE  -
|  1> !ri-mp2 aug-cc-pvqz aug-cc-pvqz/c tightscf
|  2> %pal nprocs 16 end
|  3>
|  4> * xyz 0 1
|  5> S     -0.665329   -1.105340   -0.182687
|  6> S      1.328505   -0.380755    0.146421
|  7> N     -1.448431    0.367384    0.222713
|  8> C      0.727116    1.257202   -0.172811
|  9> C     -0.585503    1.466416   -0.095672
| 10> H     -1.727963    0.395573    1.201544
| 11> H      1.454698    2.032027   -0.360302
| 12> H     -1.048226    2.436538   -0.209095
| 13> *
| 14>
| 15>                          ****END OF INPUT****

CARTESIAN COORDINATES (ANGSTROEM)
---------------------------------
  S     -0.665329   -1.105340   -0.182687
  S      1.328505   -0.380755    0.146421
  N     -1.448431    0.367384    0.222713
  C      0.727116    1.257202   -0.172811
  C     -0.585503    1.466416   -0.095672
  H     -1.727963    0.395573    1.201544
  H      1.454698    2.032027   -0.360302
  H     -1.048226    2.436538   -0.209095

 Total Charge           Charge          ....    0
 Multiplicity           Mult            ....    1
 Number of Electrons    NEL             ....   54
 Basis Dimension        Dim             ....  546

ORBITAL ENERGIES
----------------

  NO   OCC          E(Eh)            E(eV)
   0   2.0000     -92.008052     -2503.6664
   1   2.0000     -91.986368     -2503.0763
   2   2.0000     -15.605945      -424.6594
   3   2.0000     -11.285723      -307.1001
   4   2.0000     -11.275412      -306.8196
   5   2.0000      -9.004381      -245.0217
   6   2.0000      -8.986100      -244.5242
   7   2.0000      -6.685389      -181.9187
   8   2.0000      -6.684391      -181.8915
   9   2.0000      -6.682916      -181.8514
  10   2.0000      -6.667205      -181.4239
  11   2.0000      -6.666473      -181.4039
  12   2.0000      -6.665213      -181.3697
  13   2.0000      -1.258379       -34.2422
  14   2.0000      -1.066797       -29.0290
  15   2.0000      -1.002214       -27.2716
  16   2.0000      -0.844356       -22.9761
  17   2.0000      -0.779560       -21.2129
  18   2.0000      -0.698532       -19.0080
  19   2.0000      -0.656984       -17.8775
  20   2.0000      -0.570356       -15.5202
  21   2.0000      -0.514721       -14.0063
  22   2.0000      -0.511940       -13.9306
  23   2.0000      -0.473204       -12.8765
  24   2.0000      -0.415604       -11.3092
  25   2.0000      -0.386882       -10.5276
  26   2.0000      -0.307990        -8.3808
  27   0.0000       0.024055         0.6546
  28   0.0000       0.032414         0.8820
  29   0.0000       0.038553         1.0491
  30   0.0000       0.051338         1.3970
  31   0.0000       0.056638         1.5412

MULLIKEN ATOMIC CHARGES
-----------------------
   0 S :    0.143011
   1 S :    0.017924
   2 N :   -0.528754
   3 C :   -0.523024
   4 C :   -0.299624
   5 H :    0.284715
   6 H :    0.413487
   7 H :    0.492265
Sum of atomic charges:    0.0000000

LOEWDIN ATOMIC CHARGES
----------------------
   0 S :    0.655256
   1 S :    0.776192
   2 N :    0.309560
   3 C :   -0.232469
   4 C :   -0.076900
   5 H :   -0.647299
   6 H :   -0.436045
   7 H :   -0.348295

  Mayer bond orders larger than 0.100000
B(  0-S ,  1-S ) :   1.0688 B(  0-S ,  2-N ) :   0.9364 B(  1-S ,  3-C ) :   0.9264
B(  2-N ,  4-C ) :   0.9908 B(  2-N ,  5-H ) :   0.8790 B(  3-C ,  4-C ) :   1.7284
B(  3-C ,  6-H ) :   0.8280 B(  4-C ,  7-H ) :   0.7792

MP2 TOTAL ENERGY:     -927.977554659 Eh
FINAL SINGLE POINT ENERGY      -927.977554659416

DIPOLE MOMENT
-------------
                                X             Y             Z
Electronic contribution:      1.21666      -3.96437      -0.23364
Nuclear contribution   :     -1.30221       4.73667       0.61191
                        -----------------------------------------
Total Dipole Moment    :     -0.08555       0.77230       0.37826
                        -----------------------------------------
Magnitude (a.u.)       :      0.86420
Magnitude (Debye)      :      2.19663

Rotational constants in cm-1:     0.160417     0.138846     0.077500
Rotational constants in MHz :  4809.177429  4162.510889  2323.404482

                             ****ORCA TERMINATED NORMALLY****
TOTAL RUN TIME: 0 days 0 hours 7 minutes 55 seconds 776 msec
