                         Program Version 5.0.4 -  RELEASE  -
|  1> !ri-mp2 aug-cc-pvqz aug-cc-pvqz/c tightscf
|  2> %pal nprocs 16 end
|  3>
|  4> * xyz 0 1
|  5> C      2.334677    0.206360        0.000000
|  6> C     -0.822717   -1.740768        0.000000
|  7> C      0.532576   -1.450511        0.000000
|  8> C     -1.767452   -0.721730        0.000000
|  9> C      0.000000    0.919953        0.000000
| 10> C      0.939278   -0.111681        0.000000
| 11> C     -1.355148    0.609356        0.000000
| 12> N      3.459374    0.456490        0.000000
| 13> O     -2.231417    1.653229        0.000000
| 14> H     -1.151422   -2.770634        0.000000
| 15> H      1.270287   -2.238560        0.000000
| 16> H     -2.824291   -0.959587        0.000000
| 17> H      0.311031    1.954012        0.000000
| 18> H     -3.137157    1.327635        0.000000
| 19> *
| 20>
| 21>                          ****END OF INPUT****

CARTESIAN COORDINATES (ANGSTROEM)
---------------------------------
  C      2.334677    0.206360    0.000000
  C     -0.822717   -1.740768    0.000000
  C      0.532576   -1.450511    0.000000
  C     -1.767452   -0.721730    0.000000
  C      0.000000    0.919953    0.000000
  C      0.939278   -0.111681    0.000000
  C     -1.355148    0.609356    0.000000
  N      3.459374    0.456490    0.000000
  O     -2.231417    1.653229    0.000000
  H     -1.151422   -2.770634    0.000000
  H      1.270287   -2.238560    0.000000
  H     -2.824291   -0.959587    0.000000
  H      0.311031    1.954012    0.000000
  H     -3.137157    1.327635    0.000000

 Total Charge           Charge          ....    0
 Multiplicity           Mult            ....    1
 Number of Electrons    NEL             ....   62
 Basis Dimension        Dim             ....  950

ORBITAL ENERGIES
----------------

  NO   OCC          E(Eh)            E(eV)
   0   2.0000     -20.610773      -560.8476
   1   2.0000     -15.572476      -423.7486
   2   2.0000     -11.329955      -308.3038
   3   2.0000     -11.295439      -307.3645
   4   2.0000     -11.276074      -306.8376
   5   2.0000     -11.267537      -306.6053
   6   2.0000     -11.263948      -306.5076
   7   2.0000     -11.263568      -306.4973
   8   2.0000     -11.261976      -306.4539
   9   2.0000      -1.429456       -38.8975
  10   2.0000      -1.228004       -33.4157
  11   2.0000      -1.182198       -32.1692
  12   2.0000      -1.066304       -29.0156
  13   2.0000      -1.041562       -28.3423
  14   2.0000      -0.904390       -24.6097
  15   2.0000      -0.859056       -23.3761
  16   2.0000      -0.795419       -21.6444
  17   2.0000      -0.716512       -19.4973
  18   2.0000      -0.697017       -18.9668
  19   2.0000      -0.673238       -18.3197
  20   2.0000      -0.631728       -17.1902
  21   2.0000      -0.617316       -16.7980
  22   2.0000      -0.600552       -16.3419
  23   2.0000      -0.569955       -15.5093
  24   2.0000      -0.552537       -15.0353
  25   2.0000      -0.542383       -14.7590
  26   2.0000      -0.531467       -14.4620
  27   2.0000      -0.476517       -12.9667
  28   2.0000      -0.471530       -12.8310
  29   2.0000      -0.367081        -9.9888
  30   2.0000      -0.343862        -9.3570
  31   0.0000       0.014151         0.3851
  32   0.0000       0.025049         0.6816
  33   0.0000       0.033243         0.9046
  34   0.0000       0.041768         1.1366
  35   0.0000       0.048154         1.3103

MULLIKEN ATOMIC CHARGES
-----------------------
   0 C :    0.596531
   1 C :   -0.406756
   2 C :   -0.188076
   3 C :   -0.571498
   4 C :   -0.343402
   5 C :   -0.202840
   6 C :    1.080290
   7 N :   -0.803569
   8 O :   -0.801459
   9 H :    0.257227
  10 H :    0.351127
  11 H :    0.243750
  12 H :    0.411580
  13 H :    0.377093
Sum of atomic charges:    0.0000000

LOEWDIN ATOMIC CHARGES
----------------------
   0 C :   -0.315021
   1 C :    0.349066
   2 C :    0.319943
   3 C :    0.346703
   4 C :    0.305430
   5 C :   -0.212378
   6 C :   -0.421457
   7 N :    0.417441
   8 O :    1.280478
   9 H :   -0.316246
  10 H :   -0.319903
  11 H :   -0.319398
  12 H :   -0.318090
  13 H :   -0.796569

  Mayer bond orders larger than 0.100000
B(  0-C ,  2-C ) :  -0.3049 B(  0-C ,  4-C ) :  -0.4607 B(  0-C ,  5-C ) :   1.5303
B(  0-C ,  7-N ) :   2.3092 B(  1-C ,  2-C ) :   1.2569 B(  1-C ,  3-C ) :   1.2518
B(  1-C ,  5-C ) :  -0.2305 B(  1-C ,  6-C ) :  -0.1673 B(  1-C ,  9-H ) :   1.0968
B(  2-C ,  5-C ) :   1.0821 B(  2-C ,  9-H ) :  -0.1067 B(  2-C , 10-H ) :   0.9182
B(  3-C ,  6-C ) :   1.2905 B(  3-C ,  8-O ) :   0.2149 B(  3-C ,  9-H ) :  -0.1248
B(  3-C , 11-H ) :   1.0338 B(  4-C ,  5-C ) :   1.1018 B(  4-C ,  6-C ) :   1.4030
B(  4-C ,  8-O ) :   0.3456 B(  4-C , 12-H ) :   0.8146 B(  5-C ,  6-C ) :  -0.3335
B(  5-C , 12-H ) :  -0.1009 B(  6-C , 13-H ) :  -0.1031 B(  8-O , 13-H ) :   0.8825

MP2 TOTAL ENERGY:     -399.075771401 Eh
FINAL SINGLE POINT ENERGY      -399.075771400626

DIPOLE MOMENT
-------------
                                X             Y             Z
Electronic contribution:      3.17582       1.78117       0.00000
Nuclear contribution   :     -5.42153      -2.59853       0.00000
                        -----------------------------------------
Total Dipole Moment    :     -2.24570      -0.81736       0.00000
                        -----------------------------------------
Magnitude (a.u.)       :      2.38982
Magnitude (Debye)      :      6.07445

Rotational constants in cm-1:     0.114139     0.040457     0.029870
Rotational constants in MHz :  3421.799015  1212.867869   895.466747

                             ****ORCA TERMINATED NORMALLY****
TOTAL RUN TIME: 0 days 0 hours 33 minutes 28 seconds 153 msec
