                         Program Version 5.0.4 -  RELEASE  -
|  1> !ri-mp2 aug-cc-pvqz aug-cc-pvqz/c tightscf
|  2> %pal nprocs 16 end
|  3>
|  4> * xyz 0 1
|  5> C     0.000000     0.000000    0.808471
|  6> N     0.000000     0.607849   -0.539787
|  7> N     0.000000    -0.607849   -0.539787
|  8> H     0.931674     0.000000    1.353097
|  9> H    -0.931674     0.000000    1.353097
| 10> *
| 11>
| 12>                          ****END OF INPUT****

CARTESIAN COORDINATES (ANGSTROEM)
---------------------------------
  C      0.000000    0.000000    0.808471
  N      0.000000    0.607849   -0.539787
  N      0.000000   -0.607849   -0.539787
  H      0.931674    0.000000    1.353097
  H     -0.931674    0.000000    1.353097

 Total Charge           Charge          ....    0
 Multiplicity           Mult            ....    1
 Number of Electrons    NEL             ....   22
 Basis Dimension        Dim             ....  332

ORBITAL ENERGIES
----------------

  NO   OCC          E(Eh)            E(eV)
   0   2.0000     -15.668300      -426.3561
   1   2.0000     -15.666627      -426.3106
   2   2.0000     -11.302800      -307.5648
   3   2.0000      -1.476600       -40.1803
   4   2.0000      -0.925134       -25.1742
   5   2.0000      -0.846833       -23.0435
   6   2.0000      -0.688174       -18.7262
   7   2.0000      -0.665260       -18.1026
   8   2.0000      -0.584782       -15.9127
   9   2.0000      -0.492676       -13.4064
  10   2.0000      -0.408960       -11.1284
  11   0.0000       0.026480         0.7205
  12   0.0000       0.037336         1.0160
  13   0.0000       0.056421         1.5353
  14   0.0000       0.061756         1.6805
  15   0.0000       0.089567         2.4372

MULLIKEN ATOMIC CHARGES
-----------------------
   0 C :   -0.481210
   1 N :   -0.164679
   2 N :   -0.164679
   3 H :    0.405284
   4 H :    0.405284
Sum of atomic charges:   -0.0000000

LOEWDIN ATOMIC CHARGES
----------------------
   0 C :    0.134602
   1 N :    0.309052
   2 N :    0.309052
   3 H :   -0.376353
   4 H :   -0.376353

  Mayer bond orders larger than 0.100000
B(  0-C ,  1-N ) :   0.8736 B(  0-C ,  2-N ) :   0.8736 B(  0-C ,  3-H ) :   0.8163
B(  0-C ,  4-H ) :   0.8163 B(  1-N ,  2-N ) :   1.9288

MP2 TOTAL ENERGY:     -148.498563701 Eh
FINAL SINGLE POINT ENERGY      -148.498563701227

DIPOLE MOMENT
-------------
                                X             Y             Z
Electronic contribution:      0.00000       0.00000      -1.89979
Nuclear contribution   :      0.00000       0.00000       2.65340
                        -----------------------------------------
Total Dipole Moment    :      0.00000       0.00000       0.75361
                        -----------------------------------------
Magnitude (a.u.)       :      0.75361
Magnitude (Debye)      :      1.91552

Rotational constants in cm-1:     1.393131     0.792077     0.564111
Rotational constants in MHz : 41765.017086 23745.866546 16911.631907

                             ****ORCA TERMINATED NORMALLY****
TOTAL RUN TIME: 0 days 0 hours 2 minutes 22 seconds 180 msec
