                         Program Version 5.0.4 -  RELEASE  -
|  1> !ri-mp2 aug-cc-pvqz aug-cc-pvqz/c tightscf
|  2> %pal nprocs 16 end
|  3>
|  4> * xyz 0 1
|  5> C      0.256059   -0.145790    2.557816
|  6> C      0.256059   -0.145790   -2.557816
|  7> C      0.256059    0.678253    1.272070
|  8> C      0.256059    0.678253   -1.272070
|  9> C      0.123504   -0.161251    0.000000
| 10> O     -1.093205   -0.921538    0.000000
| 11> H      0.329959    0.496804    3.435919
| 12> H     -0.654055   -0.737969    2.645405
| 13> H      1.102179   -0.835589    2.578827
| 14> H      0.329959    0.496804   -3.435919
| 15> H      1.102179   -0.835589   -2.578827
| 16> H     -0.654055   -0.737969   -2.645405
| 17> H     -0.562591    1.406988    1.294805
| 18> H      1.178723    1.261415    1.206832
| 19> H     -0.562591    1.406988   -1.294805
| 20> H      1.178723    1.261415   -1.206832
| 21> H      0.906368   -0.925655    0.000000
| 22> H     -1.835609   -0.307374    0.000000
| 23> *
| 24>
| 25>                          ****END OF INPUT****

CARTESIAN COORDINATES (ANGSTROEM)
---------------------------------
  C      0.256059   -0.145790    2.557816
  C      0.256059   -0.145790   -2.557816
  C      0.256059    0.678253    1.272070
  C      0.256059    0.678253   -1.272070
  C      0.123504   -0.161251    0.000000
  O     -1.093205   -0.921538    0.000000
  H      0.329959    0.496804    3.435919
  H     -0.654055   -0.737969    2.645405
  H      1.102179   -0.835589    2.578827
  H      0.329959    0.496804   -3.435919
  H      1.102179   -0.835589   -2.578827
  H     -0.654055   -0.737969   -2.645405
  H     -0.562591    1.406988    1.294805
  H      1.178723    1.261415    1.206832
  H     -0.562591    1.406988   -1.294805
  H      1.178723    1.261415   -1.206832
  H      0.906368   -0.925655    0.000000
  H     -1.835609   -0.307374    0.000000

 Total Charge           Charge          ....    0
 Multiplicity           Mult            ....    1
 Number of Electrons    NEL             ....   50
 Basis Dimension        Dim             .... 1032

ORBITAL ENERGIES
----------------

  NO   OCC          E(Eh)            E(eV)
   0   2.0000     -20.548434      -559.1513
   1   2.0000     -11.273628      -306.7710
   2   2.0000     -11.219857      -305.3078
   3   2.0000     -11.219840      -305.3074
   4   2.0000     -11.208102      -304.9879
   5   2.0000     -11.208101      -304.9879
   6   2.0000      -1.352774       -36.8108
   7   2.0000      -1.068367       -29.0717
   8   2.0000      -1.020052       -27.7570
   9   2.0000      -0.917797       -24.9745
  10   2.0000      -0.827295       -22.5118
  11   2.0000      -0.802197       -21.8289
  12   2.0000      -0.652533       -17.7563
  13   2.0000      -0.644557       -17.5393
  14   2.0000      -0.629111       -17.1190
  15   2.0000      -0.596999       -16.2452
  16   2.0000      -0.560892       -15.2627
  17   2.0000      -0.545662       -14.8482
  18   2.0000      -0.537386       -14.6230
  19   2.0000      -0.510987       -13.9047
  20   2.0000      -0.492742       -13.4082
  21   2.0000      -0.484994       -13.1974
  22   2.0000      -0.480478       -13.0745
  23   2.0000      -0.456090       -12.4108
  24   2.0000      -0.426400       -11.6029
  25   0.0000       0.025360         0.6901
  26   0.0000       0.029367         0.7991
  27   0.0000       0.031980         0.8702
  28   0.0000       0.036001         0.9796
  29   0.0000       0.046744         1.2720

MULLIKEN ATOMIC CHARGES
-----------------------
   0 C :   -0.874858
   1 C :   -0.874858
   2 C :   -0.573745
   3 C :   -0.573745
   4 C :    0.928937
   5 O :   -1.009880
   6 H :    0.254741
   7 H :    0.230961
   8 H :    0.226826
   9 H :    0.254741
  10 H :    0.226826
  11 H :    0.230962
  12 H :    0.210367
  13 H :    0.265287
  14 H :    0.210367
  15 H :    0.265287
  16 H :    0.248362
  17 H :    0.353422
Sum of atomic charges:   -0.0000000

LOEWDIN ATOMIC CHARGES
----------------------
   0 C :    0.929247
   1 C :    0.929247
   2 C :    0.493800
   3 C :    0.493800
   4 C :   -0.216430
   5 O :    1.295732
   6 H :   -0.283939
   7 H :   -0.293854
   8 H :   -0.282552
   9 H :   -0.283939
  10 H :   -0.282552
  11 H :   -0.293854
  12 H :   -0.275614
  13 H :   -0.278658
  14 H :   -0.275614
  15 H :   -0.278658
  16 H :   -0.312077
  17 H :   -0.784084

  Mayer bond orders larger than 0.100000
B(  0-C ,  2-C ) :   0.9386 B(  0-C ,  6-H ) :   1.0311 B(  0-C ,  7-H ) :   0.9651
B(  0-C ,  8-H ) :   0.9521 B(  1-C ,  3-C ) :   0.9386 B(  1-C ,  9-H ) :   1.0311
B(  1-C , 10-H ) :   0.9521 B(  1-C , 11-H ) :   0.9651 B(  2-C ,  4-C ) :   0.6913
B(  2-C ,  5-O ) :   0.1257 B(  2-C ,  6-H ) :  -0.1102 B(  2-C , 12-H ) :   0.9174
B(  2-C , 13-H ) :   0.8968 B(  3-C ,  4-C ) :   0.6913 B(  3-C ,  5-O ) :   0.1257
B(  3-C ,  9-H ) :  -0.1102 B(  3-C , 14-H ) :   0.9174 B(  3-C , 15-H ) :   0.8968
B(  4-C ,  5-O ) :   0.1231 B(  4-C , 16-H ) :   0.9406 B(  5-O , 17-H ) :   0.8695

MP2 TOTAL ENERGY:     -272.517464708 Eh
FINAL SINGLE POINT ENERGY      -272.517464708168

DIPOLE MOMENT
-------------
                                X             Y             Z
Electronic contribution:     -1.86643      -1.38728       0.00000
Nuclear contribution   :      1.96219       2.06209      -0.00000
                        -----------------------------------------
Total Dipole Moment    :      0.09575       0.67481       0.00000
                        -----------------------------------------
Magnitude (a.u.)       :      0.68157
Magnitude (Debye)      :      1.73241

Rotational constants in cm-1:     0.240174     0.062664     0.054644
Rotational constants in MHz :  7200.227171  1878.606778  1638.177020

                             ****ORCA TERMINATED NORMALLY****
TOTAL RUN TIME: 0 days 0 hours 45 minutes 58 seconds 245 msec
