                         Program Version 5.0.4 -  RELEASE  -
|  1> !ri-mp2 aug-cc-pvqz aug-cc-pvqz/c tightscf
|  2> %pal nprocs 16 end
|  3>
|  4> * xyz 0 1
|  5> O      0.832747    1.359187    0.006513
|  6> O      2.144989   -0.432647   -0.013277
|  7> N     -2.578092    0.122693   -0.135032
|  8> C      0.917327    0.160721    0.006423
|  9> C     -0.225737   -0.768608    0.030257
| 10> C     -1.459445   -0.297235    0.010407
| 11> H      2.070121   -1.393038   -0.029288
| 12> H     -3.142970    0.393415    0.664093
| 13> H     -0.095256   -1.840812    0.082007
| 14> *
| 15>
| 16>                          ****END OF INPUT****

CARTESIAN COORDINATES (ANGSTROEM)
---------------------------------
  O      0.832747    1.359187    0.006513
  O      2.144989   -0.432647   -0.013277
  N     -2.578092    0.122693   -0.135032
  C      0.917327    0.160721    0.006423
  C     -0.225737   -0.768608    0.030257
  C     -1.459445   -0.297235    0.010407
  H      2.070121   -1.393038   -0.029288
  H     -3.142970    0.393415    0.664093
  H     -0.095256   -1.840812    0.082007

 Total Charge           Charge          ....    0
 Multiplicity           Mult            ....    1
 Number of Electrons    NEL             ....   44
 Basis Dimension        Dim             ....  618

ORBITAL ENERGIES
----------------

  NO   OCC          E(Eh)            E(eV)
   0   2.0000     -20.612659      -560.8990
   1   2.0000     -20.537545      -558.8550
   2   2.0000     -15.620208      -425.0475
   3   2.0000     -11.396001      -310.1009
   4   2.0000     -11.363890      -309.2272
   5   2.0000     -11.265615      -306.5530
   6   2.0000      -1.458644       -39.6917
   7   2.0000      -1.363013       -37.0895
   8   2.0000      -1.290738       -35.1228
   9   2.0000      -1.079161       -29.3655
  10   2.0000      -0.864187       -23.5157
  11   2.0000      -0.811082       -22.0707
  12   2.0000      -0.765030       -20.8175
  13   2.0000      -0.705240       -19.1906
  14   2.0000      -0.638412       -17.3721
  15   2.0000      -0.635725       -17.2990
  16   2.0000      -0.595421       -16.2022
  17   2.0000      -0.584679       -15.9099
  18   2.0000      -0.517119       -14.0715
  19   2.0000      -0.488571       -13.2947
  20   2.0000      -0.457310       -12.4440
  21   2.0000      -0.383345       -10.4313
  22   0.0000       0.014724         0.4007
  23   0.0000       0.025346         0.6897
  24   0.0000       0.041297         1.1237
  25   0.0000       0.060422         1.6442
  26   0.0000       0.067736         1.8432

MULLIKEN ATOMIC CHARGES
-----------------------
   0 O :   -0.659499
   1 O :   -0.709101
   2 N :   -0.720204
   3 C :    1.161991
   4 C :   -0.784089
   5 C :    0.619593
   6 H :    0.354994
   7 H :    0.371698
   8 H :    0.364617
Sum of atomic charges:   -0.0000000

LOEWDIN ATOMIC CHARGES
----------------------
   0 O :    0.643259
   1 O :    1.225416
   2 N :    0.965298
   3 C :   -1.123231
   4 C :    0.240341
   5 C :   -0.067657
   6 H :   -0.834359
   7 H :   -0.650453
   8 H :   -0.398613

  Mayer bond orders larger than 0.100000
B(  0-O ,  3-C ) :   1.5857 B(  0-O ,  4-C ) :   0.1323 B(  1-O ,  3-C ) :   0.7753
B(  1-O ,  4-C ) :   0.1099 B(  1-O ,  6-H ) :   0.8627 B(  2-N ,  5-C ) :   1.9652
B(  2-N ,  7-H ) :   0.7897 B(  3-C ,  4-C ) :   1.1330 B(  3-C ,  5-C ) :  -0.1350
B(  4-C ,  5-C ) :   1.7376 B(  4-C ,  8-H ) :   0.8673

MP2 TOTAL ENERGY:     -320.846383815 Eh
FINAL SINGLE POINT ENERGY      -320.846383814670

DIPOLE MOMENT
-------------
                                X             Y             Z
Electronic contribution:      0.18764       1.03745      -0.12750
Nuclear contribution   :     -1.10388      -2.74451       0.69549
                        -----------------------------------------
Total Dipole Moment    :     -0.91624      -1.70706       0.56799
                        -----------------------------------------
Magnitude (a.u.)       :      2.01895
Magnitude (Debye)      :      5.13176

Rotational constants in cm-1:     0.356557     0.073557     0.061287
Rotational constants in MHz : 10689.321519  2205.184892  1837.324965

                             ****ORCA TERMINATED NORMALLY****
TOTAL RUN TIME: 0 days 0 hours 8 minutes 47 seconds 870 msec
