                         Program Version 5.0.4 -  RELEASE  -
|  1> !ri-mp2 aug-cc-pvqz aug-cc-pvqz/c tightscf
|  2> %pal nprocs 16 end
|  3>
|  4> * xyz 0 1
|  5> C     -1.264788    1.284808    0.000000
|  6> H     -1.283550    1.930106    0.881130
|  7> H     -1.283550    1.930106   -0.881130
|  8> H     -2.179327    0.690156    0.000000
|  9> C      1.255285    1.225783    0.000000
| 10> H      2.138334    0.585269    0.000000
| 11> H      1.305127    1.868005   -0.882100
| 12> H      1.305127    1.868005    0.882100
| 13> C     -0.026045    0.399811    0.000000
| 14> C     -0.026045   -0.751630    1.036255
| 15> C     -0.026045   -0.751630   -1.036255
| 16> H      0.817961   -0.777877    1.729654
| 17> H      0.817961   -0.777877   -1.729654
| 18> H     -0.958286   -0.870369    1.595908
| 19> H     -0.958286   -0.870369   -1.595908
| 20> O      0.100540   -1.752252    0.000000
| 21> *
| 22>
| 23>                          ****END OF INPUT****

CARTESIAN COORDINATES (ANGSTROEM)
---------------------------------
  C     -1.264788    1.284808    0.000000
  H     -1.283550    1.930106    0.881130
  H     -1.283550    1.930106   -0.881130
  H     -2.179327    0.690156    0.000000
  C      1.255285    1.225783    0.000000
  H      2.138334    0.585269    0.000000
  H      1.305127    1.868005   -0.882100
  H      1.305127    1.868005    0.882100
  C     -0.026045    0.399811    0.000000
  C     -0.026045   -0.751630    1.036255
  C     -0.026045   -0.751630   -1.036255
  H      0.817961   -0.777877    1.729654
  H      0.817961   -0.777877   -1.729654
  H     -0.958286   -0.870369    1.595908
  H     -0.958286   -0.870369   -1.595908
  O      0.100540   -1.752252    0.000000

 Total Charge           Charge          ....    0
 Multiplicity           Mult            ....    1
 Number of Electrons    NEL             ....   48
 Basis Dimension        Dim             ....  940

ORBITAL ENERGIES
----------------

  NO   OCC          E(Eh)            E(eV)
   0   2.0000     -20.541930      -558.9743
   1   2.0000     -11.271090      -306.7019
   2   2.0000     -11.271086      -306.7018
   3   2.0000     -11.240519      -305.8701
   4   2.0000     -11.220068      -305.3136
   5   2.0000     -11.219406      -305.2956
   6   2.0000      -1.370286       -37.2874
   7   2.0000      -1.082385       -29.4532
   8   2.0000      -0.942802       -25.6549
   9   2.0000      -0.931912       -25.3586
  10   2.0000      -0.897582       -24.4244
  11   2.0000      -0.733919       -19.9710
  12   2.0000      -0.670597       -18.2479
  13   2.0000      -0.644464       -17.5368
  14   2.0000      -0.627064       -17.0633
  15   2.0000      -0.574969       -15.6457
  16   2.0000      -0.573718       -15.6117
  17   2.0000      -0.553869       -15.0715
  18   2.0000      -0.547594       -14.9008
  19   2.0000      -0.530355       -14.4317
  20   2.0000      -0.487871       -13.2756
  21   2.0000      -0.439153       -11.9500
  22   2.0000      -0.438660       -11.9365
  23   2.0000      -0.411096       -11.1865
  24   0.0000       0.024533         0.6676
  25   0.0000       0.031965         0.8698
  26   0.0000       0.032264         0.8780
  27   0.0000       0.035329         0.9614
  28   0.0000       0.048863         1.3296

MULLIKEN ATOMIC CHARGES
-----------------------
   0 C :   -0.960392
   1 H :    0.219841
   2 H :    0.219842
   3 H :    0.248850
   4 C :   -0.954809
   5 H :    0.243855
   6 H :    0.238861
   7 H :    0.238861
   8 C :    0.809229
   9 C :   -0.312294
  10 C :   -0.312294
  11 H :    0.326881
  12 H :    0.326882
  13 H :    0.289973
  14 H :    0.289973
  15 O :   -0.913258
Sum of atomic charges:    0.0000000

LOEWDIN ATOMIC CHARGES
----------------------
   0 C :    0.919317
   1 H :   -0.272340
   2 H :   -0.272340
   3 H :   -0.283433
   4 C :    0.914463
   5 H :   -0.280635
   6 H :   -0.271719
   7 H :   -0.271719
   8 C :   -0.311111
   9 C :    0.195449
  10 C :    0.195449
  11 H :   -0.281509
  12 H :   -0.281509
  13 H :   -0.282171
  14 H :   -0.282171
  15 O :    0.865981

  Mayer bond orders larger than 0.100000
B(  0-C ,  1-H ) :   1.0372 B(  0-C ,  2-H ) :   1.0372 B(  0-C ,  3-H ) :   1.0204
B(  0-C ,  8-C ) :   0.5385 B(  4-C ,  5-H ) :   1.0409 B(  4-C ,  6-H ) :   1.0006
B(  4-C ,  7-H ) :   1.0006 B(  4-C ,  8-C ) :   0.5723 B(  5-H ,  8-C ) :  -0.1170
B(  8-C ,  9-C ) :   0.7338 B(  8-C , 10-C ) :   0.7338 B(  9-C , 10-C ) :   0.1404
B(  9-C , 11-H ) :   0.8824 B(  9-C , 13-H ) :   0.9158 B(  9-C , 15-O ) :   0.8058
B( 10-C , 12-H ) :   0.8824 B( 10-C , 14-H ) :   0.9158 B( 10-C , 15-O ) :   0.8058

MP2 TOTAL ENERGY:     -271.276555137 Eh
FINAL SINGLE POINT ENERGY      -271.276555136956

DIPOLE MOMENT
-------------
                                X             Y             Z
Electronic contribution:      0.19655      -4.91730       0.00000
Nuclear contribution   :     -0.28981       5.80603       0.00000
                        -----------------------------------------
Total Dipole Moment    :     -0.09325       0.88873       0.00000
                        -----------------------------------------
Magnitude (a.u.)       :      0.89361
Magnitude (Debye)      :      2.27137

Rotational constants in cm-1:     0.172748     0.105009     0.094743
Rotational constants in MHz :  5178.849049  3148.093904  2840.326001

                             ****ORCA TERMINATED NORMALLY****
TOTAL RUN TIME: 0 days 0 hours 37 minutes 34 seconds 25 msec
