                         Program Version 5.0.4 -  RELEASE  -
|  1> !ri-mp2 aug-cc-pvqz aug-cc-pvqz/c tightscf
|  2> %pal nprocs 16 end
|  3>
|  4> * xyz 0 1
|  5> N      2.167803   -0.419703   -0.124405
|  6> N     -2.312485   -0.509274   -0.000062
|  7> C     -0.068587    0.741058    0.011284
|  8> C      1.098133    0.121401    0.008582
|  9> C     -1.296379    0.036975    0.003444
| 10> H     -0.082728    1.822552    0.039789
| 11> H      2.696506   -0.716315    0.691622
| 12> *
| 13>
| 14>                          ****END OF INPUT****

CARTESIAN COORDINATES (ANGSTROEM)
---------------------------------
  N      2.167803   -0.419703   -0.124405
  N     -2.312485   -0.509274   -0.000062
  C     -0.068587    0.741058    0.011284
  C      1.098133    0.121401    0.008582
  C     -1.296379    0.036975    0.003444
  H     -0.082728    1.822552    0.039789
  H      2.696506   -0.716315    0.691622

 Total Charge           Charge          ....    0
 Multiplicity           Mult            ....    1
 Number of Electrons    NEL             ....   34
 Basis Dimension        Dim             ....  492

ORBITAL ENERGIES
----------------

  NO   OCC          E(Eh)            E(eV)
   0   2.0000     -15.629848      -425.3098
   1   2.0000     -15.571543      -423.7232
   2   2.0000     -11.372838      -309.4706
   3   2.0000     -11.292316      -307.2795
   4   2.0000     -11.284309      -307.0617
   5   2.0000      -1.300017       -35.3753
   6   2.0000      -1.224985       -33.3335
   7   2.0000      -1.091583       -29.7035
   8   2.0000      -0.844027       -22.9671
   9   2.0000      -0.774384       -21.0720
  10   2.0000      -0.703705       -19.1488
  11   2.0000      -0.605979       -16.4895
  12   2.0000      -0.564995       -15.3743
  13   2.0000      -0.523372       -14.2417
  14   2.0000      -0.513883       -13.9835
  15   2.0000      -0.472835       -12.8665
  16   2.0000      -0.376984       -10.2583
  17   0.0000       0.014882         0.4050
  18   0.0000       0.027892         0.7590
  19   0.0000       0.053616         1.4590
  20   0.0000       0.059282         1.6131
  21   0.0000       0.070738         1.9249

MULLIKEN ATOMIC CHARGES
-----------------------
   0 N :   -0.671519
   1 N :   -0.609226
   2 C :   -0.464074
   3 C :    0.477209
   4 C :    0.392950
   5 H :    0.496067
   6 H :    0.378592
Sum of atomic charges:    0.0000000

LOEWDIN ATOMIC CHARGES
----------------------
   0 N :    0.952100
   1 N :    0.378443
   2 C :    0.188491
   3 C :   -0.072700
   4 C :   -0.385636
   5 H :   -0.405978
   6 H :   -0.654719

  Mayer bond orders larger than 0.100000
B(  0-N ,  3-C ) :   2.0248 B(  0-N ,  6-H ) :   0.7803 B(  1-N ,  4-C ) :   2.5939
B(  2-C ,  3-C ) :   1.6941 B(  2-C ,  4-C ) :   1.2055 B(  2-C ,  5-H ) :   0.7207
B(  3-C ,  4-C ) :  -0.1337

MP2 TOTAL ENERGY:     -224.595228647 Eh
FINAL SINGLE POINT ENERGY      -224.595228647214

DIPOLE MOMENT
-------------
                                X             Y             Z
Electronic contribution:     -0.83659      -0.40721      -0.12182
Nuclear contribution   :      2.52558       1.06398       0.70625
                        -----------------------------------------
Total Dipole Moment    :      1.68899       0.65678       0.58443
                        -----------------------------------------
Magnitude (a.u.)       :      1.90410
Magnitude (Debye)      :      4.83984

Rotational constants in cm-1:     0.969487     0.091919     0.084518
Rotational constants in MHz : 29064.490067  2755.668810  2533.790398

                             ****ORCA TERMINATED NORMALLY****
TOTAL RUN TIME: 0 days 0 hours 4 minutes 52 seconds 88 msec
