                         Program Version 5.0.4 -  RELEASE  -
|  1> !ri-mp2 aug-cc-pvqz aug-cc-pvqz/c tightscf
|  2> %pal nprocs 16 end
|  3>
|  4> * xyz 0 1
|  5> O      0.891155   -0.824592    0.000333
|  6> O     -0.557923   -1.054738   -0.000461
|  7> N     -0.044878    1.222226   -0.000283
|  8> C      1.000131    0.519722   -0.000070
|  9> C     -1.143632    0.283846    0.000324
| 10> H      2.022843    0.872053   -0.000125
| 11> H     -1.756107    0.392727    0.898645
| 12> H     -1.757438    0.392866   -0.897042
| 13> *
| 14>
| 15>                          ****END OF INPUT****

CARTESIAN COORDINATES (ANGSTROEM)
---------------------------------
  O      0.891155   -0.824592    0.000333
  O     -0.557923   -1.054738   -0.000461
  N     -0.044878    1.222226   -0.000283
  C      1.000131    0.519722   -0.000070
  C     -1.143632    0.283846    0.000324
  H      2.022843    0.872053   -0.000125
  H     -1.756107    0.392727    0.898645
  H     -1.757438    0.392866   -0.897042

 Total Charge           Charge          ....    0
 Multiplicity           Mult            ....    1
 Number of Electrons    NEL             ....   38
 Basis Dimension        Dim             ....  538

ORBITAL ENERGIES
----------------

  NO   OCC          E(Eh)            E(eV)
   0   2.0000     -20.666420      -562.3619
   1   2.0000     -20.646594      -561.8224
   2   2.0000     -15.576202      -423.8500
   3   2.0000     -11.359548      -309.1090
   4   2.0000     -11.333152      -308.3907
   5   2.0000      -1.529162       -41.6106
   6   2.0000      -1.277894       -34.7733
   7   2.0000      -1.251195       -34.0467
   8   2.0000      -0.929955       -25.3054
   9   2.0000      -0.854415       -23.2498
  10   2.0000      -0.747161       -20.3313
  11   2.0000      -0.720422       -19.6037
  12   2.0000      -0.625954       -17.0331
  13   2.0000      -0.607525       -16.5316
  14   2.0000      -0.599595       -16.3158
  15   2.0000      -0.583541       -15.8789
  16   2.0000      -0.520851       -14.1731
  17   2.0000      -0.479849       -13.0574
  18   2.0000      -0.403035       -10.9671
  19   0.0000       0.025723         0.7000
  20   0.0000       0.033336         0.9071
  21   0.0000       0.039506         1.0750
  22   0.0000       0.063966         1.7406
  23   0.0000       0.071612         1.9487

MULLIKEN ATOMIC CHARGES
-----------------------
   0 O :   -0.434557
   1 O :   -0.407012
   2 N :   -0.553887
   3 C :    0.096324
   4 C :    0.029564
   5 H :    0.666339
   6 H :    0.301507
   7 H :    0.301723
Sum of atomic charges:    0.0000000

LOEWDIN ATOMIC CHARGES
----------------------
   0 O :    0.511852
   1 O :    0.524541
   2 N :    0.546944
   3 C :   -0.391338
   4 C :   -0.140247
   5 H :   -0.368938
   6 H :   -0.341380
   7 H :   -0.341434

  Mayer bond orders larger than 0.100000
B(  0-O ,  1-O ) :   0.7388 B(  0-O ,  3-C ) :   0.9729 B(  1-O ,  4-C ) :   0.7336
B(  2-N ,  3-C ) :   1.8958 B(  2-N ,  4-C ) :   0.9157 B(  3-C ,  5-H ) :   0.5582
B(  4-C ,  6-H ) :   0.8648 B(  4-C ,  7-H ) :   0.8647

MP2 TOTAL ENERGY:     -282.720190440 Eh
FINAL SINGLE POINT ENERGY      -282.720190440066

DIPOLE MOMENT
-------------
                                X             Y             Z
Electronic contribution:      1.52236      -1.28474      -0.00090
Nuclear contribution   :     -1.45146       1.59749       0.00144
                        -----------------------------------------
Total Dipole Moment    :      0.07090       0.31276       0.00054
                        -----------------------------------------
Magnitude (a.u.)       :      0.32069
Magnitude (Debye)      :      0.81514

Rotational constants in cm-1:     0.299096     0.293192     0.152408
Rotational constants in MHz :  8966.668278  8789.679665  4569.078405

                             ****ORCA TERMINATED NORMALLY****
TOTAL RUN TIME: 0 days 0 hours 4 minutes 53 seconds 75 msec
