                         Program Version 5.0.4 -  RELEASE  -
|  1> !ri-mp2 aug-cc-pvqz aug-cc-pvqz/c tightscf
|  2> %pal nprocs 16 end
|  3>
|  4> * xyz 0 1
|  5> O     1.731880    0.108377   -0.831919
|  6> O    -0.233133   -1.544013   -0.196714
|  7> O    -2.691735   -0.847458    0.265518
|  8> N    -1.675720    0.124252    0.257316
|  9> N     0.522172    0.666970   -0.284536
| 10> C    -0.460475   -0.351147   -0.115603
| 11> C    -2.198971    1.462610    0.154511
| 12> C     2.699348    0.095191    0.044841
| 13> C     3.640521    0.058237    0.782977
| 14> H    -2.181394   -1.673843    0.154736
| 15> H     0.256709    1.383325   -0.950263
| 16> H    -2.597488    1.677053   -0.841848
| 17> H    -2.998686    1.573387    0.884085
| 18> H    -1.411630    2.169530    0.406162
| 19> H     4.468689    0.007404    1.442234
| 20> *
| 21>
| 22>                          ****END OF INPUT****

CARTESIAN COORDINATES (ANGSTROEM)
---------------------------------
  O      1.731880    0.108377   -0.831919
  O     -0.233133   -1.544013   -0.196714
  O     -2.691735   -0.847458    0.265518
  N     -1.675720    0.124252    0.257316
  N      0.522172    0.666970   -0.284536
  C     -0.460475   -0.351147   -0.115603
  C     -2.198971    1.462610    0.154511
  C      2.699348    0.095191    0.044841
  C      3.640521    0.058237    0.782977
  H     -2.181394   -1.673843    0.154736
  H      0.256709    1.383325   -0.950263
  H     -2.597488    1.677053   -0.841848
  H     -2.998686    1.573387    0.884085
  H     -1.411630    2.169530    0.406162
  H      4.468689    0.007404    1.442234

 Total Charge           Charge          ....    0
 Multiplicity           Mult            ....    1
 Number of Electrons    NEL             ....   68
 Basis Dimension        Dim             ....  996

ORBITAL ENERGIES
----------------

  NO   OCC          E(Eh)            E(eV)
   0   2.0000     -20.671224      -562.4926
   1   2.0000     -20.616765      -561.0107
   2   2.0000     -20.549217      -559.1726
   3   2.0000     -15.679539      -426.6620
   4   2.0000     -15.659761      -426.1238
   5   2.0000     -11.411279      -310.5167
   6   2.0000     -11.296470      -307.3926
   7   2.0000     -11.294080      -307.3275
   8   2.0000     -11.226933      -305.5004
   9   2.0000      -1.504782       -40.9472
  10   2.0000      -1.467584       -39.9350
  11   2.0000      -1.391760       -37.8717
  12   2.0000      -1.234983       -33.6056
  13   2.0000      -1.159139       -31.5418
  14   2.0000      -1.021360       -27.7926
  15   2.0000      -0.989522       -26.9263
  16   2.0000      -0.841262       -22.8919
  17   2.0000      -0.804520       -21.8921
  18   2.0000      -0.778380       -21.1808
  19   2.0000      -0.726736       -19.7755
  20   2.0000      -0.706361       -19.2211
  21   2.0000      -0.696583       -18.9550
  22   2.0000      -0.683918       -18.6103
  23   2.0000      -0.645457       -17.5638
  24   2.0000      -0.618122       -16.8199
  25   2.0000      -0.604140       -16.4395
  26   2.0000      -0.587805       -15.9950
  27   2.0000      -0.581735       -15.8298
  28   2.0000      -0.559203       -15.2167
  29   2.0000      -0.493840       -13.4381
  30   2.0000      -0.466755       -12.7010
  31   2.0000      -0.401952       -10.9377
  32   2.0000      -0.392941       -10.6925
  33   2.0000      -0.381933       -10.3929
  34   0.0000       0.017481         0.4757
  35   0.0000       0.029794         0.8107
  36   0.0000       0.032115         0.8739
  37   0.0000       0.036270         0.9870
  38   0.0000       0.045326         1.2334

MULLIKEN ATOMIC CHARGES
-----------------------
   0 O :   -0.672354
   1 O :   -0.778664
   2 O :   -0.752615
   3 N :   -0.082682
   4 N :   -0.170112
   5 C :    1.189060
   6 C :   -0.832293
   7 C :    0.595521
   8 C :   -0.597622
   9 H :    0.362430
  10 H :    0.353251
  11 H :    0.320253
  12 H :    0.379260
  13 H :    0.292444
  14 H :    0.394123
Sum of atomic charges:   -0.0000000

LOEWDIN ATOMIC CHARGES
----------------------
   0 O :    0.608736
   1 O :    0.744281
   2 O :    1.149454
   3 N :    0.093529
   4 N :    0.551884
   5 C :   -1.048888
   6 C :    0.753649
   7 C :   -0.398140
   8 C :    0.497526
   9 H :   -0.990398
  10 H :   -0.577005
  11 H :   -0.271850
  12 H :   -0.296273
  13 H :   -0.325376
  14 H :   -0.491129

  Mayer bond orders larger than 0.100000
B(  0-O ,  4-N ) :   0.8449 B(  0-O ,  7-C ) :   0.7866 B(  1-O ,  3-N ) :   0.1797
B(  1-O ,  5-C ) :   1.3356 B(  2-O ,  3-N ) :   0.5682 B(  2-O ,  9-H ) :   0.8343
B(  3-N ,  5-C ) :   1.1831 B(  3-N ,  6-C ) :   0.7427 B(  4-N ,  5-C ) :   1.0778
B(  4-N ,  7-C ) :  -0.1155 B(  4-N , 10-H ) :   0.8501 B(  6-C , 11-H ) :   0.9146
B(  6-C , 12-H ) :   0.8863 B(  6-C , 13-H ) :   0.9360 B(  7-C ,  8-C ) :   2.5730
B(  8-C , 14-H ) :   0.9459

MP2 TOTAL ENERGY:     -490.334856188 Eh
FINAL SINGLE POINT ENERGY      -490.334856187567

DIPOLE MOMENT
-------------
                                X             Y             Z
Electronic contribution:      3.86329      -3.47930      -1.20215
Nuclear contribution   :     -4.40677       5.01156       1.06299
                        -----------------------------------------
Total Dipole Moment    :     -0.54348       1.53226      -0.13916
                        -----------------------------------------
Magnitude (a.u.)       :      1.63173
Magnitude (Debye)      :      4.14754

Rotational constants in cm-1:     0.134387     0.028791     0.025688
Rotational constants in MHz :  4028.819304   863.136601   770.111493

                             ****ORCA TERMINATED NORMALLY****
TOTAL RUN TIME: 0 days 0 hours 39 minutes 9 seconds 890 msec
