                         Program Version 5.0.4 -  RELEASE  -
|  1> !ri-mp2 aug-cc-pvqz aug-cc-pvqz/c tightscf
|  2> %pal nprocs 16 end
|  3>
|  4> * xyz 0 1
|  5> C     -3.258638   -0.287523    0.090842
|  6> C      2.749710   -0.958717   -0.125572
|  7> C     -1.803228   -0.542577   -0.299578
|  8> C      1.324767   -0.757447    0.387390
|  9> C     -0.859239    0.560574    0.183682
| 10> C      0.597669    0.413820   -0.263537
| 11> O      1.346525    1.592486    0.069305
| 12> H     -3.369799   -0.222411    1.174974
| 13> H     -3.623837    0.649674   -0.334114
| 14> H     -3.910731   -1.087613   -0.261728
| 15> H      3.360328   -0.076592    0.059161
| 16> H      3.223088   -1.809507    0.366235
| 17> H      2.756534   -1.152346   -1.200530
| 18> H     -1.487941   -1.506260    0.106282
| 19> H     -1.729119   -0.630970   -1.387734
| 20> H      1.337132   -0.587285    1.467729
| 21> H      0.744175   -1.665979    0.216421
| 22> H     -1.230746    1.521745   -0.190767
| 23> H     -0.885745    0.627798    1.275431
| 24> H      0.618632    0.275514   -1.354253
| 25> H      0.919582    2.355577   -0.330907
| 26> *
| 27>
| 28>                          ****END OF INPUT****

CARTESIAN COORDINATES (ANGSTROEM)
---------------------------------
  C     -3.258638   -0.287523    0.090842
  C      2.749710   -0.958717   -0.125572
  C     -1.803228   -0.542577   -0.299578
  C      1.324767   -0.757447    0.387390
  C     -0.859239    0.560574    0.183682
  C      0.597669    0.413820   -0.263537
  O      1.346525    1.592486    0.069305
  H     -3.369799   -0.222411    1.174974
  H     -3.623837    0.649674   -0.334114
  H     -3.910731   -1.087613   -0.261728
  H      3.360328   -0.076592    0.059161
  H      3.223088   -1.809507    0.366235
  H      2.756534   -1.152346   -1.200530
  H     -1.487941   -1.506260    0.106282
  H     -1.729119   -0.630970   -1.387734
  H      1.337132   -0.587285    1.467729
  H      0.744175   -1.665979    0.216421
  H     -1.230746    1.521745   -0.190767
  H     -0.885745    0.627798    1.275431
  H      0.618632    0.275514   -1.354253
  H      0.919582    2.355577   -0.330907

 Total Charge           Charge          ....    0
 Multiplicity           Mult            ....    1
 Number of Electrons    NEL             ....   58
 Basis Dimension        Dim             .... 1204

ORBITAL ENERGIES
----------------

  NO   OCC          E(Eh)            E(eV)
   0   2.0000     -20.547594      -559.1285
   1   2.0000     -11.273862      -306.7774
   2   2.0000     -11.222093      -305.3687
   3   2.0000     -11.218358      -305.2670
   4   2.0000     -11.214018      -305.1489
   5   2.0000     -11.213146      -305.1252
   6   2.0000     -11.202518      -304.8360
   7   2.0000      -1.351803       -36.7844
   8   2.0000      -1.080585       -29.4042
   9   2.0000      -1.034794       -28.1582
  10   2.0000      -0.961048       -26.1514
  11   2.0000      -0.873765       -23.7764
  12   2.0000      -0.817085       -22.2340
  13   2.0000      -0.778075       -21.1725
  14   2.0000      -0.697365       -18.9763
  15   2.0000      -0.635907       -17.3039
  16   2.0000      -0.622669       -16.9437
  17   2.0000      -0.586239       -15.9524
  18   2.0000      -0.579522       -15.7696
  19   2.0000      -0.562734       -15.3128
  20   2.0000      -0.546245       -14.8641
  21   2.0000      -0.531775       -14.4703
  22   2.0000      -0.508288       -13.8312
  23   2.0000      -0.494795       -13.4641
  24   2.0000      -0.487058       -13.2535
  25   2.0000      -0.475672       -12.9437
  26   2.0000      -0.467709       -12.7270
  27   2.0000      -0.449449       -12.2301
  28   2.0000      -0.427113       -11.6223
  29   0.0000       0.024840         0.6759
  30   0.0000       0.030081         0.8185
  31   0.0000       0.030762         0.8371
  32   0.0000       0.034139         0.9290
  33   0.0000       0.044667         1.2154

MULLIKEN ATOMIC CHARGES
-----------------------
   0 C :   -0.857243
   1 C :   -0.845200
   2 C :   -0.397973
   3 C :   -0.553635
   4 C :   -0.498884
   5 C :    0.903828
   6 O :   -0.983689
   7 H :    0.226626
   8 H :    0.213445
   9 H :    0.254131
  10 H :    0.233082
  11 H :    0.251725
  12 H :    0.214652
  13 H :    0.232465
  14 H :    0.212515
  15 H :    0.214501
  16 H :    0.285447
  17 H :    0.244065
  18 H :    0.220935
  19 H :    0.130402
  20 H :    0.298803
Sum of atomic charges:   -0.0000000

LOEWDIN ATOMIC CHARGES
----------------------
   0 C :    0.932470
   1 C :    0.931936
   2 C :    0.513387
   3 C :    0.486222
   4 C :    0.504985
   5 C :   -0.206552
   6 O :    1.296194
   7 H :   -0.282487
   8 H :   -0.284687
   9 H :   -0.282720
  10 H :   -0.295758
  11 H :   -0.283479
  12 H :   -0.282395
  13 H :   -0.286668
  14 H :   -0.266839
  15 H :   -0.271842
  16 H :   -0.295874
  17 H :   -0.281978
  18 H :   -0.268343
  19 H :   -0.288769
  20 H :   -0.786802

  Mayer bond orders larger than 0.100000
B(  0-C ,  2-C ) :   0.9057 B(  0-C ,  7-H ) :   0.9616 B(  0-C ,  8-H ) :   0.9858
B(  0-C ,  9-H ) :   1.0244 B(  1-C ,  3-C ) :   0.8769 B(  1-C , 10-H ) :   0.9715
B(  1-C , 11-H ) :   1.0299 B(  1-C , 12-H ) :   0.9694 B(  2-C ,  4-C ) :   0.8176
B(  2-C ,  9-H ) :  -0.1089 B(  2-C , 13-H ) :   0.8908 B(  2-C , 14-H ) :   0.9138
B(  3-C ,  5-C ) :   0.6422 B(  3-C ,  6-O ) :   0.1653 B(  3-C , 11-H ) :  -0.1121
B(  3-C , 15-H ) :   0.9340 B(  3-C , 16-H ) :   0.9071 B(  4-C ,  5-C ) :   0.9420
B(  4-C ,  6-O ) :   0.2611 B(  4-C , 17-H ) :   0.8966 B(  4-C , 18-H ) :   0.9130
B(  5-C , 19-H ) :   1.0329 B(  6-O , 20-H ) :   0.9416

MP2 TOTAL ENERGY:     -311.753547411 Eh
FINAL SINGLE POINT ENERGY      -311.753547411295

DIPOLE MOMENT
-------------
                                X             Y             Z
Electronic contribution:      2.86771       3.42288       0.08732
Nuclear contribution   :     -3.47244      -3.50051      -0.41866
                        -----------------------------------------
Total Dipole Moment    :     -0.60473      -0.07763      -0.33133
                        -----------------------------------------
Magnitude (a.u.)       :      0.69390
Magnitude (Debye)      :      1.76376

Rotational constants in cm-1:     0.161054     0.040439     0.034358
Rotational constants in MHz :  4828.278967  1212.329021  1030.030379

                             ****ORCA TERMINATED NORMALLY****
TOTAL RUN TIME: 0 days 1 hours 10 minutes 29 seconds 140 msec
