                         Program Version 5.0.4 -  RELEASE  -
|  1> !ri-mp2 aug-cc-pvqz aug-cc-pvqz/c tightscf
|  2> %pal nprocs 16 end
|  3>
|  4> * xyz 0 1
|  5> C     -0.218611   -2.656740    0.856457
|  6> C      0.218611    2.656740    0.856457
|  7> C      0.001222    2.061425   -0.542357
|  8> C     -0.001222   -2.061425   -0.542357
|  9> C      0.001222   -0.601199   -0.556308
| 10> C     -0.001222    0.601199   -0.556308
| 11> H     -0.212880   -3.746339    0.811070
| 12> H      0.212880    3.746339    0.811070
| 13> H      1.174145    2.335610    1.270132
| 14> H     -0.567645    2.337886    1.540172
| 15> H      0.567645   -2.337886    1.540172
| 16> H     -1.174145   -2.335610    1.270132
| 17> H      0.780734    2.424674   -1.217851
| 18> H     -0.945635    2.426023   -0.950275
| 19> H      0.945635   -2.426023   -0.950275
| 20> H     -0.780734   -2.424674   -1.217851
| 21> *
| 22>
| 23>                          ****END OF INPUT****

CARTESIAN COORDINATES (ANGSTROEM)
---------------------------------
  C     -0.218611   -2.656740    0.856457
  C      0.218611    2.656740    0.856457
  C      0.001222    2.061425   -0.542357
  C     -0.001222   -2.061425   -0.542357
  C      0.001222   -0.601199   -0.556308
  C     -0.001222    0.601199   -0.556308
  H     -0.212880   -3.746339    0.811070
  H      0.212880    3.746339    0.811070
  H      1.174145    2.335610    1.270132
  H     -0.567645    2.337886    1.540172
  H      0.567645   -2.337886    1.540172
  H     -1.174145   -2.335610    1.270132
  H      0.780734    2.424674   -1.217851
  H     -0.945635    2.426023   -0.950275
  H      0.945635   -2.426023   -0.950275
  H     -0.780734   -2.424674   -1.217851

 Total Charge           Charge          ....    0
 Multiplicity           Mult            ....    1
 Number of Electrons    NEL             ....   46
 Basis Dimension        Dim             ....  940

ORBITAL ENERGIES
----------------

  NO   OCC          E(Eh)            E(eV)
   0   2.0000     -11.243436      -305.9494
   1   2.0000     -11.243435      -305.9494
   2   2.0000     -11.218166      -305.2618
   3   2.0000     -11.218166      -305.2618
   4   2.0000     -11.211764      -305.0876
   5   2.0000     -11.207932      -304.9833
   6   2.0000      -1.081288       -29.4234
   7   2.0000      -1.050580       -28.5877
   8   2.0000      -0.971405       -26.4333
   9   2.0000      -0.879739       -23.9389
  10   2.0000      -0.847593       -23.0642
  11   2.0000      -0.662542       -18.0287
  12   2.0000      -0.627415       -17.0728
  13   2.0000      -0.624375       -16.9901
  14   2.0000      -0.615214       -16.7408
  15   2.0000      -0.546053       -14.8589
  16   2.0000      -0.542754       -14.7691
  17   2.0000      -0.517573       -14.0839
  18   2.0000      -0.514806       -14.0086
  19   2.0000      -0.511267       -13.9123
  20   2.0000      -0.502648       -13.6778
  21   2.0000      -0.360624        -9.8131
  22   2.0000      -0.359216        -9.7748
  23   0.0000       0.026940         0.7331
  24   0.0000       0.027976         0.7613
  25   0.0000       0.035853         0.9756
  26   0.0000       0.036090         0.9821
  27   0.0000       0.046155         1.2559

MULLIKEN ATOMIC CHARGES
-----------------------
   0 C :   -0.903413
   1 C :   -0.903413
   2 C :   -0.176445
   3 C :   -0.176445
   4 C :   -0.179857
   5 C :   -0.179858
   6 H :    0.331145
   7 H :    0.331145
   8 H :    0.253435
   9 H :    0.245618
  10 H :    0.245618
  11 H :    0.253435
  12 H :    0.211735
  13 H :    0.217783
  14 H :    0.217783
  15 H :    0.211735
Sum of atomic charges:   -0.0000000

LOEWDIN ATOMIC CHARGES
----------------------
   0 C :    0.905011
   1 C :    0.905011
   2 C :    0.413044
   3 C :    0.413044
   4 C :    0.165372
   5 C :    0.165372
   6 H :   -0.287023
   7 H :   -0.287023
   8 H :   -0.289160
   9 H :   -0.288929
  10 H :   -0.288929
  11 H :   -0.289160
  12 H :   -0.309252
  13 H :   -0.309063
  14 H :   -0.309063
  15 H :   -0.309252

  Mayer bond orders larger than 0.100000
B(  0-C ,  3-C ) :   1.0355 B(  0-C ,  6-H ) :   0.9396 B(  0-C , 10-H ) :   0.9328
B(  0-C , 11-H ) :   0.9219 B(  1-C ,  2-C ) :   1.0355 B(  1-C ,  7-H ) :   0.9396
B(  1-C ,  8-H ) :   0.9219 B(  1-C ,  9-H ) :   0.9328 B(  2-C ,  5-C ) :   0.5951
B(  2-C , 12-H ) :   0.9704 B(  2-C , 13-H ) :   0.9546 B(  3-C ,  4-C ) :   0.5951
B(  3-C , 14-H ) :   0.9546 B(  3-C , 15-H ) :   0.9704 B(  4-C ,  5-C ) :   3.1100

MP2 TOTAL ENERGY:     -234.146056149 Eh
FINAL SINGLE POINT ENERGY      -234.146056149175

DIPOLE MOMENT
-------------
                                X             Y             Z
Electronic contribution:      0.00000      -0.00000      -3.00503
Nuclear contribution   :      0.00000      -0.00000       3.05671
                        -----------------------------------------
Total Dipole Moment    :      0.00000      -0.00000       0.05168
                        -----------------------------------------
Magnitude (a.u.)       :      0.05168
Magnitude (Debye)      :      0.13135

Rotational constants in cm-1:     0.318102     0.046562     0.041994
Rotational constants in MHz :  9536.444621  1395.900519  1258.940981

                             ****ORCA TERMINATED NORMALLY****
TOTAL RUN TIME: 0 days 0 hours 27 minutes 54 seconds 79 msec
