                         Program Version 5.0.4 -  RELEASE  -
|  1> !ri-mp2 aug-cc-pvqz aug-cc-pvqz/c tightscf
|  2> %pal nprocs 16 end
|  3>
|  4> * xyz 0 1
|  5> S    -0.671855   -1.153928    0.660705
|  6> S    -2.102626   -0.073495   -0.487708
|  7> O     2.806302    0.706910    0.014558
|  8> O     1.840814   -1.023297   -0.999049
|  9> C     0.592505    0.197419    0.742618
| 10> C     1.861261   -0.020299   -0.114890
| 11> C    -0.080754    1.484200    0.342170
| 12> C    -1.272181    1.455845   -0.241430
| 13> H     0.997209   -1.505143   -0.912903
| 14> H     0.933145    0.237738    1.777666
| 15> H     0.468066    2.404340    0.484590
| 16> H    -1.788640    2.329941   -0.612187
| 17> *
| 18>
| 19>                          ****END OF INPUT****

CARTESIAN COORDINATES (ANGSTROEM)
---------------------------------
  S     -0.671855   -1.153928    0.660705
  S     -2.102626   -0.073495   -0.487708
  O      2.806302    0.706910    0.014558
  O      1.840814   -1.023297   -0.999049
  C      0.592505    0.197419    0.742618
  C      1.861261   -0.020299   -0.114890
  C     -0.080754    1.484200    0.342170
  C     -1.272181    1.455845   -0.241430
  H      0.997209   -1.505143   -0.912903
  H      0.933145    0.237738    1.777666
  H      0.468066    2.404340    0.484590
  H     -1.788640    2.329941   -0.612187

 Total Charge           Charge          ....    0
 Multiplicity           Mult            ....    1
 Number of Electrons    NEL             ....   76
 Basis Dimension        Dim             ....  832

ORBITAL ENERGIES
----------------

  NO   OCC          E(Eh)            E(eV)
   0   2.0000     -92.011067     -2503.7484
   1   2.0000     -92.010428     -2503.7310
   2   2.0000     -20.618677      -561.0627
   3   2.0000     -20.552859      -559.2717
   4   2.0000     -11.399406      -310.1936
   5   2.0000     -11.321453      -308.0724
   6   2.0000     -11.299477      -307.4744
   7   2.0000     -11.274859      -306.8045
   8   2.0000      -9.010975      -245.2011
   9   2.0000      -9.010577      -245.1903
  10   2.0000      -6.692203      -182.1041
  11   2.0000      -6.691671      -182.0896
  12   2.0000      -6.691167      -182.0759
  13   2.0000      -6.690793      -182.0657
  14   2.0000      -6.689942      -182.0426
  15   2.0000      -6.689700      -182.0360
  16   2.0000      -1.472734       -40.0751
  17   2.0000      -1.376983       -37.4696
  18   2.0000      -1.174032       -31.9470
  19   2.0000      -1.044582       -28.4245
  20   2.0000      -1.018192       -27.7064
  21   2.0000      -0.878767       -23.9125
  22   2.0000      -0.827099       -22.5065
  23   2.0000      -0.788533       -21.4571
  24   2.0000      -0.734380       -19.9835
  25   2.0000      -0.701181       -19.0801
  26   2.0000      -0.670218       -18.2376
  27   2.0000      -0.650830       -17.7100
  28   2.0000      -0.591885       -16.1060
  29   2.0000      -0.588566       -16.0157
  30   2.0000      -0.538294       -14.6477
  31   2.0000      -0.530995       -14.4491
  32   2.0000      -0.495715       -13.4891
  33   2.0000      -0.491151       -13.3649
  34   2.0000      -0.475336       -12.9346
  35   2.0000      -0.459199       -12.4954
  36   2.0000      -0.415758       -11.3134
  37   2.0000      -0.332232        -9.0405
  38   0.0000       0.021464         0.5841
  39   0.0000       0.027872         0.7584
  40   0.0000       0.035178         0.9573
  41   0.0000       0.041659         1.1336
  42   0.0000       0.048649         1.3238

MULLIKEN ATOMIC CHARGES
-----------------------
   0 S :   -0.132881
   1 S :    0.009500
   2 O :   -0.790920
   3 O :   -0.766169
   4 C :   -0.200596
   5 C :    1.212281
   6 C :   -0.431824
   7 C :   -0.503714
   8 H :    0.413303
   9 H :    0.348602
  10 H :    0.444996
  11 H :    0.397421
Sum of atomic charges:    0.0000000

LOEWDIN ATOMIC CHARGES
----------------------
   0 S :    0.886374
   1 S :    0.843269
   2 O :    0.676783
   3 O :    1.232089
   4 C :   -0.370568
   5 C :   -1.107383
   6 C :    0.147295
   7 C :   -0.180731
   8 H :   -0.985636
   9 H :   -0.397030
  10 H :   -0.324568
  11 H :   -0.419895

  Mayer bond orders larger than 0.100000
B(  0-S ,  1-S ) :   1.0710 B(  0-S ,  4-C ) :   0.8842 B(  1-S ,  7-C ) :   0.9576
B(  2-O ,  4-C ) :   0.1458 B(  2-O ,  5-C ) :   1.4356 B(  3-O ,  5-C ) :   0.7533
B(  3-O ,  8-H ) :   0.7870 B(  4-C ,  5-C ) :   1.0115 B(  4-C ,  6-C ) :   0.8512
B(  4-C ,  7-C ) :  -0.1312 B(  4-C ,  9-H ) :   0.8004 B(  6-C ,  7-C ) :   1.7357
B(  6-C , 10-H ) :   0.7878 B(  7-C , 11-H ) :   0.8457

MP2 TOTAL ENERGY:    -1100.313627131 Eh
FINAL SINGLE POINT ENERGY     -1100.313627130555

DIPOLE MOMENT
-------------
                                X             Y             Z
Electronic contribution:     -2.05888      -3.20523      -0.34426
Nuclear contribution   :      0.74033       3.37081       0.68991
                        -----------------------------------------
Total Dipole Moment    :     -1.31855       0.16557       0.34565
                        -----------------------------------------
Magnitude (a.u.)       :      1.37312
Magnitude (Debye)      :      3.49020

Rotational constants in cm-1:     0.091321     0.036787     0.031178
Rotational constants in MHz :  2737.746821  1102.861138   934.702848

                             ****ORCA TERMINATED NORMALLY****
TOTAL RUN TIME: 0 days 0 hours 32 minutes 1 seconds 488 msec
