                         Program Version 5.0.4 -  RELEASE  -
|  1> !ri-mp2 aug-cc-pvqz aug-cc-pvqz/c tightscf
|  2> %pal nprocs 16 end
|  3>
|  4> * xyz 0 1
|  5> S      1.295602   -0.412017    0.082747
|  6> S     -0.664803   -1.162627   -0.093069
|  7> N     -0.479291    1.584298   -0.083568
|  8> C      0.738128    1.267662   -0.100668
|  9> C     -1.435059    0.543003    0.155054
| 10> H      1.524832    2.007293   -0.203172
| 11> H     -2.263985    0.603202   -0.546612
| 12> H     -1.817015    0.629721    1.173604
| 13> *
| 14>
| 15>                          ****END OF INPUT****

CARTESIAN COORDINATES (ANGSTROEM)
---------------------------------
  S      1.295602   -0.412017    0.082747
  S     -0.664803   -1.162627   -0.093069
  N     -0.479291    1.584298   -0.083568
  C      0.738128    1.267662   -0.100668
  C     -1.435059    0.543003    0.155054
  H      1.524832    2.007293   -0.203172
  H     -2.263985    0.603202   -0.546612
  H     -1.817015    0.629721    1.173604

 Total Charge           Charge          ....    0
 Multiplicity           Mult            ....    1
 Number of Electrons    NEL             ....   54
 Basis Dimension        Dim             ....  546

ORBITAL ENERGIES
----------------

  NO   OCC          E(Eh)            E(eV)
   0   2.0000     -91.997322     -2503.3744
   1   2.0000     -91.983198     -2502.9901
   2   2.0000     -15.586108      -424.1196
   3   2.0000     -11.331976      -308.3588
   4   2.0000     -11.312501      -307.8288
   5   2.0000      -8.997741      -244.8410
   6   2.0000      -8.983195      -244.4452
   7   2.0000      -6.678861      -181.7410
   8   2.0000      -6.677982      -181.7171
   9   2.0000      -6.676819      -181.6855
  10   2.0000      -6.664366      -181.3466
  11   2.0000      -6.663302      -181.3177
  12   2.0000      -6.662118      -181.2855
  13   2.0000      -1.279063       -34.8051
  14   2.0000      -1.049909       -28.5695
  15   2.0000      -1.019806       -27.7503
  16   2.0000      -0.841615       -22.9015
  17   2.0000      -0.788705       -21.4617
  18   2.0000      -0.656147       -17.8547
  19   2.0000      -0.645232       -17.5577
  20   2.0000      -0.621767       -16.9191
  21   2.0000      -0.500517       -13.6198
  22   2.0000      -0.486553       -13.2398
  23   2.0000      -0.477410       -12.9910
  24   2.0000      -0.431713       -11.7475
  25   2.0000      -0.416301       -11.3281
  26   2.0000      -0.324669        -8.8347
  27   0.0000       0.026617         0.7243
  28   0.0000       0.032546         0.8856
  29   0.0000       0.040520         1.1026
  30   0.0000       0.050003         1.3607
  31   0.0000       0.057088         1.5534

MULLIKEN ATOMIC CHARGES
-----------------------
   0 S :    0.099946
   1 S :   -0.097943
   2 N :   -0.477167
   3 C :   -0.369004
   4 C :   -0.259487
   5 H :    0.537472
   6 H :    0.300057
   7 H :    0.266126
Sum of atomic charges:   -0.0000000

LOEWDIN ATOMIC CHARGES
----------------------
   0 S :    0.739852
   1 S :    0.728005
   2 N :    0.427226
   3 C :   -0.462871
   4 C :   -0.171999
   5 H :   -0.450886
   6 H :   -0.412302
   7 H :   -0.397025

  Mayer bond orders larger than 0.100000
B(  0-S ,  1-S ) :   1.0513 B(  0-S ,  3-C ) :   1.0536 B(  1-S ,  4-C ) :   0.9700
B(  2-N ,  3-C ) :   1.7777 B(  2-N ,  4-C ) :   0.9016 B(  3-C ,  5-H ) :   0.6651
B(  4-C ,  6-H ) :   0.8840 B(  4-C ,  7-H ) :   0.8876

MP2 TOTAL ENERGY:     -928.002532289 Eh
FINAL SINGLE POINT ENERGY      -928.002532288926

DIPOLE MOMENT
-------------
                                X             Y             Z
Electronic contribution:      2.46045      -2.91301      -0.28929
Nuclear contribution   :     -2.48634       3.18029       0.40851
                        -----------------------------------------
Total Dipole Moment    :     -0.02588       0.26727       0.11923
                        -----------------------------------------
Magnitude (a.u.)       :      0.29380
Magnitude (Debye)      :      0.74679

Rotational constants in cm-1:     0.147725     0.145195     0.074998
Rotational constants in MHz :  4428.683835  4352.839523  2248.378524

                             ****ORCA TERMINATED NORMALLY****
TOTAL RUN TIME: 0 days 0 hours 7 minutes 25 seconds 405 msec
