                         Program Version 5.0.4 -  RELEASE  -
|  1> !ri-mp2 aug-cc-pvqz aug-cc-pvqz/c tightscf
|  2> %pal nprocs 16 end
|  3> %maxcore 3800
|  4>
|  5> * xyz 0 1
|  6> C      4.015672    0.099100    0.289449
|  7> C     -3.659890   -0.381305    0.397793
|  8> C     -1.312953    1.589945   -0.274353
|  9> C      2.736727   -0.537959   -0.251184
| 10> C     -2.319478   -0.745039   -0.241002
| 11> C      1.463534    0.175911    0.206921
| 12> C      0.184875   -0.466156   -0.335149
| 13> C     -1.132203    0.137622    0.180181
| 14> H      4.109221    1.136544   -0.038345
| 15> H      4.025788    0.097510    1.381427
| 16> H      4.903264   -0.436410   -0.050520
| 17> H     -3.592023   -0.395135    1.487967
| 18> H     -4.434015   -1.093105    0.107456
| 19> H     -4.003439    0.609778    0.100382
| 20> H     -0.491110    2.223149    0.059161
| 21> H     -1.356401    1.648509   -1.365506
| 22> H     -2.232244    2.024627    0.117681
| 23> H      2.769370   -0.548538   -1.344870
| 24> H      2.692400   -1.586189    0.059526
| 25> H     -2.414267   -0.714025   -1.331790
| 26> H     -2.082615   -1.782577    0.011079
| 27> H      1.429172    0.178672    1.301980
| 28> H      1.519308    1.224408   -0.097653
| 29> H      0.198956   -1.530706   -0.080311
| 30> H      0.192317   -0.418766   -1.430343
| 31> H     -1.091387    0.129538    1.276747
| 32> *
| 33>
| 34>                          ****END OF INPUT****

CARTESIAN COORDINATES (ANGSTROEM)
---------------------------------
  C      4.015672    0.099100    0.289449
  C     -3.659890   -0.381305    0.397793
  C     -1.312953    1.589945   -0.274353
  C      2.736727   -0.537959   -0.251184
  C     -2.319478   -0.745039   -0.241002
  C      1.463534    0.175911    0.206921
  C      0.184875   -0.466156   -0.335149
  C     -1.132203    0.137622    0.180181
  H      4.109221    1.136544   -0.038345
  H      4.025788    0.097510    1.381427
  H      4.903264   -0.436410   -0.050520
  H     -3.592023   -0.395135    1.487967
  H     -4.434015   -1.093105    0.107456
  H     -4.003439    0.609778    0.100382
  H     -0.491110    2.223149    0.059161
  H     -1.356401    1.648509   -1.365506
  H     -2.232244    2.024627    0.117681
  H      2.769370   -0.548538   -1.344870
  H      2.692400   -1.586189    0.059526
  H     -2.414267   -0.714025   -1.331790
  H     -2.082615   -1.782577    0.011079
  H      1.429172    0.178672    1.301980
  H      1.519308    1.224408   -0.097653
  H      0.198956   -1.530706   -0.080311
  H      0.192317   -0.418766   -1.430343
  H     -1.091387    0.129538    1.276747

 Total Charge           Charge          ....    0
 Multiplicity           Mult            ....    1
 Number of Electrons    NEL             ....   66
 Basis Dimension        Dim             .... 1468

ORBITAL ENERGIES
----------------

  NO   OCC          E(Eh)            E(eV)
   0   2.0000     -11.218495      -305.2708
   1   2.0000     -11.213133      -305.1249
   2   2.0000     -11.211822      -305.0892
   3   2.0000     -11.210463      -305.0522
   4   2.0000     -11.209430      -305.0241
   5   2.0000     -11.207369      -304.9680
   6   2.0000     -11.206935      -304.9562
   7   2.0000     -11.204575      -304.8920
   8   2.0000      -1.098516       -29.8921
   9   2.0000      -1.055214       -28.7138
  10   2.0000      -0.993389       -27.0315
  11   2.0000      -0.952331       -25.9142
  12   2.0000      -0.889158       -24.1952
  13   2.0000      -0.834933       -22.7197
  14   2.0000      -0.786180       -21.3930
  15   2.0000      -0.757932       -20.6244
  16   2.0000      -0.646306       -17.5869
  17   2.0000      -0.622727       -16.9453
  18   2.0000      -0.608024       -16.5452
  19   2.0000      -0.588768       -16.0212
  20   2.0000      -0.572864       -15.5884
  21   2.0000      -0.561292       -15.2735
  22   2.0000      -0.542153       -14.7527
  23   2.0000      -0.527913       -14.3652
  24   2.0000      -0.513426       -13.9710
  25   2.0000      -0.505178       -13.7466
  26   2.0000      -0.491858       -13.3841
  27   2.0000      -0.481554       -13.1037
  28   2.0000      -0.469212       -12.7679
  29   2.0000      -0.460625       -12.5343
  30   2.0000      -0.451860       -12.2957
  31   2.0000      -0.442517       -12.0415
  32   2.0000      -0.427670       -11.6375
  33   0.0000       0.025966         0.7066
  34   0.0000       0.027669         0.7529
  35   0.0000       0.030722         0.8360
  36   0.0000       0.032058         0.8723
  37   0.0000       0.040750         1.1089

MULLIKEN ATOMIC CHARGES
-----------------------
   0 C :   -0.901253
   1 C :   -0.883302
   2 C :   -1.115334
   3 C :   -0.540963
   4 C :   -0.625306
   5 C :   -0.145659
   6 C :   -0.332289
   7 C :    0.406904
   8 H :    0.219453
   9 H :    0.222564
  10 H :    0.266506
  11 H :    0.191235
  12 H :    0.272903
  13 H :    0.223058
  14 H :    0.306126
  15 H :    0.180939
  16 H :    0.288915
  17 H :    0.234177
  18 H :    0.216041
  19 H :    0.208516
  20 H :    0.222484
  21 H :    0.220729
  22 H :    0.218194
  23 H :    0.277065
  24 H :    0.185260
  25 H :    0.183036
Sum of atomic charges:    0.0000000

LOEWDIN ATOMIC CHARGES
----------------------
   0 C :    0.928096
   1 C :    0.936374
   2 C :    0.933541
   3 C :    0.514197
   4 C :    0.511226
   5 C :    0.521296
   6 C :    0.522045
   7 C :    0.127458
   8 H :   -0.285131
   9 H :   -0.285320
  10 H :   -0.284885
  11 H :   -0.276849
  12 H :   -0.280213
  13 H :   -0.297250
  14 H :   -0.287865
  15 H :   -0.264209
  16 H :   -0.289979
  17 H :   -0.270822
  18 H :   -0.273255
  19 H :   -0.265823
  20 H :   -0.280278
  21 H :   -0.261070
  22 H :   -0.284103
  23 H :   -0.276406
  24 H :   -0.258721
  25 H :   -0.272052

  Mayer bond orders larger than 0.100000
B(  0-C ,  3-C ) :   1.0575 B(  0-C ,  5-C ) :  -0.1739 B(  0-C ,  8-H ) :   0.9591
B(  0-C ,  9-H ) :   0.9586 B(  0-C , 10-H ) :   1.0324 B(  1-C ,  4-C ) :   0.9495
B(  1-C ,  7-C ) :  -0.1240 B(  1-C , 11-H ) :   0.9856 B(  1-C , 12-H ) :   1.0155
B(  1-C , 13-H ) :   0.9771 B(  2-C ,  4-C ) :   0.1495 B(  2-C ,  6-C ) :   0.1074
B(  2-C ,  7-C ) :   0.4811 B(  2-C , 14-H ) :   0.9727 B(  2-C , 15-H ) :   1.0336
B(  2-C , 16-H ) :   1.0371 B(  3-C ,  5-C ) :   0.9433 B(  3-C , 10-H ) :  -0.1028
B(  3-C , 17-H ) :   0.8707 B(  3-C , 18-H ) :   0.9064 B(  4-C ,  7-C ) :   0.7124
B(  4-C , 12-H ) :  -0.1155 B(  4-C , 19-H ) :   0.9395 B(  4-C , 20-H ) :   0.9453
B(  5-C ,  6-C ) :   0.8997 B(  5-C ,  7-C ) :  -0.1110 B(  5-C , 21-H ) :   0.8655
B(  5-C , 22-H ) :   0.8668 B(  6-C ,  7-C ) :   0.8976 B(  6-C , 23-H ) :   0.8597
B(  6-C , 24-H ) :   0.8851 B(  7-C , 25-H ) :   0.9705

MP2 TOTAL ENERGY:     -315.078311539 Eh
FINAL SINGLE POINT ENERGY      -315.078311538645

DIPOLE MOMENT
-------------
                                X             Y             Z
Electronic contribution:     -0.15222      -0.86335      -0.16874
Nuclear contribution   :      0.15440       0.83258       0.17803
                        -----------------------------------------
Total Dipole Moment    :      0.00218      -0.03077       0.00929
                        -----------------------------------------
Magnitude (a.u.)       :      0.03222
Magnitude (Debye)      :      0.08189

Rotational constants in cm-1:     0.179402     0.022822     0.021411
Rotational constants in MHz :  5378.351231   684.176547   641.874287

                             ****ORCA TERMINATED NORMALLY****
TOTAL RUN TIME: 0 days 2 hours 9 minutes 50 seconds 445 msec
