                         Program Version 5.0.4 -  RELEASE  -
|  1> !ri-mp2 aug-cc-pvqz aug-cc-pvqz/c tightscf
|  2> %pal nprocs 16 end
|  3>
|  4> * xyz 0 1
|  5> C      1.869828   -0.647799        0.000000
|  6> C      1.019117   -1.742447        0.000000
|  7> C      1.374486    0.652998        0.000000
|  8> C     -0.877502   -0.243979        0.000000
|  9> C     -0.358346   -1.536330        0.000000
| 10> C      0.000000    0.831402        0.000000
| 11> O     -1.160637   -2.640733        0.000000
| 12> Cl    -0.660272    2.455830        0.000000
| 13> H      2.939624   -0.806173        0.000000
| 14> H      1.400483   -2.753177        0.000000
| 15> H      2.036335    1.505248        0.000000
| 16> H     -1.945745   -0.074236        0.000000
| 17> H     -2.086473   -2.377981        0.000000
| 18> *
| 19>
| 20>                          ****END OF INPUT****

CARTESIAN COORDINATES (ANGSTROEM)
---------------------------------
  C      1.869828   -0.647799    0.000000
  C      1.019117   -1.742447    0.000000
  C      1.374486    0.652998    0.000000
  C     -0.877502   -0.243979    0.000000
  C     -0.358346   -1.536330    0.000000
  C      0.000000    0.831402    0.000000
  O     -1.160637   -2.640733    0.000000
  Cl    -0.660272    2.455830    0.000000
  H      2.939624   -0.806173    0.000000
  H      1.400483   -2.753177    0.000000
  H      2.036335    1.505248    0.000000
  H     -1.945745   -0.074236    0.000000
  H     -2.086473   -2.377981    0.000000

 Total Charge           Charge          ....    0
 Multiplicity           Mult            ....    1
 Number of Electrons    NEL             ....   66
 Basis Dimension        Dim             ....  874

ORBITAL ENERGIES
----------------

  NO   OCC          E(Eh)            E(eV)
   0   2.0000    -104.842428     -2852.9075
   1   2.0000     -20.600690      -560.5733
   2   2.0000     -11.318871      -308.0021
   3   2.0000     -11.312110      -307.8182
   4   2.0000     -11.254431      -306.2486
   5   2.0000     -11.248666      -306.0918
   6   2.0000     -11.241633      -305.9004
   7   2.0000     -11.238322      -305.8103
   8   2.0000     -10.567642      -287.5602
   9   2.0000      -8.034758      -218.6369
  10   2.0000      -8.033038      -218.5901
  11   2.0000      -8.032999      -218.5890
  12   2.0000      -1.418193       -38.5910
  13   2.0000      -1.191187       -32.4138
  14   2.0000      -1.118446       -30.4345
  15   2.0000      -1.028995       -28.0004
  16   2.0000      -1.003198       -27.2984
  17   2.0000      -0.862931       -23.4816
  18   2.0000      -0.824542       -22.4369
  19   2.0000      -0.745932       -20.2979
  20   2.0000      -0.701543       -19.0900
  21   2.0000      -0.668270       -18.1845
  22   2.0000      -0.620881       -16.8950
  23   2.0000      -0.605984       -16.4897
  24   2.0000      -0.594790       -16.1851
  25   2.0000      -0.586964       -15.9721
  26   2.0000      -0.540942       -14.7198
  27   2.0000      -0.534573       -14.5465
  28   2.0000      -0.511023       -13.9057
  29   2.0000      -0.462264       -12.5788
  30   2.0000      -0.458968       -12.4891
  31   2.0000      -0.351173        -9.5559
  32   2.0000      -0.328282        -8.9330
  33   0.0000       0.023421         0.6373
  34   0.0000       0.027102         0.7375
  35   0.0000       0.033896         0.9224
  36   0.0000       0.044863         1.2208
  37   0.0000       0.047735         1.2989

MULLIKEN ATOMIC CHARGES
-----------------------
   0 C :   -0.399070
   1 C :   -0.395212
   2 C :   -0.078667
   3 C :   -0.442338
   4 C :    1.024066
   5 C :   -0.381164
   6 O :   -0.781702
   7 Cl:   -0.330537
   8 H :    0.216776
   9 H :    0.368249
  10 H :    0.452126
  11 H :    0.385487
  12 H :    0.361986
Sum of atomic charges:    0.0000000

LOEWDIN ATOMIC CHARGES
----------------------
   0 C :    0.318770
   1 C :    0.322619
   2 C :    0.196963
   3 C :    0.187933
   4 C :   -0.447968
   5 C :   -0.852813
   6 O :    1.276925
   7 Cl:    1.174259
   8 H :   -0.319517
   9 H :   -0.328284
  10 H :   -0.364235
  11 H :   -0.363749
  12 H :   -0.800903

  Mayer bond orders larger than 0.100000
B(  0-C ,  1-C ) :   1.2485 B(  0-C ,  2-C ) :   1.2243 B(  0-C ,  4-C ) :  -0.2057
B(  0-C ,  5-C ) :  -0.1059 B(  0-C ,  8-H ) :   1.1593 B(  1-C ,  4-C ) :   1.2725
B(  1-C ,  6-O ) :   0.2686 B(  1-C ,  8-H ) :  -0.1252 B(  1-C ,  9-H ) :   0.8887
B(  2-C ,  5-C ) :   1.2029 B(  2-C ,  7-Cl) :  -0.1776 B(  2-C ,  8-H ) :  -0.1010
B(  2-C , 10-H ) :   0.8298 B(  3-C ,  4-C ) :   1.3589 B(  3-C ,  5-C ) :   1.2857
B(  3-C ,  6-O ) :   0.2423 B(  3-C ,  7-Cl) :  -0.2143 B(  3-C , 11-H ) :   0.8983
B(  4-C ,  5-C ) :  -0.1957 B(  5-C ,  7-Cl) :   1.1152 B(  6-O , 12-H ) :   0.8870

MP2 TOTAL ENERGY:     -766.106485497 Eh
FINAL SINGLE POINT ENERGY      -766.106485496658

DIPOLE MOMENT
-------------
                                X             Y             Z
Electronic contribution:     -3.23896       7.43881      -0.00000
Nuclear contribution   :      3.15339      -7.77262       0.00000
                        -----------------------------------------
Total Dipole Moment    :     -0.08557      -0.33381      -0.00000
                        -----------------------------------------
Magnitude (a.u.)       :      0.34461
Magnitude (Debye)      :      0.87592

Rotational constants in cm-1:     0.115320     0.039485     0.029414
Rotational constants in MHz :  3457.209224  1183.731618   881.805653

                             ****ORCA TERMINATED NORMALLY****
TOTAL RUN TIME: 0 days 0 hours 34 minutes 17 seconds 990 msec
