                         Program Version 5.0.4 -  RELEASE  -
|  1> !ri-mp2 aug-cc-pvqz aug-cc-pvqz/c tightscf
|  2> %pal nprocs 16 end
|  3>
|  4> * xyz 0 1
|  5> C      2.222154   -0.206522   -0.305896
|  6> C      1.135350   -0.117984    0.450291
|  7> C     -0.025341    0.749869    0.122211
|  8> Cl    -1.546037   -0.242264   -0.108197
|  9> H      3.058152   -0.830798   -0.022178
| 10> H      2.314549    0.344401   -1.233886
| 11> H      1.060566   -0.687381    1.369728
| 12> H     -0.264925    1.439219    0.927711
| 13> H      0.121308    1.300880   -0.801666
| 14> *
| 15>
| 16>                          ****END OF INPUT****

CARTESIAN COORDINATES (ANGSTROEM)
---------------------------------
  C      2.222154   -0.206522   -0.305896
  C      1.135350   -0.117984    0.450291
  C     -0.025341    0.749869    0.122211
  Cl    -1.546037   -0.242264   -0.108197
  H      3.058152   -0.830798   -0.022178
  H      2.314549    0.344401   -1.233886
  H      1.060566   -0.687381    1.369728
  H     -0.264925    1.439219    0.927711
  H      0.121308    1.300880   -0.801666

 Total Charge           Charge          ....    0
 Multiplicity           Mult            ....    1
 Number of Electrons    NEL             ....   40
 Basis Dimension        Dim             ....  554

ORBITAL ENERGIES
----------------

  NO   OCC          E(Eh)            E(eV)
   0   2.0000    -104.820661     -2852.3152
   1   2.0000     -11.301962      -307.5420
   2   2.0000     -11.250990      -306.1550
   3   2.0000     -11.241121      -305.8865
   4   2.0000     -10.545896      -286.9684
   5   2.0000      -8.012882      -218.0416
   6   2.0000      -8.011275      -217.9979
   7   2.0000      -8.011239      -217.9969
   8   2.0000      -1.138320       -30.9753
   9   2.0000      -1.055537       -28.7226
  10   2.0000      -0.917878       -24.9767
  11   2.0000      -0.782603       -21.2957
  12   2.0000      -0.670954       -18.2576
  13   2.0000      -0.625178       -17.0119
  14   2.0000      -0.592112       -16.1122
  15   2.0000      -0.540297       -14.7022
  16   2.0000      -0.525065       -14.2877
  17   2.0000      -0.439253       -11.9527
  18   2.0000      -0.434198       -11.8151
  19   2.0000      -0.382569       -10.4102
  20   0.0000       0.025951         0.7062
  21   0.0000       0.033043         0.8991
  22   0.0000       0.034234         0.9316
  23   0.0000       0.048434         1.3179
  24   0.0000       0.052612         1.4316

MULLIKEN ATOMIC CHARGES
-----------------------
   0 C :   -0.905445
   1 C :   -0.367315
   2 C :   -0.283897
   3 Cl:   -0.313280
   4 H :    0.389394
   5 H :    0.373751
   6 H :    0.498235
   7 H :    0.304793
   8 H :    0.303765
Sum of atomic charges:   -0.0000000

LOEWDIN ATOMIC CHARGES
----------------------
   0 C :    0.779881
   1 C :    0.221026
   2 C :   -0.160479
   3 Cl:    1.061671
   4 H :   -0.353168
   5 H :   -0.354785
   6 H :   -0.355121
   7 H :   -0.410874
   8 H :   -0.428151

  Mayer bond orders larger than 0.100000
B(  0-C ,  1-C ) :   1.8373 B(  0-C ,  4-H ) :   0.9122 B(  0-C ,  5-H ) :   0.8606
B(  1-C ,  2-C ) :   0.8896 B(  1-C ,  6-H ) :   0.7122 B(  2-C ,  3-Cl) :   0.9204
B(  2-C ,  7-H ) :   0.8577 B(  2-C ,  8-H ) :   0.8890

MP2 TOTAL ENERGY:     -576.807928968 Eh
FINAL SINGLE POINT ENERGY      -576.807928967967

DIPOLE MOMENT
-------------
                                X             Y             Z
Electronic contribution:     -7.55072      -1.44598      -0.28083
Nuclear contribution   :      8.34562       1.87784       0.38727
                        -----------------------------------------
Total Dipole Moment    :      0.79491       0.43186       0.10644
                        -----------------------------------------
Magnitude (a.u.)       :      0.91089
Magnitude (Debye)      :      2.31529

Rotational constants in cm-1:     0.715377     0.091811     0.088994
Rotational constants in MHz : 21446.448656  2752.431201  2667.987821

                             ****ORCA TERMINATED NORMALLY****
TOTAL RUN TIME: 0 days 0 hours 5 minutes 57 seconds 239 msec
