                         Program Version 5.0.4 -  RELEASE  -
|  1> !ri-mp2 aug-cc-pvqz aug-cc-pvqz/c tightscf
|  2> %pal nprocs 16 end
|  3>
|  4> * xyz 0 1
|  5> Cl     0.811282    1.486375   -0.113059
|  6> Cl     0.811397   -1.486324   -0.112983
|  7> C     -0.023639    0.000009    0.490782
|  8> C     -1.414266   -0.000051    0.121661
|  9> C     -2.577535   -0.000087   -0.162983
| 10> H      0.115063    0.000040    1.565162
| 11> H     -3.607963   -0.000119   -0.419211
| 12> *
| 13>
| 14>                          ****END OF INPUT****

CARTESIAN COORDINATES (ANGSTROEM)
---------------------------------
  Cl     0.811282    1.486375   -0.113059
  Cl     0.811397   -1.486324   -0.112983
  C     -0.023639    0.000009    0.490782
  C     -1.414266   -0.000051    0.121661
  C     -2.577535   -0.000087   -0.162983
  H      0.115063    0.000040    1.565162
  H     -3.607963   -0.000119   -0.419211

 Total Charge           Charge          ....    0
 Multiplicity           Mult            ....    1
 Number of Electrons    NEL             ....   54
 Basis Dimension        Dim             ....  500

ORBITAL ENERGIES
----------------

  NO   OCC          E(Eh)            E(eV)
   0   2.0000    -104.853887     -2853.2193
   1   2.0000    -104.853887     -2853.2193
   2   2.0000     -11.400195      -310.2151
   3   2.0000     -11.264934      -306.5344
   4   2.0000     -11.260011      -306.4005
   5   2.0000     -10.578932      -287.8674
   6   2.0000     -10.578924      -287.8672
   7   2.0000      -8.045902      -218.9401
   8   2.0000      -8.045900      -218.9401
   9   2.0000      -8.044029      -218.8892
  10   2.0000      -8.044029      -218.8892
  11   2.0000      -8.043973      -218.8876
  12   2.0000      -8.043972      -218.8876
  13   2.0000      -1.205227       -32.7959
  14   2.0000      -1.097705       -29.8701
  15   2.0000      -1.060648       -28.8617
  16   2.0000      -0.931921       -25.3589
  17   2.0000      -0.758399       -20.6371
  18   2.0000      -0.704441       -19.1688
  19   2.0000      -0.633694       -17.2437
  20   2.0000      -0.602175       -16.3860
  21   2.0000      -0.488165       -13.2836
  22   2.0000      -0.482615       -13.1326
  23   2.0000      -0.460469       -12.5300
  24   2.0000      -0.452167       -12.3041
  25   2.0000      -0.421548       -11.4709
  26   2.0000      -0.417979       -11.3738
  27   0.0000       0.024360         0.6629
  28   0.0000       0.030603         0.8327
  29   0.0000       0.054862         1.4929
  30   0.0000       0.056628         1.5409
  31   0.0000       0.069166         1.8821

MULLIKEN ATOMIC CHARGES
-----------------------
   0 Cl:   -0.214230
   1 Cl:   -0.214231
   2 C :    0.054595
   3 C :    0.107624
   4 C :   -0.661182
   5 H :    0.414950
   6 H :    0.512475
Sum of atomic charges:   -0.0000000

LOEWDIN ATOMIC CHARGES
----------------------
   0 Cl:    1.040900
   1 Cl:    1.040898
   2 C :   -1.366989
   3 C :   -0.225025
   4 C :    0.538708
   5 H :   -0.577986
   6 H :   -0.450507

  Mayer bond orders larger than 0.100000
B(  0-Cl,  2-C ) :   0.9329 B(  0-Cl,  3-C ) :  -0.1071 B(  1-Cl,  2-C ) :   0.9329
B(  1-Cl,  3-C ) :  -0.1071 B(  2-C ,  3-C ) :   0.9340 B(  2-C ,  4-C ) :  -0.1495
B(  2-C ,  5-H ) :   0.7433 B(  3-C ,  4-C ) :   2.6824 B(  4-C ,  6-H ) :   0.8019

MP2 TOTAL ENERGY:    -1034.697275824 Eh
FINAL SINGLE POINT ENERGY     -1034.697275824328

DIPOLE MOMENT
-------------
                                X             Y             Z
Electronic contribution:      4.72981       0.00013      -0.99454
Nuclear contribution   :     -5.41207      -0.00014       1.36767
                        -----------------------------------------
Total Dipole Moment    :     -0.68226      -0.00001       0.37313
                        -----------------------------------------
Magnitude (a.u.)       :      0.77763
Magnitude (Debye)      :      1.97658

Rotational constants in cm-1:     0.103075     0.099015     0.052680
Rotational constants in MHz :  3090.099394  2968.382434  1579.299970

                             ****ORCA TERMINATED NORMALLY****
TOTAL RUN TIME: 0 days 0 hours 4 minutes 47 seconds 142 msec
