                         Program Version 5.0.4 -  RELEASE  -
|  1> !ri-mp2 aug-cc-pvqz aug-cc-pvqz/c tightscf
|  2> %pal nprocs 16 end
|  3>
|  4> * xyz 0 1
|  5> F     -1.641036   -0.642024   -0.961587
|  6> N      1.087050   -0.943365    0.151427
|  7> N      1.749753    0.051367   -0.134059
|  8> N      2.441943    0.885774   -0.448358
|  9> C     -0.170884   -0.683104    0.894190
| 10> C     -1.185976    0.068769    0.096722
| 11> C     -1.642697    1.288657    0.320483
| 12> H     -0.554963   -1.669771    1.144246
| 13> H      0.032320   -0.144959    1.821789
| 14> H     -2.385849    1.733728   -0.323978
| 15> H     -1.276059    1.856850    1.160784
| 16> *
| 17>
| 18>                          ****END OF INPUT****

CARTESIAN COORDINATES (ANGSTROEM)
---------------------------------
  F     -1.641036   -0.642024   -0.961587
  N      1.087050   -0.943365    0.151427
  N      1.749753    0.051367   -0.134059
  N      2.441943    0.885774   -0.448358
  C     -0.170884   -0.683104    0.894190
  C     -1.185976    0.068769    0.096722
  C     -1.642697    1.288657    0.320483
  H     -0.554963   -1.669771    1.144246
  H      0.032320   -0.144959    1.821789
  H     -2.385849    1.733728   -0.323978
  H     -1.276059    1.856850    1.160784

 Total Charge           Charge          ....    0
 Multiplicity           Mult            ....    1
 Number of Electrons    NEL             ....   52
 Basis Dimension        Dim             ....  744

ORBITAL ENERGIES
----------------

  NO   OCC          E(Eh)            E(eV)
   0   2.0000     -26.310612      -715.9481
   1   2.0000     -15.786828      -429.5814
   2   2.0000     -15.671470      -426.4424
   3   2.0000     -15.612052      -424.8255
   4   2.0000     -11.340714      -308.5965
   5   2.0000     -11.303009      -307.5705
   6   2.0000     -11.244660      -305.9827
   7   2.0000      -1.629122       -44.3307
   8   2.0000      -1.513055       -41.1723
   9   2.0000      -1.301540       -35.4167
  10   2.0000      -1.097662       -29.8689
  11   2.0000      -0.998346       -27.1664
  12   2.0000      -0.829159       -22.5626
  13   2.0000      -0.765161       -20.8211
  14   2.0000      -0.729555       -19.8522
  15   2.0000      -0.722994       -19.6737
  16   2.0000      -0.699986       -19.0476
  17   2.0000      -0.692953       -18.8562
  18   2.0000      -0.686295       -18.6750
  19   2.0000      -0.657201       -17.8834
  20   2.0000      -0.599961       -16.3258
  21   2.0000      -0.586405       -15.9569
  22   2.0000      -0.570362       -15.5203
  23   2.0000      -0.452363       -12.3094
  24   2.0000      -0.395858       -10.7718
  25   2.0000      -0.385765       -10.4972
  26   0.0000       0.023683         0.6444
  27   0.0000       0.031189         0.8487
  28   0.0000       0.036065         0.9814
  29   0.0000       0.049913         1.3582
  30   0.0000       0.057918         1.5760

MULLIKEN ATOMIC CHARGES
-----------------------
   0 F :   -0.716147
   1 N :   -0.319114
   2 N :    0.262620
   3 N :   -0.290238
   4 C :   -0.201156
   5 C :    0.777385
   6 C :   -0.870297
   7 H :    0.393414
   8 H :    0.265024
   9 H :    0.458411
  10 H :    0.240098
Sum of atomic charges:    0.0000000

LOEWDIN ATOMIC CHARGES
----------------------
   0 F :    0.767023
   1 N :    0.338278
   2 N :   -0.283436
   3 N :    0.371593
   4 C :    0.164555
   5 C :   -0.682194
   6 C :    0.745047
   7 H :   -0.345755
   8 H :   -0.340188
   9 H :   -0.365152
  10 H :   -0.369770

  Mayer bond orders larger than 0.100000
B(  0-F ,  5-C ) :   0.2607 B(  0-F ,  6-C ) :   0.1003 B(  1-N ,  2-N ) :   1.4640
B(  1-N ,  3-N ) :   0.2084 B(  1-N ,  4-C ) :   0.8317 B(  2-N ,  3-N ) :   2.2907
B(  4-C ,  5-C ) :   0.8386 B(  4-C ,  7-H ) :   0.8309 B(  4-C ,  8-H ) :   0.9403
B(  5-C ,  6-C ) :   1.6601 B(  6-C ,  9-H ) :   0.7930 B(  6-C , 10-H ) :   1.0252

MP2 TOTAL ENERGY:     -380.213856603 Eh
FINAL SINGLE POINT ENERGY      -380.213856603160

DIPOLE MOMENT
-------------
                                X             Y             Z
Electronic contribution:      2.06206      -1.88349      -3.70545
Nuclear contribution   :     -2.44709       2.32823       4.58906
                        -----------------------------------------
Total Dipole Moment    :     -0.38503       0.44475       0.88361
                        -----------------------------------------
Magnitude (a.u.)       :      1.06152
Magnitude (Debye)      :      2.69817

Rotational constants in cm-1:     0.162491     0.058245     0.053063
Rotational constants in MHz :  4871.356372  1746.154104  1590.784563

                             ****ORCA TERMINATED NORMALLY****
TOTAL RUN TIME: 0 days 0 hours 15 minutes 32 seconds 785 msec
