                         Program Version 5.0.4 -  RELEASE  -
|  1> !ri-mp2 aug-cc-pvqz aug-cc-pvqz/c tightscf
|  2> %pal nprocs 16 end
|  3>
|  4> * xyz 0 1
|  5> C      0.296563   -2.092194    0.000000
|  6> H      1.369761   -1.964827    0.000000
|  7> H     -0.086440   -3.102651    0.000000
|  8> C     -0.524953   -1.056203    0.000000
|  9> H     -1.601322   -1.166159    0.000000
| 10> C     -0.061543    0.365426    0.000000
| 11> F      1.278529    0.488309    0.000000
| 12> F     -0.524953    1.029816    1.084366
| 13> F     -0.524953    1.029816   -1.084366
| 14> *
| 15>
| 16>                          ****END OF INPUT****

CARTESIAN COORDINATES (ANGSTROEM)
---------------------------------
  C      0.296563   -2.092194    0.000000
  H      1.369761   -1.964827    0.000000
  H     -0.086440   -3.102651    0.000000
  C     -0.524953   -1.056203    0.000000
  H     -1.601322   -1.166159    0.000000
  C     -0.061543    0.365426    0.000000
  F      1.278529    0.488309    0.000000
  F     -0.524953    1.029816    1.084366
  F     -0.524953    1.029816   -1.084366

 Total Charge           Charge          ....    0
 Multiplicity           Mult            ....    1
 Number of Electrons    NEL             ....   48
 Basis Dimension        Dim             ....  618

ORBITAL ENERGIES
----------------

  NO   OCC          E(Eh)            E(eV)
   0   2.0000     -26.335642      -716.6292
   1   2.0000     -26.330423      -716.4872
   2   2.0000     -26.330402      -716.4867
   3   2.0000     -11.509518      -313.1899
   4   2.0000     -11.269836      -306.6678
   5   2.0000     -11.267161      -306.5950
   6   2.0000      -1.720896       -46.8280
   7   2.0000      -1.629876       -44.3512
   8   2.0000      -1.624520       -44.2054
   9   2.0000      -1.109388       -30.1880
  10   2.0000      -0.971373       -26.4324
  11   2.0000      -0.863874       -23.5072
  12   2.0000      -0.818004       -22.2590
  13   2.0000      -0.814841       -22.1729
  14   2.0000      -0.760330       -20.6896
  15   2.0000      -0.707652       -19.2562
  16   2.0000      -0.705127       -19.1875
  17   2.0000      -0.667508       -18.1638
  18   2.0000      -0.658243       -17.9117
  19   2.0000      -0.645153       -17.5555
  20   2.0000      -0.645140       -17.5551
  21   2.0000      -0.610380       -16.6093
  22   2.0000      -0.543918       -14.8008
  23   2.0000      -0.420347       -11.4382
  24   0.0000       0.023312         0.6343
  25   0.0000       0.034097         0.9278
  26   0.0000       0.040744         1.1087
  27   0.0000       0.065086         1.7711
  28   0.0000       0.066314         1.8045

MULLIKEN ATOMIC CHARGES
-----------------------
   0 C :   -0.801489
   1 H :    0.418738
   2 H :    0.394369
   3 C :   -0.662019
   4 H :    0.514532
   5 C :    1.944425
   6 F :   -0.598786
   7 F :   -0.604885
   8 F :   -0.604885
Sum of atomic charges:   -0.0000000

LOEWDIN ATOMIC CHARGES
----------------------
   0 C :    0.777088
   1 H :   -0.365690
   2 H :   -0.344098
   3 C :    0.231746
   4 H :   -0.359773
   5 C :   -2.155954
   6 F :    0.754136
   7 F :    0.731273
   8 F :    0.731273

  Mayer bond orders larger than 0.100000
B(  0-C ,  1-H ) :   0.7911 B(  0-C ,  2-H ) :   0.9171 B(  0-C ,  3-C ) :   1.7923
B(  3-C ,  4-H ) :   0.6716 B(  3-C ,  5-C ) :   1.0284 B(  5-C ,  6-F ) :   0.4490
B(  5-C ,  7-F ) :   0.4388 B(  5-C ,  8-F ) :   0.4388

MP2 TOTAL ENERGY:     -415.187694253 Eh
FINAL SINGLE POINT ENERGY      -415.187694253144

DIPOLE MOMENT
-------------
                                X             Y             Z
Electronic contribution:      0.37141       7.11644      -0.00000
Nuclear contribution   :     -0.51036      -8.21217       0.00000
                        -----------------------------------------
Total Dipole Moment    :     -0.13896      -1.09572      -0.00000
                        -----------------------------------------
Magnitude (a.u.)       :      1.10450
Magnitude (Debye)      :      2.80741

Rotational constants in cm-1:     0.179885     0.097645     0.095241
Rotational constants in MHz :  5392.814567  2927.327983  2855.247561

                             ****ORCA TERMINATED NORMALLY****
TOTAL RUN TIME: 0 days 0 hours 8 minutes 8 seconds 985 msec
