                         Program Version 5.0.4 -  RELEASE  -
|  1> !ri-mp2 aug-cc-pvqz aug-cc-pvqz/c tightscf
|  2> %pal nprocs 16 end
|  3>
|  4> * xyz 0 1
|  5> C      0.753389   -0.242774   -0.066189
|  6> C      1.950166    0.504928    0.480694
|  7> C     -1.111331    1.335203   -0.553983
|  8> C     -1.623252   -0.926800    0.469523
|  9> C     -0.624754    0.227078    0.399162
| 10> O      0.883709   -1.161368   -0.844108
| 11> H      1.795440    1.584352    0.445517
| 12> H      2.847365    0.235724   -0.070490
| 13> H      2.082848    0.238822    1.532800
| 14> H     -1.240580    0.938427   -1.561561
| 15> H     -2.071930    1.724975   -0.215890
| 16> H     -0.412270    2.170887   -0.605134
| 17> H     -1.294846   -1.694619    1.170584
| 18> H     -1.735386   -1.397170   -0.506315
| 19> H     -2.599221   -0.564364    0.794752
| 20> H     -0.506399    0.668094    1.393352
| 21> *
| 22>
| 23>                          ****END OF INPUT****

CARTESIAN COORDINATES (ANGSTROEM)
---------------------------------
  C      0.753389   -0.242774   -0.066189
  C      1.950166    0.504928    0.480694
  C     -1.111331    1.335203   -0.553983
  C     -1.623252   -0.926800    0.469523
  C     -0.624754    0.227078    0.399162
  O      0.883709   -1.161368   -0.844108
  H      1.795440    1.584352    0.445517
  H      2.847365    0.235724   -0.070490
  H      2.082848    0.238822    1.532800
  H     -1.240580    0.938427   -1.561561
  H     -2.071930    1.724975   -0.215890
  H     -0.412270    2.170887   -0.605134
  H     -1.294846   -1.694619    1.170584
  H     -1.735386   -1.397170   -0.506315
  H     -2.599221   -0.564364    0.794752
  H     -0.506399    0.668094    1.393352

 Total Charge           Charge          ....    0
 Multiplicity           Mult            ....    1
 Number of Electrons    NEL             ....   48
 Basis Dimension        Dim             ....  940

ORBITAL ENERGIES
----------------

  NO   OCC          E(Eh)            E(eV)
   0   2.0000     -20.539376      -558.9048
   1   2.0000     -11.324838      -308.1645
   2   2.0000     -11.241839      -305.9060
   3   2.0000     -11.232206      -305.6439
   4   2.0000     -11.227425      -305.5138
   5   2.0000     -11.214541      -305.1632
   6   2.0000      -1.384051       -37.6619
   7   2.0000      -1.087953       -29.6047
   8   2.0000      -1.004126       -27.3237
   9   2.0000      -0.939041       -25.5526
  10   2.0000      -0.850975       -23.1562
  11   2.0000      -0.723799       -19.6956
  12   2.0000      -0.665294       -18.1036
  13   2.0000      -0.633982       -17.2515
  14   2.0000      -0.613240       -16.6871
  15   2.0000      -0.596178       -16.2228
  16   2.0000      -0.573045       -15.5934
  17   2.0000      -0.554725       -15.0948
  18   2.0000      -0.545485       -14.8434
  19   2.0000      -0.519378       -14.1330
  20   2.0000      -0.503253       -13.6942
  21   2.0000      -0.486195       -13.2300
  22   2.0000      -0.474548       -12.9131
  23   2.0000      -0.402570       -10.9545
  24   0.0000       0.022888         0.6228
  25   0.0000       0.029817         0.8113
  26   0.0000       0.032083         0.8730
  27   0.0000       0.037365         1.0168
  28   0.0000       0.049141         1.3372

MULLIKEN ATOMIC CHARGES
-----------------------
   0 C :    0.936852
   1 C :   -0.977805
   2 C :   -0.949472
   3 C :   -0.882306
   4 C :    0.141360
   5 O :   -0.860588
   6 H :    0.212504
   7 H :    0.323466
   8 H :    0.269681
   9 H :    0.233666
  10 H :    0.285742
  11 H :    0.262775
  12 H :    0.233292
  13 H :    0.226950
  14 H :    0.252082
  15 H :    0.291800
Sum of atomic charges:    0.0000000

LOEWDIN ATOMIC CHARGES
----------------------
   0 C :   -0.654340
   1 C :    0.902784
   2 C :    0.919447
   3 C :    0.899904
   4 C :    0.049720
   5 O :    0.754618
   6 H :   -0.299671
   7 H :   -0.310931
   8 H :   -0.285737
   9 H :   -0.274777
  10 H :   -0.274640
  11 H :   -0.280228
  12 H :   -0.273578
  13 H :   -0.293964
  14 H :   -0.279145
  15 H :   -0.299462

  Mayer bond orders larger than 0.100000
B(  0-C ,  1-C ) :   0.9031 B(  0-C ,  4-C ) :   0.8244 B(  0-C ,  5-O ) :   1.0797
B(  1-C ,  5-O ) :   0.1262 B(  1-C ,  6-H ) :   1.0088 B(  1-C ,  7-H ) :   0.9577
B(  1-C ,  8-H ) :   0.9129 B(  2-C ,  4-C ) :   0.7711 B(  2-C ,  9-H ) :   0.9629
B(  2-C , 10-H ) :   0.9508 B(  2-C , 11-H ) :   0.9704 B(  3-C ,  4-C ) :   0.6878
B(  3-C , 12-H ) :   1.0134 B(  3-C , 13-H ) :   0.9661 B(  3-C , 14-H ) :   1.0209
B(  4-C ,  5-O ) :   0.1276 B(  4-C , 15-H ) :   0.8603

MP2 TOTAL ENERGY:     -271.319395827 Eh
FINAL SINGLE POINT ENERGY      -271.319395827238

DIPOLE MOMENT
-------------
                                X             Y             Z
Electronic contribution:      3.06857      -3.08904      -1.68292
Nuclear contribution   :     -3.26648       4.06793       2.47448
                        -----------------------------------------
Total Dipole Moment    :     -0.19791       0.97890       0.79156
                        -----------------------------------------
Magnitude (a.u.)       :      1.27435
Magnitude (Debye)      :      3.23914

Rotational constants in cm-1:     0.158665     0.092712     0.075134
Rotational constants in MHz :  4756.667632  2779.429156  2252.475532

                             ****ORCA TERMINATED NORMALLY****
TOTAL RUN TIME: 0 days 0 hours 36 minutes 50 seconds 237 msec
