                         Program Version 5.0.4 -  RELEASE  -
|  1> !ri-mp2 aug-cc-pvqz aug-cc-pvqz/c tightscf
|  2> %pal nprocs 16 end
|  3>
|  4> * xyz 0 1
|  5> C      1.207137   -1.555590        0.000000
|  6> C      1.220086   -0.167956        0.000000
|  7> C     -0.016035   -2.214360        0.000000
|  8> C     -1.179306   -0.248424        0.000000
|  9> C      0.000000    0.488855        0.000000
| 10> N     -1.187738   -1.578485        0.000000
| 11> Cl    -0.068149    2.235327        0.000000
| 12> H      2.132085   -2.115420        0.000000
| 13> H      2.145085    0.390219        0.000000
| 14> H     -0.058137   -3.297055        0.000000
| 15> H     -2.137626    0.255941        0.000000
| 16> *
| 17>
| 18>                          ****END OF INPUT****

CARTESIAN COORDINATES (ANGSTROEM)
---------------------------------
  C      1.207137   -1.555590    0.000000
  C      1.220086   -0.167956    0.000000
  C     -0.016035   -2.214360    0.000000
  C     -1.179306   -0.248424    0.000000
  C      0.000000    0.488855    0.000000
  N     -1.187738   -1.578485    0.000000
  Cl    -0.068149    2.235327    0.000000
  H      2.132085   -2.115420    0.000000
  H      2.145085    0.390219    0.000000
  H     -0.058137   -3.297055    0.000000
  H     -2.137626    0.255941    0.000000

 Total Charge           Charge          ....    0
 Multiplicity           Mult            ....    1
 Number of Electrons    NEL             ....   58
 Basis Dimension        Dim             ....  748

ORBITAL ENERGIES
----------------

  NO   OCC          E(Eh)            E(eV)
   0   2.0000    -104.849423     -2853.0979
   1   2.0000     -15.579011      -423.9264
   2   2.0000     -11.310651      -307.7785
   3   2.0000     -11.290055      -307.2180
   4   2.0000     -11.285251      -307.0873
   5   2.0000     -11.274432      -306.7929
   6   2.0000     -11.256146      -306.2953
   7   2.0000     -10.574555      -287.7483
   8   2.0000      -8.041698      -218.8257
   9   2.0000      -8.039952      -218.7782
  10   2.0000      -8.039886      -218.7764
  11   2.0000      -1.279021       -34.8039
  12   2.0000      -1.166649       -31.7461
  13   2.0000      -1.088797       -29.6277
  14   2.0000      -1.021906       -27.8075
  15   2.0000      -0.882401       -24.0113
  16   2.0000      -0.854857       -23.2619
  17   2.0000      -0.731105       -19.8944
  18   2.0000      -0.690444       -18.7879
  19   2.0000      -0.651492       -17.7280
  20   2.0000      -0.602786       -16.4026
  21   2.0000      -0.596281       -16.2256
  22   2.0000      -0.574645       -15.6369
  23   2.0000      -0.539955       -14.6929
  24   2.0000      -0.495582       -13.4855
  25   2.0000      -0.472424       -12.8553
  26   2.0000      -0.429774       -11.6947
  27   2.0000      -0.395551       -10.7635
  28   2.0000      -0.350958        -9.5501
  29   0.0000       0.022249         0.6054
  30   0.0000       0.031177         0.8484
  31   0.0000       0.034090         0.9276
  32   0.0000       0.043817         1.1923
  33   0.0000       0.059855         1.6287

MULLIKEN ATOMIC CHARGES
-----------------------
   0 C :   -0.313874
   1 C :   -0.126397
   2 C :   -0.301511
   3 C :   -0.106120
   4 C :   -0.084934
   5 N :   -0.566544
   6 Cl:   -0.286644
   7 H :    0.329498
   8 H :    0.442690
   9 H :    0.468614
  10 H :    0.545223
Sum of atomic charges:    0.0000000

LOEWDIN ATOMIC CHARGES
----------------------
   0 C :    0.321217
   1 C :    0.192413
   2 C :    0.071300
   3 C :   -0.064815
   4 C :   -0.864837
   5 N :    0.583023
   6 Cl:    1.170176
   7 H :   -0.325949
   8 H :   -0.346026
   9 H :   -0.351698
  10 H :   -0.384805

  Mayer bond orders larger than 0.100000
B(  0-C ,  1-C ) :   1.2117 B(  0-C ,  2-C ) :   1.1950 B(  0-C ,  7-H ) :   0.9862
B(  1-C ,  4-C ) :   1.1443 B(  1-C ,  8-H ) :   0.8267 B(  2-C ,  5-N ) :   1.3556
B(  2-C ,  9-H ) :   0.8484 B(  3-C ,  4-C ) :   1.1921 B(  3-C ,  5-N ) :   1.3226
B(  3-C , 10-H ) :   0.7445 B(  4-C ,  6-Cl) :   0.7546

MP2 TOTAL ENERGY:     -706.988210849 Eh
FINAL SINGLE POINT ENERGY      -706.988210849497

DIPOLE MOMENT
-------------
                                X             Y             Z
Electronic contribution:     -1.27437       7.37357      -0.00000
Nuclear contribution   :      2.08359      -7.64922       0.00000
                        -----------------------------------------
Total Dipole Moment    :      0.80922      -0.27565      -0.00000
                        -----------------------------------------
Magnitude (a.u.)       :      0.85488
Magnitude (Debye)      :      2.17293

Rotational constants in cm-1:     0.196636     0.052818     0.041635
Rotational constants in MHz :  5895.012203  1583.441782  1248.173573

                             ****ORCA TERMINATED NORMALLY****
TOTAL RUN TIME: 0 days 0 hours 17 minutes 34 seconds 515 msec
