                         Program Version 5.0.4 -  RELEASE  -
|  1> !ri-mp2 aug-cc-pvqz aug-cc-pvqz/c tightscf
|  2> %pal nprocs 16 end
|  3>
|  4> * xyz 0 1
|  5> C     -0.533337    1.799111    0.003615
|  6> C     -1.705095    1.064563   -0.002894
|  7> C      0.717403    1.184420    0.004395
|  8> C     -0.402266   -0.962277   -0.006106
|  9> C     -1.646552   -0.337109   -0.007512
| 10> C      0.770726   -0.209050   -0.000830
| 11> C      3.162146   -0.235899    0.003261
| 12> N     -2.816974   -1.091799   -0.070750
| 13> O      1.927453   -0.933333    0.000800
| 14> H     -0.586702    2.879891    0.008420
| 15> H     -2.664991    1.564249   -0.010323
| 16> H      1.613061    1.784526    0.009583
| 17> H     -0.323439   -2.041438   -0.015180
| 18> H      3.268427    0.385502    0.896029
| 19> H      3.269501    0.389402   -0.886596
| 20> H      3.936497   -0.998414    0.002060
| 21> H     -3.647664   -0.634953    0.267787
| 22> H     -2.743642   -2.042069    0.253499
| 23> *
| 24>
| 25>                          ****END OF INPUT****

CARTESIAN COORDINATES (ANGSTROEM)
---------------------------------
  C     -0.533337    1.799111    0.003615
  C     -1.705095    1.064563   -0.002894
  C      0.717403    1.184420    0.004395
  C     -0.402266   -0.962277   -0.006106
  C     -1.646552   -0.337109   -0.007512
  C      0.770726   -0.209050   -0.000830
  C      3.162146   -0.235899    0.003261
  N     -2.816974   -1.091799   -0.070750
  O      1.927453   -0.933333    0.000800
  H     -0.586702    2.879891    0.008420
  H     -2.664991    1.564249   -0.010323
  H      1.613061    1.784526    0.009583
  H     -0.323439   -2.041438   -0.015180
  H      3.268427    0.385502    0.896029
  H      3.269501    0.389402   -0.886596
  H      3.936497   -0.998414    0.002060
  H     -3.647664   -0.634953    0.267787
  H     -2.743642   -2.042069    0.253499

 Total Charge           Charge          ....    0
 Multiplicity           Mult            ....    1
 Number of Electrons    NEL             ....   66
 Basis Dimension        Dim             .... 1134

ORBITAL ENERGIES
----------------

  NO   OCC          E(Eh)            E(eV)
   0   2.0000     -20.578221      -559.9619
   1   2.0000     -15.562430      -423.4753
   2   2.0000     -11.297296      -307.4151
   3   2.0000     -11.279332      -306.9262
   4   2.0000     -11.278729      -306.9098
   5   2.0000     -11.236111      -305.7501
   6   2.0000     -11.212271      -305.1014
   7   2.0000     -11.212140      -305.0978
   8   2.0000     -11.210212      -305.0454
   9   2.0000      -1.404345       -38.2142
  10   2.0000      -1.223643       -33.2970
  11   2.0000      -1.123329       -30.5673
  12   2.0000      -1.018115       -27.7043
  13   2.0000      -0.986464       -26.8431
  14   2.0000      -0.938060       -25.5259
  15   2.0000      -0.831223       -22.6187
  16   2.0000      -0.802913       -21.8484
  17   2.0000      -0.717588       -19.5266
  18   2.0000      -0.698467       -19.0063
  19   2.0000      -0.662277       -18.0215
  20   2.0000      -0.651156       -17.7189
  21   2.0000      -0.637908       -17.3584
  22   2.0000      -0.634022       -17.2526
  23   2.0000      -0.586027       -15.9466
  24   2.0000      -0.567155       -15.4331
  25   2.0000      -0.540245       -14.7008
  26   2.0000      -0.526088       -14.3156
  27   2.0000      -0.516091       -14.0436
  28   2.0000      -0.495964       -13.4959
  29   2.0000      -0.481396       -13.0995
  30   2.0000      -0.432646       -11.7729
  31   2.0000      -0.317775        -8.6471
  32   2.0000      -0.293801        -7.9947
  33   0.0000       0.024153         0.6572
  34   0.0000       0.027009         0.7349
  35   0.0000       0.029715         0.8086
  36   0.0000       0.039552         1.0763
  37   0.0000       0.042433         1.1547

MULLIKEN ATOMIC CHARGES
-----------------------
   0 C :   -0.459005
   1 C :   -0.294791
   2 C :   -0.451588
   3 C :   -0.809384
   4 C :    0.632927
   5 C :    1.184040
   6 C :   -0.664877
   7 N :   -0.845794
   8 O :   -0.848148
   9 H :    0.197423
  10 H :    0.283034
  11 H :    0.276010
  12 H :    0.270528
  13 H :    0.249044
  14 H :    0.250680
  15 H :    0.487328
  16 H :    0.277671
  17 H :    0.264903
Sum of atomic charges:   -0.0000000

LOEWDIN ATOMIC CHARGES
----------------------
   0 C :    0.329816
   1 C :    0.335161
   2 C :    0.321067
   3 C :    0.314003
   4 C :   -0.251457
   5 C :   -0.464512
   6 C :    0.574099
   7 N :    1.272470
   8 O :    0.875205
   9 H :   -0.319729
  10 H :   -0.331289
  11 H :   -0.369061
  12 H :   -0.332570
  13 H :   -0.308101
  14 H :   -0.307928
  15 H :   -0.320192
  16 H :   -0.509210
  17 H :   -0.507770

  Mayer bond orders larger than 0.100000
B(  0-C ,  1-C ) :   1.3597 B(  0-C ,  2-C ) :   1.0424 B(  0-C ,  3-C ) :   0.1204
B(  0-C ,  4-C ) :  -0.2124 B(  0-C ,  5-C ) :  -0.2074 B(  0-C ,  9-H ) :   1.1933
B(  1-C ,  4-C ) :   1.1038 B(  1-C ,  9-H ) :  -0.1214 B(  1-C , 10-H ) :   0.9656
B(  2-C ,  5-C ) :   1.3014 B(  2-C ,  8-O ) :   0.1827 B(  2-C ,  9-H ) :  -0.1450
B(  2-C , 11-H ) :   1.0242 B(  3-C ,  4-C ) :   1.4822 B(  3-C ,  5-C ) :   1.1885
B(  3-C ,  8-O ) :   0.2026 B(  3-C , 12-H ) :   0.8995 B(  4-C ,  5-C ) :  -0.5002
B(  4-C ,  7-N ) :   0.7727 B(  4-C , 10-H ) :  -0.1001 B(  5-C ,  6-C ) :  -0.1071
B(  5-C ,  8-O ) :   0.1672 B(  6-C ,  8-O ) :   0.9362 B(  6-C , 13-H ) :   0.9234
B(  6-C , 14-H ) :   0.9222 B(  6-C , 15-H ) :   0.7582 B(  7-N , 16-H ) :   0.9398
B(  7-N , 17-H ) :   0.9393

MP2 TOTAL ENERGY:     -401.467911232 Eh
FINAL SINGLE POINT ENERGY      -401.467911231645

DIPOLE MOMENT
-------------
                                X             Y             Z
Electronic contribution:     -2.16430      -1.11689      -0.15654
Nuclear contribution   :      2.14873       1.27377       0.52828
                        -----------------------------------------
Total Dipole Moment    :     -0.01558       0.15688       0.37174
                        -----------------------------------------
Magnitude (a.u.)       :      0.40378
Magnitude (Debye)      :      1.02634

Rotational constants in cm-1:     0.120808     0.037707     0.028915
Rotational constants in MHz :  3621.734718  1130.422488   866.843138

                             ****ORCA TERMINATED NORMALLY****
TOTAL RUN TIME: 0 days 0 hours 55 minutes 15 seconds 403 msec
