                         Program Version 5.0.4 -  RELEASE  -
|  1> !ri-mp2 aug-cc-pvqz aug-cc-pvqz/c tightscf
|  2> %pal nprocs 16 end
|  3>
|  4> * xyz 0 1
|  5> Cl   -0.294090    2.071082   -0.000003
|  6> S     2.440221   -0.174159    0.000001
|  7> O    -1.231702   -1.742984    0.000002
|  8> O    -2.709242   -0.031225    0.000000
|  9> C    -0.315568    0.356447    0.000000
| 10> C     0.729367   -0.479618    0.000001
| 11> C    -1.577506   -0.412007    0.000000
| 12> C     0.190782   -1.883495    0.000003
| 13> H     2.338062    1.169452    0.000000
| 14> H     0.491515   -2.442798    0.888008
| 15> H     0.491515   -2.442801   -0.888000
| 16> *
| 17>
| 18>                          ****END OF INPUT****

CARTESIAN COORDINATES (ANGSTROEM)
---------------------------------
  Cl    -0.294090    2.071082   -0.000003
  S      2.440221   -0.174159    0.000001
  O     -1.231702   -1.742984    0.000002
  O     -2.709242   -0.031225    0.000000
  C     -0.315568    0.356447    0.000000
  C      0.729367   -0.479618    0.000001
  C     -1.577506   -0.412007    0.000000
  C      0.190782   -1.883495    0.000003
  H      2.338062    1.169452    0.000000
  H      0.491515   -2.442798    0.888008
  H      0.491515   -2.442801   -0.888000

 Total Charge           Charge          ....    0
 Multiplicity           Mult            ....    1
 Number of Electrons    NEL             ....   76
 Basis Dimension        Dim             ....  786

ORBITAL ENERGIES
----------------

  NO   OCC          E(Eh)            E(eV)
   0   2.0000    -104.869387     -2853.6411
   1   2.0000     -92.013199     -2503.8064
   2   2.0000     -20.619802      -561.0933
   3   2.0000     -20.553857      -559.2989
   4   2.0000     -11.399286      -310.1904
   5   2.0000     -11.336406      -308.4793
   6   2.0000     -11.332706      -308.3786
   7   2.0000     -11.324098      -308.1444
   8   2.0000     -10.594282      -288.2851
   9   2.0000      -9.015547      -245.3255
  10   2.0000      -8.061498      -219.3645
  11   2.0000      -8.059597      -219.3128
  12   2.0000      -8.059543      -219.3113
  13   2.0000      -6.697149      -182.2387
  14   2.0000      -6.696159      -182.2118
  15   2.0000      -6.695303      -182.1885
  16   2.0000      -1.476489       -40.1773
  17   2.0000      -1.385232       -37.6941
  18   2.0000      -1.204454       -32.7749
  19   2.0000      -1.119781       -30.4708
  20   2.0000      -1.017524       -27.6882
  21   2.0000      -0.996202       -27.1080
  22   2.0000      -0.820518       -22.3274
  23   2.0000      -0.790126       -21.5004
  24   2.0000      -0.713684       -19.4203
  25   2.0000      -0.706386       -19.2217
  26   2.0000      -0.666587       -18.1388
  27   2.0000      -0.647567       -17.6212
  28   2.0000      -0.591029       -16.0827
  29   2.0000      -0.585820       -15.9410
  30   2.0000      -0.557160       -15.1611
  31   2.0000      -0.549797       -14.9607
  32   2.0000      -0.537406       -14.6236
  33   2.0000      -0.488112       -13.2822
  34   2.0000      -0.481941       -13.1143
  35   2.0000      -0.458248       -12.4696
  36   2.0000      -0.458235       -12.4692
  37   2.0000      -0.363203        -9.8833
  38   0.0000       0.019854         0.5403
  39   0.0000       0.029624         0.8061
  40   0.0000       0.034658         0.9431
  41   0.0000       0.047017         1.2794
  42   0.0000       0.062618         1.7039

MULLIKEN ATOMIC CHARGES
-----------------------
   0 Cl:   -0.211349
   1 S :    0.022736
   2 O :   -0.721571
   3 O :   -0.698538
   4 C :   -0.153818
   5 C :   -0.107400
   6 C :    1.155341
   7 C :    0.029875
   8 H :    0.069580
   9 H :    0.307572
  10 H :    0.307572
Sum of atomic charges:    0.0000000

LOEWDIN ATOMIC CHARGES
----------------------
   0 Cl:    1.218158
   1 S :    1.643386
   2 O :    0.833294
   3 O :    0.632972
   4 C :   -1.020228
   5 C :   -0.725678
   6 C :   -1.218442
   7 C :    0.047371
   8 H :   -0.799610
   9 H :   -0.305612
  10 H :   -0.305612

  Mayer bond orders larger than 0.100000
B(  0-Cl,  4-C ) :   0.8315 B(  1-S ,  4-C ) :  -0.1287 B(  1-S ,  5-C ) :   0.8090
B(  1-S ,  8-H ) :   1.0762 B(  2-O ,  5-C ) :   0.1270 B(  2-O ,  6-C ) :   0.9710
B(  2-O ,  7-C ) :   0.6560 B(  3-O ,  4-C ) :   0.2185 B(  3-O ,  6-C ) :   1.4004
B(  4-C ,  5-C ) :   0.9482 B(  4-C ,  6-C ) :   1.2332 B(  4-C ,  7-C ) :  -0.1509
B(  5-C ,  6-C ) :  -0.1135 B(  5-C ,  7-C ) :   0.9868 B(  7-C ,  9-H ) :   0.9045
B(  7-C , 10-H ) :   0.9045

MP2 TOTAL ENERGY:    -1161.709478365 Eh
FINAL SINGLE POINT ENERGY     -1161.709478365120

DIPOLE MOMENT
-------------
                                X             Y             Z
Electronic contribution:     -1.40027       5.97517      -0.00001
Nuclear contribution   :      3.41661      -6.35257       0.00001
                        -----------------------------------------
Total Dipole Moment    :      2.01634      -0.37740       0.00000
                        -----------------------------------------
Magnitude (a.u.)       :      2.05136
Magnitude (Debye)      :      5.21414

Rotational constants in cm-1:     0.063543     0.044234     0.026208
Rotational constants in MHz :  1904.969621  1326.099439   785.704683

                             ****ORCA TERMINATED NORMALLY****
TOTAL RUN TIME: 0 days 0 hours 25 minutes 3 seconds 758 msec
