                         Program Version 5.0.4 -  RELEASE  -
|  1> !ri-mp2 aug-cc-pvqz aug-cc-pvqz/c tightscf
|  2> %pal nprocs 16 end
|  3> %maxcore 3800
|  4>
|  5> * xyz 0 1
|  6> C     -3.309215   -0.035048   -0.489887
|  7> C     -2.671442    1.180652   -0.272279
|  8> C     -2.629106   -1.220002   -0.231542
|  9> C     -1.363124    1.208399    0.197144
| 10> C     -1.321483   -1.186224    0.237822
| 11> C     -0.666846    0.027201    0.456848
| 12> C      0.765821    0.059305    0.929966
| 13> C      1.782430   -0.026705   -0.220241
| 14> C      3.223262    0.025404    0.272641
| 15> O      4.180079   -0.117662   -0.774765
| 16> H     -4.328143   -0.059056   -0.851886
| 17> H     -3.193934    2.108670   -0.463436
| 18> H     -3.118515   -2.171659   -0.391314
| 19> H     -0.877699    2.161375    0.369864
| 20> H     -0.803093   -2.115354    0.441580
| 21> H      0.940283   -0.770099    1.620194
| 22> H      0.940705    0.977696    1.495854
| 23> H      1.606106    0.797260   -0.919162
| 24> H      1.631807   -0.951245   -0.781323
| 25> H      3.399381    0.953589    0.829929
| 26> H      3.418890   -0.803311    0.954619
| 27> H      4.081795    0.615535   -1.389632
| 28> *
| 29>
| 30>                          ****END OF INPUT****

CARTESIAN COORDINATES (ANGSTROEM)
---------------------------------
  C     -3.309215   -0.035048   -0.489887
  C     -2.671442    1.180652   -0.272279
  C     -2.629106   -1.220002   -0.231542
  C     -1.363124    1.208399    0.197144
  C     -1.321483   -1.186224    0.237822
  C     -0.666846    0.027201    0.456848
  C      0.765821    0.059305    0.929966
  C      1.782430   -0.026705   -0.220241
  C      3.223262    0.025404    0.272641
  O      4.180079   -0.117662   -0.774765
  H     -4.328143   -0.059056   -0.851886
  H     -3.193934    2.108670   -0.463436
  H     -3.118515   -2.171659   -0.391314
  H     -0.877699    2.161375    0.369864
  H     -0.803093   -2.115354    0.441580
  H      0.940283   -0.770099    1.620194
  H      0.940705    0.977696    1.495854
  H      1.606106    0.797260   -0.919162
  H      1.631807   -0.951245   -0.781323
  H      3.399381    0.953589    0.829929
  H      3.418890   -0.803311    0.954619
  H      4.081795    0.615535   -1.389632

 Total Charge           Charge          ....    0
 Multiplicity           Mult            ....    1
 Number of Electrons    NEL             ....   74
 Basis Dimension        Dim             .... 1352

ORBITAL ENERGIES
----------------

  NO   OCC          E(Eh)            E(eV)
   0   2.0000     -20.554457      -559.3152
   1   2.0000     -11.274685      -306.7998
   2   2.0000     -11.241003      -305.8833
   3   2.0000     -11.234076      -305.6948
   4   2.0000     -11.233844      -305.6884
   5   2.0000     -11.232953      -305.6642
   6   2.0000     -11.230470      -305.5966
   7   2.0000     -11.230183      -305.5888
   8   2.0000     -11.229959      -305.5827
   9   2.0000     -11.225359      -305.4575
  10   2.0000      -1.356179       -36.9035
  11   2.0000      -1.158254       -31.5177
  12   2.0000      -1.077695       -29.3256
  13   2.0000      -1.015124       -27.6229
  14   2.0000      -1.011002       -27.5108
  15   2.0000      -0.917610       -24.9694
  16   2.0000      -0.832936       -22.6653
  17   2.0000      -0.828630       -22.5482
  18   2.0000      -0.793062       -21.5803
  19   2.0000      -0.699853       -19.0440
  20   2.0000      -0.690363       -18.7857
  21   2.0000      -0.649937       -17.6857
  22   2.0000      -0.636366       -17.3164
  23   2.0000      -0.616907       -16.7869
  24   2.0000      -0.605238       -16.4694
  25   2.0000      -0.587499       -15.9867
  26   2.0000      -0.579185       -15.7604
  27   2.0000      -0.558973       -15.2104
  28   2.0000      -0.524586       -14.2747
  29   2.0000      -0.512704       -13.9514
  30   2.0000      -0.497057       -13.5256
  31   2.0000      -0.487313       -13.2605
  32   2.0000      -0.485008       -13.1978
  33   2.0000      -0.472681       -12.8623
  34   2.0000      -0.440993       -12.0000
  35   2.0000      -0.338072        -9.1994
  36   2.0000      -0.328011        -8.9256
  37   0.0000       0.023427         0.6375
  38   0.0000       0.027093         0.7372
  39   0.0000       0.029125         0.7925
  40   0.0000       0.033144         0.9019
  41   0.0000       0.039147         1.0653

MULLIKEN ATOMIC CHARGES
-----------------------
   0 C :   -0.320226
   1 C :   -0.276305
   2 C :   -0.294310
   3 C :   -0.616626
   4 C :   -0.569873
   5 C :    0.459003
   6 C :   -0.255589
   7 C :   -0.503180
   8 C :    0.122802
   9 O :   -0.903355
  10 H :    0.335371
  11 H :    0.247330
  12 H :    0.241225
  13 H :    0.255711
  14 H :    0.257007
  15 H :    0.233197
  16 H :    0.246790
  17 H :    0.222259
  18 H :    0.271883
  19 H :    0.198594
  20 H :    0.304154
  21 H :    0.344139
Sum of atomic charges:   -0.0000000

LOEWDIN ATOMIC CHARGES
----------------------
   0 C :    0.335695
   1 C :    0.343904
   2 C :    0.344989
   3 C :    0.348772
   4 C :    0.348643
   5 C :   -0.072315
   6 C :    0.491793
   7 C :    0.511500
   8 C :    0.193228
   9 O :    1.270312
  10 H :   -0.326454
  11 H :   -0.323060
  12 H :   -0.322598
  13 H :   -0.315801
  14 H :   -0.313747
  15 H :   -0.281650
  16 H :   -0.287226
  17 H :   -0.272161
  18 H :   -0.272731
  19 H :   -0.290898
  20 H :   -0.313723
  21 H :   -0.796471

  Mayer bond orders larger than 0.100000
B(  0-C ,  1-C ) :   1.1196 B(  0-C ,  2-C ) :   1.1339 B(  0-C , 10-H ) :   0.9957
B(  0-C , 11-H ) :  -0.1053 B(  0-C , 12-H ) :  -0.1007 B(  1-C ,  3-C ) :   1.3910
B(  1-C ,  4-C ) :   0.1477 B(  1-C ,  5-C ) :  -0.3335 B(  1-C , 11-H ) :   1.1321
B(  2-C ,  3-C ) :   0.1628 B(  2-C ,  4-C ) :   1.3730 B(  2-C ,  5-C ) :  -0.3405
B(  2-C , 12-H ) :   1.1383 B(  3-C ,  5-C ) :   0.9960 B(  3-C ,  6-C ) :  -0.2355
B(  3-C , 11-H ) :  -0.1358 B(  3-C , 13-H ) :   0.9963 B(  4-C ,  5-C ) :   0.9941
B(  4-C ,  6-C ) :  -0.2273 B(  4-C , 12-H ) :  -0.1348 B(  4-C , 14-H ) :   0.9905
B(  5-C ,  6-C ) :   0.9042 B(  6-C ,  7-C ) :   0.8606 B(  6-C , 15-H ) :   0.9173
B(  6-C , 16-H ) :   0.9280 B(  7-C ,  8-C ) :   1.1584 B(  7-C , 17-H ) :   0.8851
B(  7-C , 18-H ) :   0.8430 B(  8-C ,  9-O ) :   0.6091 B(  8-C , 19-H ) :   0.9446
B(  8-C , 20-H ) :   0.8456 B(  9-O , 21-H ) :   0.8642

MP2 TOTAL ENERGY:     -424.667362237 Eh
FINAL SINGLE POINT ENERGY      -424.667362237357

DIPOLE MOMENT
-------------
                                X             Y             Z
Electronic contribution:     -4.25635      -0.28735      -0.83482
Nuclear contribution   :      3.84039       0.75670       0.92153
                        -----------------------------------------
Total Dipole Moment    :     -0.41596       0.46936       0.08671
                        -----------------------------------------
Magnitude (a.u.)       :      0.63312
Magnitude (Debye)      :      1.60925

Rotational constants in cm-1:     0.126068     0.018187     0.017220
Rotational constants in MHz :  3779.415276   545.219995   516.234938

                             ****ORCA TERMINATED NORMALLY****
TOTAL RUN TIME: 0 days 1 hours 59 minutes 0 seconds 279 msec
