                         Program Version 5.0.4 -  RELEASE  -
|  1> !ri-mp2 aug-cc-pvqz aug-cc-pvqz/c tightscf
|  2> %pal nprocs 16 end
|  3>
|  4> * xyz 0 1
|  5> Cl     2.255385    0.055886   -0.086072
|  6> O     -1.387172   -1.150321    0.406249
|  7> N      0.508488    0.064813   -0.326125
|  8> C     -1.587319    1.218175   -0.062742
|  9> C     -0.127098    1.153328    0.423310
| 10> C     -2.077147   -0.196737   -0.403529
| 11> C     -0.016309   -1.252187    0.102890
| 12> H     -1.663879    1.854374   -0.945176
| 13> H     -2.199448    1.662233    0.722962
| 14> H      0.401358    2.076079    0.198723
| 15> H     -0.078803    0.986178    1.505841
| 16> H     -1.918611   -0.422066   -1.462420
| 17> H     -3.133523   -0.327195   -0.179940
| 18> H      0.473099   -1.609500    1.013006
| 19> H      0.163451   -1.956766   -0.716465
| 20> *
| 21>
| 22>                          ****END OF INPUT****

CARTESIAN COORDINATES (ANGSTROEM)
---------------------------------
  Cl     2.255385    0.055886   -0.086072
  O     -1.387172   -1.150321    0.406249
  N      0.508488    0.064813   -0.326125
  C     -1.587319    1.218175   -0.062742
  C     -0.127098    1.153328    0.423310
  C     -2.077147   -0.196737   -0.403529
  C     -0.016309   -1.252187    0.102890
  H     -1.663879    1.854374   -0.945176
  H     -2.199448    1.662233    0.722962
  H      0.401358    2.076079    0.198723
  H     -0.078803    0.986178    1.505841
  H     -1.918611   -0.422066   -1.462420
  H     -3.133523   -0.327195   -0.179940
  H      0.473099   -1.609500    1.013006
  H      0.163451   -1.956766   -0.716465

 Total Charge           Charge          ....    0
 Multiplicity           Mult            ....    1
 Number of Electrons    NEL             ....   64
 Basis Dimension        Dim             ....  932

ORBITAL ENERGIES
----------------

  NO   OCC          E(Eh)            E(eV)
   0   2.0000    -104.850520     -2853.1277
   1   2.0000     -20.568285      -559.6915
   2   2.0000     -15.620195      -425.0471
   3   2.0000     -11.318007      -307.9786
   4   2.0000     -11.284970      -307.0796
   5   2.0000     -11.268480      -306.6309
   6   2.0000     -11.235604      -305.7363
   7   2.0000     -10.573388      -287.7165
   8   2.0000      -8.040475      -218.7925
   9   2.0000      -8.038459      -218.7376
  10   2.0000      -8.038284      -218.7328
  11   2.0000      -1.399527       -38.0831
  12   2.0000      -1.252671       -34.0869
  13   2.0000      -1.077955       -29.3326
  14   2.0000      -1.035429       -28.1755
  15   2.0000      -0.919363       -25.0171
  16   2.0000      -0.895349       -24.3637
  17   2.0000      -0.766658       -20.8618
  18   2.0000      -0.706936       -19.2367
  19   2.0000      -0.692251       -18.8371
  20   2.0000      -0.675488       -18.3810
  21   2.0000      -0.605217       -16.4688
  22   2.0000      -0.592743       -16.1293
  23   2.0000      -0.568561       -15.4713
  24   2.0000      -0.561283       -15.2733
  25   2.0000      -0.545599       -14.8465
  26   2.0000      -0.524649       -14.2764
  27   2.0000      -0.479677       -13.0527
  28   2.0000      -0.471404       -12.8275
  29   2.0000      -0.452054       -12.3010
  30   2.0000      -0.427400       -11.6302
  31   2.0000      -0.382637       -10.4121
  32   0.0000       0.025805         0.7022
  33   0.0000       0.032466         0.8835
  34   0.0000       0.035306         0.9607
  35   0.0000       0.036845         1.0026
  36   0.0000       0.049503         1.3471

MULLIKEN ATOMIC CHARGES
-----------------------
   0 Cl:   -0.251423
   1 O :   -0.907850
   2 N :   -0.281479
   3 C :   -0.571738
   4 C :   -0.334098
   5 C :   -0.242303
   6 C :   -0.081784
   7 H :    0.280432
   8 H :    0.339878
   9 H :    0.382258
  10 H :    0.218364
  11 H :    0.216040
  12 H :    0.423545
  13 H :    0.395702
  14 H :    0.414455
Sum of atomic charges:    0.0000000

LOEWDIN ATOMIC CHARGES
----------------------
   0 Cl:    1.003911
   1 O :    0.893350
   2 N :   -0.155533
   3 C :    0.519675
   4 C :    0.184371
   5 C :    0.185540
   6 C :   -0.168096
   7 H :   -0.273621
   8 H :   -0.274169
   9 H :   -0.331538
  10 H :   -0.289849
  11 H :   -0.292544
  12 H :   -0.304991
  13 H :   -0.368792
  14 H :   -0.327714

  Mayer bond orders larger than 0.100000
B(  0-Cl,  2-N ) :   0.9022 B(  0-Cl,  4-C ) :  -0.1365 B(  1-O ,  5-C ) :   0.7300
B(  1-O ,  6-C ) :   0.8014 B(  2-N ,  4-C ) :   0.8723 B(  2-N ,  6-C ) :   0.8524
B(  3-C ,  4-C ) :   1.0237 B(  3-C ,  5-C ) :   1.0461 B(  3-C ,  7-H ) :   0.8984
B(  3-C ,  8-H ) :   0.8485 B(  4-C ,  9-H ) :   0.8488 B(  4-C , 10-H ) :   0.9434
B(  5-C , 11-H ) :   0.9834 B(  5-C , 12-H ) :   0.7953 B(  6-C , 13-H ) :   0.8303
B(  6-C , 14-H ) :   0.8116

MP2 TOTAL ENERGY:     -746.436593993 Eh
FINAL SINGLE POINT ENERGY      -746.436593993033

DIPOLE MOMENT
-------------
                                X             Y             Z
Electronic contribution:     10.47683      -1.74597      -0.28706
Nuclear contribution   :    -11.07565       2.14122       0.26118
                        -----------------------------------------
Total Dipole Moment    :     -0.59882       0.39525      -0.02588
                        -----------------------------------------
Magnitude (a.u.)       :      0.71796
Magnitude (Debye)      :      1.82492

Rotational constants in cm-1:     0.155064     0.050476     0.041063
Rotational constants in MHz :  4648.696397  1513.227664  1231.040239

                             ****ORCA TERMINATED NORMALLY****
TOTAL RUN TIME: 0 days 0 hours 40 minutes 15 seconds 443 msec
