                         Program Version 5.0.4 -  RELEASE  -
|  1> !ri-mp2 aug-cc-pvqz aug-cc-pvqz/c tightscf
|  2> %pal nprocs 16 end
|  3>
|  4> * xyz 0 1
|  5> C      1.643090   -0.157443    0.153934
|  6> C     -0.880250   -0.166831    0.029956
|  7> C      0.347276   -0.704458    0.723932
|  8> O      1.723698    0.647413   -0.732257
|  9> O     -1.466392   -0.723024   -0.859094
| 10> O     -1.245723    1.033301    0.528366
| 11> H      2.550479   -0.574965    0.632776
| 12> H      0.367812   -1.791023    0.624453
| 13> H      0.330267   -0.468364    1.790806
| 14> H     -2.001918    1.345224    0.008912
| 15> *
| 16>
| 17>                          ****END OF INPUT****

CARTESIAN COORDINATES (ANGSTROEM)
---------------------------------
  C      1.643090   -0.157443    0.153934
  C     -0.880250   -0.166831    0.029956
  C      0.347276   -0.704458    0.723932
  O      1.723698    0.647413   -0.732257
  O     -1.466392   -0.723024   -0.859094
  O     -1.245723    1.033301    0.528366
  H      2.550479   -0.574965    0.632776
  H      0.367812   -1.791023    0.624453
  H      0.330267   -0.468364    1.790806
  H     -2.001918    1.345224    0.008912

 Total Charge           Charge          ....    0
 Multiplicity           Mult            ....    1
 Number of Electrons    NEL             ....   46
 Basis Dimension        Dim             ....  664

ORBITAL ENERGIES
----------------

  NO   OCC          E(Eh)            E(eV)
   0   2.0000     -20.620231      -561.1050
   1   2.0000     -20.577770      -559.9496
   2   2.0000     -20.559180      -559.4437
   3   2.0000     -11.400490      -310.2231
   4   2.0000     -11.358096      -309.0695
   5   2.0000     -11.275870      -306.8320
   6   2.0000      -1.476133       -40.1676
   7   2.0000      -1.419433       -38.6247
   8   2.0000      -1.374331       -37.3974
   9   2.0000      -1.075310       -29.2607
  10   2.0000      -0.882638       -24.0178
  11   2.0000      -0.801299       -21.8045
  12   2.0000      -0.718574       -19.5534
  13   2.0000      -0.709656       -19.3107
  14   2.0000      -0.694375       -18.8949
  15   2.0000      -0.653331       -17.7780
  16   2.0000      -0.623898       -16.9771
  17   2.0000      -0.613037       -16.6816
  18   2.0000      -0.587643       -15.9906
  19   2.0000      -0.530188       -14.4271
  20   2.0000      -0.495095       -13.4722
  21   2.0000      -0.471589       -12.8326
  22   2.0000      -0.442864       -12.0509
  23   0.0000       0.020361         0.5541
  24   0.0000       0.030270         0.8237
  25   0.0000       0.037865         1.0304
  26   0.0000       0.039618         1.0781
  27   0.0000       0.067855         1.8464

MULLIKEN ATOMIC CHARGES
-----------------------
   0 C :    0.218982
   1 C :    1.123607
   2 C :   -0.573343
   3 O :   -0.697700
   4 O :   -0.750822
   5 O :   -0.667328
   6 H :    0.458223
   7 H :    0.293681
   8 H :    0.275561
   9 H :    0.319137
Sum of atomic charges:   -0.0000000

LOEWDIN ATOMIC CHARGES
----------------------
   0 C :   -0.242445
   1 C :   -1.068950
   2 C :    0.413720
   3 O :    0.720437
   4 O :    0.706667
   5 O :    1.255019
   6 H :   -0.341119
   7 H :   -0.323936
   8 H :   -0.314069
   9 H :   -0.805324

  Mayer bond orders larger than 0.100000
B(  0-C ,  2-C ) :   0.9958 B(  0-C ,  3-O ) :   1.6489 B(  0-C ,  6-H ) :   0.7232
B(  1-C ,  2-C ) :   1.0263 B(  1-C ,  4-O ) :   1.4520 B(  1-C ,  5-O ) :   0.8606
B(  2-C ,  3-O ) :   0.1270 B(  2-C ,  7-H ) :   0.9185 B(  2-C ,  8-H ) :   0.9105
B(  5-O ,  9-H ) :   0.9262

MP2 TOTAL ENERGY:     -341.955731804 Eh
FINAL SINGLE POINT ENERGY      -341.955731803907

DIPOLE MOMENT
-------------
                                X             Y             Z
Electronic contribution:     -1.04258       1.07801      -1.63375
Nuclear contribution   :      1.20770      -1.44607       2.98251
                        -----------------------------------------
Total Dipole Moment    :      0.16512      -0.36806       1.34876
                        -----------------------------------------
Magnitude (a.u.)       :      1.40780
Magnitude (Debye)      :      3.57834

Rotational constants in cm-1:     0.212186     0.086130     0.081922
Rotational constants in MHz :  6361.165618  2582.112589  2455.948991

                             ****ORCA TERMINATED NORMALLY****
TOTAL RUN TIME: 0 days 0 hours 11 minutes 35 seconds 724 msec
