                         Program Version 5.0.4 -  RELEASE  -
|  1> !ri-mp2 aug-cc-pvqz aug-cc-pvqz/c tightscf
|  2> %pal nprocs 16 end
|  3>
|  4> * xyz 0 1
|  5> C      0.053087    2.127284    0.000000
|  6> H     -0.448036    2.532049    0.880290
|  7> H      1.086611    2.465817    0.000000
|  8> H     -0.448036    2.532049   -0.880290
|  9> C     -0.629178   -1.458575    0.000000
| 10> O      0.709685   -1.409033    0.000000
| 11> N      1.104596   -0.064916    0.000000
| 12> C      0.000000    0.635944    0.000000
| 13> C     -1.148537   -0.210735    0.000000
| 14> H     -2.184862    0.075240    0.000000
| 15> H     -1.067559   -2.441986    0.000000
| 16> *
| 17>
| 18>                          ****END OF INPUT****

CARTESIAN COORDINATES (ANGSTROEM)
---------------------------------
  C      0.053087    2.127284    0.000000
  H     -0.448036    2.532049    0.880290
  H      1.086611    2.465817    0.000000
  H     -0.448036    2.532049   -0.880290
  C     -0.629178   -1.458575    0.000000
  O      0.709685   -1.409033    0.000000
  N      1.104596   -0.064916    0.000000
  C      0.000000    0.635944    0.000000
  C     -1.148537   -0.210735    0.000000
  H     -2.184862    0.075240    0.000000
  H     -1.067559   -2.441986    0.000000

 Total Charge           Charge          ....    0
 Multiplicity           Mult            ....    1
 Number of Electrons    NEL             ....   44
 Basis Dimension        Dim             ....  710

ORBITAL ENERGIES
----------------

  NO   OCC          E(Eh)            E(eV)
   0   2.0000     -20.638562      -561.6038
   1   2.0000     -15.613121      -424.8546
   2   2.0000     -11.314623      -307.8865
   3   2.0000     -11.285032      -307.0813
   4   2.0000     -11.239324      -305.8376
   5   2.0000     -11.236072      -305.7491
   6   2.0000      -1.487287       -40.4711
   7   2.0000      -1.174963       -31.9724
   8   2.0000      -1.070430       -29.1279
   9   2.0000      -0.986884       -26.8545
  10   2.0000      -0.831868       -22.6363
  11   2.0000      -0.778328       -21.1794
  12   2.0000      -0.722411       -19.6578
  13   2.0000      -0.656501       -17.8643
  14   2.0000      -0.624703       -16.9990
  15   2.0000      -0.588565       -16.0157
  16   2.0000      -0.585203       -15.9242
  17   2.0000      -0.554334       -15.0842
  18   2.0000      -0.540115       -14.6973
  19   2.0000      -0.475257       -12.9324
  20   2.0000      -0.412258       -11.2181
  21   2.0000      -0.368661       -10.0318
  22   0.0000       0.022337         0.6078
  23   0.0000       0.027029         0.7355
  24   0.0000       0.036493         0.9930
  25   0.0000       0.040113         1.0915
  26   0.0000       0.052738         1.4351

MULLIKEN ATOMIC CHARGES
-----------------------
   0 C :   -0.663351
   1 H :    0.262344
   2 H :    0.288213
   3 H :    0.262344
   4 C :    0.090902
   5 O :   -0.642168
   6 N :   -0.255822
   7 C :    0.479143
   8 C :   -0.854850
   9 H :    0.426903
  10 H :    0.606343
Sum of atomic charges:    0.0000000

LOEWDIN ATOMIC CHARGES
----------------------
   0 C :    0.889517
   1 H :   -0.291954
   2 H :   -0.316336
   3 H :   -0.291954
   4 C :   -0.068639
   5 O :    0.591041
   6 N :    0.306502
   7 C :   -0.455583
   8 C :    0.297546
   9 H :   -0.330877
  10 H :   -0.329264

  Mayer bond orders larger than 0.100000
B(  0-C ,  1-H ) :   0.9582 B(  0-C ,  2-H ) :   0.9792 B(  0-C ,  3-H ) :   0.9582
B(  0-C ,  7-C ) :   0.7802 B(  4-C ,  5-O ) :   0.8863 B(  4-C ,  7-C ) :  -0.2891
B(  4-C ,  8-C ) :   1.6610 B(  4-C , 10-H ) :   0.6716 B(  5-O ,  6-N ) :   0.7233
B(  5-O ,  8-C ) :   0.2237 B(  6-N ,  7-C ) :   1.3084 B(  7-C ,  8-C ) :   1.0148
B(  8-C ,  9-H ) :   0.8195

MP2 TOTAL ENERGY:     -284.913962206 Eh
FINAL SINGLE POINT ENERGY      -284.913962205575

DIPOLE MOMENT
-------------
                                X             Y             Z
Electronic contribution:      1.74330      -4.76969      -0.00000
Nuclear contribution   :     -3.02755       5.11244       0.00000
                        -----------------------------------------
Total Dipole Moment    :     -1.28425       0.34275      -0.00000
                        -----------------------------------------
Magnitude (a.u.)       :      1.32920
Magnitude (Debye)      :      3.37856

Rotational constants in cm-1:     0.307800     0.117508     0.086404
Rotational constants in MHz :  9227.608890  3522.797127  2590.315141

                             ****ORCA TERMINATED NORMALLY****
TOTAL RUN TIME: 0 days 0 hours 12 minutes 43 seconds 260 msec
