                         Program Version 5.0.4 -  RELEASE  -
|  1> !ri-mp2 aug-cc-pvqz aug-cc-pvqz/c tightscf
|  2> %pal nprocs 16 end
|  3>
|  4> * xyz 0 1
|  5> F     0.465018    1.425630    0.535618
|  6> F     0.389467   -0.599318    1.371080
|  7> O    -1.954835    0.979221   -0.552404
|  8> O    -1.763085   -1.212817   -0.059693
|  9> N     2.517481   -0.276918   -0.574374
| 10> C     0.176013    0.131313    0.230920
| 11> C    -1.311942    0.050048   -0.156467
| 12> C     1.107414   -0.362137   -0.884322
| 13> H    -2.687110   -1.216711   -0.352628
| 14> H     2.799763    0.676454   -0.387399
| 15> H     2.755145   -0.838551    0.232905
| 16> H     0.841761   -1.396806   -1.101889
| 17> H     0.892172    0.230650   -1.774659
| 18> *
| 19>
| 20>                          ****END OF INPUT****

CARTESIAN COORDINATES (ANGSTROEM)
---------------------------------
  F      0.465018    1.425630    0.535618
  F      0.389467   -0.599318    1.371080
  O     -1.954835    0.979221   -0.552404
  O     -1.763085   -1.212817   -0.059693
  N      2.517481   -0.276918   -0.574374
  C      0.176013    0.131313    0.230920
  C     -1.311942    0.050048   -0.156467
  C      1.107414   -0.362137   -0.884322
  H     -2.687110   -1.216711   -0.352628
  H      2.799763    0.676454   -0.387399
  H      2.755145   -0.838551    0.232905
  H      0.841761   -1.396806   -1.101889
  H      0.892172    0.230650   -1.774659

 Total Charge           Charge          ....    0
 Multiplicity           Mult            ....    1
 Number of Electrons    NEL             ....   64
 Basis Dimension        Dim             ....  870

ORBITAL ENERGIES
----------------

  NO   OCC          E(Eh)            E(eV)
   0   2.0000     -26.324818      -716.3347
   1   2.0000     -26.322725      -716.2778
   2   2.0000     -20.640134      -561.6466
   3   2.0000     -20.581252      -560.0443
   4   2.0000     -15.563153      -423.4949
   5   2.0000     -11.436265      -311.1966
   6   2.0000     -11.417055      -310.6739
   7   2.0000     -11.288878      -307.1860
   8   2.0000      -1.676799       -45.6280
   9   2.0000      -1.613832       -43.9146
  10   2.0000      -1.495792       -40.7026
  11   2.0000      -1.396420       -37.9985
  12   2.0000      -1.210890       -32.9500
  13   2.0000      -1.053210       -28.6593
  14   2.0000      -0.926033       -25.1986
  15   2.0000      -0.863722       -23.5031
  16   2.0000      -0.792708       -21.5707
  17   2.0000      -0.772454       -21.0195
  18   2.0000      -0.757276       -20.6065
  19   2.0000      -0.728397       -19.8207
  20   2.0000      -0.705975       -19.2106
  21   2.0000      -0.679486       -18.4897
  22   2.0000      -0.667263       -18.1572
  23   2.0000      -0.658471       -17.9179
  24   2.0000      -0.645196       -17.5567
  25   2.0000      -0.629315       -17.1245
  26   2.0000      -0.595605       -16.2072
  27   2.0000      -0.573610       -15.6087
  28   2.0000      -0.556008       -15.1297
  29   2.0000      -0.513207       -13.9651
  30   2.0000      -0.488673       -13.2975
  31   2.0000      -0.418096       -11.3770
  32   0.0000       0.022098         0.6013
  33   0.0000       0.030245         0.8230
  34   0.0000       0.039133         1.0649
  35   0.0000       0.041900         1.1401
  36   0.0000       0.059096         1.6081

MULLIKEN ATOMIC CHARGES
-----------------------
   0 F :   -0.723592
   1 F :   -0.698932
   2 O :   -0.745937
   3 O :   -0.642443
   4 N :   -0.700951
   5 C :    1.507734
   6 C :    0.917983
   7 C :   -0.423327
   8 H :    0.309549
   9 H :    0.276049
  10 H :    0.263299
  11 H :    0.333685
  12 H :    0.326882
Sum of atomic charges:   -0.0000000

LOEWDIN ATOMIC CHARGES
----------------------
   0 F :    0.788646
   1 F :    0.777296
   2 O :    0.697737
   3 O :    1.244818
   4 N :    1.283691
   5 C :   -1.528597
   6 C :   -1.109946
   7 C :    0.277169
   8 H :   -0.796904
   9 H :   -0.512316
  10 H :   -0.511489
  11 H :   -0.308526
  12 H :   -0.301579

  Mayer bond orders larger than 0.100000
B(  0-F ,  5-C ) :   0.2529 B(  1-F ,  5-C ) :   0.2186 B(  1-F ,  6-C ) :   0.1239
B(  2-O ,  6-C ) :   1.4740 B(  3-O ,  6-C ) :   0.9147 B(  3-O ,  8-H ) :   0.9248
B(  4-N ,  7-C ) :   0.9522 B(  4-N ,  9-H ) :   0.8786 B(  4-N , 10-H ) :   0.8910
B(  5-C ,  6-C ) :   1.0259 B(  5-C ,  7-C ) :   0.9034 B(  7-C , 11-H ) :   0.8722
B(  7-C , 12-H ) :   0.8532

MP2 TOTAL ENERGY:     -521.630043015 Eh
FINAL SINGLE POINT ENERGY      -521.630043015420

DIPOLE MOMENT
-------------
                                X             Y             Z
Electronic contribution:     -3.67464       2.46683       4.81271
Nuclear contribution   :      3.56919      -3.23506      -5.07384
                        -----------------------------------------
Total Dipole Moment    :     -0.10545      -0.76822      -0.26113
                        -----------------------------------------
Magnitude (a.u.)       :      0.81821
Magnitude (Debye)      :      2.07974

Rotational constants in cm-1:     0.107170     0.050752     0.047018
Rotational constants in MHz :  3212.881922  1521.504189  1409.550641

                             ****ORCA TERMINATED NORMALLY****
TOTAL RUN TIME: 0 days 0 hours 22 minutes 42 seconds 115 msec
