                         Program Version 5.0.4 -  RELEASE  -
|  1> !ri-mp2 aug-cc-pvqz aug-cc-pvqz/c tightscf
|  2> %pal nprocs 16 end
|  3>
|  4> * xyz 0 1
|  5> N      1.200532   -1.192190    0.000009
|  6> C     -0.248247   -1.251538    0.000100
|  7> C     -1.059500    0.036614    0.000061
|  8> C     -0.288709    1.286859    0.000113
|  9> C      1.051418    1.235550   -0.000006
| 10> C      1.757680   -0.047837   -0.000095
| 11> O     -2.276005    0.018306   -0.000145
| 12> H     -0.559635   -1.846968    0.864275
| 13> H     -0.843315    2.215844    0.000201
| 14> H      1.646021    2.141077   -0.000054
| 15> H      2.845073   -0.022117   -0.000226
| 16> H     -0.559677   -1.846841   -0.864144
| 17> *
| 18>
| 19>                          ****END OF INPUT****

CARTESIAN COORDINATES (ANGSTROEM)
---------------------------------
  N      1.200532   -1.192190    0.000009
  C     -0.248247   -1.251538    0.000100
  C     -1.059500    0.036614    0.000061
  C     -0.288709    1.286859    0.000113
  C      1.051418    1.235550   -0.000006
  C      1.757680   -0.047837   -0.000095
  O     -2.276005    0.018306   -0.000145
  H     -0.559635   -1.846968    0.864275
  H     -0.843315    2.215844    0.000201
  H      1.646021    2.141077   -0.000054
  H      2.845073   -0.022117   -0.000226
  H     -0.559677   -1.846841   -0.864144

 Total Charge           Charge          ....    0
 Multiplicity           Mult            ....    1
 Number of Electrons    NEL             ....   50
 Basis Dimension        Dim             ....  790

ORBITAL ENERGIES
----------------

  NO   OCC          E(Eh)            E(eV)
   0   2.0000     -20.550088      -559.1963
   1   2.0000     -15.584442      -424.0742
   2   2.0000     -11.341379      -308.6146
   3   2.0000     -11.299020      -307.4620
   4   2.0000     -11.282090      -307.0013
   5   2.0000     -11.274446      -306.7933
   6   2.0000     -11.266698      -306.5824
   7   2.0000      -1.392277       -37.8858
   8   2.0000      -1.264194       -34.4005
   9   2.0000      -1.100263       -29.9397
  10   2.0000      -1.023371       -27.8474
  11   2.0000      -0.892146       -24.2765
  12   2.0000      -0.834524       -22.7086
  13   2.0000      -0.728134       -19.8135
  14   2.0000      -0.694299       -18.8928
  15   2.0000      -0.674955       -18.3665
  16   2.0000      -0.639500       -17.4017
  17   2.0000      -0.609455       -16.5841
  18   2.0000      -0.599285       -16.3074
  19   2.0000      -0.564164       -15.3517
  20   2.0000      -0.525505       -14.2997
  21   2.0000      -0.484310       -13.1787
  22   2.0000      -0.474835       -12.9209
  23   2.0000      -0.400213       -10.8904
  24   2.0000      -0.376506       -10.2452
  25   0.0000       0.018701         0.5089
  26   0.0000       0.030464         0.8290
  27   0.0000       0.033305         0.9063
  28   0.0000       0.033795         0.9196
  29   0.0000       0.044518         1.2114

MULLIKEN ATOMIC CHARGES
-----------------------
   0 N :   -0.576258
   1 C :   -0.261058
   2 C :    0.875124
   3 C :   -0.406484
   4 C :   -0.452765
   5 C :   -0.165773
   6 O :   -0.788893
   7 H :    0.301842
   8 H :    0.401672
   9 H :    0.297666
  10 H :    0.473210
  11 H :    0.301717
Sum of atomic charges:   -0.0000000

LOEWDIN ATOMIC CHARGES
----------------------
   0 N :    0.630591
   1 C :    0.226389
   2 C :   -0.691922
   3 C :    0.338933
   4 C :    0.360224
   5 C :    0.087293
   6 O :    0.709907
   7 H :   -0.319991
   8 H :   -0.336524
   9 H :   -0.323329
  10 H :   -0.361535
  11 H :   -0.320036

  Mayer bond orders larger than 0.100000
B(  0-N ,  1-C ) :   0.8825 B(  0-N ,  5-C ) :   1.7347 B(  1-C ,  2-C ) :   1.0900
B(  1-C ,  6-O ) :   0.1419 B(  1-C ,  7-H ) :   0.8627 B(  1-C , 11-H ) :   0.8628
B(  2-C ,  3-C ) :   0.9966 B(  2-C ,  4-C ) :  -0.1272 B(  2-C ,  6-O ) :   1.1139
B(  3-C ,  4-C ) :   1.5276 B(  3-C ,  6-O ) :   0.2250 B(  3-C ,  8-H ) :   0.8554
B(  4-C ,  5-C ) :   0.9395 B(  4-C ,  9-H ) :   1.0133 B(  5-C , 10-H ) :   0.8394

MP2 TOTAL ENERGY:     -322.958770732 Eh
FINAL SINGLE POINT ENERGY      -322.958770731745

DIPOLE MOMENT
-------------
                                X             Y             Z
Electronic contribution:     -1.27841       0.14285       0.00009
Nuclear contribution   :      2.46816       0.62630       0.00005
                        -----------------------------------------
Total Dipole Moment    :      1.18975       0.76915       0.00014
                        -----------------------------------------
Magnitude (a.u.)       :      1.41672
Magnitude (Debye)      :      3.60102

Rotational constants in cm-1:     0.177835     0.092367     0.061459
Rotational constants in MHz :  5331.350290  2769.105818  1842.507646

                             ****ORCA TERMINATED NORMALLY****
TOTAL RUN TIME: 0 days 0 hours 20 minutes 32 seconds 188 msec
