                         Program Version 5.0.4 -  RELEASE  -
|  1> !ri-mp2 aug-cc-pvqz aug-cc-pvqz/c tightscf
|  2> %pal nprocs 16 end
|  3>
|  4> * xyz 0 1
|  5> H     -2.208077    0.786344    0.000000
|  6> C     -1.250002    0.285807    0.000000
|  7> C      0.000000    0.979789    0.000000
|  8> C      1.052965    0.110970    0.000000
|  9> H     -1.892989   -1.815714    0.000000
| 10> C     -1.117544   -1.068772    0.000000
| 11> S      0.542369   -1.539521    0.000000
| 12> H      1.168494    2.786598    0.000000
| 13> H     -0.354771    2.912496    0.878798
| 14> H     -0.354771    2.912496   -0.878798
| 15> C      0.124666    2.475760    0.000000
| 16> H      2.103691    0.348795    0.000000
| 17> *
| 18>
| 19>                          ****END OF INPUT****

CARTESIAN COORDINATES (ANGSTROEM)
---------------------------------
  H     -2.208077    0.786344    0.000000
  C     -1.250002    0.285807    0.000000
  C      0.000000    0.979789    0.000000
  C      1.052965    0.110970    0.000000
  H     -1.892989   -1.815714    0.000000
  C     -1.117544   -1.068772    0.000000
  S      0.542369   -1.539521    0.000000
  H      1.168494    2.786598    0.000000
  H     -0.354771    2.912496    0.878798
  H     -0.354771    2.912496   -0.878798
  C      0.124666    2.475760    0.000000
  H      2.103691    0.348795    0.000000

 Total Charge           Charge          ....    0
 Multiplicity           Mult            ....    1
 Number of Electrons    NEL             ....   52
 Basis Dimension        Dim             ....  760

ORBITAL ENERGIES
----------------

  NO   OCC          E(Eh)            E(eV)
   0   2.0000     -91.975890     -2502.7912
   1   2.0000     -11.259318      -306.3816
   2   2.0000     -11.251237      -306.1617
   3   2.0000     -11.241753      -305.9037
   4   2.0000     -11.232258      -305.6453
   5   2.0000     -11.227516      -305.5162
   6   2.0000      -8.977380      -244.2869
   7   2.0000      -6.658711      -181.1927
   8   2.0000      -6.658215      -181.1792
   9   2.0000      -6.657572      -181.1617
  10   2.0000      -1.170196       -31.8427
  11   2.0000      -1.028866       -27.9969
  12   2.0000      -0.980308       -26.6755
  13   2.0000      -0.912392       -24.8275
  14   2.0000      -0.769525       -20.9398
  15   2.0000      -0.732114       -19.9218
  16   2.0000      -0.668752       -18.1977
  17   2.0000      -0.584173       -15.8962
  18   2.0000      -0.581589       -15.8259
  19   2.0000      -0.562833       -15.3155
  20   2.0000      -0.521722       -14.1968
  21   2.0000      -0.512362       -13.9421
  22   2.0000      -0.506223       -13.7750
  23   2.0000      -0.466599       -12.6968
  24   2.0000      -0.337496        -9.1837
  25   2.0000      -0.322138        -8.7658
  26   0.0000       0.025942         0.7059
  27   0.0000       0.029119         0.7924
  28   0.0000       0.032532         0.8852
  29   0.0000       0.042446         1.1550
  30   0.0000       0.043217         1.1760

MULLIKEN ATOMIC CHARGES
-----------------------
   0 H :    0.352769
   1 C :   -0.435941
   2 C :    0.515179
   3 C :   -0.905317
   4 H :    0.424537
   5 C :   -0.606604
   6 S :    0.255405
   7 H :    0.231482
   8 H :    0.246397
   9 H :    0.246397
  10 C :   -0.692533
  11 H :    0.368228
Sum of atomic charges:   -0.0000000

LOEWDIN ATOMIC CHARGES
----------------------
   0 H :   -0.322568
   1 C :    0.193057
   2 C :   -0.235807
   3 C :   -0.076107
   4 H :   -0.408480
   5 C :   -0.077534
   6 S :    1.324644
   7 H :   -0.309965
   8 H :   -0.290077
   9 H :   -0.290077
  10 C :    0.895603
  11 H :   -0.402688

  Mayer bond orders larger than 0.100000
B(  0-H ,  1-C ) :   0.9262 B(  1-C ,  2-C ) :   0.8718 B(  1-C ,  5-C ) :   1.5390
B(  2-C ,  3-C ) :   1.0565 B(  2-C ,  5-C ) :  -0.1984 B(  2-C ,  6-S ) :  -0.2991
B(  2-C ,  7-H ) :  -0.1203 B(  2-C , 10-C ) :   0.6804 B(  3-C ,  6-S ) :   1.3170
B(  3-C , 11-H ) :   0.8841 B(  4-H ,  5-C ) :   0.8380 B(  5-C ,  6-S ) :   1.1509
B(  7-H , 10-C ) :   1.0290 B(  8-H , 10-C ) :   0.9824 B(  9-H , 10-C ) :   0.9824

MP2 TOTAL ENERGY:     -591.509593702 Eh
FINAL SINGLE POINT ENERGY      -591.509593701682

DIPOLE MOMENT
-------------
                                X             Y             Z
Electronic contribution:      1.37198      -7.49862       0.00000
Nuclear contribution   :     -1.54719       7.93762       0.00000
                        -----------------------------------------
Total Dipole Moment    :     -0.17521       0.43900       0.00000
                        -----------------------------------------
Magnitude (a.u.)       :      0.47267
Magnitude (Debye)      :      1.20142

Rotational constants in cm-1:     0.232860     0.081691     0.061159
Rotational constants in MHz :  6980.969319  2449.041021  1833.488948

                             ****ORCA TERMINATED NORMALLY****
TOTAL RUN TIME: 0 days 0 hours 21 minutes 59 seconds 179 msec
