                         Program Version 5.0.4 -  RELEASE  -
|  1> !ri-mp2 aug-cc-pvqz aug-cc-pvqz/c tightscf
|  2> %pal nprocs 16 end
|  3>
|  4> * xyz 0 1
|  5> O      1.940466    0.100077   -0.356377
|  6> H      2.421588   -0.726471   -0.237956
|  7> N      0.023471   -1.215094    0.138296
|  8> C     -1.181592   -0.930797   -0.131038
|  9> H     -1.898279   -1.715924   -0.357940
| 10> C      0.758775    0.029689    0.415101
| 11> H      1.011317    0.022646    1.482130
| 12> C     -1.554766    0.529531   -0.103113
| 13> H     -2.214713    0.732484    0.745109
| 14> H     -2.099834    0.828700   -0.999730
| 15> C     -0.174244    1.197650    0.045596
| 16> H     -0.160808    1.988315    0.792056
| 17> H      0.163676    1.618849   -0.900003
| 18> *
| 19>
| 20>                          ****END OF INPUT****

CARTESIAN COORDINATES (ANGSTROEM)
---------------------------------
  O      1.940466    0.100077   -0.356377
  H      2.421588   -0.726471   -0.237956
  N      0.023471   -1.215094    0.138296
  C     -1.181592   -0.930797   -0.131038
  H     -1.898279   -1.715924   -0.357940
  C      0.758775    0.029689    0.415101
  H      1.011317    0.022646    1.482130
  C     -1.554766    0.529531   -0.103113
  H     -2.214713    0.732484    0.745109
  H     -2.099834    0.828700   -0.999730
  C     -0.174244    1.197650    0.045596
  H     -0.160808    1.988315    0.792056
  H      0.163676    1.618849   -0.900003

 Total Charge           Charge          ....    0
 Multiplicity           Mult            ....    1
 Number of Electrons    NEL             ....   46
 Basis Dimension        Dim             ....  802

ORBITAL ENERGIES
----------------

  NO   OCC          E(Eh)            E(eV)
   0   2.0000     -20.554992      -559.3298
   1   2.0000     -15.555058      -423.2746
   2   2.0000     -11.307062      -307.6808
   3   2.0000     -11.279627      -306.9343
   4   2.0000     -11.240406      -305.8670
   5   2.0000     -11.226928      -305.5003
   6   2.0000      -1.370462       -37.2922
   7   2.0000      -1.244082       -33.8532
   8   2.0000      -1.040034       -28.3008
   9   2.0000      -0.965911       -26.2838
  10   2.0000      -0.816713       -22.2239
  11   2.0000      -0.770774       -20.9738
  12   2.0000      -0.700006       -19.0481
  13   2.0000      -0.673571       -18.3288
  14   2.0000      -0.642034       -17.4706
  15   2.0000      -0.599584       -16.3155
  16   2.0000      -0.556957       -15.1556
  17   2.0000      -0.521216       -14.1830
  18   2.0000      -0.513262       -13.9666
  19   2.0000      -0.506848       -13.7920
  20   2.0000      -0.459728       -12.5098
  21   2.0000      -0.418543       -11.3891
  22   2.0000      -0.411085       -11.1862
  23   0.0000       0.024484         0.6662
  24   0.0000       0.032294         0.8788
  25   0.0000       0.035269         0.9597
  26   0.0000       0.037082         1.0091
  27   0.0000       0.048773         1.3272

MULLIKEN ATOMIC CHARGES
-----------------------
   0 O :   -0.831490
   1 H :    0.311233
   2 N :   -0.668757
   3 C :   -0.307876
   4 H :    0.557052
   5 C :    0.663773
   6 H :    0.314684
   7 C :   -0.500931
   8 H :    0.224548
   9 H :    0.263691
  10 C :   -0.560290
  11 H :    0.287782
  12 H :    0.246582
Sum of atomic charges:    0.0000000

LOEWDIN ATOMIC CHARGES
----------------------
   0 O :    1.264577
   1 H :   -0.799081
   2 N :    0.633005
   3 C :    0.126094
   4 H :   -0.323539
   5 C :   -0.470715
   6 H :   -0.316428
   7 C :    0.508353
   8 H :   -0.275000
   9 H :   -0.275086
  10 C :    0.489133
  11 H :   -0.266993
  12 H :   -0.294320

  Mayer bond orders larger than 0.100000
B(  0-O ,  1-H ) :   0.9274 B(  0-O ,  5-C ) :   0.4461 B(  0-O , 10-C ) :   0.1001
B(  2-N ,  3-C ) :   1.8229 B(  2-N ,  5-C ) :   0.6710 B(  3-C ,  4-H ) :   0.6825
B(  3-C ,  7-C ) :   1.0090 B(  5-C ,  6-H ) :   0.8664 B(  5-C , 10-C ) :   0.9825
B(  7-C ,  8-H ) :   0.9126 B(  7-C ,  9-H ) :   0.9350 B(  7-C , 10-C ) :   1.0296
B( 10-C , 11-H ) :   0.8763 B( 10-C , 12-H ) :   0.8971

MP2 TOTAL ENERGY:     -286.146831544 Eh
FINAL SINGLE POINT ENERGY      -286.146831544399

DIPOLE MOMENT
-------------
                                X             Y             Z
Electronic contribution:      1.98544      -2.51375      -0.25350
Nuclear contribution   :     -2.78781       2.78447       0.52670
                        -----------------------------------------
Total Dipole Moment    :     -0.80236       0.27072       0.27320
                        -----------------------------------------
Magnitude (a.u.)       :      0.88978
Magnitude (Debye)      :      2.26165

Rotational constants in cm-1:     0.230334     0.117514     0.085824
Rotational constants in MHz :  6905.225436  3522.985584  2572.938349

                             ****ORCA TERMINATED NORMALLY****
TOTAL RUN TIME: 0 days 0 hours 19 minutes 35 seconds 79 msec
