                         Program Version 5.0.4 -  RELEASE  -
|  1> !ri-mp2 aug-cc-pvqz aug-cc-pvqz/c tightscf
|  2> %pal nprocs 16 end
|  3>
|  4> * xyz 0 1
|  5> S      2.304780    0.469076    0.000055
|  6> N     -0.000276   -1.064889   -0.000264
|  7> C     -1.440161   -1.078448    0.000154
|  8> C     -2.045252    0.250085    0.000038
|  9> C      0.961067   -0.361593   -0.000087
| 10> C     -2.535008    1.342919   -0.000048
| 11> H     -1.775353   -1.640578   -0.874688
| 12> H     -1.774829   -1.640184    0.875452
| 13> H     -2.968251    2.311985   -0.000143
| 14> *
| 15>
| 16>                          ****END OF INPUT****

CARTESIAN COORDINATES (ANGSTROEM)
---------------------------------
  S      2.304780    0.469076    0.000055
  N     -0.000276   -1.064889   -0.000264
  C     -1.440161   -1.078448    0.000154
  C     -2.045252    0.250085    0.000038
  C      0.961067   -0.361593   -0.000087
  C     -2.535008    1.342919   -0.000048
  H     -1.775353   -1.640578   -0.874688
  H     -1.774829   -1.640184    0.875452
  H     -2.968251    2.311985   -0.000143

 Total Charge           Charge          ....    0
 Multiplicity           Mult            ....    1
 Number of Electrons    NEL             ....   50
 Basis Dimension        Dim             ....  622

ORBITAL ENERGIES
----------------

  NO   OCC          E(Eh)            E(eV)
   0   2.0000     -91.949520     -2502.0736
   1   2.0000     -15.609816      -424.7647
   2   2.0000     -11.377585      -309.5998
   3   2.0000     -11.337608      -308.5120
   4   2.0000     -11.255556      -306.2792
   5   2.0000     -11.248044      -306.0748
   6   2.0000      -8.953652      -243.6413
   7   2.0000      -6.635477      -180.5605
   8   2.0000      -6.633201      -180.4986
   9   2.0000      -6.632924      -180.4910
  10   2.0000      -1.301244       -35.4087
  11   2.0000      -1.098650       -29.8958
  12   2.0000      -1.037439       -28.2301
  13   2.0000      -0.990092       -26.9418
  14   2.0000      -0.786110       -21.3911
  15   2.0000      -0.726011       -19.7558
  16   2.0000      -0.680800       -18.5255
  17   2.0000      -0.672186       -18.2911
  18   2.0000      -0.599772       -16.3206
  19   2.0000      -0.549540       -14.9537
  20   2.0000      -0.540032       -14.6950
  21   2.0000      -0.423619       -11.5273
  22   2.0000      -0.414973       -11.2920
  23   2.0000      -0.370957       -10.0943
  24   2.0000      -0.358535        -9.7562
  25   0.0000       0.021671         0.5897
  26   0.0000       0.026966         0.7338
  27   0.0000       0.037277         1.0144
  28   0.0000       0.048899         1.3306
  29   0.0000       0.059939         1.6310

MULLIKEN ATOMIC CHARGES
-----------------------
   0 S :    0.016806
   1 N :   -0.447103
   2 C :   -0.058480
   3 C :   -0.047689
   4 C :    0.121249
   5 C :   -0.781428
   6 H :    0.348382
   7 H :    0.348408
   8 H :    0.499856
Sum of atomic charges:   -0.0000000

LOEWDIN ATOMIC CHARGES
----------------------
   0 S :    0.953503
   1 N :    0.382850
   2 C :    0.173248
   3 C :    0.072455
   4 C :   -1.030978
   5 C :    0.574233
   6 H :   -0.335087
   7 H :   -0.335082
   8 H :   -0.455143

  Mayer bond orders larger than 0.100000
B(  0-S ,  4-C ) :   1.5112 B(  1-N ,  2-C ) :   0.6977 B(  1-N ,  4-C ) :   2.1307
B(  2-C ,  3-C ) :   0.9391 B(  2-C ,  5-C ) :  -0.1904 B(  2-C ,  6-H ) :   0.8667
B(  2-C ,  7-H ) :   0.8666 B(  3-C ,  5-C ) :   2.6649 B(  5-C ,  8-H ) :   0.8255

MP2 TOTAL ENERGY:     -606.269864279 Eh
FINAL SINGLE POINT ENERGY      -606.269864278685

DIPOLE MOMENT
-------------
                                X             Y             Z
Electronic contribution:      5.17749       0.69528      -0.00039
Nuclear contribution   :     -6.37034      -0.95658       0.00060
                        -----------------------------------------
Total Dipole Moment    :     -1.19285      -0.26130       0.00021
                        -----------------------------------------
Magnitude (a.u.)       :      1.22113
Magnitude (Debye)      :      3.10387

Rotational constants in cm-1:     0.230192     0.048154     0.040116
Rotational constants in MHz :  6900.977400  1443.626666  1202.649275

                             ****ORCA TERMINATED NORMALLY****
TOTAL RUN TIME: 0 days 0 hours 12 minutes 56 seconds 20 msec
