                         Program Version 5.0.4 -  RELEASE  -
|  1> !ri-mp2 aug-cc-pvqz aug-cc-pvqz/c tightscf
|  2> %pal nprocs 16 end
|  3>
|  4> * xyz 0 1
|  5> C     -3.048752   -0.233601    0.036674
|  6> C     -1.747093   -0.694147   -0.606769
|  7> S     -0.333206    0.184684    0.124046
|  8> O     -0.241241   -0.192676    1.531689
|  9> O     -0.432759    1.596855   -0.241566
| 10> C      1.104634   -0.526657   -0.766862
| 11> C      2.358790    0.197724   -0.407998
| 12> C      3.357139   -0.350923    0.271282
| 13> H     -3.045989   -0.433495    1.106557
| 14> H     -3.203625    0.832669   -0.117926
| 15> H     -3.884192   -0.770832   -0.411908
| 16> H     -1.719025   -0.479926   -1.674605
| 17> H     -1.562290   -1.755515   -0.442909
| 18> H      1.142724   -1.579964   -0.494282
| 19> H      0.862845   -0.421743   -1.825556
| 20> H      2.417087    1.230864   -0.727347
| 21> H      3.318293   -1.376763    0.615663
| 22> H      4.249152    0.211954    0.508629
| 23> *
| 24>
| 25>                          ****END OF INPUT****

CARTESIAN COORDINATES (ANGSTROEM)
---------------------------------
  C     -3.048752   -0.233601    0.036674
  C     -1.747093   -0.694147   -0.606769
  S     -0.333206    0.184684    0.124046
  O     -0.241241   -0.192676    1.531689
  O     -0.432759    1.596855   -0.241566
  C      1.104634   -0.526657   -0.766862
  C      2.358790    0.197724   -0.407998
  C      3.357139   -0.350923    0.271282
  H     -3.045989   -0.433495    1.106557
  H     -3.203625    0.832669   -0.117926
  H     -3.884192   -0.770832   -0.411908
  H     -1.719025   -0.479926   -1.674605
  H     -1.562290   -1.755515   -0.442909
  H      1.142724   -1.579964   -0.494282
  H      0.862845   -0.421743   -1.825556
  H      2.417087    1.230864   -0.727347
  H      3.318293   -1.376763    0.615663
  H      4.249152    0.211954    0.508629

 Total Charge           Charge          ....    0
 Multiplicity           Mult            ....    1
 Number of Electrons    NEL             ....   72
 Basis Dimension        Dim             .... 1104

ORBITAL ENERGIES
----------------

  NO   OCC          E(Eh)            E(eV)
   0   2.0000     -92.164856     -2507.9332
   1   2.0000     -20.536484      -558.8261
   2   2.0000     -20.535841      -558.8087
   3   2.0000     -11.283916      -307.0510
   4   2.0000     -11.280410      -306.9556
   5   2.0000     -11.252610      -306.1991
   6   2.0000     -11.241326      -305.8920
   7   2.0000     -11.238740      -305.8217
   8   2.0000      -9.135283      -248.5837
   9   2.0000      -6.820410      -185.5928
  10   2.0000      -6.819778      -185.5756
  11   2.0000      -6.819399      -185.5653
  12   2.0000      -1.433798       -39.0156
  13   2.0000      -1.323618       -36.0175
  14   2.0000      -1.108185       -30.1553
  15   2.0000      -1.078439       -29.3458
  16   2.0000      -0.993968       -27.0473
  17   2.0000      -0.907218       -24.6867
  18   2.0000      -0.808938       -22.0123
  19   2.0000      -0.777967       -21.1696
  20   2.0000      -0.691294       -18.8111
  21   2.0000      -0.679801       -18.4983
  22   2.0000      -0.663091       -18.0436
  23   2.0000      -0.644605       -17.5406
  24   2.0000      -0.623581       -16.9685
  25   2.0000      -0.611382       -16.6365
  26   2.0000      -0.580389       -15.7932
  27   2.0000      -0.560453       -15.2507
  28   2.0000      -0.551248       -15.0002
  29   2.0000      -0.530194       -14.4273
  30   2.0000      -0.520093       -14.1524
  31   2.0000      -0.489384       -13.3168
  32   2.0000      -0.486953       -13.2507
  33   2.0000      -0.461986       -12.5713
  34   2.0000      -0.435717       -11.8565
  35   2.0000      -0.378563       -10.3012
  36   0.0000       0.019479         0.5301
  37   0.0000       0.027249         0.7415
  38   0.0000       0.031527         0.8579
  39   0.0000       0.033731         0.9179
  40   0.0000       0.044125         1.2007

MULLIKEN ATOMIC CHARGES
-----------------------
   0 C :   -0.888187
   1 C :   -0.509398
   2 S :    2.495301
   3 O :   -1.320205
   4 O :   -1.324242
   5 C :   -0.453474
   6 C :   -0.577590
   7 C :   -0.792470
   8 H :    0.259149
   9 H :    0.259032
  10 H :    0.291696
  11 H :    0.329823
  12 H :    0.315660
  13 H :    0.374105
  14 H :    0.384733
  15 H :    0.442716
  16 H :    0.344472
  17 H :    0.368881
Sum of atomic charges:    0.0000000

LOEWDIN ATOMIC CHARGES
----------------------
   0 C :    0.888820
   1 C :    0.411038
   2 S :   -0.189203
   3 O :    0.307664
   4 O :    0.307830
   5 C :    0.380201
   6 C :    0.307014
   7 C :    0.805488
   8 H :   -0.295990
   9 H :   -0.294514
  10 H :   -0.282676
  11 H :   -0.321715
  12 H :   -0.319072
  13 H :   -0.347757
  14 H :   -0.329694
  15 H :   -0.335621
  16 H :   -0.345458
  17 H :   -0.346355

  Mayer bond orders larger than 0.100000
B(  0-C ,  1-C ) :   0.8725 B(  0-C ,  8-H ) :   0.9473 B(  0-C ,  9-H ) :   0.9477
B(  0-C , 10-H ) :   0.9574 B(  1-C ,  2-S ) :   0.8972 B(  1-C , 11-H ) :   0.8316
B(  1-C , 12-H ) :   0.8565 B(  2-S ,  3-O ) :   0.8305 B(  2-S ,  4-O ) :   0.8591
B(  2-S ,  5-C ) :   0.9607 B(  5-C ,  6-C ) :   0.9102 B(  5-C ,  7-C ) :  -0.1504
B(  5-C , 13-H ) :   0.8270 B(  5-C , 14-H ) :   0.7949 B(  6-C ,  7-C ) :   1.8818
B(  6-C , 15-H ) :   0.7785 B(  7-C , 16-H ) :   0.8911 B(  7-C , 17-H ) :   0.9316

MP2 TOTAL ENERGY:     -744.169776945 Eh
FINAL SINGLE POINT ENERGY      -744.169776945238

DIPOLE MOMENT
-------------
                                X             Y             Z
Electronic contribution:      1.39375       3.18038       2.14395
Nuclear contribution   :     -1.43628      -4.56100      -3.47359
                        -----------------------------------------
Total Dipole Moment    :     -0.04253      -1.38062      -1.32964
                        -----------------------------------------
Magnitude (a.u.)       :      1.91725
Magnitude (Debye)      :      4.87327

Rotational constants in cm-1:     0.132202     0.032916     0.032678
Rotational constants in MHz :  3963.303826   986.782125   979.648020

                             ****ORCA TERMINATED NORMALLY****
TOTAL RUN TIME: 0 days 0 hours 55 minutes 44 seconds 434 msec
