                         Program Version 5.0.4 -  RELEASE  -
|  1> !ri-mp2 aug-cc-pvqz aug-cc-pvqz/c tightscf
|  2> %pal nprocs 16 end
|  3>
|  4> * xyz 0 1
|  5> C      0.332422   -0.120738    2.576193
|  6> C      0.332422   -0.120738   -2.576193
|  7> C     -1.326599   -0.799534    0.000000
|  8> C      0.332422    0.658899    1.260993
|  9> C      0.332422    0.658899   -1.260993
| 10> C      0.076207   -0.183223    0.000000
| 11> H      1.064695   -0.930894    2.552760
| 12> H      0.589136    0.530437    3.413029
| 13> H     -0.640971   -0.560347    2.794714
| 14> H      0.589136    0.530437   -3.413029
| 15> H     -0.640971   -0.560347   -2.794714
| 16> H      1.064695   -0.930894   -2.552760
| 17> H     -2.090417   -0.016871    0.000000
| 18> H     -1.492605   -1.425260    0.876651
| 19> H     -1.492605   -1.425260   -0.876651
| 20> H      1.299473    1.157680    1.150999
| 21> H     -0.414951    1.458132    1.311128
| 22> H     -0.414951    1.458132   -1.311128
| 23> H      1.299473    1.157680   -1.150999
| 24> H      0.805074   -1.004008    0.000000
| 25> *
| 26>
| 27>                          ****END OF INPUT****

CARTESIAN COORDINATES (ANGSTROEM)
---------------------------------
  C      0.332422   -0.120738    2.576193
  C      0.332422   -0.120738   -2.576193
  C     -1.326599   -0.799534    0.000000
  C      0.332422    0.658899    1.260993
  C      0.332422    0.658899   -1.260993
  C      0.076207   -0.183223    0.000000
  H      1.064695   -0.930894    2.552760
  H      0.589136    0.530437    3.413029
  H     -0.640971   -0.560347    2.794714
  H      0.589136    0.530437   -3.413029
  H     -0.640971   -0.560347   -2.794714
  H      1.064695   -0.930894   -2.552760
  H     -2.090417   -0.016871    0.000000
  H     -1.492605   -1.425260    0.876651
  H     -1.492605   -1.425260   -0.876651
  H      1.299473    1.157680    1.150999
  H     -0.414951    1.458132    1.311128
  H     -0.414951    1.458132   -1.311128
  H      1.299473    1.157680   -1.150999
  H      0.805074   -1.004008    0.000000

 Total Charge           Charge          ....    0
 Multiplicity           Mult            ....    1
 Number of Electrons    NEL             ....   50
 Basis Dimension        Dim             .... 1124

ORBITAL ENERGIES
----------------

  NO   OCC          E(Eh)            E(eV)
   0   2.0000     -11.218610      -305.2739
   1   2.0000     -11.212066      -305.0958
   2   2.0000     -11.212028      -305.0948
   3   2.0000     -11.207109      -304.9609
   4   2.0000     -11.207108      -304.9609
   5   2.0000     -11.204818      -304.8986
   6   2.0000      -1.093848       -29.7651
   7   2.0000      -1.012682       -27.5565
   8   2.0000      -0.961634       -26.1674
   9   2.0000      -0.887696       -24.1554
  10   2.0000      -0.818757       -22.2795
  11   2.0000      -0.757224       -20.6051
  12   2.0000      -0.635710       -17.2985
  13   2.0000      -0.618824       -16.8391
  14   2.0000      -0.590910       -16.0795
  15   2.0000      -0.572668       -15.5831
  16   2.0000      -0.548966       -14.9381
  17   2.0000      -0.538049       -14.6411
  18   2.0000      -0.522541       -14.2191
  19   2.0000      -0.506959       -13.7951
  20   2.0000      -0.491015       -13.3612
  21   2.0000      -0.475331       -12.9344
  22   2.0000      -0.452474       -12.3124
  23   2.0000      -0.444587       -12.0978
  24   2.0000      -0.438247       -11.9253
  25   0.0000       0.027148         0.7387
  26   0.0000       0.029959         0.8152
  27   0.0000       0.032198         0.8762
  28   0.0000       0.033892         0.9222
  29   0.0000       0.046815         1.2739

MULLIKEN ATOMIC CHARGES
-----------------------
   0 C :   -0.873817
   1 C :   -0.873819
   2 C :   -1.064343
   3 C :   -0.520330
   4 C :   -0.520331
   5 C :    0.586913
   6 H :    0.191923
   7 H :    0.270485
   8 H :    0.227037
   9 H :    0.270483
  10 H :    0.227036
  11 H :    0.191922
  12 H :    0.208640
  13 H :    0.299149
  14 H :    0.299149
  15 H :    0.237550
  16 H :    0.201067
  17 H :    0.201070
  18 H :    0.237552
  19 H :    0.202665
Sum of atomic charges:    0.0000000

LOEWDIN ATOMIC CHARGES
----------------------
   0 C :    0.935843
   1 C :    0.935843
   2 C :    0.927082
   3 C :    0.507456
   4 C :    0.507456
   5 C :    0.111961
   6 H :   -0.276899
   7 H :   -0.280259
   8 H :   -0.297402
   9 H :   -0.280259
  10 H :   -0.297402
  11 H :   -0.276899
  12 H :   -0.265355
  13 H :   -0.290404
  14 H :   -0.290404
  15 H :   -0.281124
  16 H :   -0.266681
  17 H :   -0.266681
  18 H :   -0.281124
  19 H :   -0.274749

  Mayer bond orders larger than 0.100000
B(  0-C ,  3-C ) :   0.9298 B(  0-C ,  5-C ) :  -0.1051 B(  0-C ,  6-H ) :   0.9833
B(  0-C ,  7-H ) :   1.0171 B(  0-C ,  8-H ) :   0.9670 B(  1-C ,  4-C ) :   0.9298
B(  1-C ,  5-C ) :  -0.1051 B(  1-C ,  9-H ) :   1.0171 B(  1-C , 10-H ) :   0.9670
B(  1-C , 11-H ) :   0.9833 B(  2-C ,  3-C ) :   0.1078 B(  2-C ,  4-C ) :   0.1078
B(  2-C ,  5-C ) :   0.5538 B(  2-C , 12-H ) :   0.9983 B(  2-C , 13-H ) :   0.9920
B(  2-C , 14-H ) :   0.9920 B(  3-C ,  5-C ) :   0.6372 B(  3-C ,  7-H ) :  -0.1105
B(  3-C , 15-H ) :   0.9157 B(  3-C , 16-H ) :   0.9399 B(  4-C ,  5-C ) :   0.6372
B(  4-C ,  9-H ) :  -0.1105 B(  4-C , 17-H ) :   0.9399 B(  4-C , 18-H ) :   0.9157
B(  5-C , 19-H ) :   0.9465

MP2 TOTAL ENERGY:     -236.605684962 Eh
FINAL SINGLE POINT ENERGY      -236.605684962319

DIPOLE MOMENT
-------------
                                X             Y             Z
Electronic contribution:      0.54970       0.62551      -0.00000
Nuclear contribution   :     -0.51844      -0.61171       0.00000
                        -----------------------------------------
Total Dipole Moment    :      0.03126       0.01379      -0.00000
                        -----------------------------------------
Magnitude (a.u.)       :      0.03417
Magnitude (Debye)      :      0.08684

Rotational constants in cm-1:     0.217428     0.061444     0.052923
Rotational constants in MHz :  6518.319294  1842.041642  1586.591451

                             ****ORCA TERMINATED NORMALLY****
TOTAL RUN TIME: 0 days 1 hours 1 minutes 51 seconds 294 msec
