                         Program Version 5.0.4 -  RELEASE  -
|  1> !ri-mp2 aug-cc-pvqz aug-cc-pvqz/c tightscf
|  2> %pal nprocs 16 end
|  3>
|  4> * xyz 0 1
|  5> S      1.327006   -0.375637    0.105858
|  6> S     -0.627900   -1.176631   -0.128471
|  7> C      0.766846    1.280061   -0.119461
|  8> C     -1.496295    0.415715    0.204467
|  9> C     -0.535996    1.534602   -0.083959
| 10> H      1.537200    2.027810   -0.243628
| 11> H     -1.848317    0.454829    1.239330
| 12> H     -2.365633    0.428755   -0.452364
| 13> H     -0.916283    2.542633   -0.187804
| 14> *
| 15>
| 16>                          ****END OF INPUT****

CARTESIAN COORDINATES (ANGSTROEM)
---------------------------------
  S      1.327006   -0.375637    0.105858
  S     -0.627900   -1.176631   -0.128471
  C      0.766846    1.280061   -0.119461
  C     -1.496295    0.415715    0.204467
  C     -0.535996    1.534602   -0.083959
  H      1.537200    2.027810   -0.243628
  H     -1.848317    0.454829    1.239330
  H     -2.365633    0.428755   -0.452364
  H     -0.916283    2.542633   -0.187804

 Total Charge           Charge          ....    0
 Multiplicity           Mult            ....    1
 Number of Electrons    NEL             ....   54
 Basis Dimension        Dim             ....  592

ORBITAL ENERGIES
----------------

  NO   OCC          E(Eh)            E(eV)
   0   2.0000     -91.983058     -2502.9862
   1   2.0000     -91.976502     -2502.8079
   2   2.0000     -11.280665      -306.9625
   3   2.0000     -11.275819      -306.8306
   4   2.0000     -11.252334      -306.1916
   5   2.0000      -8.982961      -244.4388
   6   2.0000      -8.976203      -244.2549
   7   2.0000      -6.664209      -181.3423
   8   2.0000      -6.663297      -181.3175
   9   2.0000      -6.662088      -181.2846
  10   2.0000      -6.657389      -181.1568
  11   2.0000      -6.656428      -181.1306
  12   2.0000      -6.655229      -181.0980
  13   2.0000      -1.144211       -31.1356
  14   2.0000      -1.000864       -27.2349
  15   2.0000      -0.988376       -26.8951
  16   2.0000      -0.811564       -22.0838
  17   2.0000      -0.754559       -20.5326
  18   2.0000      -0.676433       -18.4067
  19   2.0000      -0.621359       -16.9080
  20   2.0000      -0.570952       -15.5364
  21   2.0000      -0.511632       -13.9222
  22   2.0000      -0.484827       -13.1928
  23   2.0000      -0.465760       -12.6740
  24   2.0000      -0.448801       -12.2125
  25   2.0000      -0.382460       -10.4073
  26   2.0000      -0.303991        -8.2720
  27   0.0000       0.023631         0.6430
  28   0.0000       0.031169         0.8482
  29   0.0000       0.038206         1.0396
  30   0.0000       0.040680         1.1070
  31   0.0000       0.057405         1.5621

MULLIKEN ATOMIC CHARGES
-----------------------
   0 S :    0.027572
   1 S :   -0.092372
   2 C :   -0.572135
   3 C :   -0.382657
   4 C :   -0.347053
   5 H :    0.403310
   6 H :    0.247389
   7 H :    0.245143
   8 H :    0.470802
Sum of atomic charges:   -0.0000000

LOEWDIN ATOMIC CHARGES
----------------------
   0 S :    0.773848
   1 S :    0.785871
   2 C :   -0.207321
   3 C :    0.024865
   4 C :    0.144387
   5 H :   -0.428668
   6 H :   -0.368318
   7 H :   -0.390322
   8 H :   -0.334342

  Mayer bond orders larger than 0.100000
B(  0-S ,  1-S ) :   1.0503 B(  0-S ,  2-C ) :   0.9519 B(  1-S ,  3-C ) :   0.9448
B(  1-S ,  4-C ) :  -0.1159 B(  2-C ,  4-C ) :   1.7419 B(  2-C ,  5-H ) :   0.8354
B(  3-C ,  4-C ) :   0.8902 B(  3-C ,  6-H ) :   0.8871 B(  3-C ,  7-H ) :   0.9315
B(  4-C ,  8-H ) :   0.7520

MP2 TOTAL ENERGY:     -911.953393113 Eh
FINAL SINGLE POINT ENERGY      -911.953393113334

DIPOLE MOMENT
-------------
                                X             Y             Z
Electronic contribution:      3.04883      -4.44444      -0.26858
Nuclear contribution   :     -3.51853       5.35569       0.34676
                        -----------------------------------------
Total Dipole Moment    :     -0.46970       0.91125       0.07819
                        -----------------------------------------
Magnitude (a.u.)       :      1.02816
Magnitude (Debye)      :      2.61338

Rotational constants in cm-1:     0.149152     0.137775     0.073797
Rotational constants in MHz :  4471.458045  4130.380995  2212.392873

                             ****ORCA TERMINATED NORMALLY****
TOTAL RUN TIME: 0 days 0 hours 10 minutes 33 seconds 197 msec
