                         Program Version 5.0.4 -  RELEASE  -
|  1> !ri-mp2 aug-cc-pvqz aug-cc-pvqz/c tightscf
|  2> %pal nprocs 16 end
|  3>
|  4> * xyz 0 1
|  5> H      1.698238    1.800485   -0.192826
|  6> C      0.918237    1.060294   -0.079962
|  7> H     -0.642305    2.415460    0.088334
|  8> C     -0.370105    1.369715    0.059818
|  9> H     -2.282342    0.596748   -0.513812
| 10> H     -1.850400    0.242473    1.140159
| 11> C     -1.442186    0.317252    0.126593
| 12> H     -0.784776   -1.061303   -1.405706
| 13> H     -1.516006   -1.859353   -0.019166
| 14> C     -0.868229   -1.033211   -0.317152
| 15> H      0.970892   -2.166720   -0.038422
| 16> H      0.456412   -1.234431    1.379263
| 17> C      0.514350   -1.233647    0.285501
| 18> O      1.429736   -0.201972   -0.110826
| 19> *
| 20>
| 21>                          ****END OF INPUT****

CARTESIAN COORDINATES (ANGSTROEM)
---------------------------------
  H      1.698238    1.800485   -0.192826
  C      0.918237    1.060294   -0.079962
  H     -0.642305    2.415460    0.088334
  C     -0.370105    1.369715    0.059818
  H     -2.282342    0.596748   -0.513812
  H     -1.850400    0.242473    1.140159
  C     -1.442186    0.317252    0.126593
  H     -0.784776   -1.061303   -1.405706
  H     -1.516006   -1.859353   -0.019166
  C     -0.868229   -1.033211   -0.317152
  H      0.970892   -2.166720   -0.038422
  H      0.456412   -1.234431    1.379263
  C      0.514350   -1.233647    0.285501
  O      1.429736   -0.201972   -0.110826

 Total Charge           Charge          ....    0
 Multiplicity           Mult            ....    1
 Number of Electrons    NEL             ....   46
 Basis Dimension        Dim             ....  848

ORBITAL ENERGIES
----------------

  NO   OCC          E(Eh)            E(eV)
   0   2.0000     -20.571307      -559.7737
   1   2.0000     -11.279693      -306.9361
   2   2.0000     -11.279264      -306.9244
   3   2.0000     -11.227862      -305.5256
   4   2.0000     -11.225896      -305.4722
   5   2.0000     -11.211950      -305.0927
   6   2.0000      -1.397129       -38.0178
   7   2.0000      -1.082930       -29.4680
   8   2.0000      -1.032860       -28.1055
   9   2.0000      -0.895208       -24.3598
  10   2.0000      -0.858101       -23.3501
  11   2.0000      -0.728978       -19.8365
  12   2.0000      -0.699379       -19.0311
  13   2.0000      -0.636700       -17.3255
  14   2.0000      -0.627821       -17.0839
  15   2.0000      -0.596347       -16.2274
  16   2.0000      -0.571172       -15.5424
  17   2.0000      -0.557742       -15.1769
  18   2.0000      -0.535725       -14.5778
  19   2.0000      -0.480064       -13.0632
  20   2.0000      -0.466316       -12.6891
  21   2.0000      -0.457084       -12.4379
  22   2.0000      -0.329127        -8.9560
  23   0.0000       0.025893         0.7046
  24   0.0000       0.031446         0.8557
  25   0.0000       0.034340         0.9344
  26   0.0000       0.035708         0.9717
  27   0.0000       0.046417         1.2631

MULLIKEN ATOMIC CHARGES
-----------------------
   0 H :    0.505116
   1 C :   -0.222448
   2 H :    0.310164
   3 C :   -0.427007
   4 H :    0.309997
   5 H :    0.202369
   6 C :   -0.319423
   7 H :    0.228660
   8 H :    0.307421
   9 C :   -0.563491
  10 H :    0.419063
  11 H :    0.185159
  12 C :   -0.071673
  13 O :   -0.863907
Sum of atomic charges:   -0.0000000

LOEWDIN ATOMIC CHARGES
----------------------
   0 H :   -0.364040
   1 C :    0.000404
   2 H :   -0.339896
   3 C :    0.363586
   4 H :   -0.282661
   5 H :   -0.277871
   6 C :    0.475780
   7 H :   -0.271827
   8 H :   -0.265704
   9 C :    0.497484
  10 H :   -0.303628
  11 H :   -0.288696
  12 C :    0.186693
  13 O :    0.870376

  Mayer bond orders larger than 0.100000
B(  0-H ,  1-C ) :   0.8388 B(  1-C ,  3-C ) :   1.6814 B(  1-C , 13-O ) :   0.7202
B(  2-H ,  3-C ) :   0.9667 B(  3-C ,  6-C ) :   0.7358 B(  3-C , 13-O ) :   0.1255
B(  4-H ,  6-C ) :   0.9094 B(  5-H ,  6-C ) :   0.9386 B(  6-C ,  9-C ) :   0.9440
B(  7-H ,  9-C ) :   0.8951 B(  8-H ,  9-C ) :   0.8767 B(  9-C , 12-C ) :   1.0214
B( 10-H , 12-C ) :   0.7918 B( 11-H , 12-C ) :   0.9698 B( 12-C , 13-O ) :   0.6633

MP2 TOTAL ENERGY:     -270.089528164 Eh
FINAL SINGLE POINT ENERGY      -270.089528163801

DIPOLE MOMENT
-------------
                                X             Y             Z
Electronic contribution:      3.50475       1.10313      -0.33084
Nuclear contribution   :     -4.03390      -1.30414       0.44786
                        -----------------------------------------
Total Dipole Moment    :     -0.52915      -0.20101       0.11702
                        -----------------------------------------
Magnitude (a.u.)       :      0.57801
Magnitude (Debye)      :      1.46919

Rotational constants in cm-1:     0.172727     0.159151     0.090114
Rotational constants in MHz :  5178.223186  4771.227573  2701.542975

                             ****ORCA TERMINATED NORMALLY****
TOTAL RUN TIME: 0 days 0 hours 27 minutes 30 seconds 232 msec
