                         Program Version 5.0.4 -  RELEASE  -
|  1> !ri-mp2 aug-cc-pvqz aug-cc-pvqz/c tightscf
|  2> %pal nprocs 16 end
|  3>
|  4> * xyz 0 1
|  5> C      1.606387   -0.480067    0.000000
|  6> H      2.540581    0.090664    0.000000
|  7> S     -2.130950    1.425864    0.000000
|  8> H     -3.258675    0.692401    0.000000
|  9> C     -0.938661    0.019058    0.000000
| 10> C      0.482787    0.577197    0.000000
| 11> C      1.606387   -1.344668    1.264784
| 12> C      1.606387   -1.344668   -1.264784
| 13> H     -1.123532   -0.585866    0.884604
| 14> H     -1.123532   -0.585866   -0.884604
| 15> H      0.607472    1.219754   -0.875670
| 16> H      0.607472    1.219754    0.875670
| 17> H      2.487666   -1.987485   -1.291990
| 18> H      2.487666   -1.987485    1.291990
| 19> H      0.730680   -1.994906    1.310682
| 20> H      0.730680   -1.994906   -1.310682
| 21> H      1.614497   -0.730494    2.167099
| 22> H      1.614497   -0.730494   -2.167099
| 23> *
| 24>
| 25>                          ****END OF INPUT****

CARTESIAN COORDINATES (ANGSTROEM)
---------------------------------
  C      1.606387   -0.480067    0.000000
  H      2.540581    0.090664    0.000000
  S     -2.130950    1.425864    0.000000
  H     -3.258675    0.692401    0.000000
  C     -0.938661    0.019058    0.000000
  C      0.482787    0.577197    0.000000
  C      1.606387   -1.344668    1.264784
  C      1.606387   -1.344668   -1.264784
  H     -1.123532   -0.585866    0.884604
  H     -1.123532   -0.585866   -0.884604
  H      0.607472    1.219754   -0.875670
  H      0.607472    1.219754    0.875670
  H      2.487666   -1.987485   -1.291990
  H      2.487666   -1.987485    1.291990
  H      0.730680   -1.994906    1.310682
  H      0.730680   -1.994906   -1.310682
  H      1.614497   -0.730494    2.167099
  H      1.614497   -0.730494   -2.167099

 Total Charge           Charge          ....    0
 Multiplicity           Mult            ....    1
 Number of Electrons    NEL             ....   58
 Basis Dimension        Dim             .... 1036

ORBITAL ENERGIES
----------------

  NO   OCC          E(Eh)            E(eV)
   0   2.0000     -91.945462     -2501.9632
   1   2.0000     -11.256965      -306.3176
   2   2.0000     -11.232008      -305.6385
   3   2.0000     -11.226987      -305.5018
   4   2.0000     -11.214297      -305.1565
   5   2.0000     -11.214275      -305.1559
   6   2.0000      -8.947584      -243.4761
   7   2.0000      -6.629172      -180.3890
   8   2.0000      -6.628249      -180.3638
   9   2.0000      -6.627330      -180.3388
  10   2.0000      -1.104735       -30.0614
  11   2.0000      -1.035796       -28.1854
  12   2.0000      -0.934565       -25.4308
  13   2.0000      -0.931826       -25.3563
  14   2.0000      -0.839120       -22.8336
  15   2.0000      -0.757008       -20.5992
  16   2.0000      -0.640030       -17.4161
  17   2.0000      -0.636120       -17.3097
  18   2.0000      -0.607029       -16.5181
  19   2.0000      -0.569428       -15.4949
  20   2.0000      -0.560520       -15.2525
  21   2.0000      -0.534793       -14.5525
  22   2.0000      -0.526900       -14.3377
  23   2.0000      -0.506325       -13.7778
  24   2.0000      -0.472513       -12.8577
  25   2.0000      -0.467152       -12.7118
  26   2.0000      -0.455164       -12.3856
  27   2.0000      -0.439478       -11.9588
  28   2.0000      -0.353034        -9.6066
  29   0.0000       0.025030         0.6811
  30   0.0000       0.029158         0.7934
  31   0.0000       0.033027         0.8987
  32   0.0000       0.033988         0.9249
  33   0.0000       0.047106         1.2818

MULLIKEN ATOMIC CHARGES
-----------------------
   0 C :    0.146055
   1 H :    0.250482
   2 S :   -0.271140
   3 H :    0.014156
   4 C :   -0.394186
   5 C :   -0.351069
   6 C :   -0.880029
   7 C :   -0.880029
   8 H :    0.213398
   9 H :    0.213398
  10 H :    0.298288
  11 H :    0.298288
  12 H :    0.290358
  13 H :    0.290358
  14 H :    0.175710
  15 H :    0.175710
  16 H :    0.205126
  17 H :    0.205126
Sum of atomic charges:    0.0000000

LOEWDIN ATOMIC CHARGES
----------------------
   0 C :    0.108008
   1 H :   -0.279594
   2 S :    1.582447
   3 H :   -0.786677
   4 C :    0.114140
   5 C :    0.405363
   6 C :    0.921919
   7 C :    0.921919
   8 H :   -0.364505
   9 H :   -0.364505
  10 H :   -0.295535
  11 H :   -0.295535
  12 H :   -0.274775
  13 H :   -0.274775
  14 H :   -0.288128
  15 H :   -0.288128
  16 H :   -0.270819
  17 H :   -0.270819

  Mayer bond orders larger than 0.100000
B(  0-C ,  1-H ) :   0.8881 B(  0-C ,  4-C ) :  -0.1049 B(  0-C ,  5-C ) :   0.9119
B(  0-C ,  6-C ) :   0.7280 B(  0-C ,  7-C ) :   0.7280 B(  2-S ,  3-H ) :   1.0799
B(  2-S ,  4-C ) :   0.8252 B(  2-S ,  5-C ) :  -0.1288 B(  4-C ,  5-C ) :   0.8703
B(  4-C ,  8-H ) :   0.9312 B(  4-C ,  9-H ) :   0.9312 B(  5-C , 10-H ) :   0.8882
B(  5-C , 11-H ) :   0.8882 B(  6-C , 13-H ) :   0.9824 B(  6-C , 14-H ) :   0.9952
B(  6-C , 16-H ) :   1.0259 B(  7-C , 12-H ) :   0.9824 B(  7-C , 15-H ) :   0.9952
B(  7-C , 17-H ) :   1.0259

MP2 TOTAL ENERGY:     -595.104732492 Eh
FINAL SINGLE POINT ENERGY      -595.104732491562

DIPOLE MOMENT
-------------
                                X             Y             Z
Electronic contribution:     -8.01017       7.09386       0.00000
Nuclear contribution   :      8.34251      -7.75475       0.00000
                        -----------------------------------------
Total Dipole Moment    :      0.33233      -0.66090       0.00000
                        -----------------------------------------
Magnitude (a.u.)       :      0.73975
Magnitude (Debye)      :      1.88029

Rotational constants in cm-1:     0.198184     0.039501     0.036856
Rotational constants in MHz :  5941.405815  1184.215812  1104.904156

                             ****ORCA TERMINATED NORMALLY****
TOTAL RUN TIME: 0 days 0 hours 50 minutes 6 seconds 77 msec
