                         Program Version 5.0.4 -  RELEASE  -
|  1> !ri-mp2 aug-cc-pvqz aug-cc-pvqz/c tightscf
|  2> %pal nprocs 16 end
|  3>
|  4> * xyz 0 1
|  5> S     -1.704462   -0.551936   -0.348464
|  6> S      2.023603   -0.133580   -0.423222
|  7> N      0.632814    0.094551    0.642941
|  8> N     -0.297676   -0.998966    0.631752
|  9> C     -0.067494    1.302057    0.352543
| 10> C     -1.293811    1.155566   -0.146389
| 11> H      2.855091   -0.564541    0.544789
| 12> H     -0.635754   -1.053433    1.588426
| 13> H      0.457833    2.229855    0.510423
| 14> H     -1.961569    1.941553   -0.456436
| 15> *
| 16>
| 17>                          ****END OF INPUT****

CARTESIAN COORDINATES (ANGSTROEM)
---------------------------------
  S     -1.704462   -0.551936   -0.348464
  S      2.023603   -0.133580   -0.423222
  N      0.632814    0.094551    0.642941
  N     -0.297676   -0.998966    0.631752
  C     -0.067494    1.302057    0.352543
  C     -1.293811    1.155566   -0.146389
  H      2.855091   -0.564541    0.544789
  H     -0.635754   -1.053433    1.588426
  H      0.457833    2.229855    0.510423
  H     -1.961569    1.941553   -0.456436

 Total Charge           Charge          ....    0
 Multiplicity           Mult            ....    1
 Number of Electrons    NEL             ....   62
 Basis Dimension        Dim             ....  672

ORBITAL ENERGIES
----------------

  NO   OCC          E(Eh)            E(eV)
   0   2.0000     -91.990644     -2503.1927
   1   2.0000     -91.988460     -2503.1333
   2   2.0000     -15.638060      -425.5332
   3   2.0000     -15.622516      -425.1103
   4   2.0000     -11.282616      -307.0156
   5   2.0000     -11.269275      -306.6526
   6   2.0000      -8.989497      -244.6167
   7   2.0000      -8.987511      -244.5626
   8   2.0000      -6.670814      -181.5221
   9   2.0000      -6.669878      -181.4966
  10   2.0000      -6.668810      -181.4675
  11   2.0000      -6.668709      -181.4648
  12   2.0000      -6.667801      -181.4401
  13   2.0000      -6.666863      -181.4146
  14   2.0000      -1.334336       -36.3091
  15   2.0000      -1.110306       -30.2130
  16   2.0000      -1.076813       -29.3016
  17   2.0000      -0.955205       -25.9925
  18   2.0000      -0.850622       -23.1466
  19   2.0000      -0.786156       -21.3924
  20   2.0000      -0.702854       -19.1256
  21   2.0000      -0.672991       -18.3130
  22   2.0000      -0.612896       -16.6777
  23   2.0000      -0.580810       -15.8046
  24   2.0000      -0.543411       -14.7870
  25   2.0000      -0.496216       -13.5027
  26   2.0000      -0.488997       -13.3063
  27   2.0000      -0.439512       -11.9597
  28   2.0000      -0.417425       -11.3587
  29   2.0000      -0.376078       -10.2336
  30   2.0000      -0.308912        -8.4059
  31   0.0000       0.024700         0.6721
  32   0.0000       0.030827         0.8389
  33   0.0000       0.036871         1.0033
  34   0.0000       0.042978         1.1695
  35   0.0000       0.058694         1.5971

MULLIKEN ATOMIC CHARGES
-----------------------
   0 S :    0.241876
   1 S :    0.028444
   2 N :   -0.252722
   3 N :   -0.470612
   4 C :   -0.254855
   5 C :   -0.598201
   6 H :    0.119165
   7 H :    0.259588
   8 H :    0.490822
   9 H :    0.436494
Sum of atomic charges:   -0.0000000

LOEWDIN ATOMIC CHARGES
----------------------
   0 S :    1.110538
   1 S :    1.416856
   2 N :   -0.266099
   3 N :    0.236346
   4 C :   -0.128768
   5 C :   -0.103097
   6 H :   -0.788307
   7 H :   -0.701161
   8 H :   -0.359572
   9 H :   -0.416735

  Mayer bond orders larger than 0.100000
B(  0-S ,  3-N ) :   0.8940 B(  0-S ,  5-C ) :   0.9906 B(  1-S ,  2-N ) :   0.8486
B(  1-S ,  6-H ) :   1.0044 B(  2-N ,  3-N ) :   0.7341 B(  2-N ,  4-C ) :   0.9955
B(  3-N ,  7-H ) :   0.9053 B(  4-C ,  5-C ) :   1.6862 B(  4-C ,  8-H ) :   0.7840
B(  5-C ,  9-H ) :   0.8147

MP2 TOTAL ENERGY:     -983.202557144 Eh
FINAL SINGLE POINT ENERGY      -983.202557144366

DIPOLE MOMENT
-------------
                                X             Y             Z
Electronic contribution:     -0.72835      -1.86024      -1.66792
Nuclear contribution   :      0.68565       2.48917       2.14932
                        -----------------------------------------
Total Dipole Moment    :     -0.04270       0.62893       0.48141
                        -----------------------------------------
Magnitude (a.u.)       :      0.79317
Magnitude (Debye)      :      2.01609

Rotational constants in cm-1:     0.173792     0.058091     0.050282
Rotational constants in MHz :  5210.159931  1741.531848  1507.409896

                             ****ORCA TERMINATED NORMALLY****
TOTAL RUN TIME: 0 days 0 hours 12 minutes 9 seconds 238 msec
