                         Program Version 5.0.4 -  RELEASE  -
|  1> !ri-mp2 aug-cc-pvqz aug-cc-pvqz/c tightscf
|  2> %pal nprocs 16 end
|  3>
|  4> * xyz 0 1
|  5> C     -0.101375   -1.193285    0.000050
|  6> H      0.073644   -1.818598    0.875674
|  7> H      0.073697   -1.818666   -0.875519
|  8> C     -1.534643   -0.600290   -0.000041
|  9> H     -2.112333   -0.914628    0.873359
| 10> H     -2.112265   -0.914644   -0.873479
| 11> C      2.169627   -0.018400   -0.000040
| 12> H      2.749486    0.894993   -0.000074
| 13> H      2.721180   -0.949106   -0.000022
| 14> C      0.834976    0.009041    0.000011
| 15> C     -1.306567    0.887577   -0.000018
| 16> H     -2.117586    1.602915   -0.000019
| 17> C     -0.007168    1.200885    0.000034
| 18> H      0.395073    2.204577    0.000103
| 19> *
| 20>
| 21>                          ****END OF INPUT****

CARTESIAN COORDINATES (ANGSTROEM)
---------------------------------
  C     -0.101375   -1.193285    0.000050
  H      0.073644   -1.818598    0.875674
  H      0.073697   -1.818666   -0.875519
  C     -1.534643   -0.600290   -0.000041
  H     -2.112333   -0.914628    0.873359
  H     -2.112265   -0.914644   -0.873479
  C      2.169627   -0.018400   -0.000040
  H      2.749486    0.894993   -0.000074
  H      2.721180   -0.949106   -0.000022
  C      0.834976    0.009041    0.000011
  C     -1.306567    0.887577   -0.000018
  H     -2.117586    1.602915   -0.000019
  C     -0.007168    1.200885    0.000034
  H      0.395073    2.204577    0.000103

 Total Charge           Charge          ....    0
 Multiplicity           Mult            ....    1
 Number of Electrons    NEL             ....   44
 Basis Dimension        Dim             ....  848

ORBITAL ENERGIES
----------------

  NO   OCC          E(Eh)            E(eV)
   0   2.0000     -11.236594      -305.7633
   1   2.0000     -11.233711      -305.6848
   2   2.0000     -11.228587      -305.5454
   3   2.0000     -11.224841      -305.4434
   4   2.0000     -11.224579      -305.4363
   5   2.0000     -11.207185      -304.9630
   6   2.0000      -1.145900       -31.1815
   7   2.0000      -1.015806       -27.6415
   8   2.0000      -0.974219       -26.5098
   9   2.0000      -0.875337       -23.8191
  10   2.0000      -0.767689       -20.8899
  11   2.0000      -0.714574       -19.4446
  12   2.0000      -0.666349       -18.1323
  13   2.0000      -0.626006       -17.0345
  14   2.0000      -0.591220       -16.0879
  15   2.0000      -0.548499       -14.9254
  16   2.0000      -0.514525       -14.0009
  17   2.0000      -0.514257       -13.9936
  18   2.0000      -0.496092       -13.4993
  19   2.0000      -0.469693       -12.7810
  20   2.0000      -0.424513       -11.5516
  21   2.0000      -0.305058        -8.3010
  22   0.0000       0.026688         0.7262
  23   0.0000       0.030838         0.8391
  24   0.0000       0.032906         0.8954
  25   0.0000       0.038841         1.0569
  26   0.0000       0.044486         1.2105

MULLIKEN ATOMIC CHARGES
-----------------------
   0 C :   -0.193365
   1 H :    0.243366
   2 H :    0.243302
   3 C :   -0.447145
   4 H :    0.219163
   5 H :    0.219220
   6 C :   -0.815521
   7 H :    0.252726
   8 H :    0.332206
   9 C :    0.103166
  10 C :   -0.429002
  11 H :    0.416806
  12 C :   -0.523904
  13 H :    0.378981
Sum of atomic charges:    0.0000000

LOEWDIN ATOMIC CHARGES
----------------------
   0 C :    0.483593
   1 H :   -0.272045
   2 H :   -0.272050
   3 C :    0.496783
   4 H :   -0.275429
   5 H :   -0.275423
   6 C :    0.795501
   7 H :   -0.363524
   8 H :   -0.354111
   9 C :   -0.103049
  10 C :    0.398567
  11 H :   -0.299239
  12 C :    0.355041
  13 H :   -0.314615

  Mayer bond orders larger than 0.100000
B(  0-C ,  1-H ) :   0.9320 B(  0-C ,  2-H ) :   0.9321 B(  0-C ,  3-C ) :   1.0360
B(  0-C ,  6-C ) :  -0.1070 B(  0-C ,  9-C ) :   0.6771 B(  3-C ,  4-H ) :   0.9375
B(  3-C ,  5-H ) :   0.9375 B(  3-C , 10-C ) :   0.9990 B(  6-C ,  7-H ) :   1.0916
B(  6-C ,  8-H ) :   0.9324 B(  6-C ,  9-C ) :   1.4684 B(  6-C , 12-C ) :  -0.1312
B(  7-H ,  9-C ) :  -0.1331 B(  9-C , 10-C ) :  -0.1901 B(  9-C , 12-C ) :   0.8767
B( 10-C , 11-H ) :   0.8725 B( 10-C , 12-C ) :   1.5644 B( 11-H , 12-C ) :  -0.1163
B( 12-C , 13-H ) :   0.8986

MP2 TOTAL ENERGY:     -232.966781175 Eh
FINAL SINGLE POINT ENERGY      -232.966781174916

DIPOLE MOMENT
-------------
                                X             Y             Z
Electronic contribution:     -0.02619       1.67653      -0.00000
Nuclear contribution   :     -0.33939      -1.76672       0.00002
                        -----------------------------------------
Total Dipole Moment    :     -0.36558      -0.09019       0.00002
                        -----------------------------------------
Magnitude (a.u.)       :      0.37654
Magnitude (Debye)      :      0.95709

Rotational constants in cm-1:     0.244975     0.115709     0.080915
Rotational constants in MHz :  7344.165373  3468.862663  2425.779657

                             ****ORCA TERMINATED NORMALLY****
TOTAL RUN TIME: 0 days 0 hours 27 minutes 39 seconds 836 msec
