                         Program Version 5.0.4 -  RELEASE  -
|  1> !ri-mp2 aug-cc-pvqz aug-cc-pvqz/c tightscf
|  2> %pal nprocs 16 end
|  3>
|  4> * xyz 0 1
|  5> C     -2.115162   -0.859134   -0.446944
|  6> S     -0.736952    0.145568    0.134592
|  7> O     -0.603003   -0.070176    1.570701
|  8> O     -0.913666    1.497805   -0.387410
|  9> C      0.712310   -0.599546   -0.708204
| 10> C      1.940525    0.209848   -0.457486
| 11> C      2.972177   -0.220038    0.256620
| 12> H     -1.957196   -1.891564   -0.146285
| 13> H     -2.996316   -0.452994    0.044646
| 14> H     -2.202825   -0.759745   -1.525431
| 15> H      0.446453   -0.619309   -1.766218
| 16> H      0.799645   -1.614868   -0.324996
| 17> H      1.949759    1.202936   -0.889296
| 18> H      2.982692   -1.202462    0.711754
| 19> H      3.843275    0.401100    0.412111
| 20> *
| 21>
| 22>                          ****END OF INPUT****

CARTESIAN COORDINATES (ANGSTROEM)
---------------------------------
  C     -2.115162   -0.859134   -0.446944
  S     -0.736952    0.145568    0.134592
  O     -0.603003   -0.070176    1.570701
  O     -0.913666    1.497805   -0.387410
  C      0.712310   -0.599546   -0.708204
  C      1.940525    0.209848   -0.457486
  C      2.972177   -0.220038    0.256620
  H     -1.957196   -1.891564   -0.146285
  H     -2.996316   -0.452994    0.044646
  H     -2.202825   -0.759745   -1.525431
  H      0.446453   -0.619309   -1.766218
  H      0.799645   -1.614868   -0.324996
  H      1.949759    1.202936   -0.889296
  H      2.982692   -1.202462    0.711754
  H      3.843275    0.401100    0.412111

 Total Charge           Charge          ....    0
 Multiplicity           Mult            ....    1
 Number of Electrons    NEL             ....   64
 Basis Dimension        Dim             ....  932

ORBITAL ENERGIES
----------------

  NO   OCC          E(Eh)            E(eV)
   0   2.0000     -92.171211     -2508.1062
   1   2.0000     -20.539818      -558.9169
   2   2.0000     -20.539139      -558.8984
   3   2.0000     -11.286375      -307.1179
   4   2.0000     -11.278085      -306.8923
   5   2.0000     -11.254303      -306.2451
   6   2.0000     -11.243173      -305.9423
   7   2.0000      -9.141068      -248.7411
   8   2.0000      -6.826344      -185.7543
   9   2.0000      -6.825656      -185.7355
  10   2.0000      -6.825235      -185.7241
  11   2.0000      -1.438305       -39.1383
  12   2.0000      -1.327945       -36.1352
  13   2.0000      -1.109477       -30.1904
  14   2.0000      -1.046931       -28.4884
  15   2.0000      -0.979465       -26.6526
  16   2.0000      -0.827116       -22.5070
  17   2.0000      -0.780030       -21.2257
  18   2.0000      -0.689407       -18.7597
  19   2.0000      -0.678323       -18.4581
  20   2.0000      -0.660987       -17.9864
  21   2.0000      -0.643990       -17.5239
  22   2.0000      -0.618968       -16.8430
  23   2.0000      -0.604823       -16.4581
  24   2.0000      -0.598514       -16.2864
  25   2.0000      -0.569923       -15.5084
  26   2.0000      -0.522803       -14.2262
  27   2.0000      -0.495282       -13.4773
  28   2.0000      -0.492436       -13.3999
  29   2.0000      -0.465882       -12.6773
  30   2.0000      -0.444022       -12.0825
  31   2.0000      -0.381184       -10.3725
  32   0.0000       0.019369         0.5271
  33   0.0000       0.028609         0.7785
  34   0.0000       0.031992         0.8705
  35   0.0000       0.035758         0.9730
  36   0.0000       0.045501         1.2381

MULLIKEN ATOMIC CHARGES
-----------------------
   0 C :   -1.032602
   1 S :    2.430831
   2 O :   -1.283881
   3 O :   -1.285003
   4 C :   -0.475804
   5 C :   -0.531789
   6 C :   -0.798954
   7 H :    0.337960
   8 H :    0.385023
   9 H :    0.344016
  10 H :    0.370698
  11 H :    0.371110
  12 H :    0.448246
  13 H :    0.351618
  14 H :    0.368530
Sum of atomic charges:   -0.0000000

LOEWDIN ATOMIC CHARGES
----------------------
   0 C :    0.831897
   1 S :   -0.206117
   2 O :    0.293788
   3 O :    0.294393
   4 C :    0.373445
   5 C :    0.304927
   6 C :    0.805311
   7 H :   -0.326863
   8 H :   -0.334903
   9 H :   -0.328603
  10 H :   -0.330878
  11 H :   -0.349495
  12 H :   -0.335800
  13 H :   -0.345162
  14 H :   -0.345940

  Mayer bond orders larger than 0.100000
B(  0-C ,  1-S ) :   0.9242 B(  0-C ,  7-H ) :   0.8938 B(  0-C ,  8-H ) :   0.8360
B(  0-C ,  9-H ) :   0.8831 B(  1-S ,  2-O ) :   0.8930 B(  1-S ,  3-O ) :   0.9148
B(  1-S ,  4-C ) :   0.8976 B(  4-C ,  5-C ) :   0.9217 B(  4-C ,  6-C ) :  -0.1281
B(  4-C , 10-H ) :   0.8109 B(  4-C , 11-H ) :   0.8381 B(  5-C ,  6-C ) :   1.8559
B(  5-C , 12-H ) :   0.7675 B(  6-C , 13-H ) :   0.8877 B(  6-C , 14-H ) :   0.9309

MP2 TOTAL ENERGY:     -704.931701798 Eh
FINAL SINGLE POINT ENERGY      -704.931701797929

DIPOLE MOMENT
-------------
                                X             Y             Z
Electronic contribution:     -2.70936       3.37281       2.26132
Nuclear contribution   :      2.86505      -4.92015      -3.47010
                        -----------------------------------------
Total Dipole Moment    :      0.15569      -1.54733      -1.20878
                        -----------------------------------------
Magnitude (a.u.)       :      1.96967
Magnitude (Debye)      :      5.00652

Rotational constants in cm-1:     0.137933     0.047643     0.047245
Rotational constants in MHz :  4135.132615  1428.305847  1416.357814

                             ****ORCA TERMINATED NORMALLY****
TOTAL RUN TIME: 0 days 0 hours 32 minutes 57 seconds 249 msec
