                         Program Version 5.0.4 -  RELEASE  -
|  1> !ri-mp2 aug-cc-pvqz aug-cc-pvqz/c tightscf
|  2> %pal nprocs 16 end
|  3>
|  4> * xyz 0 1
|  5> C      0.392949    0.006753   -0.314271
|  6> C      1.845922   -0.344618   -0.447971
|  7> C      2.755670    0.526135    0.427735
|  8> C     -2.464073    0.895132   -0.087612
|  9> C     -2.023839   -0.525165    0.253168
| 10> C     -0.559417   -0.825207    0.095654
| 11> H      0.134394    1.030172   -0.571721
| 12> H      2.150834   -0.225520   -1.493272
| 13> H      1.992029   -1.398584   -0.200685
| 14> H      2.631761    1.584844    0.191968
| 15> H      2.523122    0.393155    1.485148
| 16> H      3.806004    0.272696    0.276534
| 17> H     -1.961620    1.631077    0.541868
| 18> H     -2.247135    1.142851   -1.127808
| 19> H     -3.538045    1.008319    0.062785
| 20> H     -2.588225   -1.237015   -0.359875
| 21> H     -2.312564   -0.756467    1.284752
| 22> H     -0.273824   -1.843703    0.350091
| 23> *
| 24>
| 25>                          ****END OF INPUT****

CARTESIAN COORDINATES (ANGSTROEM)
---------------------------------
  C      0.392949    0.006753   -0.314271
  C      1.845922   -0.344618   -0.447971
  C      2.755670    0.526135    0.427735
  C     -2.464073    0.895132   -0.087612
  C     -2.023839   -0.525165    0.253168
  C     -0.559417   -0.825207    0.095654
  H      0.134394    1.030172   -0.571721
  H      2.150834   -0.225520   -1.493272
  H      1.992029   -1.398584   -0.200685
  H      2.631761    1.584844    0.191968
  H      2.523122    0.393155    1.485148
  H      3.806004    0.272696    0.276534
  H     -1.961620    1.631077    0.541868
  H     -2.247135    1.142851   -1.127808
  H     -3.538045    1.008319    0.062785
  H     -2.588225   -1.237015   -0.359875
  H     -2.312564   -0.756467    1.284752
  H     -0.273824   -1.843703    0.350091

 Total Charge           Charge          ....    0
 Multiplicity           Mult            ....    1
 Number of Electrons    NEL             ....   48
 Basis Dimension        Dim             .... 1032

ORBITAL ENERGIES
----------------

  NO   OCC          E(Eh)            E(eV)
   0   2.0000     -11.222094      -305.3687
   1   2.0000     -11.219767      -305.3054
   2   2.0000     -11.218702      -305.2764
   3   2.0000     -11.215466      -305.1883
   4   2.0000     -11.210280      -305.0472
   5   2.0000     -11.209994      -305.0394
   6   2.0000      -1.090812       -29.6825
   7   2.0000      -1.037117       -28.2214
   8   2.0000      -0.964110       -26.2348
   9   2.0000      -0.876605       -23.8536
  10   2.0000      -0.819341       -22.2954
  11   2.0000      -0.729643       -19.8546
  12   2.0000      -0.630053       -17.1446
  13   2.0000      -0.611460       -16.6387
  14   2.0000      -0.607940       -16.5429
  15   2.0000      -0.583935       -15.8897
  16   2.0000      -0.547634       -14.9019
  17   2.0000      -0.523736       -14.2516
  18   2.0000      -0.505125       -13.7452
  19   2.0000      -0.494023       -13.4430
  20   2.0000      -0.490386       -13.3441
  21   2.0000      -0.475613       -12.9421
  22   2.0000      -0.460758       -12.5379
  23   2.0000      -0.341931        -9.3044
  24   0.0000       0.027021         0.7353
  25   0.0000       0.029582         0.8050
  26   0.0000       0.032102         0.8735
  27   0.0000       0.035369         0.9624
  28   0.0000       0.043759         1.1907

MULLIKEN ATOMIC CHARGES
-----------------------
   0 C :   -0.404242
   1 C :   -0.280912
   2 C :   -0.918647
   3 C :   -0.880674
   4 C :   -0.213906
   5 C :   -0.433310
   6 H :    0.393734
   7 H :    0.254192
   8 H :    0.204242
   9 H :    0.234352
  10 H :    0.256798
  11 H :    0.308282
  12 H :    0.175050
  13 H :    0.180118
  14 H :    0.319395
  15 H :    0.225030
  16 H :    0.229013
  17 H :    0.351485
Sum of atomic charges:   -0.0000000

LOEWDIN ATOMIC CHARGES
----------------------
   0 C :    0.376911
   1 C :    0.475936
   2 C :    0.918894
   3 C :    0.897248
   4 C :    0.480854
   5 C :    0.402933
   6 H :   -0.339400
   7 H :   -0.283190
   8 H :   -0.309008
   9 H :   -0.289985
  10 H :   -0.286053
  11 H :   -0.286998
  12 H :   -0.287382
  13 H :   -0.287521
  14 H :   -0.282765
  15 H :   -0.288889
  16 H :   -0.289027
  17 H :   -0.322558

  Mayer bond orders larger than 0.100000
B(  0-C ,  1-C ) :   0.7921 B(  0-C ,  2-C ) :  -0.1267 B(  0-C ,  4-C ) :  -0.2086
B(  0-C ,  5-C ) :   1.5594 B(  0-C ,  6-H ) :   0.7970 B(  1-C ,  2-C ) :   1.0924
B(  1-C ,  5-C ) :  -0.1635 B(  1-C ,  7-H ) :   0.8867 B(  1-C ,  8-H ) :   0.9426
B(  2-C ,  9-H ) :   0.9282 B(  2-C , 10-H ) :   0.9336 B(  2-C , 11-H ) :   0.9502
B(  3-C ,  4-C ) :   0.9810 B(  3-C , 12-H ) :   0.9867 B(  3-C , 13-H ) :   0.9922
B(  3-C , 14-H ) :   0.9413 B(  4-C ,  5-C ) :   0.6772 B(  4-C , 15-H ) :   0.9631
B(  4-C , 16-H ) :   0.9594 B(  5-C , 17-H ) :   0.8447

MP2 TOTAL ENERGY:     -235.380347100 Eh
FINAL SINGLE POINT ENERGY      -235.380347099543

DIPOLE MOMENT
-------------
                                X             Y             Z
Electronic contribution:     -0.37474      -1.73760      -0.46560
Nuclear contribution   :      0.33926       1.71574       0.47106
                        -----------------------------------------
Total Dipole Moment    :     -0.03548      -0.02186       0.00546
                        -----------------------------------------
Magnitude (a.u.)       :      0.04203
Magnitude (Debye)      :      0.10683

Rotational constants in cm-1:     0.293296     0.048782     0.045240
Rotational constants in MHz :  8792.781929  1462.459208  1356.251743

                             ****ORCA TERMINATED NORMALLY****
TOTAL RUN TIME: 0 days 0 hours 38 minutes 56 seconds 319 msec
