                         Program Version 5.0.4 -  RELEASE  -
|  1> !ri-mp2 aug-cc-pvqz aug-cc-pvqz/c tightscf
|  2> %pal nprocs 16 end
|  3>
|  4> * xyz 0 1
|  5> O    -1.415386    1.150290     1.034869
|  6> O    -2.526884   -0.061738    -0.504591
|  7> N    -0.329637   -1.734260    -0.686231
|  8> N     2.142867   -1.152163     0.543205
|  9> N     1.836613    1.901711    -0.939641
| 10> C    -0.259663   -0.639128    -0.066281
| 11> C    -1.442454    0.263798     0.223360
| 12> C     1.089974   -0.157905     0.501868
| 13> C     1.523271    1.007131    -0.290019
| 14> H    -3.243142    0.541726    -0.256306
| 15> H    -1.276668   -1.925711    -1.010760
| 16> H     2.219932   -1.620473    -0.352294
| 17> H     1.916260   -1.862476     1.227909
| 18> H     0.906095    0.208124     1.514324
| 19> *
| 20>
| 21>                          ****END OF INPUT****

CARTESIAN COORDINATES (ANGSTROEM)
---------------------------------
  O     -1.415386    1.150290    1.034869
  O     -2.526884   -0.061738   -0.504591
  N     -0.329637   -1.734260   -0.686231
  N      2.142867   -1.152163    0.543205
  N      1.836613    1.901711   -0.939641
  C     -0.259663   -0.639128   -0.066281
  C     -1.442454    0.263798    0.223360
  C      1.089974   -0.157905    0.501868
  C      1.523271    1.007131   -0.290019
  H     -3.243142    0.541726   -0.256306
  H     -1.276668   -1.925711   -1.010760
  H      2.219932   -1.620473   -0.352294
  H      1.916260   -1.862476    1.227909
  H      0.906095    0.208124    1.514324

 Total Charge           Charge          ....    0
 Multiplicity           Mult            ....    1
 Number of Electrons    NEL             ....   66
 Basis Dimension        Dim             ....  950

ORBITAL ENERGIES
----------------

  NO   OCC          E(Eh)            E(eV)
   0   2.0000     -20.649521      -561.9020
   1   2.0000     -20.592294      -560.3448
   2   2.0000     -15.608115      -424.7184
   3   2.0000     -15.575996      -423.8444
   4   2.0000     -15.574812      -423.8122
   5   2.0000     -11.429271      -311.0063
   6   2.0000     -11.339797      -308.5716
   7   2.0000     -11.335397      -308.4518
   8   2.0000     -11.277753      -306.8833
   9   2.0000      -1.506903       -41.0049
  10   2.0000      -1.406507       -38.2730
  11   2.0000      -1.284693       -34.9583
  12   2.0000      -1.234606       -33.5953
  13   2.0000      -1.207301       -32.8523
  14   2.0000      -1.026670       -27.9371
  15   2.0000      -0.941726       -25.6257
  16   2.0000      -0.831806       -22.6346
  17   2.0000      -0.769549       -20.9405
  18   2.0000      -0.742938       -20.2164
  19   2.0000      -0.741438       -20.1755
  20   2.0000      -0.676876       -18.4187
  21   2.0000      -0.661685       -18.0054
  22   2.0000      -0.659234       -17.9387
  23   2.0000      -0.637759       -17.3543
  24   2.0000      -0.603077       -16.4106
  25   2.0000      -0.564582       -15.3631
  26   2.0000      -0.540389       -14.7047
  27   2.0000      -0.528573       -14.3832
  28   2.0000      -0.491061       -13.3624
  29   2.0000      -0.481021       -13.0892
  30   2.0000      -0.473785       -12.8924
  31   2.0000      -0.461476       -12.5574
  32   2.0000      -0.432943       -11.7810
  33   0.0000       0.015867         0.4318
  34   0.0000       0.025428         0.6919
  35   0.0000       0.032851         0.8939
  36   0.0000       0.043116         1.1732
  37   0.0000       0.048629         1.3233

MULLIKEN ATOMIC CHARGES
-----------------------
   0 O :   -0.749446
   1 O :   -0.644108
   2 N :   -0.725043
   3 N :   -0.771639
   4 N :   -0.690975
   5 C :   -0.163870
   6 C :    1.341794
   7 C :    0.473961
   8 C :    0.383759
   9 H :    0.331880
  10 H :    0.312890
  11 H :    0.296425
  12 H :    0.248588
  13 H :    0.355783
Sum of atomic charges:    0.0000000

LOEWDIN ATOMIC CHARGES
----------------------
   0 O :    0.732409
   1 O :    1.254909
   2 N :    1.026993
   3 N :    1.271372
   4 N :    0.434133
   5 C :   -0.360938
   6 C :   -1.026952
   7 C :   -0.200170
   8 C :   -0.292907
   9 H :   -0.787520
  10 H :   -0.676408
  11 H :   -0.526147
  12 H :   -0.494300
  13 H :   -0.354475

  Mayer bond orders larger than 0.100000
B(  0-O ,  5-C ) :   0.1767 B(  0-O ,  6-C ) :   1.3929 B(  1-O ,  5-C ) :   0.1389
B(  1-O ,  6-C ) :   0.7453 B(  1-O ,  9-H ) :   0.9223 B(  2-N ,  5-C ) :   1.6335
B(  2-N , 10-H ) :   0.8429 B(  3-N ,  7-C ) :   0.7533 B(  3-N , 11-H ) :   0.8649
B(  3-N , 12-H ) :   0.8954 B(  4-N ,  8-C ) :   2.4290 B(  5-C ,  6-C ) :   1.1004
B(  5-C ,  7-C ) :   0.8030 B(  7-C ,  8-C ) :   0.9871 B(  7-C , 13-H ) :   0.8134

MP2 TOTAL ENERGY:     -469.462210718 Eh
FINAL SINGLE POINT ENERGY      -469.462210717798

DIPOLE MOMENT
-------------
                                X             Y             Z
Electronic contribution:     -2.03112       3.09604      -0.64256
Nuclear contribution   :      0.46982      -4.53225       1.09700
                        -----------------------------------------
Total Dipole Moment    :     -1.56131      -1.43621       0.45444
                        -----------------------------------------
Magnitude (a.u.)       :      2.16954
Magnitude (Debye)      :      5.51453

Rotational constants in cm-1:     0.078551     0.043089     0.033854
Rotational constants in MHz :  2354.893922  1291.765211  1014.916297

                             ****ORCA TERMINATED NORMALLY****
TOTAL RUN TIME: 0 days 0 hours 32 minutes 6 seconds 369 msec
