                         Program Version 5.0.4 -  RELEASE  -
|  1> !ri-mp2 aug-cc-pvqz aug-cc-pvqz/c tightscf
|  2> %pal nprocs 16 end
|  3>
|  4> * xyz 0 1
|  5> F      2.284114   -0.947156   -0.058625
|  6> F      1.675956    1.135447   -0.349163
|  7> N      1.368083   -0.002087    0.430483
|  8> N     -3.383243   -0.343586   -0.277416
|  9> C      0.067845   -0.461845   -0.080232
| 10> C     -1.014437    0.516543    0.390152
| 11> C     -2.342864    0.043335    0.020269
| 12> H     -0.078651   -1.445718    0.361181
| 13> H      0.101207   -0.548538   -1.166096
| 14> H     -0.967408    0.631463    1.474281
| 15> H     -0.852917    1.499687   -0.051863
| 16> *
| 17>
| 18>                          ****END OF INPUT****

CARTESIAN COORDINATES (ANGSTROEM)
---------------------------------
  F      2.284114   -0.947156   -0.058625
  F      1.675956    1.135447   -0.349163
  N      1.368083   -0.002087    0.430483
  N     -3.383243   -0.343586   -0.277416
  C      0.067845   -0.461845   -0.080232
  C     -1.014437    0.516543    0.390152
  C     -2.342864    0.043335    0.020269
  H     -0.078651   -1.445718    0.361181
  H      0.101207   -0.548538   -1.166096
  H     -0.967408    0.631463    1.474281
  H     -0.852917    1.499687   -0.051863

 Total Charge           Charge          ....    0
 Multiplicity           Mult            ....    1
 Number of Electrons    NEL             ....   54
 Basis Dimension        Dim             ....  744

ORBITAL ENERGIES
----------------

  NO   OCC          E(Eh)            E(eV)
   0   2.0000     -26.352238      -717.0808
   1   2.0000     -26.350487      -717.0332
   2   2.0000     -15.791809      -429.7170
   3   2.0000     -15.587836      -424.1666
   4   2.0000     -11.323906      -308.1392
   5   2.0000     -11.312685      -307.8338
   6   2.0000     -11.292172      -307.2756
   7   2.0000      -1.697385       -46.1882
   8   2.0000      -1.613145       -43.8959
   9   2.0000      -1.244287       -33.8588
  10   2.0000      -1.204539       -32.7772
  11   2.0000      -1.073802       -29.2196
  12   2.0000      -0.923809       -25.1381
  13   2.0000      -0.789406       -21.4808
  14   2.0000      -0.784987       -21.3606
  15   2.0000      -0.765060       -20.8183
  16   2.0000      -0.716978       -19.5100
  17   2.0000      -0.705514       -19.1980
  18   2.0000      -0.685707       -18.6590
  19   2.0000      -0.651355       -17.7243
  20   2.0000      -0.635061       -17.2809
  21   2.0000      -0.608510       -16.5584
  22   2.0000      -0.584558       -15.9066
  23   2.0000      -0.572012       -15.5652
  24   2.0000      -0.504620       -13.7314
  25   2.0000      -0.482485       -13.1291
  26   2.0000      -0.480929       -13.0868
  27   0.0000       0.023152         0.6300
  28   0.0000       0.032434         0.8826
  29   0.0000       0.032959         0.8969
  30   0.0000       0.049136         1.3371
  31   0.0000       0.055389         1.5072

MULLIKEN ATOMIC CHARGES
-----------------------
   0 F :   -0.451945
   1 F :   -0.435993
   2 N :    0.425935
   3 N :   -0.632755
   4 C :   -0.078611
   5 C :   -0.501100
   6 C :    0.373055
   7 H :    0.341596
   8 H :    0.313051
   9 H :    0.311891
  10 H :    0.334875
Sum of atomic charges:   -0.0000000

LOEWDIN ATOMIC CHARGES
----------------------
   0 F :    0.499876
   1 F :    0.493591
   2 N :   -0.503261
   3 N :    0.420174
   4 C :    0.185044
   5 C :    0.403124
   6 C :   -0.255441
   7 H :   -0.319847
   8 H :   -0.307357
   9 H :   -0.301437
  10 H :   -0.314464

  Mayer bond orders larger than 0.100000
B(  0-F ,  2-N ) :   0.7195 B(  1-F ,  2-N ) :   0.7059 B(  2-N ,  4-C ) :   0.8771
B(  3-N ,  6-C ) :   2.5621 B(  4-C ,  5-C ) :   0.9982 B(  4-C ,  6-C ) :  -0.1371
B(  4-C ,  7-H ) :   0.8254 B(  4-C ,  8-H ) :   0.8514 B(  5-C ,  6-C ) :   1.1885
B(  5-C ,  9-H ) :   0.8424 B(  5-C , 10-H ) :   0.8322

MP2 TOTAL ENERGY:     -425.239489400 Eh
FINAL SINGLE POINT ENERGY      -425.239489399772

DIPOLE MOMENT
-------------
                                X             Y             Z
Electronic contribution:      5.88243       0.24393      -0.61845
Nuclear contribution   :     -5.46926      -0.04885       0.97628
                        -----------------------------------------
Total Dipole Moment    :      0.41316       0.19508       0.35783
                        -----------------------------------------
Magnitude (a.u.)       :      0.58035
Magnitude (Debye)      :      1.47512

Rotational constants in cm-1:     0.256580     0.039170     0.035651
Rotational constants in MHz :  7692.064733  1174.279711  1068.781903

                             ****ORCA TERMINATED NORMALLY****
TOTAL RUN TIME: 0 days 0 hours 14 minutes 19 seconds 752 msec
