                         Program Version 5.0.4 -  RELEASE  -
|  1> !ri-mp2 aug-cc-pvqz aug-cc-pvqz/c tightscf
|  2> %pal nprocs 16 end
|  3>
|  4> * xyz 0 1
|  5> C      1.664907   -0.863089        0.000000
|  6> C      1.344951    0.483532        0.000000
|  7> C      0.661934   -1.830509        0.000000
|  8> C     -1.007329   -0.096986        0.000000
|  9> C      0.000000    0.864343        0.000000
| 10> C     -0.676595   -1.448300        0.000000
| 11> C     -0.383063    2.293828        0.000000
| 12> O      0.394376    3.219298        0.000000
| 13> O     -1.703952   -2.348067        0.000000
| 14> H      2.700183   -1.175867        0.000000
| 15> H      2.108986    1.247054        0.000000
| 16> H      0.922411   -2.882429        0.000000
| 17> H     -2.049997    0.193551        0.000000
| 18> H     -1.476268    2.476862        0.000000
| 19> H     -1.357529   -3.245935        0.000000
| 20> *
| 21>
| 22>                          ****END OF INPUT****

CARTESIAN COORDINATES (ANGSTROEM)
---------------------------------
  C      1.664907   -0.863089    0.000000
  C      1.344951    0.483532    0.000000
  C      0.661934   -1.830509    0.000000
  C     -1.007329   -0.096986    0.000000
  C      0.000000    0.864343    0.000000
  C     -0.676595   -1.448300    0.000000
  C     -0.383063    2.293828    0.000000
  O      0.394376    3.219298    0.000000
  O     -1.703952   -2.348067    0.000000
  H      2.700183   -1.175867    0.000000
  H      2.108986    1.247054    0.000000
  H      0.922411   -2.882429    0.000000
  H     -2.049997    0.193551    0.000000
  H     -1.476268    2.476862    0.000000
  H     -1.357529   -3.245935    0.000000

 Total Charge           Charge          ....    0
 Multiplicity           Mult            ....    1
 Number of Electrons    NEL             ....   64
 Basis Dimension        Dim             ....  996

ORBITAL ENERGIES
----------------

  NO   OCC          E(Eh)            E(eV)
   0   2.0000     -20.603336      -560.6453
   1   2.0000     -20.555979      -559.3566
   2   2.0000     -11.335420      -308.4525
   3   2.0000     -11.319533      -308.0202
   4   2.0000     -11.257654      -306.3363
   5   2.0000     -11.256001      -306.2914
   6   2.0000     -11.254771      -306.2579
   7   2.0000     -11.253363      -306.2196
   8   2.0000     -11.244500      -305.9784
   9   2.0000      -1.420887       -38.6643
  10   2.0000      -1.394261       -37.9398
  11   2.0000      -1.172398       -31.9026
  12   2.0000      -1.055529       -28.7224
  13   2.0000      -1.028129       -27.9768
  14   2.0000      -0.906547       -24.6684
  15   2.0000      -0.849696       -23.1214
  16   2.0000      -0.813227       -22.1290
  17   2.0000      -0.737906       -20.0795
  18   2.0000      -0.705001       -19.1840
  19   2.0000      -0.675870       -18.3914
  20   2.0000      -0.664078       -18.0705
  21   2.0000      -0.629009       -17.1162
  22   2.0000      -0.614355       -16.7175
  23   2.0000      -0.608821       -16.5669
  24   2.0000      -0.583445       -15.8764
  25   2.0000      -0.551148       -14.9975
  26   2.0000      -0.542337       -14.7578
  27   2.0000      -0.521764       -14.1979
  28   2.0000      -0.490555       -13.3487
  29   2.0000      -0.431450       -11.7404
  30   2.0000      -0.362624        -9.8675
  31   2.0000      -0.333024        -9.0620
  32   0.0000       0.017334         0.4717
  33   0.0000       0.028136         0.7656
  34   0.0000       0.030974         0.8428
  35   0.0000       0.042685         1.1615
  36   0.0000       0.046291         1.2596

MULLIKEN ATOMIC CHARGES
-----------------------
   0 C :   -0.445237
   1 C :   -0.090228
   2 C :   -0.551479
   3 C :   -0.432181
   4 C :   -0.257956
   5 C :    1.127275
   6 C :    0.398618
   7 O :   -0.769974
   8 O :   -0.814590
   9 H :    0.229184
  10 H :    0.331219
  11 H :    0.254949
  12 H :    0.372460
  13 H :    0.280412
  14 H :    0.367528
Sum of atomic charges:    0.0000000

LOEWDIN ATOMIC CHARGES
----------------------
   0 C :    0.351137
   1 C :    0.321364
   2 C :    0.343041
   3 C :    0.304483
   4 C :   -0.144698
   5 C :   -0.420805
   6 C :   -0.272270
   7 O :    0.707891
   8 O :    1.275601
   9 H :   -0.318273
  10 H :   -0.332756
  11 H :   -0.320833
  12 H :   -0.326706
  13 H :   -0.366285
  14 H :   -0.800892

  Mayer bond orders larger than 0.100000
B(  0-C ,  1-C ) :   1.2716 B(  0-C ,  2-C ) :   1.1815 B(  0-C ,  4-C ) :  -0.1931
B(  0-C ,  5-C ) :  -0.1728 B(  0-C ,  9-H ) :   1.1374 B(  1-C ,  4-C ) :   1.0950
B(  1-C ,  6-C ) :  -0.1507 B(  1-C ,  9-H ) :  -0.1197 B(  1-C , 10-H ) :   0.8841
B(  2-C ,  5-C ) :   1.3092 B(  2-C ,  8-O ) :   0.2309 B(  2-C ,  9-H ) :  -0.1464
B(  2-C , 11-H ) :   1.0179 B(  3-C ,  4-C ) :   0.9697 B(  3-C ,  5-C ) :   1.4107
B(  3-C ,  6-C ) :  -0.3823 B(  3-C ,  8-O ) :   0.3253 B(  3-C , 12-H ) :   0.8688
B(  4-C ,  5-C ) :  -0.4125 B(  4-C ,  6-C ) :   1.1397 B(  4-C ,  7-O ) :   0.2599
B(  4-C , 12-H ) :  -0.1071 B(  4-C , 13-H ) :  -0.2152 B(  5-C , 14-H ) :  -0.1094
B(  6-C ,  7-O ) :   1.3194 B(  6-C , 13-H ) :   1.0568 B(  8-O , 14-H ) :   0.8918

MP2 TOTAL ENERGY:     -420.145180378 Eh
FINAL SINGLE POINT ENERGY      -420.145180377661

DIPOLE MOMENT
-------------
                                X             Y             Z
Electronic contribution:     -0.89782       1.63616       0.00000
Nuclear contribution   :      0.81409      -3.31982       0.00000
                        -----------------------------------------
Total Dipole Moment    :     -0.08372      -1.68366       0.00000
                        -----------------------------------------
Magnitude (a.u.)       :      1.68574
Magnitude (Debye)      :      4.28482

Rotational constants in cm-1:     0.122633     0.037987     0.029003
Rotational constants in MHz :  3676.444121  1138.832810   869.494164

                             ****ORCA TERMINATED NORMALLY****
TOTAL RUN TIME: 0 days 0 hours 55 minutes 20 seconds 641 msec
