                         Program Version 5.0.4 -  RELEASE  -
|  1> !ri-mp2 aug-cc-pvqz aug-cc-pvqz/c tightscf
|  2> %pal nprocs 16 end
|  3>
|  4> * xyz 0 1
|  5> S     0.000000    0.000000    2.365328
|  6> S     0.000000    0.000000   -2.307684
|  7> N     0.000000    1.264006   -1.291328
|  8> N     0.000000   -1.264006   -1.291328
|  9> C     0.000000    0.729665   -0.053183
| 10> C     0.000000   -0.729665   -0.053183
| 11> C     0.000000    1.267958    1.226307
| 12> C     0.000000   -1.267958    1.226307
| 13> H     0.000000    2.296156    1.539395
| 14> H     0.000000   -2.296156    1.539395
| 15> *
| 16>
| 17>                          ****END OF INPUT****

CARTESIAN COORDINATES (ANGSTROEM)
---------------------------------
  S      0.000000    0.000000    2.365328
  S      0.000000    0.000000   -2.307684
  N      0.000000    1.264006   -1.291328
  N      0.000000   -1.264006   -1.291328
  C      0.000000    0.729665   -0.053183
  C      0.000000   -0.729665   -0.053183
  C      0.000000    1.267958    1.226307
  C      0.000000   -1.267958    1.226307
  H      0.000000    2.296156    1.539395
  H      0.000000   -2.296156    1.539395

 Total Charge           Charge          ....    0
 Multiplicity           Mult            ....    1
 Number of Electrons    NEL             ....   72
 Basis Dimension        Dim             ....  740

ORBITAL ENERGIES
----------------

  NO   OCC          E(Eh)            E(eV)
   0   2.0000     -92.074002     -2505.4610
   1   2.0000     -92.026368     -2504.1648
   2   2.0000     -15.612482      -424.8372
   3   2.0000     -15.612444      -424.8362
   4   2.0000     -11.293154      -307.3023
   5   2.0000     -11.292255      -307.2779
   6   2.0000     -11.277961      -306.8889
   7   2.0000     -11.277932      -306.8881
   8   2.0000      -9.067005      -246.7257
   9   2.0000      -9.025545      -245.5976
  10   2.0000      -6.747686      -183.6139
  11   2.0000      -6.747056      -183.5967
  12   2.0000      -6.746709      -183.5873
  13   2.0000      -6.706525      -182.4938
  14   2.0000      -6.706252      -182.4864
  15   2.0000      -6.706005      -182.4797
  16   2.0000      -1.342652       -36.5354
  17   2.0000      -1.190875       -32.4054
  18   2.0000      -1.178957       -32.0810
  19   2.0000      -1.008048       -27.4304
  20   2.0000      -0.987875       -26.8814
  21   2.0000      -0.851800       -23.1786
  22   2.0000      -0.795753       -21.6535
  23   2.0000      -0.771921       -21.0050
  24   2.0000      -0.671772       -18.2798
  25   2.0000      -0.639813       -17.4102
  26   2.0000      -0.620295       -16.8791
  27   2.0000      -0.573346       -15.6015
  28   2.0000      -0.561177       -15.2704
  29   2.0000      -0.511513       -13.9190
  30   2.0000      -0.493605       -13.4317
  31   2.0000      -0.481520       -13.1028
  32   2.0000      -0.472747       -12.8641
  33   2.0000      -0.454985       -12.3808
  34   2.0000      -0.350410        -9.5351
  35   2.0000      -0.300166        -8.1679
  36   0.0000      -0.003108        -0.0846
  37   0.0000       0.026253         0.7144
  38   0.0000       0.029211         0.7949
  39   0.0000       0.044374         1.2075
  40   0.0000       0.057134         1.5547

MULLIKEN ATOMIC CHARGES
-----------------------
   0 S :    0.322750
   1 S :    0.866595
   2 N :   -0.826626
   3 N :   -0.826627
   4 C :    0.433067
   5 C :    0.433067
   6 C :   -0.680568
   7 C :   -0.680568
   8 H :    0.479455
   9 H :    0.479455
Sum of atomic charges:   -0.0000000

LOEWDIN ATOMIC CHARGES
----------------------
   0 S :    1.365546
   1 S :    0.920678
   2 N :    0.122381
   3 N :    0.122381
   4 C :   -0.791909
   5 C :   -0.791909
   6 C :   -0.055450
   7 C :   -0.055450
   8 H :   -0.418134
   9 H :   -0.418134

  Mayer bond orders larger than 0.100000
B(  0-S ,  6-C ) :   1.3476 B(  0-S ,  7-C ) :   1.3476 B(  1-S ,  2-N ) :   1.3196
B(  1-S ,  3-N ) :   1.3196 B(  2-N ,  4-C ) :   0.8520 B(  2-N ,  5-C ) :   0.1529
B(  3-N ,  4-C ) :   0.1529 B(  3-N ,  5-C ) :   0.8520 B(  4-C ,  5-C ) :   1.2766
B(  4-C ,  6-C ) :   1.2226 B(  4-C ,  7-C ) :  -0.1410 B(  5-C ,  6-C ) :  -0.1410
B(  5-C ,  7-C ) :   1.2226 B(  6-C ,  8-H ) :   0.7626 B(  7-C ,  9-H ) :   0.7626

MP2 TOTAL ENERGY:    -1058.162054208 Eh
FINAL SINGLE POINT ENERGY     -1058.162054208305

DIPOLE MOMENT
-------------
                                X             Y             Z
Electronic contribution:      0.00000      -0.00000      -2.36437
Nuclear contribution   :      0.00000       0.00000       2.91171
                        -----------------------------------------
Total Dipole Moment    :      0.00000      -0.00000       0.54734
                        -----------------------------------------
Magnitude (a.u.)       :      0.54734
Magnitude (Debye)      :      1.39122

Rotational constants in cm-1:     0.157847     0.038512     0.030959
Rotational constants in MHz :  4732.129718  1154.571577   928.122933

                             ****ORCA TERMINATED NORMALLY****
TOTAL RUN TIME: 0 days 0 hours 20 minutes 7 seconds 853 msec
