                         Program Version 5.0.4 -  RELEASE  -
|  1> !ri-mp2 aug-cc-pvqz aug-cc-pvqz/c tightscf
|  2> %pal nprocs 16 end
|  3>
|  4> * xyz 0 1
|  5> C     -1.174839   -1.203589    0.000000
|  6> C     -1.199799    0.182128    0.000000
|  7> C      0.057339   -1.847450    0.000000
|  8> C      1.173702    0.138239    0.000000
|  9> C      0.000000    0.891573    0.000000
| 10> C      0.034480    2.395305    0.000000
| 11> N      1.217307   -1.194023    0.000000
| 12> H     -2.090952   -1.778442    0.000000
| 13> H     -2.144751    0.712153    0.000000
| 14> H      0.113787   -2.930206    0.000000
| 15> H      2.134084    0.644651    0.000000
| 16> H     -0.468705    2.803456    0.878765
| 17> H      1.058791    2.765852    0.000000
| 18> H     -0.468705    2.803456   -0.878765
| 19> *
| 20>
| 21>                          ****END OF INPUT****

CARTESIAN COORDINATES (ANGSTROEM)
---------------------------------
  C     -1.174839   -1.203589    0.000000
  C     -1.199799    0.182128    0.000000
  C      0.057339   -1.847450    0.000000
  C      1.173702    0.138239    0.000000
  C      0.000000    0.891573    0.000000
  C      0.034480    2.395305    0.000000
  N      1.217307   -1.194023    0.000000
  H     -2.090952   -1.778442    0.000000
  H     -2.144751    0.712153    0.000000
  H      0.113787   -2.930206    0.000000
  H      2.134084    0.644651    0.000000
  H     -0.468705    2.803456    0.878765
  H      1.058791    2.765852    0.000000
  H     -0.468705    2.803456   -0.878765

 Total Charge           Charge          ....    0
 Multiplicity           Mult            ....    1
 Number of Electrons    NEL             ....   50
 Basis Dimension        Dim             ....  882

ORBITAL ENERGIES
----------------

  NO   OCC          E(Eh)            E(eV)
   0   2.0000     -15.560026      -423.4098
   1   2.0000     -11.266790      -306.5849
   2   2.0000     -11.265732      -306.5561
   3   2.0000     -11.251172      -306.1599
   4   2.0000     -11.245460      -306.0045
   5   2.0000     -11.237794      -305.7959
   6   2.0000     -11.231204      -305.6166
   7   2.0000      -1.256613       -34.1942
   8   2.0000      -1.100625       -29.9495
   9   2.0000      -1.048268       -28.5248
  10   2.0000      -0.950765       -25.8716
  11   2.0000      -0.858265       -23.3546
  12   2.0000      -0.827745       -22.5241
  13   2.0000      -0.710184       -19.3251
  14   2.0000      -0.670903       -18.2562
  15   2.0000      -0.633221       -17.2308
  16   2.0000      -0.588120       -16.0036
  17   2.0000      -0.578913       -15.7530
  18   2.0000      -0.571239       -15.5442
  19   2.0000      -0.551351       -15.0030
  20   2.0000      -0.527863       -14.3639
  21   2.0000      -0.510143       -13.8817
  22   2.0000      -0.413080       -11.2405
  23   2.0000      -0.377830       -10.2813
  24   2.0000      -0.336898        -9.1675
  25   0.0000       0.022642         0.6161
  26   0.0000       0.027704         0.7539
  27   0.0000       0.033089         0.9004
  28   0.0000       0.039990         1.0882
  29   0.0000       0.042187         1.1480

MULLIKEN ATOMIC CHARGES
-----------------------
   0 C :   -0.319709
   1 C :   -0.341419
   2 C :   -0.364880
   3 C :   -0.246051
   4 C :    0.385323
   5 C :   -0.718065
   6 N :   -0.675486
   7 H :    0.311705
   8 H :    0.351334
   9 H :    0.499057
  10 H :    0.431859
  11 H :    0.229622
  12 H :    0.227088
  13 H :    0.229622
Sum of atomic charges:    0.0000000

LOEWDIN ATOMIC CHARGES
----------------------
   0 C :    0.334298
   1 C :    0.331018
   2 C :    0.068730
   3 C :    0.077691
   4 C :   -0.086916
   5 C :    0.902334
   6 N :    0.594493
   7 H :   -0.327792
   8 H :   -0.306540
   9 H :   -0.354776
  10 H :   -0.352470
  11 H :   -0.284760
  12 H :   -0.310550
  13 H :   -0.284760

  Mayer bond orders larger than 0.100000
B(  0-C ,  1-C ) :   1.2415 B(  0-C ,  2-C ) :   1.2542 B(  0-C ,  3-C ) :   0.1273
B(  0-C ,  4-C ) :  -0.1757 B(  0-C ,  7-H ) :   1.0136 B(  1-C ,  4-C ) :   1.0080
B(  1-C ,  7-H ) :  -0.1162 B(  1-C ,  8-H ) :   0.9053 B(  2-C ,  6-N ) :   1.3502
B(  2-C ,  9-H ) :   0.8205 B(  3-C ,  4-C ) :   1.1892 B(  3-C ,  6-N ) :   1.1917
B(  3-C , 10-H ) :   0.8559 B(  4-C ,  5-C ) :   0.5485 B(  4-C , 12-H ) :  -0.1471
B(  5-C , 11-H ) :   1.0101 B(  5-C , 12-H ) :   1.0419 B(  5-C , 13-H ) :   1.0101
B(  6-N , 10-H ) :  -0.1088

MP2 TOTAL ENERGY:     -287.087465186 Eh
FINAL SINGLE POINT ENERGY      -287.087465186264

DIPOLE MOMENT
-------------
                                X             Y             Z
Electronic contribution:      1.07853      -4.44158       0.00000
Nuclear contribution   :     -1.87477       5.05562       0.00000
                        -----------------------------------------
Total Dipole Moment    :     -0.79624       0.61404       0.00000
                        -----------------------------------------
Magnitude (a.u.)       :      1.00551
Magnitude (Debye)      :      2.55579

Rotational constants in cm-1:     0.191650     0.086416     0.060223
Rotational constants in MHz :  5745.523199  2590.692671  1805.429748

                             ****ORCA TERMINATED NORMALLY****
TOTAL RUN TIME: 0 days 0 hours 24 minutes 49 seconds 439 msec
