                         Program Version 5.0.4 -  RELEASE  -
|  1> !ri-mp2 aug-cc-pvqz aug-cc-pvqz/c tightscf
|  2> %pal nprocs 16 end
|  3>
|  4> * xyz 0 1
|  5> F      0.000000    2.343179   -1.982060
|  6> F      0.000000   -2.343179   -1.982060
|  7> O      0.000003   -1.083137    2.779892
|  8> O     -0.000003    1.083137    2.779892
|  9> N      0.000000    0.000000    2.217668
| 10> C      0.000000    0.000000    0.737023
| 11> C      0.000000    1.183547   -1.305000
| 12> C      0.000000   -1.183547   -1.305000
| 13> C      0.000000   -1.219150    0.077114
| 14> C      0.000000    1.219150    0.077114
| 15> C      0.000000    0.000000   -2.024499
| 16> H      0.000000   -2.150455    0.619296
| 17> H      0.000000    2.150455    0.619296
| 18> H      0.000000    0.000000   -3.103967
| 19> *
| 20>
| 21>                          ****END OF INPUT****

CARTESIAN COORDINATES (ANGSTROEM)
---------------------------------
  F      0.000000    2.343179   -1.982060
  F      0.000000   -2.343179   -1.982060
  O      0.000003   -1.083137    2.779892
  O     -0.000003    1.083137    2.779892
  N      0.000000    0.000000    2.217668
  C      0.000000    0.000000    0.737023
  C      0.000000    1.183547   -1.305000
  C      0.000000   -1.183547   -1.305000
  C      0.000000   -1.219150    0.077114
  C      0.000000    1.219150    0.077114
  C      0.000000    0.000000   -2.024499
  H      0.000000   -2.150455    0.619296
  H      0.000000    2.150455    0.619296
  H      0.000000    0.000000   -3.103967

 Total Charge           Charge          ....    0
 Multiplicity           Mult            ....    1
 Number of Electrons    NEL             ....   80
 Basis Dimension        Dim             .... 1018

ORBITAL ENERGIES
----------------

  NO   OCC          E(Eh)            E(eV)
   0   2.0000     -26.342239      -716.8088
   1   2.0000     -26.342238      -716.8087
   2   2.0000     -20.618041      -561.0454
   3   2.0000     -20.617989      -561.0440
   4   2.0000     -15.871267      -431.8791
   5   2.0000     -11.375663      -309.5475
   6   2.0000     -11.375657      -309.5474
   7   2.0000     -11.342188      -308.6366
   8   2.0000     -11.290334      -307.2256
   9   2.0000     -11.289068      -307.1911
  10   2.0000     -11.289034      -307.1902
  11   2.0000      -1.662949       -45.2511
  12   2.0000      -1.662352       -45.2349
  13   2.0000      -1.625672       -44.2368
  14   2.0000      -1.419206       -38.6186
  15   2.0000      -1.228688       -33.4343
  16   2.0000      -1.118457       -30.4348
  17   2.0000      -1.075394       -29.2629
  18   2.0000      -0.995814       -27.0975
  19   2.0000      -0.902333       -24.5537
  20   2.0000      -0.872158       -23.7326
  21   2.0000      -0.817166       -22.2362
  22   2.0000      -0.782897       -21.3037
  23   2.0000      -0.753913       -20.5150
  24   2.0000      -0.742954       -20.2168
  25   2.0000      -0.741208       -20.1693
  26   2.0000      -0.733981       -19.9726
  27   2.0000      -0.731571       -19.9071
  28   2.0000      -0.725517       -19.7423
  29   2.0000      -0.717316       -19.5192
  30   2.0000      -0.687964       -18.7204
  31   2.0000      -0.625421       -17.0186
  32   2.0000      -0.596474       -16.2309
  33   2.0000      -0.595440       -16.2027
  34   2.0000      -0.553553       -15.0630
  35   2.0000      -0.515154       -14.0181
  36   2.0000      -0.513038       -13.9605
  37   2.0000      -0.471501       -12.8302
  38   2.0000      -0.402210       -10.9447
  39   2.0000      -0.383090       -10.4244
  40   0.0000       0.017255         0.4695
  41   0.0000       0.021899         0.5959
  42   0.0000       0.031543         0.8583
  43   0.0000       0.032315         0.8793
  44   0.0000       0.059855         1.6288

MULLIKEN ATOMIC CHARGES
-----------------------
   0 F :   -0.764170
   1 F :   -0.764163
   2 O :   -0.579143
   3 O :   -0.579145
   4 N :    0.733324
   5 C :   -0.046403
   6 C :    0.934778
   7 C :    0.934785
   8 C :   -0.371265
   9 C :   -0.371312
  10 C :   -0.582417
  11 H :    0.470289
  12 H :    0.470299
  13 H :    0.514544
Sum of atomic charges:    0.0000000

LOEWDIN ATOMIC CHARGES
----------------------
   0 F :    0.793788
   1 F :    0.793788
   2 O :    0.551068
   3 O :    0.551068
   4 N :   -0.828687
   5 C :   -0.318082
   6 C :   -0.675584
   7 C :   -0.675584
   8 C :    0.282123
   9 C :    0.282123
  10 C :    0.284494
  11 H :   -0.356542
  12 H :   -0.356542
  13 H :   -0.327433

  Mayer bond orders larger than 0.100000
B(  0-F ,  9-C ) :   0.1271 B(  0-F , 10-C ) :   0.1523 B(  1-F ,  8-C ) :   0.1271
B(  1-F , 10-C ) :   0.1523 B(  2-O ,  4-N ) :   1.1842 B(  2-O ,  5-C ) :   0.2010
B(  3-O ,  4-N ) :   1.1842 B(  3-O ,  5-C ) :   0.2011 B(  4-N ,  5-C ) :   0.8817
B(  5-C ,  6-C ) :  -0.3427 B(  5-C ,  7-C ) :  -0.3427 B(  5-C ,  8-C ) :   1.2646
B(  5-C ,  9-C ) :   1.2646 B(  5-C , 11-H ) :  -0.1064 B(  5-C , 12-H ) :  -0.1064
B(  6-C ,  7-C ) :  -0.2234 B(  6-C ,  9-C ) :   1.5604 B(  6-C , 10-C ) :   1.4315
B(  7-C ,  8-C ) :   1.5604 B(  7-C , 10-C ) :   1.4315 B(  8-C , 11-H ) :   0.6860
B(  9-C , 12-H ) :   0.6860 B( 10-C , 13-H ) :   0.6570

MP2 TOTAL ENERGY:     -634.426634642 Eh
FINAL SINGLE POINT ENERGY      -634.426634641925

DIPOLE MOMENT
-------------
                                X             Y             Z
Electronic contribution:      0.00000      -0.00000      -3.26028
Nuclear contribution   :      0.00000       0.00000       2.03066
                        -----------------------------------------
Total Dipole Moment    :      0.00000      -0.00000      -1.22962
                        -----------------------------------------
Magnitude (a.u.)       :      1.22962
Magnitude (Debye)      :      3.12545

Rotational constants in cm-1:     0.051896     0.029436     0.018782
Rotational constants in MHz :  1555.812083   882.461962   563.080670

                             ****ORCA TERMINATED NORMALLY****
TOTAL RUN TIME: 0 days 0 hours 44 minutes 22 seconds 4 msec
