                         Program Version 5.0.4 -  RELEASE  -
|  1> !ri-mp2 aug-cc-pvqz aug-cc-pvqz/c tightscf
|  2> %pal nprocs 16 end
|  3>
|  4> * xyz 0 1
|  5> C     -1.385093   -0.119037   -0.191443
|  6> C      1.198586    1.436061    0.377759
|  7> C      2.456843   -0.677449   -0.193579
|  8> C     -0.014446   -0.553958   -0.640655
|  9> C      1.127999   -0.090146    0.287288
| 10> O     -2.127693    0.617199   -0.789592
| 11> O     -1.722647   -0.661713    1.007831
| 12> H      0.267397    1.867338    0.747324
| 13> H      1.400121    1.875664   -0.601872
| 14> H      1.997897    1.744882    1.052719
| 15> H      2.699166   -0.326079   -1.199339
| 16> H      3.273423   -0.380691    0.466040
| 17> H      2.426108   -1.767952   -0.218522
| 18> H     -0.012100   -1.645227   -0.691635
| 19> H      0.133247   -0.165542   -1.647605
| 20> H      0.921724   -0.484958    1.284881
| 21> H     -2.607598   -0.334141    1.225892
| 22> *
| 23>
| 24>                          ****END OF INPUT****

CARTESIAN COORDINATES (ANGSTROEM)
---------------------------------
  C     -1.385093   -0.119037   -0.191443
  C      1.198586    1.436061    0.377759
  C      2.456843   -0.677449   -0.193579
  C     -0.014446   -0.553958   -0.640655
  C      1.127999   -0.090146    0.287288
  O     -2.127693    0.617199   -0.789592
  O     -1.722647   -0.661713    1.007831
  H      0.267397    1.867338    0.747324
  H      1.400121    1.875664   -0.601872
  H      1.997897    1.744882    1.052719
  H      2.699166   -0.326079   -1.199339
  H      3.273423   -0.380691    0.466040
  H      2.426108   -1.767952   -0.218522
  H     -0.012100   -1.645227   -0.691635
  H      0.133247   -0.165542   -1.647605
  H      0.921724   -0.484958    1.284881
  H     -2.607598   -0.334141    1.225892

 Total Charge           Charge          ....    0
 Multiplicity           Mult            ....    1
 Number of Electrons    NEL             ....   56
 Basis Dimension        Dim             .... 1020

ORBITAL ENERGIES
----------------

  NO   OCC          E(Eh)            E(eV)
   0   2.0000     -20.608407      -560.7833
   1   2.0000     -20.546181      -559.0900
   2   2.0000     -11.382950      -309.7458
   3   2.0000     -11.242759      -305.9310
   4   2.0000     -11.242176      -305.9152
   5   2.0000     -11.220537      -305.3263
   6   2.0000     -11.217309      -305.2385
   7   2.0000      -1.462050       -39.7844
   8   2.0000      -1.359108       -36.9832
   9   2.0000      -1.105691       -30.0874
  10   2.0000      -0.989413       -26.9233
  11   2.0000      -0.939485       -25.5647
  12   2.0000      -0.829246       -22.5649
  13   2.0000      -0.786896       -21.4125
  14   2.0000      -0.703071       -19.1315
  15   2.0000      -0.680093       -18.5063
  16   2.0000      -0.651789       -17.7361
  17   2.0000      -0.630722       -17.1628
  18   2.0000      -0.597697       -16.2642
  19   2.0000      -0.585932       -15.9440
  20   2.0000      -0.555704       -15.1215
  21   2.0000      -0.548709       -14.9311
  22   2.0000      -0.538693       -14.6586
  23   2.0000      -0.496461       -13.5094
  24   2.0000      -0.491165       -13.3653
  25   2.0000      -0.477896       -13.0042
  26   2.0000      -0.469989       -12.7890
  27   2.0000      -0.443009       -12.0549
  28   0.0000       0.024136         0.6568
  29   0.0000       0.030277         0.8239
  30   0.0000       0.032396         0.8815
  31   0.0000       0.035701         0.9715
  32   0.0000       0.046913         1.2766

MULLIKEN ATOMIC CHARGES
-----------------------
   0 C :    1.231679
   1 C :   -0.928605
   2 C :   -0.906652
   3 C :   -0.673758
   4 C :    0.350153
   5 O :   -0.864744
   6 O :   -0.722980
   7 H :    0.226218
   8 H :    0.213947
   9 H :    0.258961
  10 H :    0.182809
  11 H :    0.249073
  12 H :    0.246417
  13 H :    0.296974
  14 H :    0.280491
  15 H :    0.259842
  16 H :    0.300176
Sum of atomic charges:    0.0000000

LOEWDIN ATOMIC CHARGES
----------------------
   0 C :   -1.020206
   1 C :    0.923468
   2 C :    0.924427
   3 C :    0.449422
   4 C :    0.089128
   5 O :    0.714093
   6 O :    1.260925
   7 H :   -0.281307
   8 H :   -0.271833
   9 H :   -0.273799
  10 H :   -0.274689
  11 H :   -0.275345
  12 H :   -0.274659
  13 H :   -0.285651
  14 H :   -0.305615
  15 H :   -0.285207
  16 H :   -0.813151

  Mayer bond orders larger than 0.100000
B(  0-C ,  3-C ) :   1.2026 B(  0-C ,  5-O ) :   1.2251 B(  0-C ,  6-O ) :   0.7951
B(  1-C ,  2-C ) :   0.1160 B(  1-C ,  4-C ) :   0.6670 B(  1-C ,  7-H ) :   1.0079
B(  1-C ,  8-H ) :   0.9694 B(  1-C ,  9-H ) :   1.0073 B(  2-C ,  4-C ) :   0.6630
B(  2-C , 10-H ) :   1.0011 B(  2-C , 11-H ) :   1.0241 B(  2-C , 12-H ) :   0.9889
B(  3-C ,  4-C ) :   0.6995 B(  3-C ,  5-O ) :   0.1169 B(  3-C , 13-H ) :   0.8904
B(  3-C , 14-H ) :   0.9010 B(  4-C , 11-H ) :  -0.1037 B(  4-C , 15-H ) :   0.8727
B(  5-O ,  6-O ) :   0.1211 B(  6-O , 16-H ) :   0.9297

MP2 TOTAL ENERGY:     -346.498713512 Eh
FINAL SINGLE POINT ENERGY      -346.498713511553

DIPOLE MOMENT
-------------
                                X             Y             Z
Electronic contribution:    -10.14409      -0.82035       0.01422
Nuclear contribution   :     10.74930       0.39398       0.43386
                        -----------------------------------------
Total Dipole Moment    :      0.60521      -0.42638       0.44808
                        -----------------------------------------
Magnitude (a.u.)       :      0.86536
Magnitude (Debye)      :      2.19958

Rotational constants in cm-1:     0.154879     0.051200     0.048262
Rotational constants in MHz :  4643.141480  1534.933697  1446.859416

                             ****ORCA TERMINATED NORMALLY****
TOTAL RUN TIME: 0 days 0 hours 49 minutes 39 seconds 494 msec
