                         Program Version 5.0.4 -  RELEASE  -
|  1> !ri-mp2 aug-cc-pvqz aug-cc-pvqz/c tightscf
|  2> %pal nprocs 16 end
|  3>
|  4> * xyz 0 1
|  5> C     -1.572019   -1.152435    0.064704
|  6> H     -2.544151   -1.085014   -0.426242
|  7> H     -1.109397   -2.095497   -0.217069
|  8> H     -1.747322   -1.170696    1.143837
|  9> C      1.649859    1.062268   -0.055942
| 10> H      1.313035    2.014631    0.352183
| 11> H      2.646218    0.870729    0.349265
| 12> H      1.737758    1.156202   -1.139611
| 13> O      1.248482   -1.330506   -0.129077
| 14> H      2.137286   -1.421916    0.225802
| 15> C      0.703049   -0.076396    0.308494
| 16> H      0.580650   -0.102704    1.400853
| 17> C     -0.691524    0.040475   -0.320727
| 18> H     -0.545223    0.020911   -1.406038
| 19> C     -1.380726    1.356806    0.052990
| 20> H     -1.468276    1.460678    1.137735
| 21> H     -0.850062    2.229463   -0.326308
| 22> H     -2.390195    1.382956   -0.358897
| 23> *
| 24>
| 25>                          ****END OF INPUT****

CARTESIAN COORDINATES (ANGSTROEM)
---------------------------------
  C     -1.572019   -1.152435    0.064704
  H     -2.544151   -1.085014   -0.426242
  H     -1.109397   -2.095497   -0.217069
  H     -1.747322   -1.170696    1.143837
  C      1.649859    1.062268   -0.055942
  H      1.313035    2.014631    0.352183
  H      2.646218    0.870729    0.349265
  H      1.737758    1.156202   -1.139611
  O      1.248482   -1.330506   -0.129077
  H      2.137286   -1.421916    0.225802
  C      0.703049   -0.076396    0.308494
  H      0.580650   -0.102704    1.400853
  C     -0.691524    0.040475   -0.320727
  H     -0.545223    0.020911   -1.406038
  C     -1.380726    1.356806    0.052990
  H     -1.468276    1.460678    1.137735
  H     -0.850062    2.229463   -0.326308
  H     -2.390195    1.382956   -0.358897

 Total Charge           Charge          ....    0
 Multiplicity           Mult            ....    1
 Number of Electrons    NEL             ....   50
 Basis Dimension        Dim             .... 1032

ORBITAL ENERGIES
----------------

  NO   OCC          E(Eh)            E(eV)
   0   2.0000     -20.548397      -559.1503
   1   2.0000     -11.275969      -306.8347
   2   2.0000     -11.221319      -305.3476
   3   2.0000     -11.215505      -305.1894
   4   2.0000     -11.210339      -305.0488
   5   2.0000     -11.199881      -304.7642
   6   2.0000      -1.353132       -36.8206
   7   2.0000      -1.081053       -29.4169
   8   2.0000      -0.991465       -26.9791
   9   2.0000      -0.924564       -25.1587
  10   2.0000      -0.859585       -23.3905
  11   2.0000      -0.762919       -20.7601
  12   2.0000      -0.686873       -18.6908
  13   2.0000      -0.633800       -17.2466
  14   2.0000      -0.613130       -16.6841
  15   2.0000      -0.594126       -16.1670
  16   2.0000      -0.556315       -15.1381
  17   2.0000      -0.542563       -14.7639
  18   2.0000      -0.535480       -14.5712
  19   2.0000      -0.525389       -14.2965
  20   2.0000      -0.509653       -13.8684
  21   2.0000      -0.474665       -12.9163
  22   2.0000      -0.468862       -12.7584
  23   2.0000      -0.446952       -12.1622
  24   2.0000      -0.433084       -11.7848
  25   0.0000       0.025369         0.6903
  26   0.0000       0.030660         0.8343
  27   0.0000       0.033378         0.9083
  28   0.0000       0.035368         0.9624
  29   0.0000       0.048254         1.3131

MULLIKEN ATOMIC CHARGES
-----------------------
   0 C :   -0.950276
   1 H :    0.250813
   2 H :    0.287710
   3 H :    0.174248
   4 C :   -0.931003
   5 H :    0.239200
   6 H :    0.292128
   7 H :    0.219811
   8 O :   -0.943799
   9 H :    0.278968
  10 C :    0.671034
  11 H :    0.184656
  12 C :    0.241820
  13 H :    0.226403
  14 C :   -0.937812
  15 H :    0.190031
  16 H :    0.241693
  17 H :    0.264376
Sum of atomic charges:    0.0000000

LOEWDIN ATOMIC CHARGES
----------------------
   0 C :    0.916719
   1 H :   -0.279382
   2 H :   -0.297475
   3 H :   -0.274450
   4 C :    0.919582
   5 H :   -0.295340
   6 H :   -0.282879
   7 H :   -0.273398
   8 O :    1.294390
   9 H :   -0.786809
  10 C :   -0.224199
  11 H :   -0.289330
  12 C :    0.073254
  13 H :   -0.279780
  14 C :    0.917078
  15 H :   -0.268354
  16 H :   -0.292044
  17 H :   -0.277583

  Mayer bond orders larger than 0.100000
B(  0-C ,  1-H ) :   1.0414 B(  0-C ,  2-H ) :   0.9706 B(  0-C ,  3-H ) :   1.0256
B(  0-C , 12-C ) :   0.5877 B(  0-C , 14-C ) :   0.1245 B(  1-H , 12-C ) :  -0.1035
B(  4-C ,  5-H ) :   0.9992 B(  4-C ,  6-H ) :   0.9658 B(  4-C ,  7-H ) :   0.9674
B(  4-C ,  8-O ) :   0.1054 B(  4-C , 10-C ) :   0.7813 B(  8-O ,  9-H ) :   0.9835
B(  8-O , 10-C ) :   0.2963 B( 10-C , 11-H ) :   0.9689 B( 10-C , 12-C ) :   0.7418
B( 12-C , 13-H ) :   0.9482 B( 12-C , 14-C ) :   0.6653 B( 14-C , 15-H ) :   0.9968
B( 14-C , 16-H ) :   1.0102 B( 14-C , 17-H ) :   1.0231

MP2 TOTAL ENERGY:     -272.519960990 Eh
FINAL SINGLE POINT ENERGY      -272.519960989703

DIPOLE MOMENT
-------------
                                X             Y             Z
Electronic contribution:      2.66847      -2.98229      -0.45977
Nuclear contribution   :     -2.36490       3.45017       0.78135
                        -----------------------------------------
Total Dipole Moment    :      0.30357       0.46788       0.32158
                        -----------------------------------------
Magnitude (a.u.)       :      0.64380
Magnitude (Debye)      :      1.63641

Rotational constants in cm-1:     0.146015     0.099118     0.064176
Rotational constants in MHz :  4377.424273  2971.491688  1923.957459

                             ****ORCA TERMINATED NORMALLY****
TOTAL RUN TIME: 0 days 0 hours 45 minutes 36 seconds 543 msec
