                         Program Version 5.0.4 -  RELEASE  -
|  1> !ri-mp2 aug-cc-pvqz aug-cc-pvqz/c tightscf
|  2> %pal nprocs 16 end
|  3> %maxcore 3800
|  4>
|  5> * xyz 0 1
|  6> C      2.400164    0.371989    0.000000
|  7> C      2.378036   -1.032831    0.000000
|  8> C      1.225975    1.104452    0.000000
|  9> C      1.182367   -1.731751    0.000000
| 10> C     -2.128810   -0.282841    0.000000
| 11> C      0.000000    0.426694    0.000000
| 12> C     -1.373591    0.855619    0.000000
| 13> C      0.002265   -0.990913    0.000000
| 14> C     -1.867833    2.265725    0.000000
| 15> N     -1.311240   -1.397591    0.000000
| 16> H      3.352447    0.884837    0.000000
| 17> H      3.311976   -1.578318    0.000000
| 18> H      1.256605    2.186234    0.000000
| 19> H      1.169380   -2.813921    0.000000
| 20> H     -3.200520   -0.392058    0.000000
| 21> H     -1.518424    2.813683    0.878543
| 22> H     -1.518424    2.813683   -0.878543
| 23> H     -2.957161    2.300824    0.000000
| 24> H     -1.628625   -2.348693    0.000000
| 25> *
| 26>
| 27>                          ****END OF INPUT****

CARTESIAN COORDINATES (ANGSTROEM)
---------------------------------
  C      2.400164    0.371989    0.000000
  C      2.378036   -1.032831    0.000000
  C      1.225975    1.104452    0.000000
  C      1.182367   -1.731751    0.000000
  C     -2.128810   -0.282841    0.000000
  C      0.000000    0.426694    0.000000
  C     -1.373591    0.855619    0.000000
  C      0.002265   -0.990913    0.000000
  C     -1.867833    2.265725    0.000000
  N     -1.311240   -1.397591    0.000000
  H      3.352447    0.884837    0.000000
  H      3.311976   -1.578318    0.000000
  H      1.256605    2.186234    0.000000
  H      1.169380   -2.813921    0.000000
  H     -3.200520   -0.392058    0.000000
  H     -1.518424    2.813683    0.878543
  H     -1.518424    2.813683   -0.878543
  H     -2.957161    2.300824    0.000000
  H     -1.628625   -2.348693    0.000000

 Total Charge           Charge          ....    0
 Multiplicity           Mult            ....    1
 Number of Electrons    NEL             ....   70
 Basis Dimension        Dim             .... 1214

ORBITAL ENERGIES
----------------

  NO   OCC          E(Eh)            E(eV)
   0   2.0000     -15.595289      -424.3694
   1   2.0000     -11.262376      -306.4648
   2   2.0000     -11.260936      -306.4256
   3   2.0000     -11.227565      -305.5176
   4   2.0000     -11.226878      -305.4989
   5   2.0000     -11.225623      -305.4647
   6   2.0000     -11.220265      -305.3189
   7   2.0000     -11.219384      -305.2949
   8   2.0000     -11.218941      -305.2829
   9   2.0000     -11.217120      -305.2334
  10   2.0000      -1.291894       -35.1542
  11   2.0000      -1.129620       -30.7385
  12   2.0000      -1.073391       -29.2084
  13   2.0000      -0.998830       -27.1795
  14   2.0000      -0.987487       -26.8709
  15   2.0000      -0.932668       -25.3792
  16   2.0000      -0.840431       -22.8693
  17   2.0000      -0.805456       -21.9176
  18   2.0000      -0.757287       -20.6068
  19   2.0000      -0.722131       -19.6502
  20   2.0000      -0.660548       -17.9744
  21   2.0000      -0.646898       -17.6030
  22   2.0000      -0.604552       -16.4507
  23   2.0000      -0.594372       -16.1737
  24   2.0000      -0.592681       -16.1277
  25   2.0000      -0.571328       -15.5466
  26   2.0000      -0.551648       -15.0111
  27   2.0000      -0.543130       -14.7793
  28   2.0000      -0.531042       -14.4504
  29   2.0000      -0.498942       -13.5769
  30   2.0000      -0.475490       -12.9388
  31   2.0000      -0.464743       -12.6463
  32   2.0000      -0.375231       -10.2105
  33   2.0000      -0.299093        -8.1387
  34   2.0000      -0.279692        -7.6108
  35   0.0000       0.021660         0.5894
  36   0.0000       0.027060         0.7363
  37   0.0000       0.029042         0.7903
  38   0.0000       0.038263         1.0412
  39   0.0000       0.039645         1.0788

MULLIKEN ATOMIC CHARGES
-----------------------
   0 C :   -0.425463
   1 C :   -0.375110
   2 C :   -0.548760
   3 C :   -0.342855
   4 C :   -0.616274
   5 C :    0.297730
   6 C :    0.436601
   7 C :    0.738807
   8 C :   -0.774042
   9 N :   -0.626228
  10 H :    0.232193
  11 H :    0.251367
  12 H :    0.249215
  13 H :    0.293708
  14 H :    0.411251
  15 H :    0.199078
  16 H :    0.199078
  17 H :    0.299724
  18 H :    0.099978
Sum of atomic charges:   -0.0000000

LOEWDIN ATOMIC CHARGES
----------------------
   0 C :    0.334233
   1 C :    0.327138
   2 C :    0.365083
   3 C :    0.376993
   4 C :    0.248017
   5 C :   -0.134302
   6 C :   -0.065942
   7 C :   -0.273550
   8 C :    0.903219
   9 N :    0.847752
  10 H :   -0.334989
  11 H :   -0.331155
  12 H :   -0.317339
  13 H :   -0.321172
  14 H :   -0.292725
  15 H :   -0.288535
  16 H :   -0.288535
  17 H :   -0.305392
  18 H :   -0.448800

  Mayer bond orders larger than 0.100000
B(  0-C ,  1-C ) :   1.1083 B(  0-C ,  2-C ) :   1.3565 B(  0-C ,  5-C ) :  -0.2041
B(  0-C , 10-H ) :   1.1588 B(  0-C , 11-H ) :  -0.1079 B(  1-C ,  3-C ) :   1.3569
B(  1-C ,  7-C ) :  -0.2940 B(  1-C , 11-H ) :   1.1180 B(  2-C ,  3-C ) :   0.1574
B(  2-C ,  5-C ) :   0.9560 B(  2-C ,  7-C ) :  -0.1985 B(  2-C , 10-H ) :  -0.1644
B(  2-C , 12-H ) :   1.0558 B(  3-C ,  5-C ) :  -0.2460 B(  3-C ,  7-C ) :   1.0655
B(  3-C ,  9-N ) :  -0.2110 B(  3-C , 11-H ) :  -0.1310 B(  3-C , 13-H ) :   0.9923
B(  4-C ,  6-C ) :   1.5253 B(  4-C ,  7-C ) :  -0.1437 B(  4-C ,  9-N ) :   1.1446
B(  4-C , 14-H ) :   0.8904 B(  5-C ,  6-C ) :   0.6191 B(  5-C ,  7-C ) :   0.9849
B(  5-C ,  9-N ) :   0.2215 B(  5-C , 12-H ) :  -0.1578 B(  6-C ,  7-C ) :  -0.4401
B(  6-C ,  8-C ) :   0.5134 B(  6-C ,  9-N ) :  -0.2481 B(  6-C , 15-H ) :  -0.1370
B(  6-C , 16-H ) :  -0.1370 B(  7-C ,  9-N ) :   0.7168 B(  7-C , 18-H ) :  -0.1403
B(  8-C , 15-H ) :   1.0715 B(  8-C , 16-H ) :   1.0715 B(  8-C , 17-H ) :   0.9789
B(  9-N , 18-H ) :   1.2074

MP2 TOTAL ENERGY:     -402.418705569 Eh
FINAL SINGLE POINT ENERGY      -402.418705568747

DIPOLE MOMENT
-------------
                                X             Y             Z
Electronic contribution:      1.13880      -4.32340       0.00000
Nuclear contribution   :     -1.74425       3.86651       0.00000
                        -----------------------------------------
Total Dipole Moment    :     -0.60546      -0.45688       0.00000
                        -----------------------------------------
Magnitude (a.u.)       :      0.75850
Magnitude (Debye)      :      1.92795

Rotational constants in cm-1:     0.087483     0.042340     0.028682
Rotational constants in MHz :  2622.667458  1269.324239   859.879154

                             ****ORCA TERMINATED NORMALLY****
TOTAL RUN TIME: 0 days 1 hours 14 minutes 18 seconds 123 msec
