                         Program Version 5.0.4 -  RELEASE  -
|  1> !ri-mp2 aug-cc-pvqz aug-cc-pvqz/c tightscf
|  2> %pal nprocs 16 end
|  3>
|  4> * xyz 0 1
|  5> C      1.129792   -1.107674    0.000000
|  6> C     -0.086067   -1.782624    0.000000
|  7> C     -1.216225    0.338498    0.000000
|  8> C      1.202373    0.281815    0.000000
|  9> C      0.000000    1.013650    0.000000
| 10> C     -1.265989   -1.051728    0.000000
| 11> C      2.538691    0.976753    0.000000
| 12> C      0.014913    2.519608    0.000000
| 13> O     -2.504718   -1.638916    0.000000
| 14> H      2.046577   -1.683971    0.000000
| 15> H     -0.110692   -2.865937    0.000000
| 16> H     -2.147731    0.888906    0.000000
| 17> H      2.663768    1.616923    0.876838
| 18> H      3.353135    0.253692    0.000000
| 19> H      2.663768    1.616923   -0.876838
| 20> H     -0.996299    2.922450    0.000000
| 21> H      0.534083    2.914310    0.876468
| 22> H      0.534083    2.914310   -0.876468
| 23> H     -2.407882   -2.596061    0.000000
| 24> *
| 25>
| 26>                          ****END OF INPUT****

CARTESIAN COORDINATES (ANGSTROEM)
---------------------------------
  C      1.129792   -1.107674    0.000000
  C     -0.086067   -1.782624    0.000000
  C     -1.216225    0.338498    0.000000
  C      1.202373    0.281815    0.000000
  C      0.000000    1.013650    0.000000
  C     -1.265989   -1.051728    0.000000
  C      2.538691    0.976753    0.000000
  C      0.014913    2.519608    0.000000
  O     -2.504718   -1.638916    0.000000
  H      2.046577   -1.683971    0.000000
  H     -0.110692   -2.865937    0.000000
  H     -2.147731    0.888906    0.000000
  H      2.663768    1.616923    0.876838
  H      3.353135    0.253692    0.000000
  H      2.663768    1.616923   -0.876838
  H     -0.996299    2.922450    0.000000
  H      0.534083    2.914310    0.876468
  H      0.534083    2.914310   -0.876468
  H     -2.407882   -2.596061    0.000000

 Total Charge           Charge          ....    0
 Multiplicity           Mult            ....    1
 Number of Electrons    NEL             ....   66
 Basis Dimension        Dim             .... 1180

ORBITAL ENERGIES
----------------

  NO   OCC          E(Eh)            E(eV)
   0   2.0000     -20.583299      -560.1000
   1   2.0000     -11.294265      -307.3326
   2   2.0000     -11.240814      -305.8781
   3   2.0000     -11.232143      -305.6421
   4   2.0000     -11.226779      -305.4962
   5   2.0000     -11.224160      -305.4249
   6   2.0000     -11.221623      -305.3559
   7   2.0000     -11.219385      -305.2950
   8   2.0000     -11.218684      -305.2759
   9   2.0000      -1.398573       -38.0571
  10   2.0000      -1.153742       -31.3949
  11   2.0000      -1.046526       -28.4774
  12   2.0000      -1.032151       -28.0863
  13   2.0000      -0.951198       -25.8834
  14   2.0000      -0.913168       -24.8486
  15   2.0000      -0.824028       -22.4229
  16   2.0000      -0.800638       -21.7865
  17   2.0000      -0.711333       -19.3563
  18   2.0000      -0.673687       -18.3319
  19   2.0000      -0.640838       -17.4381
  20   2.0000      -0.607726       -16.5371
  21   2.0000      -0.597130       -16.2487
  22   2.0000      -0.578251       -15.7350
  23   2.0000      -0.577055       -15.7025
  24   2.0000      -0.565990       -15.4014
  25   2.0000      -0.550382       -14.9767
  26   2.0000      -0.539768       -14.6878
  27   2.0000      -0.528519       -14.3817
  28   2.0000      -0.494135       -13.4461
  29   2.0000      -0.479982       -13.0610
  30   2.0000      -0.463263       -12.6060
  31   2.0000      -0.331866        -9.0305
  32   2.0000      -0.302241        -8.2244
  33   0.0000       0.023902         0.6504
  34   0.0000       0.026990         0.7344
  35   0.0000       0.030088         0.8187
  36   0.0000       0.040564         1.1038
  37   0.0000       0.042143         1.1468

MULLIKEN ATOMIC CHARGES
-----------------------
   0 C :   -0.488533
   1 C :   -0.542141
   2 C :   -0.828645
   3 C :    0.470188
   4 C :    0.310031
   5 C :    1.244709
   6 C :   -0.818114
   7 C :   -0.843220
   8 O :   -0.853911
   9 H :    0.170373
  10 H :    0.168757
  11 H :    0.296345
  12 H :    0.184568
  13 H :    0.296684
  14 H :    0.184568
  15 H :    0.313493
  16 H :    0.183048
  17 H :    0.183048
  18 H :    0.368752
Sum of atomic charges:   -0.0000000

LOEWDIN ATOMIC CHARGES
----------------------
   0 C :    0.340765
   1 C :    0.340439
   2 C :    0.332383
   3 C :   -0.064321
   4 C :   -0.067182
   5 C :   -0.425938
   6 C :    0.896947
   7 C :    0.906967
   8 O :    1.271308
   9 H :   -0.322444
  10 H :   -0.326304
  11 H :   -0.329192
  12 H :   -0.284375
  13 H :   -0.307296
  14 H :   -0.284375
  15 H :   -0.304649
  16 H :   -0.281848
  17 H :   -0.281848
  18 H :   -0.809036

  Mayer bond orders larger than 0.100000
B(  0-C ,  1-C ) :   1.1693 B(  0-C ,  2-C ) :   0.1028 B(  0-C ,  3-C ) :   1.0239
B(  0-C ,  6-C ) :  -0.1118 B(  0-C ,  9-H ) :   1.0925 B(  0-C , 10-H ) :  -0.1842
B(  1-C ,  3-C ) :  -0.3070 B(  1-C ,  5-C ) :   1.3221 B(  1-C ,  8-O ) :   0.2668
B(  1-C ,  9-H ) :  -0.1491 B(  1-C , 10-H ) :   1.1538 B(  2-C ,  3-C ) :  -0.1614
B(  2-C ,  4-C ) :   1.0476 B(  2-C ,  5-C ) :   1.5449 B(  2-C ,  7-C ) :  -0.1558
B(  2-C ,  8-O ) :   0.4009 B(  2-C , 11-H ) :   0.9440 B(  3-C ,  4-C ) :   1.0230
B(  3-C ,  6-C ) :   0.5629 B(  3-C , 12-H ) :  -0.1161 B(  3-C , 13-H ) :  -0.1076
B(  3-C , 14-H ) :  -0.1161 B(  4-C ,  5-C ) :  -0.5041 B(  4-C ,  7-C ) :   0.6648
B(  4-C , 15-H ) :  -0.1057 B(  4-C , 16-H ) :  -0.1102 B(  4-C , 17-H ) :  -0.1102
B(  5-C ,  8-O ) :  -0.2948 B(  5-C , 10-H ) :  -0.1216 B(  5-C , 18-H ) :  -0.1376
B(  6-C , 12-H ) :   1.0637 B(  6-C , 13-H ) :   0.9934 B(  6-C , 14-H ) :   1.0637
B(  7-C , 15-H ) :   0.9735 B(  7-C , 16-H ) :   1.0601 B(  7-C , 17-H ) :   1.0601
B(  8-O , 18-H ) :   0.8996

MP2 TOTAL ENERGY:     -385.444477338 Eh
FINAL SINGLE POINT ENERGY      -385.444477338145

DIPOLE MOMENT
-------------
                                X             Y             Z
Electronic contribution:     -5.73353      -6.23285       0.00000
Nuclear contribution   :      6.18240       6.04277       0.00000
                        -----------------------------------------
Total Dipole Moment    :      0.44886      -0.19008       0.00000
                        -----------------------------------------
Magnitude (a.u.)       :      0.48745
Magnitude (Debye)      :      1.23901

Rotational constants in cm-1:     0.099858     0.043485     0.030635
Rotational constants in MHz :  2993.666179  1303.657450   918.401425

                             ****ORCA TERMINATED NORMALLY****
TOTAL RUN TIME: 0 days 1 hours 24 minutes 40 seconds 800 msec
