                         Program Version 5.0.4 -  RELEASE  -
|  1> !ri-mp2 aug-cc-pvqz aug-cc-pvqz/c tightscf
|  2> %pal nprocs 16 end
|  3> %maxcore 3800
|  4>
|  5> * xyz 0 1
|  6> C      2.151772   -0.572496   -0.560545
|  7> C     -2.062713   -0.100817   -1.587752
|  8> C      0.451205    2.241234    0.698532
|  9> C     -1.313679   -1.261876    1.680440
| 10> C      0.859422   -0.182791   -1.105501
| 11> C     -0.223077    0.034236   -0.014933
| 12> N      3.188160   -0.864297   -0.158479
| 13> O     -1.377593    0.628217   -0.574436
| 14> O      0.199911    0.871969    1.008392
| 15> O     -0.475157   -1.218770    0.519329
| 16> H     -2.222341   -1.139012   -1.294351
| 17> H     -1.527238   -0.071217   -2.540553
| 18> H     -3.024533    0.389798   -1.715392
| 19> H      1.291753    2.348187    0.008318
| 20> H      0.717315    2.710667    1.641691
| 21> H     -0.432534    2.723319    0.283632
| 22> H     -2.243086   -0.715593    1.516465
| 23> H     -0.797455   -0.851306    2.545921
| 24> H     -1.529699   -2.314243    1.843635
| 25> H      0.519543   -0.961831   -1.786348
| 26> H      0.976294    0.735039   -1.681386
| 27> *
| 28>
| 29>                          ****END OF INPUT****

CARTESIAN COORDINATES (ANGSTROEM)
---------------------------------
  C      2.151772   -0.572496   -0.560545
  C     -2.062713   -0.100817   -1.587752
  C      0.451205    2.241234    0.698532
  C     -1.313679   -1.261876    1.680440
  C      0.859422   -0.182791   -1.105501
  C     -0.223077    0.034236   -0.014933
  N      3.188160   -0.864297   -0.158479
  O     -1.377593    0.628217   -0.574436
  O      0.199911    0.871969    1.008392
  O     -0.475157   -1.218770    0.519329
  H     -2.222341   -1.139012   -1.294351
  H     -1.527238   -0.071217   -2.540553
  H     -3.024533    0.389798   -1.715392
  H      1.291753    2.348187    0.008318
  H      0.717315    2.710667    1.641691
  H     -0.432534    2.723319    0.283632
  H     -2.243086   -0.715593    1.516465
  H     -0.797455   -0.851306    2.545921
  H     -1.529699   -2.314243    1.843635
  H      0.519543   -0.961831   -1.786348
  H      0.976294    0.735039   -1.681386

 Total Charge           Charge          ....    0
 Multiplicity           Mult            ....    1
 Number of Electrons    NEL             ....   78
 Basis Dimension        Dim             .... 1306

ORBITAL ENERGIES
----------------

  NO   OCC          E(Eh)            E(eV)
   0   2.0000     -20.580793      -560.0319
   1   2.0000     -20.576631      -559.9186
   2   2.0000     -20.576512      -559.9154
   3   2.0000     -15.561804      -423.4582
   4   2.0000     -11.418786      -310.7210
   5   2.0000     -11.290520      -307.2307
   6   2.0000     -11.283647      -307.0436
   7   2.0000     -11.282656      -307.0167
   8   2.0000     -11.275971      -306.8348
   9   2.0000     -11.268458      -306.6303
  10   2.0000      -1.474798       -40.1313
  11   2.0000      -1.367647       -37.2156
  12   2.0000      -1.366566       -37.1862
  13   2.0000      -1.216715       -33.1085
  14   2.0000      -1.073055       -29.1993
  15   2.0000      -0.986361       -26.8403
  16   2.0000      -0.950782       -25.8721
  17   2.0000      -0.941742       -25.6261
  18   2.0000      -0.813160       -22.1272
  19   2.0000      -0.740642       -20.1539
  20   2.0000      -0.730292       -19.8722
  21   2.0000      -0.720277       -19.5997
  22   2.0000      -0.675454       -18.3800
  23   2.0000      -0.655647       -17.8411
  24   2.0000      -0.638993       -17.3879
  25   2.0000      -0.619740       -16.8640
  26   2.0000      -0.610566       -16.6143
  27   2.0000      -0.598828       -16.2949
  28   2.0000      -0.594320       -16.1723
  29   2.0000      -0.575164       -15.6510
  30   2.0000      -0.551274       -15.0009
  31   2.0000      -0.540399       -14.7050
  32   2.0000      -0.512589       -13.9483
  33   2.0000      -0.501798       -13.6546
  34   2.0000      -0.479690       -13.0530
  35   2.0000      -0.468142       -12.7388
  36   2.0000      -0.460895       -12.5416
  37   2.0000      -0.455388       -12.3917
  38   2.0000      -0.438230       -11.9248
  39   0.0000       0.019259         0.5241
  40   0.0000       0.027895         0.7591
  41   0.0000       0.028847         0.7850
  42   0.0000       0.034541         0.9399
  43   0.0000       0.043541         1.1848

MULLIKEN ATOMIC CHARGES
-----------------------
   0 C :    0.567210
   1 C :   -0.811476
   2 C :   -0.750340
   3 C :   -0.841829
   4 C :   -0.999521
   5 C :    2.796970
   6 N :   -0.803703
   7 O :   -0.918647
   8 O :   -1.040383
   9 O :   -0.952900
  10 H :    0.325728
  11 H :    0.260522
  12 H :    0.404068
  13 H :    0.293105
  14 H :    0.387896
  15 H :    0.308086
  16 H :    0.300424
  17 H :    0.340614
  18 H :    0.432010
  19 H :    0.379141
  20 H :    0.323024
Sum of atomic charges:    0.0000000

LOEWDIN ATOMIC CHARGES
----------------------
   0 C :   -0.262983
   1 C :    0.589809
   2 C :    0.603831
   3 C :    0.606447
   4 C :    0.366140
   5 C :   -1.451554
   6 N :    0.427387
   7 O :    0.871627
   8 O :    0.864395
   9 O :    0.863777
  10 H :   -0.315677
  11 H :   -0.309116
  12 H :   -0.314791
  13 H :   -0.312549
  14 H :   -0.315169
  15 H :   -0.319961
  16 H :   -0.312180
  17 H :   -0.315406
  18 H :   -0.319697
  19 H :   -0.327238
  20 H :   -0.317091

  Mayer bond orders larger than 0.100000
B(  0-C ,  4-C ) :   1.2316 B(  0-C ,  5-C ) :  -0.1553 B(  0-C ,  6-N ) :   2.2896
B(  1-C ,  5-C ) :  -0.1825 B(  1-C ,  7-O ) :   0.9714 B(  1-C , 10-H ) :   0.8786
B(  1-C , 11-H ) :   0.9519 B(  1-C , 12-H ) :   0.8668 B(  2-C ,  5-C ) :  -0.2027
B(  2-C ,  8-O ) :   0.9734 B(  2-C , 13-H ) :   0.8867 B(  2-C , 14-H ) :   0.8957
B(  2-C , 15-H ) :   0.8965 B(  3-C ,  5-C ) :  -0.1644 B(  3-C ,  9-O ) :   0.9738
B(  3-C , 16-H ) :   0.9284 B(  3-C , 17-H ) :   0.8825 B(  3-C , 18-H ) :   0.8454
B(  4-C ,  5-C ) :   0.6276 B(  4-C ,  7-O ) :   0.1404 B(  4-C ,  8-O ) :   0.1232
B(  4-C ,  9-O ) :   0.2536 B(  4-C , 19-H ) :   0.8352 B(  4-C , 20-H ) :   0.9223
B(  5-C ,  9-O ) :   0.2805 B(  7-O ,  8-O ) :   0.1036 B(  8-O ,  9-O ) :   0.1394

MP2 TOTAL ENERGY:     -514.889308726 Eh
FINAL SINGLE POINT ENERGY      -514.889308726417

DIPOLE MOMENT
-------------
                                X             Y             Z
Electronic contribution:      6.56169      -2.22508       0.38773
Nuclear contribution   :     -8.35528       2.87935      -1.17495
                        -----------------------------------------
Total Dipole Moment    :     -1.79359       0.65426      -0.78722
                        -----------------------------------------
Magnitude (a.u.)       :      2.06512
Magnitude (Debye)      :      5.24913

Rotational constants in cm-1:     0.053872     0.034277     0.033003
Rotational constants in MHz :  1615.034420  1027.601104   989.413822

                             ****ORCA TERMINATED NORMALLY****
TOTAL RUN TIME: 0 days 1 hours 21 minutes 31 seconds 556 msec
