                         Program Version 5.0.4 -  RELEASE  -
|  1> !ri-mp2 aug-cc-pvqz aug-cc-pvqz/c tightscf
|  2> %pal nprocs 16 end
|  3>
|  4> * xyz 0 1
|  5> O     -0.697958   -1.455911    0.000000
|  6> C     -1.079484   -0.145052    0.000000
|  7> C      0.661528   -1.463672    0.000000
|  8> C      0.000000    0.676627    0.000000
|  9> C      1.141177   -0.197619    0.000000
| 10> C      0.006984    2.171398    0.000000
| 11> H     -2.139263    0.036670    0.000000
| 12> H      1.128523   -2.431792    0.000000
| 13> H      2.178895    0.090679    0.000000
| 14> H     -1.007010    2.569914    0.000000
| 15> H      0.520643    2.565867    0.878993
| 16> H      0.520643    2.565867   -0.878993
| 17> *
| 18>
| 19>                          ****END OF INPUT****

CARTESIAN COORDINATES (ANGSTROEM)
---------------------------------
  O     -0.697958   -1.455911    0.000000
  C     -1.079484   -0.145052    0.000000
  C      0.661528   -1.463672    0.000000
  C      0.000000    0.676627    0.000000
  C      1.141177   -0.197619    0.000000
  C      0.006984    2.171398    0.000000
  H     -2.139263    0.036670    0.000000
  H      1.128523   -2.431792    0.000000
  H      2.178895    0.090679    0.000000
  H     -1.007010    2.569914    0.000000
  H      0.520643    2.565867    0.878993
  H      0.520643    2.565867   -0.878993

 Total Charge           Charge          ....    0
 Multiplicity           Mult            ....    1
 Number of Electrons    NEL             ....   44
 Basis Dimension        Dim             ....  756

ORBITAL ENERGIES
----------------

  NO   OCC          E(Eh)            E(eV)
   0   2.0000     -20.614182      -560.9404
   1   2.0000     -11.284681      -307.0718
   2   2.0000     -11.275757      -306.8290
   3   2.0000     -11.232703      -305.6574
   4   2.0000     -11.227527      -305.5165
   5   2.0000     -11.223481      -305.4064
   6   2.0000      -1.451168       -39.4883
   7   2.0000      -1.098066       -29.8799
   8   2.0000      -1.012221       -27.5439
   9   2.0000      -0.947040       -25.7703
  10   2.0000      -0.793917       -21.6036
  11   2.0000      -0.769092       -20.9281
  12   2.0000      -0.712652       -19.3923
  13   2.0000      -0.632287       -17.2054
  14   2.0000      -0.605818       -16.4852
  15   2.0000      -0.584373       -15.9016
  16   2.0000      -0.569915       -15.5082
  17   2.0000      -0.563138       -15.3238
  18   2.0000      -0.541272       -14.7288
  19   2.0000      -0.507330       -13.8052
  20   2.0000      -0.384159       -10.4535
  21   2.0000      -0.314700        -8.5634
  22   0.0000       0.025821         0.7026
  23   0.0000       0.029370         0.7992
  24   0.0000       0.032596         0.8870
  25   0.0000       0.042420         1.1543
  26   0.0000       0.043032         1.1710

MULLIKEN ATOMIC CHARGES
-----------------------
   0 O :   -0.890299
   1 C :   -0.090711
   2 C :   -0.131806
   3 C :    0.064045
   4 C :   -0.583730
   5 C :   -0.629296
   6 H :    0.532549
   7 H :    0.611344
   8 H :    0.424080
   9 H :    0.220990
  10 H :    0.236416
  11 H :    0.236416
Sum of atomic charges:   -0.0000000

LOEWDIN ATOMIC CHARGES
----------------------
   0 O :    0.829377
   1 C :   -0.000023
   2 C :   -0.006386
   3 C :   -0.143418
   4 C :    0.302326
   5 C :    0.898844
   6 H :   -0.328836
   7 H :   -0.335961
   8 H :   -0.322598
   9 H :   -0.307186
  10 H :   -0.293069
  11 H :   -0.293069

  Mayer bond orders larger than 0.100000
B(  0-O ,  1-C ) :   0.7597 B(  0-O ,  2-C ) :   0.9042 B(  0-O ,  3-C ) :   0.1006
B(  0-O ,  4-C ) :   0.1579 B(  1-C ,  3-C ) :   1.6668 B(  1-C ,  6-H ) :   0.7440
B(  2-C ,  3-C ) :  -0.3021 B(  2-C ,  4-C ) :   1.6829 B(  2-C ,  7-H ) :   0.6550
B(  3-C ,  4-C ) :   0.8778 B(  3-C ,  5-C ) :   0.6111 B(  3-C ,  9-H ) :  -0.1320
B(  4-C ,  8-H ) :   0.8638 B(  5-C ,  9-H ) :   1.0529 B(  5-C , 10-H ) :   0.9825
B(  5-C , 11-H ) :   0.9825

MP2 TOTAL ENERGY:     -268.897254670 Eh
FINAL SINGLE POINT ENERGY      -268.897254670155

DIPOLE MOMENT
-------------
                                X             Y             Z
Electronic contribution:     -0.97572      -5.02819      -0.00000
Nuclear contribution   :      1.19917       5.40916       0.00000
                        -----------------------------------------
Total Dipole Moment    :      0.22345       0.38096      -0.00000
                        -----------------------------------------
Magnitude (a.u.)       :      0.44166
Magnitude (Debye)      :      1.12260

Rotational constants in cm-1:     0.298572     0.112665     0.083054
Rotational constants in MHz :  8950.969867  3377.604937  2489.895007

                             ****ORCA TERMINATED NORMALLY****
TOTAL RUN TIME: 0 days 0 hours 19 minutes 21 seconds 370 msec
