                         Program Version 5.0.4 -  RELEASE  -
|  1> !ri-mp2 aug-cc-pvqz aug-cc-pvqz/c tightscf
|  2> %pal nprocs 16 end
|  3>
|  4> * xyz 0 1
|  5> S     -2.444945    0.114711   -0.000002
|  6> O      1.338014    1.334195    0.000002
|  7> O      2.574349   -0.551462    0.000001
|  8> C      1.397186    0.128744    0.000001
|  9> C      0.265164   -0.804020    0.000000
| 10> C     -0.982040   -0.381913    0.000000
| 11> H      3.277153    0.114294    0.000002
| 12> H      0.461205   -1.868401    0.000000
| 13> *
| 14>
| 15>                          ****END OF INPUT****

CARTESIAN COORDINATES (ANGSTROEM)
---------------------------------
  S     -2.444945    0.114711   -0.000002
  O      1.338014    1.334195    0.000002
  O      2.574349   -0.551462    0.000001
  C      1.397186    0.128744    0.000001
  C      0.265164   -0.804020    0.000000
  C     -0.982040   -0.381913    0.000000
  H      3.277153    0.114294    0.000002
  H      0.461205   -1.868401    0.000000

 Total Charge           Charge          ....    0
 Multiplicity           Mult            ....    1
 Number of Electrons    NEL             ....   52
 Basis Dimension        Dim             ....  576

ORBITAL ENERGIES
----------------

  NO   OCC          E(Eh)            E(eV)
   0   2.0000     -92.000284     -2503.4550
   1   2.0000     -20.618764      -561.0651
   2   2.0000     -20.551908      -559.2459
   3   2.0000     -11.404928      -310.3439
   4   2.0000     -11.373623      -309.4920
   5   2.0000     -11.268318      -306.6265
   6   2.0000      -9.003903      -245.0086
   7   2.0000      -6.685044      -181.9093
   8   2.0000      -6.683942      -181.8793
   9   2.0000      -6.682865      -181.8500
  10   2.0000      -1.471021       -40.0285
  11   2.0000      -1.368446       -37.2373
  12   2.0000      -1.144765       -31.1506
  13   2.0000      -1.040645       -28.3174
  14   2.0000      -0.879641       -23.9362
  15   2.0000      -0.727461       -19.7952
  16   2.0000      -0.719615       -19.5817
  17   2.0000      -0.683215       -18.5912
  18   2.0000      -0.643292       -17.5049
  19   2.0000      -0.614519       -16.7219
  20   2.0000      -0.605646       -16.4805
  21   2.0000      -0.527347       -14.3498
  22   2.0000      -0.491072       -13.3628
  23   2.0000      -0.474707       -12.9174
  24   2.0000      -0.450532       -12.2596
  25   2.0000      -0.353466        -9.6183
  26   0.0000       0.023430         0.6376
  27   0.0000       0.029544         0.8039
  28   0.0000       0.035891         0.9766
  29   0.0000       0.046273         1.2591
  30   0.0000       0.060489         1.6460

MULLIKEN ATOMIC CHARGES
-----------------------
   0 S :    0.192439
   1 O :   -0.685631
   2 O :   -0.659195
   3 C :    1.030212
   4 C :   -0.464804
   5 C :   -0.207738
   6 H :    0.338292
   7 H :    0.456425
Sum of atomic charges:    0.0000000

LOEWDIN ATOMIC CHARGES
----------------------
   0 S :    1.121037
   1 O :    0.670974
   2 O :    1.228922
   3 C :   -1.140193
   4 C :    0.081912
   5 C :   -0.733556
   6 H :   -0.821919
   7 H :   -0.407177

  Mayer bond orders larger than 0.100000
B(  0-S ,  4-C ) :  -0.1292 B(  0-S ,  5-C ) :   2.0259 B(  1-O ,  3-C ) :   1.5072
B(  1-O ,  4-C ) :   0.1459 B(  2-O ,  3-C ) :   0.9070 B(  2-O ,  6-H ) :   0.9104
B(  3-C ,  4-C ) :   1.0944 B(  3-C ,  5-C ) :  -0.1368 B(  4-C ,  5-C ) :   1.6565
B(  4-C ,  7-H ) :   0.7634

MP2 TOTAL ENERGY:     -663.316723489 Eh
FINAL SINGLE POINT ENERGY      -663.316723488829

DIPOLE MOMENT
-------------
                                X             Y             Z
Electronic contribution:     -3.71395       0.88949      -0.00000
Nuclear contribution   :      3.70668      -1.66929       0.00000
                        -----------------------------------------
Total Dipole Moment    :     -0.00727      -0.77980      -0.00000
                        -----------------------------------------
Magnitude (a.u.)       :      0.77984
Magnitude (Debye)      :      1.98219

Rotational constants in cm-1:     0.358796     0.045184     0.040130
Rotational constants in MHz : 10756.438011  1354.578154  1203.072950

                             ****ORCA TERMINATED NORMALLY****
TOTAL RUN TIME: 0 days 0 hours 8 minutes 57 seconds 124 msec
