                         Program Version 5.0.4 -  RELEASE  -
|  1> !ri-mp2 aug-cc-pvqz aug-cc-pvqz/c tightscf
|  2> %pal nprocs 16 end
|  3>
|  4> * xyz 0 1
|  5> N     -1.271596   -1.030212    0.000000
|  6> C     -1.236096    0.239527    0.000000
|  7> C      0.000000    1.085157    0.000000
|  8> C      1.263984    0.348634    0.000000
|  9> C      1.244327   -0.987977    0.000000
| 10> C     -0.025532   -1.764497    0.000000
| 11> O     -0.082178    2.301599    0.000000
| 12> H     -2.173830    0.792159    0.000000
| 13> H      2.180630    0.923062    0.000000
| 14> H      2.167680   -1.557260    0.000000
| 15> H     -0.047988   -2.442167    0.862672
| 16> H     -0.047988   -2.442167   -0.862672
| 17> *
| 18>
| 19>                          ****END OF INPUT****

CARTESIAN COORDINATES (ANGSTROEM)
---------------------------------
  N     -1.271596   -1.030212    0.000000
  C     -1.236096    0.239527    0.000000
  C      0.000000    1.085157    0.000000
  C      1.263984    0.348634    0.000000
  C      1.244327   -0.987977    0.000000
  C     -0.025532   -1.764497    0.000000
  O     -0.082178    2.301599    0.000000
  H     -2.173830    0.792159    0.000000
  H      2.180630    0.923062    0.000000
  H      2.167680   -1.557260    0.000000
  H     -0.047988   -2.442167    0.862672
  H     -0.047988   -2.442167   -0.862672

 Total Charge           Charge          ....    0
 Multiplicity           Mult            ....    1
 Number of Electrons    NEL             ....   50
 Basis Dimension        Dim             ....  790

ORBITAL ENERGIES
----------------

  NO   OCC          E(Eh)            E(eV)
   0   2.0000     -20.555709      -559.3493
   1   2.0000     -15.593149      -424.3111
   2   2.0000     -11.342419      -308.6429
   3   2.0000     -11.292969      -307.2973
   4   2.0000     -11.287865      -307.1584
   5   2.0000     -11.281264      -306.9788
   6   2.0000     -11.253448      -306.2219
   7   2.0000      -1.394582       -37.9485
   8   2.0000      -1.268464       -34.5167
   9   2.0000      -1.104214       -30.0472
  10   2.0000      -1.020419       -27.7670
  11   2.0000      -0.873171       -23.7602
  12   2.0000      -0.860492       -23.4152
  13   2.0000      -0.723906       -19.6985
  14   2.0000      -0.695418       -18.9233
  15   2.0000      -0.674128       -18.3440
  16   2.0000      -0.640555       -17.4304
  17   2.0000      -0.618362       -16.8265
  18   2.0000      -0.585698       -15.9377
  19   2.0000      -0.562656       -15.3106
  20   2.0000      -0.555608       -15.1189
  21   2.0000      -0.486910       -13.2495
  22   2.0000      -0.442137       -12.0311
  23   2.0000      -0.402821       -10.9613
  24   2.0000      -0.393215       -10.6999
  25   0.0000       0.018135         0.4935
  26   0.0000       0.031291         0.8515
  27   0.0000       0.034610         0.9418
  28   0.0000       0.035416         0.9637
  29   0.0000       0.044636         1.2146

MULLIKEN ATOMIC CHARGES
-----------------------
   0 N :   -0.608579
   1 C :   -0.205670
   2 C :    0.792674
   3 C :   -0.569753
   4 C :   -0.373503
   5 C :   -0.105412
   6 O :   -0.783702
   7 H :    0.516671
   8 H :    0.396343
   9 H :    0.375371
  10 H :    0.282780
  11 H :    0.282780
Sum of atomic charges:    0.0000000

LOEWDIN ATOMIC CHARGES
----------------------
   0 N :    0.634560
   1 C :    0.071645
   2 C :   -0.717975
   3 C :    0.329805
   4 C :    0.376875
   5 C :    0.242749
   6 O :    0.694470
   7 H :   -0.373269
   8 H :   -0.342777
   9 H :   -0.297391
  10 H :   -0.309346
  11 H :   -0.309346

  Mayer bond orders larger than 0.100000
B(  0-N ,  1-C ) :   1.6420 B(  0-N ,  5-C ) :   0.8795 B(  1-C ,  2-C ) :   1.0730
B(  1-C ,  6-O ) :   0.2137 B(  1-C ,  7-H ) :   0.7375 B(  2-C ,  3-C ) :   1.0906
B(  2-C ,  6-O ) :   1.0546 B(  3-C ,  4-C ) :   1.6064 B(  3-C ,  6-O ) :   0.2261
B(  3-C ,  8-H ) :   0.8446 B(  4-C ,  5-C ) :   0.8421 B(  4-C ,  9-H ) :   0.8874
B(  5-C , 10-H ) :   0.8897 B(  5-C , 11-H ) :   0.8897

MP2 TOTAL ENERGY:     -322.958784417 Eh
FINAL SINGLE POINT ENERGY      -322.958784417140

DIPOLE MOMENT
-------------
                                X             Y             Z
Electronic contribution:     -1.25486       3.26642       0.00000
Nuclear contribution   :      2.04369      -4.63701       0.00000
                        -----------------------------------------
Total Dipole Moment    :      0.78882      -1.37059       0.00000
                        -----------------------------------------
Magnitude (a.u.)       :      1.58137
Magnitude (Debye)      :      4.01953

Rotational constants in cm-1:     0.178093     0.092491     0.061543
Rotational constants in MHz :  5339.081387  2772.821321  1845.003916

                             ****ORCA TERMINATED NORMALLY****
TOTAL RUN TIME: 0 days 0 hours 22 minutes 50 seconds 131 msec
