                         Program Version 5.0.4 -  RELEASE  -
|  1> !ri-mp2 aug-cc-pvqz aug-cc-pvqz/c tightscf
|  2> %pal nprocs 16 end
|  3>
|  4> * xyz 0 1
|  5> C      2.066444   -1.078567    0.000000
|  6> C      1.117232   -0.133948    0.000001
|  7> C     -0.293736   -0.518951    0.000015
|  8> C     -1.341106    0.310850    0.000031
|  9> C     -2.772365   -0.122358   -0.000019
| 10> C      1.473859    1.328371   -0.000012
| 11> H      3.118414   -0.827682   -0.000025
| 12> H      1.813394   -2.130884    0.000014
| 13> H     -0.482710   -1.588989   -0.000013
| 14> H     -1.170199    1.382350    0.000073
| 15> H     -2.863802   -1.208498   -0.000060
| 16> H     -3.301379    0.263852    0.875706
| 17> H     -3.301329    0.263911   -0.875747
| 18> H      1.065954    1.834129   -0.878047
| 19> H      1.066119    1.834099    0.878118
| 20> H      2.553575    1.465330   -0.000111
| 21> *
| 22>
| 23>                          ****END OF INPUT****

CARTESIAN COORDINATES (ANGSTROEM)
---------------------------------
  C      2.066444   -1.078567    0.000000
  C      1.117232   -0.133948    0.000001
  C     -0.293736   -0.518951    0.000015
  C     -1.341106    0.310850    0.000031
  C     -2.772365   -0.122358   -0.000019
  C      1.473859    1.328371   -0.000012
  H      3.118414   -0.827682   -0.000025
  H      1.813394   -2.130884    0.000014
  H     -0.482710   -1.588989   -0.000013
  H     -1.170199    1.382350    0.000073
  H     -2.863802   -1.208498   -0.000060
  H     -3.301379    0.263852    0.875706
  H     -3.301329    0.263911   -0.875747
  H      1.065954    1.834129   -0.878047
  H      1.066119    1.834099    0.878118
  H      2.553575    1.465330   -0.000111

 Total Charge           Charge          ....    0
 Multiplicity           Mult            ....    1
 Number of Electrons    NEL             ....   46
 Basis Dimension        Dim             ....  940

ORBITAL ENERGIES
----------------

  NO   OCC          E(Eh)            E(eV)
   0   2.0000     -11.239273      -305.8362
   1   2.0000     -11.231193      -305.6163
   2   2.0000     -11.223593      -305.4095
   3   2.0000     -11.221397      -305.3497
   4   2.0000     -11.217919      -305.2551
   5   2.0000     -11.213935      -305.1467
   6   2.0000      -1.110012       -30.2050
   7   2.0000      -1.041777       -28.3482
   8   2.0000      -0.937582       -25.5129
   9   2.0000      -0.928830       -25.2747
  10   2.0000      -0.786420       -21.3996
  11   2.0000      -0.718703       -19.5569
  12   2.0000      -0.647098       -17.6084
  13   2.0000      -0.616824       -16.7846
  14   2.0000      -0.574850       -15.6425
  15   2.0000      -0.565581       -15.3903
  16   2.0000      -0.563803       -15.3419
  17   2.0000      -0.543592       -14.7919
  18   2.0000      -0.518976       -14.1221
  19   2.0000      -0.509030       -13.8514
  20   2.0000      -0.476617       -12.9694
  21   2.0000      -0.414808       -11.2875
  22   2.0000      -0.310181        -8.4405
  23   0.0000       0.025597         0.6965
  24   0.0000       0.029389         0.7997
  25   0.0000       0.031292         0.8515
  26   0.0000       0.039288         1.0691
  27   0.0000       0.044719         1.2169

MULLIKEN ATOMIC CHARGES
-----------------------
   0 C :   -0.828580
   1 C :    0.238315
   2 C :   -0.486094
   3 C :   -0.316904
   4 C :   -0.670638
   5 C :   -0.607241
   6 H :    0.274881
   7 H :    0.237865
   8 H :    0.373086
   9 H :    0.445025
  10 H :    0.230224
  11 H :    0.224100
  12 H :    0.224118
  13 H :    0.191195
  14 H :    0.191228
  15 H :    0.279421
Sum of atomic charges:    0.0000000

LOEWDIN ATOMIC CHARGES
----------------------
   0 C :    0.791651
   1 C :   -0.088043
   2 C :    0.338403
   3 C :    0.383494
   4 C :    0.897517
   5 C :    0.865575
   6 H :   -0.350205
   7 H :   -0.354318
   8 H :   -0.355724
   9 H :   -0.342587
  10 H :   -0.315230
  11 H :   -0.293731
  12 H :   -0.293733
  13 H :   -0.286031
  14 H :   -0.286021
  15 H :   -0.311016

  Mayer bond orders larger than 0.100000
B(  0-C ,  1-C ) :   1.4590 B(  0-C ,  2-C ) :  -0.2598 B(  0-C ,  6-H ) :   1.0225
B(  0-C ,  7-H ) :   1.1071 B(  1-C ,  2-C ) :   0.8879 B(  1-C ,  3-C ) :  -0.3777
B(  1-C ,  5-C ) :   0.6835 B(  1-C ,  6-H ) :  -0.1303 B(  1-C ,  7-H ) :  -0.1330
B(  2-C ,  3-C ) :   1.6472 B(  2-C ,  4-C ) :  -0.1757 B(  2-C ,  8-H ) :   0.7885
B(  3-C ,  4-C ) :   0.7912 B(  3-C ,  9-H ) :   0.7200 B(  4-C , 10-H ) :   0.9908
B(  4-C , 11-H ) :   0.9989 B(  4-C , 12-H ) :   0.9989 B(  5-C , 13-H ) :   1.0158
B(  5-C , 14-H ) :   1.0158 B(  5-C , 15-H ) :   0.9686

MP2 TOTAL ENERGY:     -234.165955711 Eh
FINAL SINGLE POINT ENERGY      -234.165955710506

DIPOLE MOMENT
-------------
                                X             Y             Z
Electronic contribution:      1.37236      -1.18246       0.00009
Nuclear contribution   :     -1.57959       1.35416      -0.00010
                        -----------------------------------------
Total Dipole Moment    :     -0.20722       0.17170      -0.00001
                        -----------------------------------------
Magnitude (a.u.)       :      0.26911
Magnitude (Debye)      :      0.68404

Rotational constants in cm-1:     0.266252     0.063793     0.052455
Rotational constants in MHz :  7982.033895  1912.451241  1572.572630

                             ****ORCA TERMINATED NORMALLY****
TOTAL RUN TIME: 0 days 0 hours 30 minutes 12 seconds 412 msec
