                         Program Version 5.0.4 -  RELEASE  -
|  1> !ri-mp2 aug-cc-pvqz aug-cc-pvqz/c tightscf
|  2> %pal nprocs 16 end
|  3>
|  4> * xyz 0 1
|  5> O     -1.681498   -0.743311    0.000016
|  6> N     -0.355469   -1.123275    0.000007
|  7> N      2.897391    0.029139   -0.000024
|  8> C      0.323220    0.004011   -0.000002
|  9> C     -0.528654    1.144183    0.000000
| 10> C     -1.764853    0.597636    0.000012
| 11> C      1.747751   -0.010163   -0.000014
| 12> H     -0.247836    2.180702   -0.000006
| 13> H     -2.758422    1.010746    0.000018
| 14> *
| 15>
| 16>                          ****END OF INPUT****

CARTESIAN COORDINATES (ANGSTROEM)
---------------------------------
  O     -1.681498   -0.743311    0.000016
  N     -0.355469   -1.123275    0.000007
  N      2.897391    0.029139   -0.000024
  C      0.323220    0.004011   -0.000002
  C     -0.528654    1.144183    0.000000
  C     -1.764853    0.597636    0.000012
  C      1.747751   -0.010163   -0.000014
  H     -0.247836    2.180702   -0.000006
  H     -2.758422    1.010746    0.000018

 Total Charge           Charge          ....    0
 Multiplicity           Mult            ....    1
 Number of Electrons    NEL             ....   48
 Basis Dimension        Dim             ....  652

ORBITAL ENERGIES
----------------

  NO   OCC          E(Eh)            E(eV)
   0   2.0000     -20.686876      -562.9185
   1   2.0000     -15.671138      -426.4333
   2   2.0000     -15.600767      -424.5185
   3   2.0000     -11.349522      -308.8362
   4   2.0000     -11.344958      -308.7120
   5   2.0000     -11.300236      -307.4951
   6   2.0000     -11.278661      -306.9080
   7   2.0000      -1.539896       -41.9027
   8   2.0000      -1.255180       -34.1552
   9   2.0000      -1.207158       -32.8484
  10   2.0000      -1.115644       -30.3582
  11   2.0000      -0.928556       -25.2673
  12   2.0000      -0.873936       -23.7810
  13   2.0000      -0.791724       -21.5439
  14   2.0000      -0.699272       -19.0281
  15   2.0000      -0.691806       -18.8250
  16   2.0000      -0.648808       -17.6550
  17   2.0000      -0.611490       -16.6395
  18   2.0000      -0.583867       -15.8878
  19   2.0000      -0.542255       -14.7555
  20   2.0000      -0.529667       -14.4130
  21   2.0000      -0.493715       -13.4347
  22   2.0000      -0.439882       -11.9698
  23   2.0000      -0.404722       -11.0130
  24   0.0000       0.015767         0.4290
  25   0.0000       0.028777         0.7831
  26   0.0000       0.052227         1.4212
  27   0.0000       0.052397         1.4258
  28   0.0000       0.064973         1.7680

MULLIKEN ATOMIC CHARGES
-----------------------
   0 O :   -0.599151
   1 N :   -0.148162
   2 N :   -0.679930
   3 C :    0.252900
   4 C :   -0.692026
   5 C :    0.015728
   6 C :    0.763806
   7 H :    0.485336
   8 H :    0.601498
Sum of atomic charges:   -0.0000000

LOEWDIN ATOMIC CHARGES
----------------------
   0 O :    0.605539
   1 N :    0.281734
   2 N :    0.413649
   3 C :   -0.574602
   4 C :    0.282964
   5 C :   -0.040283
   6 C :   -0.324960
   7 H :   -0.323681
   8 H :   -0.320360

  Mayer bond orders larger than 0.100000
B(  0-O ,  1-N ) :   0.7705 B(  0-O ,  4-C ) :   0.2061 B(  0-O ,  5-C ) :   0.8881
B(  1-N ,  3-C ) :   1.2747 B(  2-N ,  6-C ) :   2.4631 B(  3-C ,  4-C ) :   1.1329
B(  3-C ,  5-C ) :  -0.2954 B(  3-C ,  6-C ) :   1.1930 B(  4-C ,  5-C ) :   1.6870
B(  4-C ,  6-C ) :  -0.1900 B(  4-C ,  7-H ) :   0.7515 B(  5-C ,  8-H ) :   0.6835

MP2 TOTAL ENERGY:     -337.775257189 Eh
FINAL SINGLE POINT ENERGY      -337.775257188651

DIPOLE MOMENT
-------------
                                X             Y             Z
Electronic contribution:      1.33937      -1.78279      -0.00000
Nuclear contribution   :     -2.89192       3.04089       0.00001
                        -----------------------------------------
Total Dipole Moment    :     -1.55254       1.25810       0.00001
                        -----------------------------------------
Magnitude (a.u.)       :      1.99830
Magnitude (Debye)      :      5.07928

Rotational constants in cm-1:     0.322941     0.067162     0.055599
Rotational constants in MHz :  9681.540181  2013.477576  1666.826375

                             ****ORCA TERMINATED NORMALLY****
TOTAL RUN TIME: 0 days 0 hours 10 minutes 50 seconds 264 msec
