                         Program Version 5.0.4 -  RELEASE  -
|  1> !ri-mp2 aug-cc-pvqz aug-cc-pvqz/c tightscf
|  2> %pal nprocs 16 end
|  3>
|  4> * xyz 0 1
|  5> O     -0.600225   -0.593424    1.360417
|  6> O     -2.161412   -0.986180   -0.769034
|  7> N      1.130210    0.592913   -0.768875
|  8> N      1.938772   -0.211377   -0.307642
|  9> N      2.733579   -0.958359   -0.022308
| 10> C     -0.951945    0.534649    0.607097
| 11> C      0.297309    1.321982    0.196777
| 12> C     -1.791724    0.146454   -0.592557
| 13> H     -1.576131    1.219785    1.205469
| 14> H      0.000108    2.247521   -0.295100
| 15> H      0.858777    1.579106    1.096908
| 16> H     -2.066282    0.961562   -1.285775
| 17> H     -1.063155   -1.351900    0.971304
| 18> *
| 19>
| 20>                          ****END OF INPUT****

CARTESIAN COORDINATES (ANGSTROEM)
---------------------------------
  O     -0.600225   -0.593424    1.360417
  O     -2.161412   -0.986180   -0.769034
  N      1.130210    0.592913   -0.768875
  N      1.938772   -0.211377   -0.307642
  N      2.733579   -0.958359   -0.022308
  C     -0.951945    0.534649    0.607097
  C      0.297309    1.321982    0.196777
  C     -1.791724    0.146454   -0.592557
  H     -1.576131    1.219785    1.205469
  H      0.000108    2.247521   -0.295100
  H      0.858777    1.579106    1.096908
  H     -2.066282    0.961562   -1.285775
  H     -1.063155   -1.351900    0.971304

 Total Charge           Charge          ....    0
 Multiplicity           Mult            ....    1
 Number of Electrons    NEL             ....   60
 Basis Dimension        Dim             ....  870

ORBITAL ENERGIES
----------------

  NO   OCC          E(Eh)            E(eV)
   0   2.0000     -20.583867      -560.1155
   1   2.0000     -20.575679      -559.8927
   2   2.0000     -15.785355      -429.5414
   3   2.0000     -15.669129      -426.3787
   4   2.0000     -15.609731      -424.7624
   5   2.0000     -11.354846      -308.9811
   6   2.0000     -11.316835      -307.9467
   7   2.0000     -11.299696      -307.4804
   8   2.0000      -1.511171       -41.1210
   9   2.0000      -1.432370       -38.9768
  10   2.0000      -1.382158       -37.6104
  11   2.0000      -1.299290       -35.3555
  12   2.0000      -1.074509       -29.2389
  13   2.0000      -0.945777       -25.7359
  14   2.0000      -0.828708       -22.5503
  15   2.0000      -0.756940       -20.5974
  16   2.0000      -0.734338       -19.9823
  17   2.0000      -0.718471       -19.5506
  18   2.0000      -0.714838       -19.4517
  19   2.0000      -0.683744       -18.6056
  20   2.0000      -0.672935       -18.3115
  21   2.0000      -0.657622       -17.8948
  22   2.0000      -0.603496       -16.4220
  23   2.0000      -0.582831       -15.8596
  24   2.0000      -0.562530       -15.3072
  25   2.0000      -0.544046       -14.8042
  26   2.0000      -0.488149       -13.2832
  27   2.0000      -0.456421       -12.4198
  28   2.0000      -0.437811       -11.9134
  29   2.0000      -0.385166       -10.4809
  30   0.0000       0.019518         0.5311
  31   0.0000       0.031116         0.8467
  32   0.0000       0.034615         0.9419
  33   0.0000       0.041285         1.1234
  34   0.0000       0.051101         1.3905

MULLIKEN ATOMIC CHARGES
-----------------------
   0 O :   -0.877815
   1 O :   -0.800087
   2 N :   -0.314845
   3 N :    0.203562
   4 N :   -0.294253
   5 C :    0.422122
   6 C :   -0.337112
   7 C :    0.151861
   8 H :    0.421194
   9 H :    0.332033
  10 H :    0.268059
  11 H :    0.469627
  12 H :    0.355653
Sum of atomic charges:    0.0000000

LOEWDIN ATOMIC CHARGES
----------------------
   0 O :    1.274329
   1 O :    0.772140
   2 N :    0.343766
   3 N :   -0.264740
   4 N :    0.377295
   5 C :   -0.305780
   6 C :    0.206031
   7 C :   -0.227769
   8 H :   -0.307189
   9 H :   -0.329384
  10 H :   -0.308059
  11 H :   -0.322489
  12 H :   -0.908151

  Mayer bond orders larger than 0.100000
B(  0-O ,  5-C ) :   0.5166 B(  0-O ,  7-C ) :   0.1257 B(  0-O , 12-H ) :   0.8663
B(  1-O ,  7-C ) :   1.5364 B(  2-N ,  3-N ) :   1.4250 B(  2-N ,  4-N ) :   0.1746
B(  2-N ,  6-C ) :   0.7716 B(  3-N ,  4-N ) :   2.2764 B(  3-N ,  6-C ) :  -0.1184
B(  5-C ,  6-C ) :   0.9172 B(  5-C ,  7-C ) :   0.9738 B(  5-C ,  8-H ) :   0.7627
B(  6-C ,  9-H ) :   0.8759 B(  6-C , 10-H ) :   0.8779 B(  7-C , 11-H ) :   0.7532

MP2 TOTAL ENERGY:     -431.363461917 Eh
FINAL SINGLE POINT ENERGY      -431.363461917167

DIPOLE MOMENT
-------------
                                X             Y             Z
Electronic contribution:      3.39909      -3.17832      -1.42466
Nuclear contribution   :     -3.77549       4.53098       1.66021
                        -----------------------------------------
Total Dipole Moment    :     -0.37640       1.35266       0.23554
                        -----------------------------------------
Magnitude (a.u.)       :      1.42368
Magnitude (Debye)      :      3.61870

Rotational constants in cm-1:     0.121164     0.044604     0.043139
Rotational constants in MHz :  3632.411592  1337.189297  1293.289512

                             ****ORCA TERMINATED NORMALLY****
TOTAL RUN TIME: 0 days 0 hours 27 minutes 3 seconds 933 msec
