                         Program Version 5.0.4 -  RELEASE  -
|  1> !ri-mp2 aug-cc-pvqz aug-cc-pvqz/c tightscf
|  2> %pal nprocs 16 end
|  3>
|  4> * xyz 0 1
|  5> Cl   -3.091891   -0.553378   -0.200574
|  6> S     3.632310   -0.266570   -0.128147
|  7> O    -0.699111    2.368642   -0.205516
|  8> N     0.897212   -0.474689    0.245548
|  9> C    -0.405066   -0.025285   -0.173044
| 10> C    -1.436255   -1.039052    0.315660
| 11> C    -0.633145    1.364267    0.442426
| 12> C     2.069088   -0.345652    0.048062
| 13> H    -0.443611    0.071906   -1.258723
| 14> H    -1.234330   -2.019402   -0.103642
| 15> H    -1.437139   -1.102639    1.400744
| 16> H    -0.695064    1.370700    1.548388
| 17> *
| 18>
| 19>                          ****END OF INPUT****

CARTESIAN COORDINATES (ANGSTROEM)
---------------------------------
  Cl    -3.091891   -0.553378   -0.200574
  S      3.632310   -0.266570   -0.128147
  O     -0.699111    2.368642   -0.205516
  N      0.897212   -0.474689    0.245548
  C     -0.405066   -0.025285   -0.173044
  C     -1.436255   -1.039052    0.315660
  C     -0.633145    1.364267    0.442426
  C      2.069088   -0.345652    0.048062
  H     -0.443611    0.071906   -1.258723
  H     -1.234330   -2.019402   -0.103642
  H     -1.437139   -1.102639    1.400744
  H     -0.695064    1.370700    1.548388

 Total Charge           Charge          ....    0
 Multiplicity           Mult            ....    1
 Number of Electrons    NEL             ....   76
 Basis Dimension        Dim             ....  832

ORBITAL ENERGIES
----------------

  NO   OCC          E(Eh)            E(eV)
   0   2.0000    -104.851357     -2853.1505
   1   2.0000     -91.967717     -2502.5688
   2   2.0000     -20.589612      -560.2718
   3   2.0000     -15.626178      -425.2099
   4   2.0000     -11.397278      -310.1357
   5   2.0000     -11.362767      -309.1966
   6   2.0000     -11.342568      -308.6470
   7   2.0000     -11.330430      -308.3167
   8   2.0000     -10.576665      -287.8057
   9   2.0000      -8.971789      -244.1348
  10   2.0000      -8.043722      -218.8808
  11   2.0000      -8.042015      -218.8344
  12   2.0000      -8.041979      -218.8334
  13   2.0000      -6.653550      -181.0523
  14   2.0000      -6.651268      -180.9902
  15   2.0000      -6.651036      -180.9839
  16   2.0000      -1.430955       -38.9383
  17   2.0000      -1.319828       -35.9144
  18   2.0000      -1.173835       -31.9417
  19   2.0000      -1.090545       -29.6752
  20   2.0000      -1.032507       -28.0959
  21   2.0000      -0.919692       -25.0261
  22   2.0000      -0.852927       -23.2093
  23   2.0000      -0.778673       -21.1888
  24   2.0000      -0.703075       -19.1316
  25   2.0000      -0.687649       -18.7119
  26   2.0000      -0.650186       -17.6925
  27   2.0000      -0.625562       -17.0224
  28   2.0000      -0.616352       -16.7718
  29   2.0000      -0.583768       -15.8851
  30   2.0000      -0.560662       -15.2564
  31   2.0000      -0.552706       -15.0399
  32   2.0000      -0.544294       -14.8110
  33   2.0000      -0.471323       -12.8253
  34   2.0000      -0.463998       -12.6260
  35   2.0000      -0.452816       -12.3217
  36   2.0000      -0.387030       -10.5316
  37   2.0000      -0.375335       -10.2134
  38   0.0000       0.021070         0.5733
  39   0.0000       0.028585         0.7778
  40   0.0000       0.035423         0.9639
  41   0.0000       0.044585         1.2132
  42   0.0000       0.050119         1.3638

MULLIKEN ATOMIC CHARGES
-----------------------
   0 Cl:   -0.330675
   1 S :    0.047595
   2 O :   -0.771844
   3 N :   -0.648724
   4 C :    0.307012
   5 C :   -0.442904
   6 C :    0.358782
   7 C :    0.118835
   8 H :    0.351236
   9 H :    0.300061
  10 H :    0.325910
  11 H :    0.384715
Sum of atomic charges:    0.0000000

LOEWDIN ATOMIC CHARGES
----------------------
   0 Cl:    1.174351
   1 S :    0.983320
   2 O :    0.735151
   3 N :    0.375978
   4 C :   -0.310592
   5 C :   -0.166906
   6 C :   -0.313496
   7 C :   -1.001850
   8 H :   -0.355789
   9 H :   -0.388272
  10 H :   -0.395952
  11 H :   -0.335942

  Mayer bond orders larger than 0.100000
B(  0-Cl,  5-C ) :   0.7956 B(  1-S ,  7-C ) :   1.5458 B(  2-O ,  6-C ) :   1.5357
B(  3-N ,  4-C ) :   0.5974 B(  3-N ,  7-C ) :   2.2790 B(  4-C ,  5-C ) :   0.9780
B(  4-C ,  6-C ) :   0.8006 B(  4-C ,  8-H ) :   0.8035 B(  5-C ,  9-H ) :   0.8901
B(  5-C , 10-H ) :   0.8319 B(  6-C , 11-H ) :   0.8323

MP2 TOTAL ENERGY:    -1141.816483402 Eh
FINAL SINGLE POINT ENERGY     -1141.816483401529

DIPOLE MOMENT
-------------
                                X             Y             Z
Electronic contribution:     -0.70135      -0.16431      -1.28670
Nuclear contribution   :      0.47273      -0.80621       1.78983
                        -----------------------------------------
Total Dipole Moment    :     -0.22862      -0.97052       0.50314
                        -----------------------------------------
Magnitude (a.u.)       :      1.11684
Magnitude (Debye)      :      2.83877

Rotational constants in cm-1:     0.103153     0.019120     0.016554
Rotational constants in MHz :  3092.459765   573.201970   496.270583

                             ****ORCA TERMINATED NORMALLY****
TOTAL RUN TIME: 0 days 0 hours 21 minutes 8 seconds 695 msec
