                         Program Version 5.0.4 -  RELEASE  -
|  1> !ri-mp2 aug-cc-pvqz aug-cc-pvqz/c tightscf
|  2> %pal nprocs 16 end
|  3>
|  4> * xyz 0 1
|  5> S      3.337777   -0.078999   -0.008241
|  6> N      0.585203    0.215569    0.016899
|  7> N     -4.172513   -0.426062   -0.009011
|  8> C     -0.703901   -0.405684    0.011919
|  9> C     -1.805058    0.666399   -0.001765
| 10> C     -3.134377    0.067327   -0.005912
| 11> C      1.762573    0.040262    0.005120
| 12> H     -0.797866   -1.046210   -0.866960
| 13> H     -0.809327   -1.034429    0.897962
| 14> H     -1.695465    1.298430   -0.884021
| 15> H     -1.706021    1.309821    0.873498
| 16> *
| 17>
| 18>                          ****END OF INPUT****

CARTESIAN COORDINATES (ANGSTROEM)
---------------------------------
  S      3.337777   -0.078999   -0.008241
  N      0.585203    0.215569    0.016899
  N     -4.172513   -0.426062   -0.009011
  C     -0.703901   -0.405684    0.011919
  C     -1.805058    0.666399   -0.001765
  C     -3.134377    0.067327   -0.005912
  C      1.762573    0.040262    0.005120
  H     -0.797866   -1.046210   -0.866960
  H     -0.809327   -1.034429    0.897962
  H     -1.695465    1.298430   -0.884021
  H     -1.706021    1.309821    0.873498

 Total Charge           Charge          ....    0
 Multiplicity           Mult            ....    1
 Number of Electrons    NEL             ....   58
 Basis Dimension        Dim             ....  748

ORBITAL ENERGIES
----------------

  NO   OCC          E(Eh)            E(eV)
   0   2.0000     -91.960208     -2502.3645
   1   2.0000     -15.621461      -425.0816
   2   2.0000     -15.585295      -424.0974
   3   2.0000     -11.389574      -309.9261
   4   2.0000     -11.336281      -308.4759
   5   2.0000     -11.306552      -307.6669
   6   2.0000     -11.288854      -307.1853
   7   2.0000      -8.964306      -243.9312
   8   2.0000      -6.646124      -180.8502
   9   2.0000      -6.643799      -180.7869
  10   2.0000      -6.643577      -180.7809
  11   2.0000      -1.313672       -35.7468
  12   2.0000      -1.239900       -33.7394
  13   2.0000      -1.122610       -30.5478
  14   2.0000      -1.045048       -28.4372
  15   2.0000      -0.961326       -26.1590
  16   2.0000      -0.773886       -21.0585
  17   2.0000      -0.710439       -19.3320
  18   2.0000      -0.702525       -19.1167
  19   2.0000      -0.640472       -17.4281
  20   2.0000      -0.615156       -16.7392
  21   2.0000      -0.608306       -16.5528
  22   2.0000      -0.572027       -15.5657
  23   2.0000      -0.550557       -14.9814
  24   2.0000      -0.538375       -14.6499
  25   2.0000      -0.479259       -13.0413
  26   2.0000      -0.478210       -13.0128
  27   2.0000      -0.380673       -10.3586
  28   2.0000      -0.370610       -10.0848
  29   0.0000       0.019188         0.5221
  30   0.0000       0.030068         0.8182
  31   0.0000       0.031018         0.8440
  32   0.0000       0.043969         1.1965
  33   0.0000       0.049037         1.3344

MULLIKEN ATOMIC CHARGES
-----------------------
   0 S :    0.038521
   1 N :   -0.651352
   2 N :   -0.654481
   3 C :   -0.035932
   4 C :   -0.569696
   5 C :    0.446151
   6 C :    0.242490
   7 H :    0.294814
   8 H :    0.291709
   9 H :    0.298212
  10 H :    0.299565
Sum of atomic charges:   -0.0000000

LOEWDIN ATOMIC CHARGES
----------------------
   0 S :    0.951685
   1 N :    0.404414
   2 N :    0.418448
   3 C :    0.254275
   4 C :    0.419333
   5 C :   -0.256912
   6 C :   -1.005547
   7 H :   -0.292328
   8 H :   -0.292508
   9 H :   -0.300420
  10 H :   -0.300442

  Mayer bond orders larger than 0.100000
B(  0-S ,  6-C ) :   1.4942 B(  1-N ,  3-C ) :   0.7598 B(  1-N ,  6-C ) :   2.3156
B(  2-N ,  5-C ) :   2.5522 B(  3-C ,  4-C ) :   1.0167 B(  3-C ,  5-C ) :  -0.1150
B(  3-C ,  7-H ) :   0.8651 B(  3-C ,  8-H ) :   0.8627 B(  4-C ,  5-C ) :   1.2145
B(  4-C ,  9-H ) :   0.8489 B(  4-C , 10-H ) :   0.8473

MP2 TOTAL ENERGY:     -661.613289336 Eh
FINAL SINGLE POINT ENERGY      -661.613289336244

DIPOLE MOMENT
-------------
                                X             Y             Z
Electronic contribution:      5.30668      -0.18919      -0.01445
Nuclear contribution   :     -4.98528       0.51362       0.02018
                        -----------------------------------------
Total Dipole Moment    :      0.32140       0.32443       0.00573
                        -----------------------------------------
Magnitude (a.u.)       :      0.45671
Magnitude (Debye)      :      1.16087

Rotational constants in cm-1:     0.863872     0.020652     0.020322
Rotational constants in MHz : 25898.242208   619.127326   609.245355

                             ****ORCA TERMINATED NORMALLY****
TOTAL RUN TIME: 0 days 0 hours 14 minutes 26 seconds 770 msec
