                         Program Version 5.0.4 -  RELEASE  -
|  1> !ri-mp2 aug-cc-pvqz aug-cc-pvqz/c tightscf
|  2> %pal nprocs 16 end
|  3>
|  4> * xyz 0 1
|  5> C     0.000000     0.000000    1.171492
|  6> C     0.000000     0.000000   -0.297053
|  7> C     0.000000     1.456381   -0.805220
|  8> C     1.261263    -0.728190   -0.805220
|  9> C    -1.261263    -0.728190   -0.805220
| 10> C     0.000000     0.000000    2.371824
| 11> H     0.000000     0.000000    3.433077
| 12> H     0.000000     1.469839   -1.896499
| 13> H     1.272918    -0.734919   -1.896499
| 14> H    -1.272918    -0.734919   -1.896499
| 15> H    -0.882465     1.990948   -0.454532
| 16> H     0.882465     1.990948   -0.454532
| 17> H     2.165444    -0.231237   -0.454532
| 18> H     1.282979    -1.759711   -0.454532
| 19> H    -1.282979    -1.759711   -0.454532
| 20> H    -2.165444    -0.231237   -0.454532
| 21> *
| 22>
| 23>                          ****END OF INPUT****

CARTESIAN COORDINATES (ANGSTROEM)
---------------------------------
  C      0.000000    0.000000    1.171492
  C      0.000000    0.000000   -0.297053
  C      0.000000    1.456381   -0.805220
  C      1.261263   -0.728190   -0.805220
  C     -1.261263   -0.728190   -0.805220
  C      0.000000    0.000000    2.371824
  H      0.000000    0.000000    3.433077
  H      0.000000    1.469839   -1.896499
  H      1.272918   -0.734919   -1.896499
  H     -1.272918   -0.734919   -1.896499
  H     -0.882465    1.990948   -0.454532
  H      0.882465    1.990948   -0.454532
  H      2.165444   -0.231237   -0.454532
  H      1.282979   -1.759711   -0.454532
  H     -1.282979   -1.759711   -0.454532
  H     -2.165444   -0.231237   -0.454532

 Total Charge           Charge          ....    0
 Multiplicity           Mult            ....    1
 Number of Electrons    NEL             ....   46
 Basis Dimension        Dim             ....  940

ORBITAL ENERGIES
----------------

  NO   OCC          E(Eh)            E(eV)
   0   2.0000     -11.261972      -306.4538
   1   2.0000     -11.225088      -305.4502
   2   2.0000     -11.218758      -305.2779
   3   2.0000     -11.218758      -305.2779
   4   2.0000     -11.218737      -305.2774
   5   2.0000     -11.214031      -305.1493
   6   2.0000      -1.120030       -30.4776
   7   2.0000      -1.003913       -27.3179
   8   2.0000      -0.938825       -25.5467
   9   2.0000      -0.938825       -25.5467
  10   2.0000      -0.817871       -22.2554
  11   2.0000      -0.704342       -19.1661
  12   2.0000      -0.648069       -17.6348
  13   2.0000      -0.606540       -16.5048
  14   2.0000      -0.606540       -16.5048
  15   2.0000      -0.550147       -14.9703
  16   2.0000      -0.550147       -14.9703
  17   2.0000      -0.520844       -14.1729
  18   2.0000      -0.511500       -13.9186
  19   2.0000      -0.483164       -13.1476
  20   2.0000      -0.483163       -13.1475
  21   2.0000      -0.381158       -10.3718
  22   2.0000      -0.381158       -10.3718
  23   0.0000       0.025980         0.7070
  24   0.0000       0.029198         0.7945
  25   0.0000       0.034514         0.9392
  26   0.0000       0.034514         0.9392
  27   0.0000       0.045727         1.2443

MULLIKEN ATOMIC CHARGES
-----------------------
   0 C :    0.242040
   1 C :    1.721676
   2 C :   -1.078207
   3 C :   -1.078203
   4 C :   -1.078203
   5 C :   -1.318736
   6 H :    0.205440
   7 H :    0.257369
   8 H :    0.257356
   9 H :    0.257356
  10 H :    0.268691
  11 H :    0.268691
  12 H :    0.268700
  13 H :    0.268665
  14 H :    0.268666
  15 H :    0.268699
Sum of atomic charges:    0.0000000

LOEWDIN ATOMIC CHARGES
----------------------
   0 C :    0.051783
   1 C :   -0.408307
   2 C :    0.892197
   3 C :    0.892197
   4 C :    0.892197
   5 C :    0.604493
   6 H :   -0.459477
   7 H :   -0.274555
   8 H :   -0.274555
   9 H :   -0.274555
  10 H :   -0.273570
  11 H :   -0.273570
  12 H :   -0.273570
  13 H :   -0.273570
  14 H :   -0.273570
  15 H :   -0.273570

  Mayer bond orders larger than 0.100000
B(  0-C ,  1-C ) :   0.2014 B(  0-C ,  5-C ) :   2.2466 B(  0-C ,  6-H ) :  -0.3512
B(  1-C ,  2-C ) :   0.4535 B(  1-C ,  3-C ) :   0.4535 B(  1-C ,  4-C ) :   0.4535
B(  1-C ,  5-C ) :  -0.6568 B(  2-C ,  3-C ) :   0.1171 B(  2-C ,  4-C ) :   0.1171
B(  2-C ,  7-H ) :   0.9850 B(  2-C , 10-H ) :   1.0052 B(  2-C , 11-H ) :   1.0052
B(  3-C ,  4-C ) :   0.1171 B(  3-C ,  8-H ) :   0.9850 B(  3-C , 12-H ) :   1.0052
B(  3-C , 13-H ) :   1.0052 B(  4-C ,  9-H ) :   0.9850 B(  4-C , 14-H ) :   1.0052
B(  4-C , 15-H ) :   1.0052 B(  5-C ,  6-H ) :   1.4328

MP2 TOTAL ENERGY:     -234.145892767 Eh
FINAL SINGLE POINT ENERGY      -234.145892766751

DIPOLE MOMENT
-------------
                                X             Y             Z
Electronic contribution:     -0.00000       0.00000       4.94886
Nuclear contribution   :      0.00000      -0.00000      -5.24117
                        -----------------------------------------
Total Dipole Moment    :     -0.00000       0.00000      -0.29231
                        -----------------------------------------
Magnitude (a.u.)       :      0.29231
Magnitude (Debye)      :      0.74299

Rotational constants in cm-1:     0.150994     0.089666     0.089666
Rotational constants in MHz :  4526.700909  2688.119047  2688.118720

                             ****ORCA TERMINATED NORMALLY****
TOTAL RUN TIME: 0 days 0 hours 34 minutes 28 seconds 788 msec
