                         Program Version 5.0.4 -  RELEASE  -
|  1> !ri-mp2 aug-cc-pvqz aug-cc-pvqz/c tightscf
|  2> %pal nprocs 16 end
|  3>
|  4> * xyz 0 1
|  5> O      3.552425   -1.677314   -0.000076
|  6> O     -3.552425   -1.677314   -0.000133
|  7> O      4.601741    0.288643    0.000051
|  8> O     -4.601741    0.288643   -0.000016
|  9> N      0.000000    1.455001    0.000098
| 10> C      3.482204   -0.481149   -0.000003
| 11> C     -3.482204   -0.481149   -0.000058
| 12> C      2.240625    0.251308    0.000033
| 13> C     -2.240624    0.251308   -0.000006
| 14> C      1.181312    0.822939    0.000062
| 15> C     -1.181312    0.822939    0.000041
| 16> H      4.369566    1.225617    0.000108
| 17> H     -4.369566    1.225617    0.000046
| 18> H      0.000000    2.465308    0.000146
| 19> *
| 20>
| 21>                          ****END OF INPUT****

CARTESIAN COORDINATES (ANGSTROEM)
---------------------------------
  O      3.552425   -1.677314   -0.000076
  O     -3.552425   -1.677314   -0.000133
  O      4.601741    0.288643    0.000051
  O     -4.601741    0.288643   -0.000016
  N      0.000000    1.455001    0.000098
  C      3.482204   -0.481149   -0.000003
  C     -3.482204   -0.481149   -0.000058
  C      2.240625    0.251308    0.000033
  C     -2.240624    0.251308   -0.000006
  C      1.181312    0.822939    0.000062
  C     -1.181312    0.822939    0.000041
  H      4.369566    1.225617    0.000108
  H     -4.369566    1.225617    0.000046
  H      0.000000    2.465308    0.000146

 Total Charge           Charge          ....    0
 Multiplicity           Mult            ....    1
 Number of Electrons    NEL             ....   78
 Basis Dimension        Dim             .... 1018

ORBITAL ENERGIES
----------------

  NO   OCC          E(Eh)            E(eV)
   0   2.0000     -20.630196      -561.3762
   1   2.0000     -20.630196      -561.3762
   2   2.0000     -20.562680      -559.5390
   3   2.0000     -20.562680      -559.5390
   4   2.0000     -15.697298      -427.1452
   5   2.0000     -11.424126      -310.8663
   6   2.0000     -11.424126      -310.8663
   7   2.0000     -11.339534      -308.5644
   8   2.0000     -11.339519      -308.5640
   9   2.0000     -11.281969      -306.9980
  10   2.0000     -11.281969      -306.9980
  11   2.0000      -1.479107       -40.2485
  12   2.0000      -1.479097       -40.2483
  13   2.0000      -1.384659       -37.6785
  14   2.0000      -1.384654       -37.6783
  15   2.0000      -1.354915       -36.8691
  16   2.0000      -1.108312       -30.1587
  17   2.0000      -1.075879       -29.2762
  18   2.0000      -0.940575       -25.5943
  19   2.0000      -0.910727       -24.7821
  20   2.0000      -0.856597       -23.3092
  21   2.0000      -0.834102       -22.6971
  22   2.0000      -0.813420       -22.1343
  23   2.0000      -0.811463       -22.0810
  24   2.0000      -0.680358       -18.5135
  25   2.0000      -0.680116       -18.5069
  26   2.0000      -0.662504       -18.0277
  27   2.0000      -0.653112       -17.7721
  28   2.0000      -0.634820       -17.2743
  29   2.0000      -0.620834       -16.8937
  30   2.0000      -0.619828       -16.8664
  31   2.0000      -0.510985       -13.9046
  32   2.0000      -0.504843       -13.7375
  33   2.0000      -0.494047       -13.4437
  34   2.0000      -0.493365       -13.4252
  35   2.0000      -0.461791       -12.5660
  36   2.0000      -0.459497       -12.5035
  37   2.0000      -0.449599       -12.2342
  38   2.0000      -0.385106       -10.4793
  39   0.0000      -0.001050        -0.0286
  40   0.0000       0.018195         0.4951
  41   0.0000       0.032813         0.8929
  42   0.0000       0.047235         1.2853
  43   0.0000       0.058765         1.5991

MULLIKEN ATOMIC CHARGES
-----------------------
   0 O :   -0.663085
   1 O :   -0.663072
   2 O :   -0.698779
   3 O :   -0.698776
   4 N :   -0.686801
   5 C :    1.459796
   6 C :    1.459775
   7 C :   -0.282059
   8 C :   -0.282032
   9 C :    0.017647
  10 C :    0.017576
  11 H :    0.366268
  12 H :    0.366267
  13 H :    0.287275
Sum of atomic charges:    0.0000000

LOEWDIN ATOMIC CHARGES
----------------------
   0 O :    0.638811
   1 O :    0.638811
   2 O :    1.214227
   3 O :    1.214227
   4 N :    0.687931
   5 C :   -1.148131
   6 C :   -1.148130
   7 C :    0.057835
   8 C :    0.057835
   9 C :   -0.028368
  10 C :   -0.028369
  11 H :   -0.824276
  12 H :   -0.824276
  13 H :   -0.508128

  Mayer bond orders larger than 0.100000
B(  0-O ,  2-O ) :   0.1118 B(  0-O ,  5-C ) :   1.4146 B(  0-O ,  7-C ) :   0.2216
B(  1-O ,  3-O ) :   0.1118 B(  1-O ,  6-C ) :   1.4147 B(  1-O ,  8-C ) :   0.2216
B(  2-O ,  5-C ) :   0.7350 B(  2-O ,  7-C ) :   0.1212 B(  2-O , 11-H ) :   0.8501
B(  3-O ,  6-C ) :   0.7350 B(  3-O ,  8-C ) :   0.1212 B(  3-O , 12-H ) :   0.8501
B(  4-N ,  7-C ) :  -0.1069 B(  4-N ,  8-C ) :  -0.1069 B(  4-N ,  9-C ) :   0.9357
B(  4-N , 10-C ) :   0.9356 B(  4-N , 13-H ) :   0.9767 B(  5-C ,  7-C ) :   0.9674
B(  6-C ,  8-C ) :   0.9674 B(  7-C ,  9-C ) :   2.9804 B(  8-C , 10-C ) :   2.9804
B(  9-C , 10-C ) :  -0.3531

MP2 TOTAL ENERGY:     -585.165910379 Eh
FINAL SINGLE POINT ENERGY      -585.165910378952

DIPOLE MOMENT
-------------
                                X             Y             Z
Electronic contribution:     -0.00000      -0.80304      -0.00005
Nuclear contribution   :     -0.00000       4.67076       0.00028
                        -----------------------------------------
Total Dipole Moment    :     -0.00000       3.86772       0.00023
                        -----------------------------------------
Magnitude (a.u.)       :      3.86772
Magnitude (Debye)      :      9.83097

Rotational constants in cm-1:     0.108977     0.010770     0.009801
Rotational constants in MHz :  3267.059964   322.865283   293.827912

                             ****ORCA TERMINATED NORMALLY****
TOTAL RUN TIME: 0 days 0 hours 32 minutes 18 seconds 971 msec
