                         Program Version 5.0.4 -  RELEASE  -
|  1> !ri-mp2 aug-cc-pvqz aug-cc-pvqz/c tightscf
|  2> %pal nprocs 16 end
|  3>
|  4> * xyz 0 1
|  5> H     -3.802515   -1.239154    0.000000
|  6> H     -2.689478    0.229953    0.000000
|  7> C     -2.794898   -0.846771    0.000000
|  8> H     -1.915495   -2.733395    0.000000
|  9> C     -1.747715   -1.660126    0.000000
| 10> H      0.189038   -1.709801    0.877836
| 11> H      0.189038   -1.709801   -0.877836
| 12> C     -0.299553   -1.277902    0.000000
| 13> S      0.000000    0.525942    0.000000
| 14> H      2.174574   -0.032527    0.883368
| 15> H      2.174574   -0.032527   -0.883368
| 16> C      1.831485    0.507447    0.000000
| 17> H      3.459524    1.922130    0.000000
| 18> H      2.036376    2.479514   -0.882479
| 19> H      2.036376    2.479514    0.882479
| 20> C      2.368679    1.932523    0.000000
| 21> *
| 22>
| 23>                          ****END OF INPUT****

CARTESIAN COORDINATES (ANGSTROEM)
---------------------------------
  H     -3.802515   -1.239154    0.000000
  H     -2.689478    0.229953    0.000000
  C     -2.794898   -0.846771    0.000000
  H     -1.915495   -2.733395    0.000000
  C     -1.747715   -1.660126    0.000000
  H      0.189038   -1.709801    0.877836
  H      0.189038   -1.709801   -0.877836
  C     -0.299553   -1.277902    0.000000
  S      0.000000    0.525942    0.000000
  H      2.174574   -0.032527    0.883368
  H      2.174574   -0.032527   -0.883368
  C      1.831485    0.507447    0.000000
  H      3.459524    1.922130    0.000000
  H      2.036376    2.479514   -0.882479
  H      2.036376    2.479514    0.882479
  C      2.368679    1.932523    0.000000

 Total Charge           Charge          ....    0
 Multiplicity           Mult            ....    1
 Number of Electrons    NEL             ....   56
 Basis Dimension        Dim             ....  944

ORBITAL ENERGIES
----------------

  NO   OCC          E(Eh)            E(eV)
   0   2.0000     -91.938484     -2501.7733
   1   2.0000     -11.260427      -306.4118
   2   2.0000     -11.256271      -306.2987
   3   2.0000     -11.238794      -305.8231
   4   2.0000     -11.222924      -305.3913
   5   2.0000     -11.220438      -305.3236
   6   2.0000      -8.940336      -243.2789
   7   2.0000      -6.621830      -180.1892
   8   2.0000      -6.621024      -180.1672
   9   2.0000      -6.620079      -180.1415
  10   2.0000      -1.096701       -29.8428
  11   2.0000      -1.053833       -28.6763
  12   2.0000      -0.973663       -26.4947
  13   2.0000      -0.889038       -24.1920
  14   2.0000      -0.808632       -22.0040
  15   2.0000      -0.740942       -20.1620
  16   2.0000      -0.648625       -17.6500
  17   2.0000      -0.632610       -17.2142
  18   2.0000      -0.597248       -16.2519
  19   2.0000      -0.595138       -16.1945
  20   2.0000      -0.576452       -15.6861
  21   2.0000      -0.532024       -14.4771
  22   2.0000      -0.515066       -14.0157
  23   2.0000      -0.508878       -13.8473
  24   2.0000      -0.463141       -12.6027
  25   2.0000      -0.425033       -11.5657
  26   2.0000      -0.367286        -9.9943
  27   2.0000      -0.335767        -9.1367
  28   0.0000       0.025138         0.6840
  29   0.0000       0.027907         0.7594
  30   0.0000       0.032492         0.8842
  31   0.0000       0.037273         1.0143
  32   0.0000       0.043693         1.1889

MULLIKEN ATOMIC CHARGES
-----------------------
   0 H :    0.360126
   1 H :    0.402839
   2 C :   -0.863994
   3 H :    0.387100
   4 C :   -0.452216
   5 H :    0.269490
   6 H :    0.269490
   7 C :   -0.395273
   8 S :    0.014764
   9 H :    0.260700
  10 H :    0.260700
  11 C :   -0.459742
  12 H :    0.299543
  13 H :    0.251012
  14 H :    0.251012
  15 C :   -0.855549
Sum of atomic charges:   -0.0000000

LOEWDIN ATOMIC CHARGES
----------------------
   0 H :   -0.357027
   1 H :   -0.408972
   2 C :    0.749925
   3 H :   -0.338441
   4 C :    0.275838
   5 H :   -0.365618
   6 H :   -0.365618
   7 C :    0.122967
   8 S :    1.327460
   9 H :   -0.355134
  10 H :   -0.355134
  11 C :    0.149902
  12 H :   -0.291692
  13 H :   -0.305869
  14 H :   -0.305869
  15 C :    0.823283

  Mayer bond orders larger than 0.100000
B(  0-H ,  2-C ) :   0.9278 B(  1-H ,  2-C ) :   0.8486 B(  2-C ,  4-C ) :   1.8419
B(  2-C ,  7-C ) :  -0.1138 B(  3-H ,  4-C ) :   0.8436 B(  4-C ,  7-C ) :   0.7378
B(  4-C ,  8-S ) :  -0.1065 B(  5-H ,  7-C ) :   0.8685 B(  6-H ,  7-C ) :   0.8685
B(  7-C ,  8-S ) :   0.9803 B(  8-S , 11-C ) :   0.9911 B(  9-H , 11-C ) :   0.8642
B( 10-H , 11-C ) :   0.8642 B( 11-C , 15-C ) :   0.8885 B( 12-H , 15-C ) :   0.9524
B( 13-H , 15-C ) :   0.9474 B( 14-H , 15-C ) :   0.9474

MP2 TOTAL ENERGY:     -593.874381658 Eh
FINAL SINGLE POINT ENERGY      -593.874381658037

DIPOLE MOMENT
-------------
                                X             Y             Z
Electronic contribution:     -3.38171      -0.11081      -0.00000
Nuclear contribution   :      3.96423      -0.37288       0.00000
                        -----------------------------------------
Total Dipole Moment    :      0.58252      -0.48369      -0.00000
                        -----------------------------------------
Magnitude (a.u.)       :      0.75716
Magnitude (Debye)      :      1.92454

Rotational constants in cm-1:     0.328034     0.041933     0.037967
Rotational constants in MHz :  9834.205286  1257.121632  1138.216973

                             ****ORCA TERMINATED NORMALLY****
TOTAL RUN TIME: 0 days 0 hours 29 minutes 45 seconds 741 msec
