                         Program Version 5.0.4 -  RELEASE  -
|  1> !ri-mp2 aug-cc-pvqz aug-cc-pvqz/c tightscf
|  2> %pal nprocs 16 end
|  3>
|  4> * xyz 0 1
|  5> S    -1.919398   -0.623306   -0.000004
|  6> O     0.684500    2.053364    0.000006
|  7> N    -1.349126    0.945938    0.000001
|  8> N     3.124988   -0.766794    0.000002
|  9> C     0.587079   -0.360579    0.000000
| 10> C    -0.044852    0.929530    0.000002
| 11> C    -0.373055   -1.340201   -0.000004
| 12> C     1.987770   -0.580577    0.000001
| 13> H     0.082922    2.809754    0.000007
| 14> H    -0.221242   -2.406813   -0.000007
| 15> *
| 16>
| 17>                          ****END OF INPUT****

CARTESIAN COORDINATES (ANGSTROEM)
---------------------------------
  S     -1.919398   -0.623306   -0.000004
  O      0.684500    2.053364    0.000006
  N     -1.349126    0.945938    0.000001
  N      3.124988   -0.766794    0.000002
  C      0.587079   -0.360579    0.000000
  C     -0.044852    0.929530    0.000002
  C     -0.373055   -1.340201   -0.000004
  C      1.987770   -0.580577    0.000001
  H      0.082922    2.809754    0.000007
  H     -0.221242   -2.406813   -0.000007

 Total Charge           Charge          ....    0
 Multiplicity           Mult            ....    1
 Number of Electrons    NEL             ....   64
 Basis Dimension        Dim             ....  736

ORBITAL ENERGIES
----------------

  NO   OCC          E(Eh)            E(eV)
   0   2.0000     -92.042279     -2504.5977
   1   2.0000     -20.629957      -561.3697
   2   2.0000     -15.604355      -424.6161
   3   2.0000     -15.582130      -424.0113
   4   2.0000     -11.384252      -309.7812
   5   2.0000     -11.332329      -308.3683
   6   2.0000     -11.304922      -307.6226
   7   2.0000     -11.288116      -307.1652
   8   2.0000      -9.040422      -246.0024
   9   2.0000      -6.721644      -182.9052
  10   2.0000      -6.720724      -182.8802
  11   2.0000      -6.720133      -182.8641
  12   2.0000      -1.462579       -39.7988
  13   2.0000      -1.298878       -35.3443
  14   2.0000      -1.232902       -33.5490
  15   2.0000      -1.120051       -30.4781
  16   2.0000      -1.038770       -28.2664
  17   2.0000      -0.871838       -23.7239
  18   2.0000      -0.861052       -23.4304
  19   2.0000      -0.787418       -21.4267
  20   2.0000      -0.705590       -19.2001
  21   2.0000      -0.662246       -18.0206
  22   2.0000      -0.657951       -17.9038
  23   2.0000      -0.609530       -16.5862
  24   2.0000      -0.570053       -15.5119
  25   2.0000      -0.562264       -15.3000
  26   2.0000      -0.532880       -14.5004
  27   2.0000      -0.512372       -13.9424
  28   2.0000      -0.504116       -13.7177
  29   2.0000      -0.469823       -12.7845
  30   2.0000      -0.404190       -10.9986
  31   2.0000      -0.368268       -10.0211
  32   0.0000       0.020964         0.5705
  33   0.0000       0.026356         0.7172
  34   0.0000       0.045472         1.2374
  35   0.0000       0.048947         1.3319
  36   0.0000       0.052506         1.4287

MULLIKEN ATOMIC CHARGES
-----------------------
   0 S :    0.489838
   1 O :   -0.720124
   2 N :   -0.782578
   3 N :   -0.728884
   4 C :   -0.318350
   5 C :    1.106362
   6 C :   -0.644214
   7 C :    0.788872
   8 H :    0.382828
   9 H :    0.426249
Sum of atomic charges:    0.0000000

LOEWDIN ATOMIC CHARGES
----------------------
   0 S :    1.133987
   1 O :    1.266623
   2 N :    0.121724
   3 N :    0.410549
   4 C :   -0.374775
   5 C :   -0.952326
   6 C :   -0.101132
   7 C :   -0.331590
   8 H :   -0.797938
   9 H :   -0.375122

  Mayer bond orders larger than 0.100000
B(  0-S ,  2-N ) :   0.9180 B(  0-S ,  4-C ) :  -0.1761 B(  0-S ,  6-C ) :   1.3527
B(  1-O ,  4-C ) :   0.2510 B(  1-O ,  5-C ) :   0.6177 B(  1-O ,  8-H ) :   0.8986
B(  2-N ,  5-C ) :   1.4831 B(  3-N ,  7-C ) :   2.3925 B(  4-C ,  5-C ) :   1.1223
B(  4-C ,  6-C ) :   1.1538 B(  4-C ,  7-C ) :   1.2690 B(  5-C ,  6-C ) :  -0.1839
B(  5-C ,  7-C ) :  -0.1158 B(  6-C ,  7-C ) :  -0.1107 B(  6-C ,  9-H ) :   0.8523

MP2 TOTAL ENERGY:     -735.579253916 Eh
FINAL SINGLE POINT ENERGY      -735.579253915937

DIPOLE MOMENT
-------------
                                X             Y             Z
Electronic contribution:     -1.38239      -0.61314      -0.00000
Nuclear contribution   :     -0.05516       0.43415       0.00000
                        -----------------------------------------
Total Dipole Moment    :     -1.43755      -0.17899      -0.00000
                        -----------------------------------------
Magnitude (a.u.)       :      1.44865
Magnitude (Debye)      :      3.68217

Rotational constants in cm-1:     0.110880     0.049401     0.034175
Rotational constants in MHz :  3324.089631  1481.002246  1024.534876

                             ****ORCA TERMINATED NORMALLY****
TOTAL RUN TIME: 0 days 0 hours 17 minutes 26 seconds 921 msec
