                         Program Version 5.0.4 -  RELEASE  -
|  1> !ri-mp2 aug-cc-pvqz aug-cc-pvqz/c tightscf
|  2> %pal nprocs 16 end
|  3>
|  4> * xyz 0 1
|  5> S    -1.131399   -1.070775   -0.000017
|  6> N     1.538046   -1.000510   -0.000058
|  7> N     0.653008    1.084197    0.000038
|  8> N     2.510851   -0.057395   -0.000035
|  9> C     0.445498   -0.256528   -0.000012
| 10> C     1.967699    1.170963    0.000021
| 11> C    -2.199076    0.233648    0.000030
| 12> C    -3.054062    1.079168    0.000059
| 13> H     3.478056   -0.332882   -0.000061
| 14> H     2.546140    2.079525    0.000047
| 15> H    -3.795499    1.838204    0.000079
| 16> *
| 17>
| 18>                          ****END OF INPUT****

CARTESIAN COORDINATES (ANGSTROEM)
---------------------------------
  S     -1.131399   -1.070775   -0.000017
  N      1.538046   -1.000510   -0.000058
  N      0.653008    1.084197    0.000038
  N      2.510851   -0.057395   -0.000035
  C      0.445498   -0.256528   -0.000012
  C      1.967699    1.170963    0.000021
  C     -2.199076    0.233648    0.000030
  C     -3.054062    1.079168    0.000059
  H      3.478056   -0.332882   -0.000061
  H      2.546140    2.079525    0.000047
  H     -3.795499    1.838204    0.000079

 Total Charge           Charge          ....    0
 Multiplicity           Mult            ....    1
 Number of Electrons    NEL             ....   64
 Basis Dimension        Dim             ....  782

ORBITAL ENERGIES
----------------

  NO   OCC          E(Eh)            E(eV)
   0   2.0000     -92.000762     -2503.4680
   1   2.0000     -15.666371      -426.3036
   2   2.0000     -15.606012      -424.6612
   3   2.0000     -15.571752      -423.7289
   4   2.0000     -11.335289      -308.4489
   5   2.0000     -11.333567      -308.4020
   6   2.0000     -11.255757      -306.2847
   7   2.0000     -11.236321      -305.7558
   8   2.0000      -9.001145      -244.9336
   9   2.0000      -6.682943      -181.8521
  10   2.0000      -6.681748      -181.8196
  11   2.0000      -6.680856      -181.7953
  12   2.0000      -1.431913       -38.9643
  13   2.0000      -1.217856       -33.1395
  14   2.0000      -1.146886       -31.2084
  15   2.0000      -1.075373       -29.2624
  16   2.0000      -0.984053       -26.7774
  17   2.0000      -0.882089       -24.0029
  18   2.0000      -0.817981       -22.2584
  19   2.0000      -0.785370       -21.3710
  20   2.0000      -0.721625       -19.6364
  21   2.0000      -0.657003       -17.8780
  22   2.0000      -0.654459       -17.8087
  23   2.0000      -0.625126       -17.0105
  24   2.0000      -0.536990       -14.6122
  25   2.0000      -0.512596       -13.9485
  26   2.0000      -0.496191       -13.5020
  27   2.0000      -0.465352       -12.6629
  28   2.0000      -0.431624       -11.7451
  29   2.0000      -0.404801       -11.0152
  30   2.0000      -0.400239       -10.8911
  31   2.0000      -0.326502        -8.8846
  32   0.0000       0.015998         0.4353
  33   0.0000       0.030017         0.8168
  34   0.0000       0.033797         0.9197
  35   0.0000       0.056073         1.5258
  36   0.0000       0.056680         1.5423

MULLIKEN ATOMIC CHARGES
-----------------------
   0 S :    0.732764
   1 N :   -0.301237
   2 N :   -0.531743
   3 N :   -0.355833
   4 C :    0.145848
   5 C :   -0.011626
   6 C :   -0.657519
   7 C :   -0.433476
   8 H :    0.295098
   9 H :    0.573599
  10 H :    0.544125
Sum of atomic charges:    0.0000000

LOEWDIN ATOMIC CHARGES
----------------------
   0 S :    1.186792
   1 N :    0.361570
   2 N :    0.484772
   3 N :    0.539941
   4 C :   -1.140246
   5 C :   -0.088485
   6 C :   -0.521109
   7 C :    0.433671
   8 H :   -0.474319
   9 H :   -0.310731
  10 H :   -0.471856

  Mayer bond orders larger than 0.100000
B(  0-S ,  4-C ) :   0.9375 B(  0-S ,  6-C ) :   0.7600 B(  1-N ,  3-N ) :   0.6911
B(  1-N ,  4-C ) :   1.3988 B(  2-N ,  4-C ) :   1.1721 B(  2-N ,  5-C ) :   1.5906
B(  3-N ,  5-C ) :   1.3760 B(  3-N ,  8-H ) :   0.9532 B(  4-C ,  6-C ) :  -0.1661
B(  5-C ,  9-H ) :   0.6898 B(  6-C ,  7-C ) :   2.6635 B(  7-C , 10-H ) :   0.7280

MP2 TOTAL ENERGY:     -715.629422640 Eh
FINAL SINGLE POINT ENERGY      -715.629422639961

DIPOLE MOMENT
-------------
                                X             Y             Z
Electronic contribution:     -0.86725      -2.76007      -0.00006
Nuclear contribution   :      2.20054       3.47487       0.00006
                        -----------------------------------------
Total Dipole Moment    :      1.33329       0.71480      -0.00000
                        -----------------------------------------
Magnitude (a.u.)       :      1.51282
Magnitude (Debye)      :      3.84527

Rotational constants in cm-1:     0.157633     0.040072     0.031950
Rotational constants in MHz :  4725.705923  1201.317228   957.828542

                             ****ORCA TERMINATED NORMALLY****
TOTAL RUN TIME: 0 days 0 hours 19 minutes 23 seconds 661 msec
