                         Program Version 5.0.4 -  RELEASE  -
|  1> !ri-mp2 aug-cc-pvqz aug-cc-pvqz/c tightscf
|  2> %pal nprocs 16 end
|  3>
|  4> * xyz 0 1
|  5> C      0.121338   -1.552985    0.000000
|  6> C     -1.266480   -1.587989    0.000000
|  7> C     -1.384777    0.677563    0.000000
|  8> C      0.784658   -0.329802    0.000000
|  9> C      0.000000    0.833406    0.000000
| 10> C      2.286145   -0.262994    0.000000
| 11> C      0.610891    2.207110    0.000000
| 12> N     -2.022279   -0.492366    0.000000
| 13> H      0.683596   -2.478145    0.000000
| 14> H     -1.790838   -2.537250    0.000000
| 15> H     -2.015999    1.561189    0.000000
| 16> H      2.660028    0.271394    0.876276
| 17> H      2.724758   -1.259274    0.000000
| 18> H      2.660028    0.271394   -0.876276
| 19> H      1.242218    2.367833   -0.877127
| 20> H     -0.160709    2.975727    0.000000
| 21> H      1.242218    2.367833    0.877127
| 22> *
| 23>
| 24>                          ****END OF INPUT****

CARTESIAN COORDINATES (ANGSTROEM)
---------------------------------
  C      0.121338   -1.552985    0.000000
  C     -1.266480   -1.587989    0.000000
  C     -1.384777    0.677563    0.000000
  C      0.784658   -0.329802    0.000000
  C      0.000000    0.833406    0.000000
  C      2.286145   -0.262994    0.000000
  C      0.610891    2.207110    0.000000
  N     -2.022279   -0.492366    0.000000
  H      0.683596   -2.478145    0.000000
  H     -1.790838   -2.537250    0.000000
  H     -2.015999    1.561189    0.000000
  H      2.660028    0.271394    0.876276
  H      2.724758   -1.259274    0.000000
  H      2.660028    0.271394   -0.876276
  H      1.242218    2.367833   -0.877127
  H     -0.160709    2.975727    0.000000
  H      1.242218    2.367833    0.877127

 Total Charge           Charge          ....    0
 Multiplicity           Mult            ....    1
 Number of Electrons    NEL             ....   58
 Basis Dimension        Dim             .... 1054

ORBITAL ENERGIES
----------------

  NO   OCC          E(Eh)            E(eV)
   0   2.0000     -15.553513      -423.2326
   1   2.0000     -11.263642      -306.4993
   2   2.0000     -11.262425      -306.4662
   3   2.0000     -11.257796      -306.3402
   4   2.0000     -11.239256      -305.8357
   5   2.0000     -11.233893      -305.6898
   6   2.0000     -11.230358      -305.5936
   7   2.0000     -11.229360      -305.5664
   8   2.0000      -1.252867       -34.0922
   9   2.0000      -1.114988       -30.3404
  10   2.0000      -1.048824       -28.5399
  11   2.0000      -0.975952       -26.5570
  12   2.0000      -0.940472       -25.5915
  13   2.0000      -0.837503       -22.7896
  14   2.0000      -0.811042       -22.0696
  15   2.0000      -0.685116       -18.6430
  16   2.0000      -0.679756       -18.4971
  17   2.0000      -0.628537       -17.1034
  18   2.0000      -0.604777       -16.4568
  19   2.0000      -0.577501       -15.7146
  20   2.0000      -0.562513       -15.3068
  21   2.0000      -0.559714       -15.2306
  22   2.0000      -0.553550       -15.0629
  23   2.0000      -0.539821       -14.6893
  24   2.0000      -0.521212       -14.1829
  25   2.0000      -0.498312       -13.5598
  26   2.0000      -0.409313       -11.1380
  27   2.0000      -0.363583        -9.8936
  28   2.0000      -0.333839        -9.0842
  29   0.0000       0.022240         0.6052
  30   0.0000       0.026997         0.7346
  31   0.0000       0.031830         0.8661
  32   0.0000       0.038329         1.0430
  33   0.0000       0.041984         1.1425

MULLIKEN ATOMIC CHARGES
-----------------------
   0 C :   -0.582690
   1 C :   -0.247762
   2 C :   -0.197264
   3 C :    0.580339
   4 C :    0.201448
   5 C :   -0.813244
   6 C :   -0.736756
   7 N :   -0.756975
   8 H :    0.252141
   9 H :    0.480257
  10 H :    0.439483
  11 H :    0.191118
  12 H :    0.303931
  13 H :    0.191118
  14 H :    0.187908
  15 H :    0.319042
  16 H :    0.187908
Sum of atomic charges:    0.0000000

LOEWDIN ATOMIC CHARGES
----------------------
   0 C :    0.339367
   1 C :    0.079447
   2 C :    0.082304
   3 C :   -0.074321
   4 C :   -0.073245
   5 C :    0.914184
   6 C :    0.899635
   7 N :    0.597626
   8 H :   -0.327512
   9 H :   -0.352071
  10 H :   -0.352484
  11 H :   -0.280199
  12 H :   -0.301454
  13 H :   -0.280199
  14 H :   -0.282541
  15 H :   -0.305996
  16 H :   -0.282541

  Mayer bond orders larger than 0.100000
B(  0-C ,  1-C ) :   1.3306 B(  0-C ,  3-C ) :   0.9904 B(  0-C ,  8-H ) :   1.0314
B(  0-C ,  9-H ) :  -0.1481 B(  1-C ,  3-C ) :  -0.3588 B(  1-C ,  7-N ) :   1.2517
B(  1-C ,  9-H ) :   0.8899 B(  2-C ,  3-C ) :  -0.2181 B(  2-C ,  4-C ) :   1.1994
B(  2-C ,  6-C ) :  -0.1031 B(  2-C ,  7-N ) :   1.0827 B(  2-C , 10-H ) :   0.8892
B(  3-C ,  4-C ) :   0.9934 B(  3-C ,  5-C ) :   0.5927 B(  3-C , 11-H ) :  -0.1030
B(  3-C , 12-H ) :  -0.1295 B(  3-C , 13-H ) :  -0.1030 B(  4-C ,  6-C ) :   0.4876
B(  4-C , 10-H ) :  -0.1091 B(  4-C , 14-H ) :  -0.1024 B(  4-C , 15-H ) :  -0.1566
B(  4-C , 16-H ) :  -0.1024 B(  5-C , 11-H ) :   1.0499 B(  5-C , 12-H ) :   0.9837
B(  5-C , 13-H ) :   1.0499 B(  6-C , 14-H ) :   1.0504 B(  6-C , 15-H ) :   0.9735
B(  6-C , 16-H ) :   1.0504 B(  7-N ,  9-H ) :  -0.1282 B(  7-N , 10-H ) :  -0.1472

MP2 TOTAL ENERGY:     -326.330302164 Eh
FINAL SINGLE POINT ENERGY      -326.330302163724

DIPOLE MOMENT
-------------
                                X             Y             Z
Electronic contribution:     -6.18807      -3.39111      -0.00000
Nuclear contribution   :      7.35306       3.59632       0.00000
                        -----------------------------------------
Total Dipole Moment    :      1.16499       0.20521      -0.00000
                        -----------------------------------------
Magnitude (a.u.)       :      1.18293
Magnitude (Debye)      :      3.00676

Rotational constants in cm-1:     0.107787     0.073114     0.044273
Rotational constants in MHz :  3231.373351  2191.912093  1327.273014

                             ****ORCA TERMINATED NORMALLY****
TOTAL RUN TIME: 0 days 0 hours 53 minutes 12 seconds 835 msec
