                         Program Version 5.0.4 -  RELEASE  -
|  1> !ri-mp2 aug-cc-pvqz aug-cc-pvqz/c tightscf
|  2> %pal nprocs 16 end
|  3>
|  4> * xyz 0 1
|  5> S    -1.754466   -0.335189   -0.197249
|  6> F     1.013789    1.522561   -0.771068
|  7> F     2.045030   -1.036519    0.178958
|  8> N     0.632941    0.772412    0.482854
|  9> C     0.799133   -0.571033    0.149039
| 10> C    -0.780143    1.004087    0.668274
| 11> C    -0.280485   -1.267924   -0.221740
| 12> H    -0.988442    0.907291    1.731910
| 13> H    -1.050908    1.989954    0.309837
| 14> H    -0.280179   -2.306271   -0.510189
| 15> *
| 16>
| 17>                          ****END OF INPUT****

CARTESIAN COORDINATES (ANGSTROEM)
---------------------------------
  S     -1.754466   -0.335189   -0.197249
  F      1.013789    1.522561   -0.771068
  F      2.045030   -1.036519    0.178958
  N      0.632941    0.772412    0.482854
  C      0.799133   -0.571033    0.149039
  C     -0.780143    1.004087    0.668274
  C     -0.280485   -1.267924   -0.221740
  H     -0.988442    0.907291    1.731910
  H     -1.050908    1.989954    0.309837
  H     -0.280179   -2.306271   -0.510189

 Total Charge           Charge          ....    0
 Multiplicity           Mult            ....    1
 Number of Electrons    NEL             ....   62
 Basis Dimension        Dim             ....  702

ORBITAL ENERGIES
----------------

  NO   OCC          E(Eh)            E(eV)
   0   2.0000     -91.989891     -2503.1722
   1   2.0000     -26.332936      -716.5556
   2   2.0000     -26.296041      -715.5516
   3   2.0000     -15.697435      -427.1489
   4   2.0000     -11.374802      -309.5241
   5   2.0000     -11.329204      -308.2833
   6   2.0000     -11.301141      -307.5197
   7   2.0000      -8.991549      -244.6725
   8   2.0000      -6.672914      -181.5792
   9   2.0000      -6.672112      -181.5574
  10   2.0000      -6.671044      -181.5283
  11   2.0000      -1.656670       -45.0803
  12   2.0000      -1.578133       -42.9432
  13   2.0000      -1.281004       -34.8579
  14   2.0000      -1.086673       -29.5699
  15   2.0000      -1.031119       -28.0582
  16   2.0000      -0.878585       -23.9075
  17   2.0000      -0.828997       -22.5582
  18   2.0000      -0.762968       -20.7614
  19   2.0000      -0.735510       -20.0142
  20   2.0000      -0.720157       -19.5965
  21   2.0000      -0.687685       -18.7129
  22   2.0000      -0.672870       -18.3097
  23   2.0000      -0.656180       -17.8556
  24   2.0000      -0.604374       -16.4459
  25   2.0000      -0.596253       -16.2249
  26   2.0000      -0.552880       -15.0446
  27   2.0000      -0.537477       -14.6255
  28   2.0000      -0.479115       -13.0374
  29   2.0000      -0.447727       -12.1833
  30   2.0000      -0.339457        -9.2371
  31   0.0000       0.024345         0.6625
  32   0.0000       0.029227         0.7953
  33   0.0000       0.038650         1.0517
  34   0.0000       0.048853         1.3294
  35   0.0000       0.063913         1.7392

MULLIKEN ATOMIC CHARGES
-----------------------
   0 S :    0.096265
   1 F :   -0.493760
   2 F :   -0.654076
   3 N :    0.031490
   4 C :    1.055628
   5 C :   -0.350465
   6 C :   -0.841269
   7 H :    0.277841
   8 H :    0.387426
   9 H :    0.490920
Sum of atomic charges:   -0.0000000

LOEWDIN ATOMIC CHARGES
----------------------
   0 S :    1.295788
   1 F :    0.449017
   2 F :    0.764761
   3 N :   -0.032429
   4 C :   -1.086935
   5 C :   -0.067735
   6 C :   -0.149248
   7 H :   -0.380575
   8 H :   -0.382107
   9 H :   -0.410536

  Mayer bond orders larger than 0.100000
B(  0-S ,  4-C ) :  -0.1462 B(  0-S ,  5-C ) :   0.9521 B(  0-S ,  6-C ) :   1.1392
B(  1-F ,  3-N ) :   0.6065 B(  2-F ,  4-C ) :   0.4723 B(  3-N ,  4-C ) :   0.9198
B(  3-N ,  5-C ) :   0.8941 B(  4-C ,  6-C ) :   1.6480 B(  5-C ,  7-H ) :   0.8892
B(  5-C ,  8-H ) :   0.8334 B(  6-C ,  9-H ) :   0.7096

MP2 TOTAL ENERGY:     -767.738584507 Eh
FINAL SINGLE POINT ENERGY      -767.738584506530

DIPOLE MOMENT
-------------
                                X             Y             Z
Electronic contribution:      4.02509      -0.49382      -1.50500
Nuclear contribution   :     -4.99595       0.11901       2.00994
                        -----------------------------------------
Total Dipole Moment    :     -0.97086      -0.37481       0.50494
                        -----------------------------------------
Magnitude (a.u.)       :      1.15673
Magnitude (Debye)      :      2.94017

Rotational constants in cm-1:     0.114003     0.068266     0.049101
Rotational constants in MHz :  3417.735676  2046.570339  1472.018176

                             ****ORCA TERMINATED NORMALLY****
TOTAL RUN TIME: 0 days 0 hours 14 minutes 44 seconds 238 msec
