                         Program Version 5.0.4 -  RELEASE  -
|  1> !ri-mp2 aug-cc-pvqz aug-cc-pvqz/c tightscf
|  2> %pal nprocs 16 end
|  3>
|  4> * xyz 0 1
|  5> N      2.719618    0.153377   -0.188334
|  6> C      1.682004   -0.289004    0.037142
|  7> C      0.346430   -0.814715    0.299669
|  8> C     -0.763293    0.051501   -0.329333
|  9> C     -2.127718   -0.576818   -0.072382
| 10> N     -0.717065    1.384780    0.269645
| 11> H      0.293437   -1.831487   -0.093339
| 12> H      0.196590   -0.861421    1.380188
| 13> H     -0.587244    0.069181   -1.413475
| 14> H     -2.916735    0.027258   -0.522652
| 15> H     -2.188243   -1.576132   -0.504413
| 16> H     -2.323569   -0.642517    0.998642
| 17> H      0.153061    1.858327    0.055880
| 18> H     -1.469698    1.963912   -0.080591
| 19> *
| 20>
| 21>                          ****END OF INPUT****

CARTESIAN COORDINATES (ANGSTROEM)
---------------------------------
  N      2.719618    0.153377   -0.188334
  C      1.682004   -0.289004    0.037142
  C      0.346430   -0.814715    0.299669
  C     -0.763293    0.051501   -0.329333
  C     -2.127718   -0.576818   -0.072382
  N     -0.717065    1.384780    0.269645
  H      0.293437   -1.831487   -0.093339
  H      0.196590   -0.861421    1.380188
  H     -0.587244    0.069181   -1.413475
  H     -2.916735    0.027258   -0.522652
  H     -2.188243   -1.576132   -0.504413
  H     -2.323569   -0.642517    0.998642
  H      0.153061    1.858327    0.055880
  H     -1.469698    1.963912   -0.080591

 Total Charge           Charge          ....    0
 Multiplicity           Mult            ....    1
 Number of Electrons    NEL             ....   46
 Basis Dimension        Dim             ....  848

ORBITAL ENERGIES
----------------

  NO   OCC          E(Eh)            E(eV)
   0   2.0000     -15.566161      -423.5768
   1   2.0000     -15.553485      -423.2318
   2   2.0000     -11.285605      -307.0969
   3   2.0000     -11.277890      -306.8870
   4   2.0000     -11.271386      -306.7100
   5   2.0000     -11.232682      -305.6568
   6   2.0000      -1.226513       -33.3751
   7   2.0000      -1.203563       -32.7506
   8   2.0000      -1.061033       -28.8722
   9   2.0000      -0.986971       -26.8568
  10   2.0000      -0.825773       -22.4704
  11   2.0000      -0.706478       -19.2242
  12   2.0000      -0.685819       -18.6621
  13   2.0000      -0.677435       -18.4339
  14   2.0000      -0.597829       -16.2677
  15   2.0000      -0.583454       -15.8766
  16   2.0000      -0.560139       -15.2422
  17   2.0000      -0.541384       -14.7318
  18   2.0000      -0.529937       -14.4203
  19   2.0000      -0.523393       -14.2423
  20   2.0000      -0.460474       -12.5301
  21   2.0000      -0.458521       -12.4770
  22   2.0000      -0.408619       -11.1191
  23   0.0000       0.020479         0.5573
  24   0.0000       0.028840         0.7848
  25   0.0000       0.031986         0.8704
  26   0.0000       0.036520         0.9938
  27   0.0000       0.049355         1.3430

MULLIKEN ATOMIC CHARGES
-----------------------
   0 N :   -0.687332
   1 C :    0.420383
   2 C :   -0.555395
   3 C :    0.304815
   4 C :   -0.869355
   5 N :   -0.733300
   6 H :    0.332371
   7 H :    0.286937
   8 H :    0.326790
   9 H :    0.253570
  10 H :    0.247426
  11 H :    0.242502
  12 H :    0.222020
  13 H :    0.208570
Sum of atomic charges:   -0.0000000

LOEWDIN ATOMIC CHARGES
----------------------
   0 N :    0.424212
   1 C :   -0.262528
   2 C :    0.422396
   3 C :   -0.083414
   4 C :    0.917797
   5 N :    1.294226
   6 H :   -0.297523
   7 H :   -0.298010
   8 H :   -0.270367
   9 H :   -0.276129
  10 H :   -0.276311
  11 H :   -0.276896
  12 H :   -0.517555
  13 H :   -0.499898

  Mayer bond orders larger than 0.100000
B(  0-N ,  1-C ) :   2.4763 B(  1-C ,  2-C ) :   1.1731 B(  1-C ,  3-C ) :  -0.1266
B(  2-C ,  3-C ) :   0.7782 B(  2-C ,  6-H ) :   0.8819 B(  2-C ,  7-H ) :   0.8767
B(  3-C ,  4-C ) :   0.7770 B(  3-C ,  5-N ) :   0.5930 B(  3-C ,  8-H ) :   0.8398
B(  4-C ,  9-H ) :   0.9963 B(  4-C , 10-H ) :   0.9906 B(  4-C , 11-H ) :   0.9463
B(  5-N , 12-H ) :   0.9521 B(  5-N , 13-H ) :   0.9731

MP2 TOTAL ENERGY:     -266.287819039 Eh
FINAL SINGLE POINT ENERGY      -266.287819038858

DIPOLE MOMENT
-------------
                                X             Y             Z
Electronic contribution:      7.46635       0.56270      -0.04179
Nuclear contribution   :     -9.06887      -1.01039      -0.18412
                        -----------------------------------------
Total Dipole Moment    :     -1.60252      -0.44769      -0.22591
                        -----------------------------------------
Magnitude (a.u.)       :      1.67915
Magnitude (Debye)      :      4.26806

Rotational constants in cm-1:     0.263213     0.070932     0.059601
Rotational constants in MHz :  7890.931251  2126.488964  1786.802165

                             ****ORCA TERMINATED NORMALLY****
TOTAL RUN TIME: 0 days 0 hours 23 minutes 32 seconds 374 msec
