                         Program Version 5.0.4 -  RELEASE  -
|  1> !ri-mp2 aug-cc-pvqz aug-cc-pvqz/c tightscf
|  2> %pal nprocs 16 end
|  3>
|  4> * xyz 0 1
|  5> C      0.906853    0.321148   -0.017128
|  6> C      1.943934   -0.786999   -0.005884
|  7> C     -0.933612   -0.544883    1.418768
|  8> C     -0.861053   -1.193432   -1.015538
|  9> C     -1.437212    1.161991   -0.352359
| 10> C     -0.585568   -0.063766   -0.006852
| 11> O      1.259489    1.479477   -0.029986
| 12> H      2.897115   -0.377609    0.318312
| 13> H      1.660429   -1.625395    0.628697
| 14> H      2.062196   -1.175511   -1.020006
| 15> H     -0.366445   -1.430877    1.704810
| 16> H     -0.740904    0.236991    2.154158
| 17> H     -1.993325   -0.800366    1.469308
| 18> H     -0.315821   -2.105697   -0.774352
| 19> H     -0.592539   -0.894537   -2.030268
| 20> H     -1.924863   -1.435703   -1.013178
| 21> H     -1.207435    1.532654   -1.351356
| 22> H     -1.258629    1.976552    0.346678
| 23> H     -2.495732    0.899320   -0.318958
| 24> *
| 25>
| 26>                          ****END OF INPUT****

CARTESIAN COORDINATES (ANGSTROEM)
---------------------------------
  C      0.906853    0.321148   -0.017128
  C      1.943934   -0.786999   -0.005884
  C     -0.933612   -0.544883    1.418768
  C     -0.861053   -1.193432   -1.015538
  C     -1.437212    1.161991   -0.352359
  C     -0.585568   -0.063766   -0.006852
  O      1.259489    1.479477   -0.029986
  H      2.897115   -0.377609    0.318312
  H      1.660429   -1.625395    0.628697
  H      2.062196   -1.175511   -1.020006
  H     -0.366445   -1.430877    1.704810
  H     -0.740904    0.236991    2.154158
  H     -1.993325   -0.800366    1.469308
  H     -0.315821   -2.105697   -0.774352
  H     -0.592539   -0.894537   -2.030268
  H     -1.924863   -1.435703   -1.013178
  H     -1.207435    1.532654   -1.351356
  H     -1.258629    1.976552    0.346678
  H     -2.495732    0.899320   -0.318958

 Total Charge           Charge          ....    0
 Multiplicity           Mult            ....    1
 Number of Electrons    NEL             ....   56
 Basis Dimension        Dim             .... 1112

ORBITAL ENERGIES
----------------

  NO   OCC          E(Eh)            E(eV)
   0   2.0000     -20.538511      -558.8813
   1   2.0000     -11.323909      -308.1392
   2   2.0000     -11.248984      -306.1004
   3   2.0000     -11.230212      -305.5896
   4   2.0000     -11.225872      -305.4715
   5   2.0000     -11.225625      -305.4648
   6   2.0000     -11.209414      -305.0237
   7   2.0000      -1.383908       -37.6581
   8   2.0000      -1.109881       -30.2014
   9   2.0000      -1.002808       -27.2878
  10   2.0000      -0.946047       -25.7432
  11   2.0000      -0.934261       -25.4225
  12   2.0000      -0.834979       -22.7209
  13   2.0000      -0.704923       -19.1819
  14   2.0000      -0.664195       -18.0737
  15   2.0000      -0.631672       -17.1887
  16   2.0000      -0.618809       -16.8386
  17   2.0000      -0.597479       -16.2582
  18   2.0000      -0.591823       -16.1043
  19   2.0000      -0.565028       -15.3752
  20   2.0000      -0.545774       -14.8513
  21   2.0000      -0.544237       -14.8094
  22   2.0000      -0.523641       -14.2490
  23   2.0000      -0.513586       -13.9754
  24   2.0000      -0.497424       -13.5356
  25   2.0000      -0.473803       -12.8928
  26   2.0000      -0.467400       -12.7186
  27   2.0000      -0.398741       -10.8503
  28   0.0000       0.023306         0.6342
  29   0.0000       0.028865         0.7854
  30   0.0000       0.031439         0.8555
  31   0.0000       0.034956         0.9512
  32   0.0000       0.047551         1.2939

MULLIKEN ATOMIC CHARGES
-----------------------
   0 C :    1.047695
   1 C :   -0.922465
   2 C :   -1.079229
   3 C :   -1.052121
   4 C :   -1.070089
   5 C :    1.008956
   6 O :   -0.914068
   7 H :    0.329314
   8 H :    0.199918
   9 H :    0.248717
  10 H :    0.245346
  11 H :    0.242953
  12 H :    0.262107
  13 H :    0.212169
  14 H :    0.246465
  15 H :    0.285018
  16 H :    0.234952
  17 H :    0.235879
  18 H :    0.238483
Sum of atomic charges:   -0.0000000

LOEWDIN ATOMIC CHARGES
----------------------
   0 C :   -0.640966
   1 C :    0.899673
   2 C :    0.910340
   3 C :    0.899425
   4 C :    0.872922
   5 C :   -0.334427
   6 O :    0.768448
   7 H :   -0.307630
   8 H :   -0.307039
   9 H :   -0.285072
  10 H :   -0.283981
  11 H :   -0.262672
  12 H :   -0.270284
  13 H :   -0.290176
  14 H :   -0.261049
  15 H :   -0.270755
  16 H :   -0.272415
  17 H :   -0.288522
  18 H :   -0.275819

  Mayer bond orders larger than 0.100000
B(  0-C ,  1-C ) :   0.8546 B(  0-C ,  5-C ) :   0.8713 B(  0-C ,  6-O ) :   0.7726
B(  1-C ,  6-O ) :   0.1471 B(  1-C ,  7-H ) :   0.9637 B(  1-C ,  8-H ) :   1.0305
B(  1-C ,  9-H ) :   0.9208 B(  2-C ,  3-C ) :   0.1169 B(  2-C ,  4-C ) :   0.1317
B(  2-C ,  5-C ) :   0.5409 B(  2-C , 10-H ) :   1.0252 B(  2-C , 11-H ) :   1.0134
B(  2-C , 12-H ) :   0.9758 B(  3-C ,  4-C ) :   0.1123 B(  3-C ,  5-C ) :   0.5100
B(  3-C , 13-H ) :   1.0603 B(  3-C , 14-H ) :   1.0404 B(  3-C , 15-H ) :   0.9524
B(  4-C ,  5-C ) :   0.2788 B(  4-C , 16-H ) :   1.0740 B(  4-C , 17-H ) :   1.0597
B(  4-C , 18-H ) :   1.0321 B(  5-C ,  6-O ) :   0.2952 B(  5-C , 13-H ) :  -0.1070
B(  5-C , 16-H ) :  -0.1509 B(  5-C , 17-H ) :  -0.1548 B(  5-C , 18-H ) :  -0.1283

MP2 TOTAL ENERGY:     -310.558924017 Eh
FINAL SINGLE POINT ENERGY      -310.558924016751

DIPOLE MOMENT
-------------
                                X             Y             Z
Electronic contribution:      4.04684       4.23999      -0.09616
Nuclear contribution   :     -4.46903      -5.43585       0.11904
                        -----------------------------------------
Total Dipole Moment    :     -0.42219      -1.19586       0.02289
                        -----------------------------------------
Magnitude (a.u.)       :      1.26841
Magnitude (Debye)      :      3.22403

Rotational constants in cm-1:     0.106446     0.076452     0.063773
Rotational constants in MHz :  3191.182861  2291.984649  1911.876330

                             ****ORCA TERMINATED NORMALLY****
TOTAL RUN TIME: 0 days 1 hours 20 minutes 19 seconds 306 msec
