                         Program Version 5.0.4 -  RELEASE  -
|  1> !ri-mp2 aug-cc-pvqz aug-cc-pvqz/c tightscf
|  2> %pal nprocs 16 end
|  3>
|  4> * xyz 0 1
|  5> O    -2.290204   -0.882999   -0.151424
|  6> O     1.444926    1.959948    0.003154
|  7> O     2.919242   -0.207425   -0.239915
|  8> N    -0.081213   -1.807611    0.272914
|  9> N     1.538222   -0.300125   -0.183639
| 10> N     1.139137   -1.556445    0.277999
| 11> C    -0.561361    0.592228    0.420127
| 12> C    -0.879772   -0.732796   -0.252028
| 13> C    -1.815431    1.347987    0.067672
| 14> C     0.851036    0.905794    0.038355
| 15> C    -2.746502    0.420002   -0.163318
| 16> H    -0.516052    0.455732    1.514116
| 17> H    -0.629924   -0.648724   -1.323073
| 18> H    -1.972359    2.408820    0.151036
| 19> H    -3.804155    0.525826   -0.340190
| 20> H     3.069933    0.752129   -0.132165
| 21> *
| 22>
| 23>                          ****END OF INPUT****

CARTESIAN COORDINATES (ANGSTROEM)
---------------------------------
  O     -2.290204   -0.882999   -0.151424
  O      1.444926    1.959948    0.003154
  O      2.919242   -0.207425   -0.239915
  N     -0.081213   -1.807611    0.272914
  N      1.538222   -0.300125   -0.183639
  N      1.139137   -1.556445    0.277999
  C     -0.561361    0.592228    0.420127
  C     -0.879772   -0.732796   -0.252028
  C     -1.815431    1.347987    0.067672
  C      0.851036    0.905794    0.038355
  C     -2.746502    0.420002   -0.163318
  H     -0.516052    0.455732    1.514116
  H     -0.629924   -0.648724   -1.323073
  H     -1.972359    2.408820    0.151036
  H     -3.804155    0.525826   -0.340190
  H      3.069933    0.752129   -0.132165

 Total Charge           Charge          ....    0
 Multiplicity           Mult            ....    1
 Number of Electrons    NEL             ....   80
 Basis Dimension        Dim             .... 1110

ORBITAL ENERGIES
----------------

  NO   OCC          E(Eh)            E(eV)
   0   2.0000     -20.631219      -561.4040
   1   2.0000     -20.619258      -561.0785
   2   2.0000     -20.582103      -560.0675
   3   2.0000     -15.710436      -427.5027
   4   2.0000     -15.704394      -427.3383
   5   2.0000     -15.653154      -425.9440
   6   2.0000     -11.407879      -310.4242
   7   2.0000     -11.358699      -309.0859
   8   2.0000     -11.327869      -308.2470
   9   2.0000     -11.294415      -307.3367
  10   2.0000     -11.262999      -306.4818
  11   2.0000      -1.513719       -41.1904
  12   2.0000      -1.459993       -39.7284
  13   2.0000      -1.428036       -38.8588
  14   2.0000      -1.403853       -38.2008
  15   2.0000      -1.187761       -32.3206
  16   2.0000      -1.141299       -31.0563
  17   2.0000      -1.075570       -29.2677
  18   2.0000      -0.943205       -25.6659
  19   2.0000      -0.930775       -25.3277
  20   2.0000      -0.826684       -22.4952
  21   2.0000      -0.803911       -21.8755
  22   2.0000      -0.774048       -21.0629
  23   2.0000      -0.760429       -20.6923
  24   2.0000      -0.718390       -19.5484
  25   2.0000      -0.690576       -18.7915
  26   2.0000      -0.666734       -18.1428
  27   2.0000      -0.658728       -17.9249
  28   2.0000      -0.634100       -17.2547
  29   2.0000      -0.621412       -16.9095
  30   2.0000      -0.597968       -16.2715
  31   2.0000      -0.589615       -16.0443
  32   2.0000      -0.584174       -15.8962
  33   2.0000      -0.560775       -15.2595
  34   2.0000      -0.545848       -14.8533
  35   2.0000      -0.520420       -14.1614
  36   2.0000      -0.484744       -13.1905
  37   2.0000      -0.449722       -12.2376
  38   2.0000      -0.399885       -10.8814
  39   2.0000      -0.375624       -10.2212
  40   0.0000       0.019464         0.5297
  41   0.0000       0.029715         0.8086
  42   0.0000       0.032743         0.8910
  43   0.0000       0.034933         0.9506
  44   0.0000       0.044109         1.2003

MULLIKEN ATOMIC CHARGES
-----------------------
   0 O :   -0.921789
   1 O :   -0.879678
   2 O :   -0.800495
   3 N :   -0.501805
   4 N :    0.369078
   5 N :   -0.160750
   6 C :   -0.153954
   7 C :    0.902789
   8 C :   -0.724447
   9 C :    1.034064
  10 C :   -0.168560
  11 H :    0.327964
  12 H :    0.313707
  13 H :    0.398901
  14 H :    0.585654
  15 H :    0.379323
Sum of atomic charges:   -0.0000000

LOEWDIN ATOMIC CHARGES
----------------------
   0 O :    0.887370
   1 O :    0.768384
   2 O :    1.111678
   3 N :    0.378521
   4 N :   -0.137557
   5 N :    0.220444
   6 C :   -0.028767
   7 C :   -0.621840
   8 C :    0.409281
   9 C :   -0.820283
  10 C :    0.039965
  11 H :   -0.275293
  12 H :   -0.330706
  13 H :   -0.308083
  14 H :   -0.320935
  15 H :   -0.972178

  Mayer bond orders larger than 0.100000
B(  0-O ,  7-C ) :   0.3781 B(  0-O ,  8-C ) :   0.1907 B(  0-O , 10-C ) :   0.8553
B(  1-O ,  4-N ) :   0.1174 B(  1-O ,  6-C ) :   0.2554 B(  1-O ,  9-C ) :   0.9790
B(  2-O ,  4-N ) :   0.4032 B(  2-O , 15-H ) :   0.8582 B(  3-N ,  5-N ) :   1.5945
B(  3-N ,  6-C ) :   0.1437 B(  3-N ,  7-C ) :   0.5079 B(  4-N ,  5-N ) :   0.6865
B(  4-N ,  9-C ) :   1.1627 B(  5-N ,  7-C ) :  -0.1229 B(  6-C ,  7-C ) :   0.8622
B(  6-C ,  8-C ) :   0.6822 B(  6-C ,  9-C ) :   1.1615 B(  6-C , 10-C ) :  -0.3739
B(  6-C , 11-H ) :   0.7536 B(  7-C , 12-H ) :   0.8958 B(  8-C , 10-C ) :   1.9325
B(  8-C , 13-H ) :   0.8898 B( 10-C , 14-H ) :   0.7119

MP2 TOTAL ENERGY:     -582.502647880 Eh
FINAL SINGLE POINT ENERGY      -582.502647880276

DIPOLE MOMENT
-------------
                                X             Y             Z
Electronic contribution:      2.64190      -2.48636       0.10511
Nuclear contribution   :     -3.68524       3.37660      -0.13003
                        -----------------------------------------
Total Dipole Moment    :     -1.04334       0.89024      -0.02492
                        -----------------------------------------
Magnitude (a.u.)       :      1.37175
Magnitude (Debye)      :      3.48671

Rotational constants in cm-1:     0.077108     0.033914     0.024328
Rotational constants in MHz :  2311.628119  1016.712307   729.330363

                             ****ORCA TERMINATED NORMALLY****
TOTAL RUN TIME: 0 days 1 hours 1 minutes 51 seconds 397 msec
