                         Program Version 5.0.4 -  RELEASE  -
|  1> !ri-mp2 aug-cc-pvqz aug-cc-pvqz/c tightscf
|  2> %pal nprocs 16 end
|  3>
|  4> * xyz 0 1
|  5> C     -0.002611   -1.733711    0.000000
|  6> C     -0.002408   -1.024146    1.207301
|  7> C     -0.002408    0.359331    1.183235
|  8> C     -0.002586    1.085107    0.000000
|  9> C     -0.002408    0.359331   -1.183235
| 10> C     -0.002408   -1.024146   -1.207301
| 11> N     -0.060193   -3.118911    0.000000
| 12> H     -0.007345   -1.548683    2.151914
| 13> Cl     0.000346    1.229076    2.704581
| 14> H     -0.002009    2.162516    0.000000
| 15> Cl     0.000346    1.229076   -2.704581
| 16> H     -0.007345   -1.548683   -2.151914
| 17> H      0.257626   -3.575977   -0.838380
| 18> H      0.257626   -3.575977    0.838380
| 19> *
| 20>
| 21>                          ****END OF INPUT****

CARTESIAN COORDINATES (ANGSTROEM)
---------------------------------
  C     -0.002611   -1.733711    0.000000
  C     -0.002408   -1.024146    1.207301
  C     -0.002408    0.359331    1.183235
  C     -0.002586    1.085107    0.000000
  C     -0.002408    0.359331   -1.183235
  C     -0.002408   -1.024146   -1.207301
  N     -0.060193   -3.118911    0.000000
  H     -0.007345   -1.548683    2.151914
  Cl     0.000346    1.229076    2.704581
  H     -0.002009    2.162516    0.000000
  Cl     0.000346    1.229076   -2.704581
  H     -0.007345   -1.548683   -2.151914
  H      0.257626   -3.575977   -0.838380
  H      0.257626   -3.575977    0.838380

 Total Charge           Charge          ....    0
 Multiplicity           Mult            ....    1
 Number of Electrons    NEL             ....   82
 Basis Dimension        Dim             ....  958

ORBITAL ENERGIES
----------------

  NO   OCC          E(Eh)            E(eV)
   0   2.0000    -104.844675     -2852.9687
   1   2.0000    -104.844675     -2852.9687
   2   2.0000     -15.584199      -424.0676
   3   2.0000     -11.317618      -307.9680
   4   2.0000     -11.317611      -307.9679
   5   2.0000     -11.307463      -307.6917
   6   2.0000     -11.246139      -306.0230
   7   2.0000     -11.246120      -306.0225
   8   2.0000     -11.245838      -306.0148
   9   2.0000     -10.569887      -287.6212
  10   2.0000     -10.569887      -287.6212
  11   2.0000      -8.037003      -218.6980
  12   2.0000      -8.037003      -218.6980
  13   2.0000      -8.035258      -218.6505
  14   2.0000      -8.035258      -218.6505
  15   2.0000      -8.035228      -218.6497
  16   2.0000      -8.035228      -218.6497
  17   2.0000      -1.252710       -34.0880
  18   2.0000      -1.196090       -32.5473
  19   2.0000      -1.156142       -31.4602
  20   2.0000      -1.087821       -29.6011
  21   2.0000      -1.007850       -27.4250
  22   2.0000      -1.001534       -27.2531
  23   2.0000      -0.841124       -22.8882
  24   2.0000      -0.829579       -22.5740
  25   2.0000      -0.721159       -19.6237
  26   2.0000      -0.713128       -19.4052
  27   2.0000      -0.677610       -18.4387
  28   2.0000      -0.636404       -17.3174
  29   2.0000      -0.606719       -16.5097
  30   2.0000      -0.595028       -16.1915
  31   2.0000      -0.579068       -15.7573
  32   2.0000      -0.550052       -14.9677
  33   2.0000      -0.520052       -14.1513
  34   2.0000      -0.513020       -13.9600
  35   2.0000      -0.507541       -13.8109
  36   2.0000      -0.466472       -12.6933
  37   2.0000      -0.456228       -12.4146
  38   2.0000      -0.432997       -11.7824
  39   2.0000      -0.346211        -9.4209
  40   2.0000      -0.318276        -8.6607
  41   0.0000       0.018154         0.4940
  42   0.0000       0.029559         0.8043
  43   0.0000       0.035952         0.9783
  44   0.0000       0.043512         1.1840
  45   0.0000       0.055243         1.5032

MULLIKEN ATOMIC CHARGES
-----------------------
   0 C :    0.652219
   1 C :   -0.102200
   2 C :   -0.480161
   3 C :    0.015328
   4 C :   -0.480210
   5 C :   -0.102274
   6 N :   -0.774172
   7 H :    0.399750
   8 Cl:   -0.313647
   9 H :    0.532183
  10 Cl:   -0.313646
  11 H :    0.399747
  12 H :    0.283543
  13 H :    0.283539
Sum of atomic charges:    0.0000000

LOEWDIN ATOMIC CHARGES
----------------------
   0 C :   -0.259535
   1 C :    0.198299
   2 C :   -0.857747
   3 C :    0.055641
   4 C :   -0.857747
   5 C :    0.198299
   6 N :    1.278528
   7 H :   -0.362128
   8 Cl:    1.185410
   9 H :   -0.399549
  10 Cl:    1.185410
  11 H :   -0.362128
  12 H :   -0.501376
  13 H :   -0.501376

  Mayer bond orders larger than 0.100000
B(  0-C ,  1-C ) :   1.2096 B(  0-C ,  2-C ) :  -0.2720 B(  0-C ,  4-C ) :  -0.2720
B(  0-C ,  5-C ) :   1.2096 B(  0-C ,  6-N ) :   0.8398 B(  1-C ,  2-C ) :   1.2091
B(  1-C ,  7-H ) :   0.8496 B(  1-C ,  8-Cl) :  -0.3071 B(  2-C ,  3-C ) :   1.2735
B(  2-C ,  8-Cl) :   1.3072 B(  3-C ,  4-C ) :   1.2735 B(  3-C ,  8-Cl) :  -0.2346
B(  3-C ,  9-H ) :   0.7583 B(  3-C , 10-Cl) :  -0.2346 B(  4-C ,  5-C ) :   1.2092
B(  4-C , 10-Cl) :   1.3072 B(  5-C , 10-Cl) :  -0.3070 B(  5-C , 11-H ) :   0.8496
B(  6-N , 12-H ) :   0.9248 B(  6-N , 13-H ) :   0.9248

MP2 TOTAL ENERGY:    -1205.384353685 Eh
FINAL SINGLE POINT ENERGY     -1205.384353685253

DIPOLE MOMENT
-------------
                                X             Y             Z
Electronic contribution:     -0.11513       9.78971       0.00000
Nuclear contribution   :      0.47261     -11.04681      -0.00000
                        -----------------------------------------
Total Dipole Moment    :      0.35748      -1.25710       0.00000
                        -----------------------------------------
Magnitude (a.u.)       :      1.30693
Magnitude (Debye)      :      3.32196

Rotational constants in cm-1:     0.047273     0.028179     0.017662
Rotational constants in MHz :  1417.222301   844.777359   529.483735

                             ****ORCA TERMINATED NORMALLY****
TOTAL RUN TIME: 0 days 0 hours 42 minutes 47 seconds 973 msec
