                         Program Version 5.0.4 -  RELEASE  -
|  1> !ri-mp2 aug-cc-pvqz aug-cc-pvqz/c tightscf
|  2> %pal nprocs 16 end
|  3>
|  4> * xyz 0 1
|  5> S     -0.028479   -1.298792    0.113208
|  6> S     -1.706091   -0.067083   -0.155054
|  7> N      0.494117    1.411130    0.230341
|  8> N      2.316910   -0.066084   -0.430930
|  9> C      1.182581    0.157135    0.412230
| 10> C     -0.739922    1.410171   -0.021635
| 11> H      2.101161    0.113195   -1.403505
| 12> H      3.105494    0.503334   -0.149239
| 13> H      1.509307    0.087909    1.449130
| 14> H     -1.295978    2.330405   -0.166289
| 15> *
| 16>
| 17>                          ****END OF INPUT****

CARTESIAN COORDINATES (ANGSTROEM)
---------------------------------
  S     -0.028479   -1.298792    0.113208
  S     -1.706091   -0.067083   -0.155054
  N      0.494117    1.411130    0.230341
  N      2.316910   -0.066084   -0.430930
  C      1.182581    0.157135    0.412230
  C     -0.739922    1.410171   -0.021635
  H      2.101161    0.113195   -1.403505
  H      3.105494    0.503334   -0.149239
  H      1.509307    0.087909    1.449130
  H     -1.295978    2.330405   -0.166289

 Total Charge           Charge          ....    0
 Multiplicity           Mult            ....    1
 Number of Electrons    NEL             ....   62
 Basis Dimension        Dim             ....  672

ORBITAL ENERGIES
----------------

  NO   OCC          E(Eh)            E(eV)
   0   2.0000     -91.995320     -2503.3199
   1   2.0000     -91.977456     -2502.8338
   2   2.0000     -15.581784      -424.0019
   3   2.0000     -15.564185      -423.5230
   4   2.0000     -11.347134      -308.7712
   5   2.0000     -11.334229      -308.4201
   6   2.0000      -8.995992      -244.7934
   7   2.0000      -8.977713      -244.2960
   8   2.0000      -6.677144      -181.6943
   9   2.0000      -6.676254      -181.6701
  10   2.0000      -6.675111      -181.6390
  11   2.0000      -6.658819      -181.1957
  12   2.0000      -6.657623      -181.1631
  13   2.0000      -6.656529      -181.1334
  14   2.0000      -1.289432       -35.0872
  15   2.0000      -1.195166       -32.5221
  16   2.0000      -1.049325       -28.5536
  17   2.0000      -0.979849       -26.6630
  18   2.0000      -0.835941       -22.7471
  19   2.0000      -0.791388       -21.5348
  20   2.0000      -0.703604       -19.1460
  21   2.0000      -0.659561       -17.9476
  22   2.0000      -0.644344       -17.5335
  23   2.0000      -0.606849       -16.5132
  24   2.0000      -0.507139       -13.8000
  25   2.0000      -0.487894       -13.2763
  26   2.0000      -0.476307       -12.9610
  27   2.0000      -0.447720       -12.1831
  28   2.0000      -0.423347       -11.5199
  29   2.0000      -0.402429       -10.9507
  30   2.0000      -0.323672        -8.8076
  31   0.0000       0.024858         0.6764
  32   0.0000       0.030635         0.8336
  33   0.0000       0.036182         0.9846
  34   0.0000       0.047911         1.3037
  35   0.0000       0.056241         1.5304

MULLIKEN ATOMIC CHARGES
-----------------------
   0 S :   -0.184842
   1 S :    0.091119
   2 N :   -0.562382
   3 N :   -0.746936
   4 C :    0.405916
   5 C :   -0.447974
   6 H :    0.279622
   7 H :    0.267588
   8 H :    0.363733
   9 H :    0.534156
Sum of atomic charges:    0.0000000

LOEWDIN ATOMIC CHARGES
----------------------
   0 S :    0.738782
   1 S :    0.741665
   2 N :    0.443270
   3 N :    1.172884
   4 C :   -0.710165
   5 C :   -0.470837
   6 H :   -0.534842
   7 H :   -0.509870
   8 H :   -0.417497
   9 H :   -0.453390

  Mayer bond orders larger than 0.100000
B(  0-S ,  1-S ) :   1.0752 B(  0-S ,  4-C ) :   0.8691 B(  1-S ,  5-C ) :   1.0788
B(  2-N ,  4-C ) :   0.7506 B(  2-N ,  5-C ) :   1.8133 B(  3-N ,  4-C ) :   0.8774
B(  3-N ,  6-H ) :   0.8812 B(  3-N ,  7-H ) :   0.9149 B(  4-C ,  5-C ) :  -0.1453
B(  4-C ,  8-H ) :   0.8221 B(  5-C ,  9-H ) :   0.6678

MP2 TOTAL ENERGY:     -983.289122708 Eh
FINAL SINGLE POINT ENERGY      -983.289122707714

DIPOLE MOMENT
-------------
                                X             Y             Z
Electronic contribution:     -5.18283      -2.28252       0.19331
Nuclear contribution   :      5.31883       2.98870      -0.26138
                        -----------------------------------------
Total Dipole Moment    :      0.13600       0.70618      -0.06806
                        -----------------------------------------
Magnitude (a.u.)       :      0.72237
Magnitude (Debye)      :      1.83612

Rotational constants in cm-1:     0.137342     0.075267     0.051825
Rotational constants in MHz :  4117.400030  2256.437220  1553.673367

                             ****ORCA TERMINATED NORMALLY****
TOTAL RUN TIME: 0 days 0 hours 13 minutes 53 seconds 656 msec
