                         Program Version 5.0.4 -  RELEASE  -
|  1> !ri-mp2 aug-cc-pvqz aug-cc-pvqz/c tightscf
|  2> %pal nprocs 16 end
|  3>
|  4> * xyz 0 1
|  5> C      0.000000    1.958176   -0.987741
|  6> H      0.566649    1.430602   -1.755450
|  7> H     -0.650438    2.672727   -1.493685
|  8> H      0.707866    2.520346   -0.377078
|  9> C     -0.827026    0.996208   -0.123763
| 10> H     -1.529824    0.461466   -0.769662
| 11> H     -1.433305    1.572550    0.576719
| 12> C      0.000000   -1.958176   -0.987741
| 13> H     -0.566649   -1.430602   -1.755450
| 14> H      0.650438   -2.672727   -1.493685
| 15> H     -0.707866   -2.520346   -0.377078
| 16> C      0.827026   -0.996208   -0.123763
| 17> H      1.529824   -0.461466   -0.769662
| 18> H      1.433305   -1.572550    0.576719
| 19> C      0.000000    0.000000    0.656119
| 20> C      0.000000    0.000000    1.987937
| 21> H     -0.592649    0.706057    2.556012
| 22> H      0.592649   -0.706057    2.556012
| 23> *
| 24>
| 25>                          ****END OF INPUT****

CARTESIAN COORDINATES (ANGSTROEM)
---------------------------------
  C      0.000000    1.958176   -0.987741
  H      0.566649    1.430602   -1.755450
  H     -0.650438    2.672727   -1.493685
  H      0.707866    2.520346   -0.377078
  C     -0.827026    0.996208   -0.123763
  H     -1.529824    0.461466   -0.769662
  H     -1.433305    1.572550    0.576719
  C      0.000000   -1.958176   -0.987741
  H     -0.566649   -1.430602   -1.755450
  H      0.650438   -2.672727   -1.493685
  H     -0.707866   -2.520346   -0.377078
  C      0.827026   -0.996208   -0.123763
  H      1.529824   -0.461466   -0.769662
  H      1.433305   -1.572550    0.576719
  C      0.000000    0.000000    0.656119
  C      0.000000    0.000000    1.987937
  H     -0.592649    0.706057    2.556012
  H      0.592649   -0.706057    2.556012

 Total Charge           Charge          ....    0
 Multiplicity           Mult            ....    1
 Number of Electrons    NEL             ....   48
 Basis Dimension        Dim             .... 1032

ORBITAL ENERGIES
----------------

  NO   OCC          E(Eh)            E(eV)
   0   2.0000     -11.231374      -305.6212
   1   2.0000     -11.221650      -305.3566
   2   2.0000     -11.221614      -305.3556
   3   2.0000     -11.213390      -305.1318
   4   2.0000     -11.213389      -305.1318
   5   2.0000     -11.205974      -304.9301
   6   2.0000      -1.103247       -30.0209
   7   2.0000      -1.015608       -27.6361
   8   2.0000      -0.978481       -26.6258
   9   2.0000      -0.854250       -23.2453
  10   2.0000      -0.852923       -23.2092
  11   2.0000      -0.710917       -19.3450
  12   2.0000      -0.636488       -17.3197
  13   2.0000      -0.634794       -17.2736
  14   2.0000      -0.580690       -15.8014
  15   2.0000      -0.574875       -15.6431
  16   2.0000      -0.570592       -15.5266
  17   2.0000      -0.520669       -14.1681
  18   2.0000      -0.519380       -14.1330
  19   2.0000      -0.502408       -13.6712
  20   2.0000      -0.491177       -13.3656
  21   2.0000      -0.473029       -12.8718
  22   2.0000      -0.453879       -12.3507
  23   2.0000      -0.346041        -9.4163
  24   0.0000       0.027080         0.7369
  25   0.0000       0.030307         0.8247
  26   0.0000       0.032033         0.8717
  27   0.0000       0.035193         0.9576
  28   0.0000       0.046451         1.2640

MULLIKEN ATOMIC CHARGES
-----------------------
   0 C :   -0.913155
   1 H :    0.218960
   2 H :    0.308816
   3 H :    0.242792
   4 C :   -0.301388
   5 H :    0.261548
   6 H :    0.276268
   7 C :   -0.913151
   8 H :    0.218961
   9 H :    0.308809
  10 H :    0.242791
  11 C :   -0.301393
  12 H :    0.261536
  13 H :    0.276282
  14 C :    0.152520
  15 C :   -0.857041
  16 H :    0.258414
  17 H :    0.258433
Sum of atomic charges:   -0.0000000

LOEWDIN ATOMIC CHARGES
----------------------
   0 C :    0.932674
   1 H :   -0.294897
   2 H :   -0.279395
   3 H :   -0.275507
   4 C :    0.479129
   5 H :   -0.290541
   6 H :   -0.309544
   7 C :    0.932674
   8 H :   -0.294897
   9 H :   -0.279395
  10 H :   -0.275507
  11 C :    0.479129
  12 H :   -0.290541
  13 H :   -0.309544
  14 C :   -0.043783
  15 C :    0.813504
  16 H :   -0.346779
  17 H :   -0.346779

  Mayer bond orders larger than 0.100000
B(  0-C ,  1-H ) :   0.9559 B(  0-C ,  2-H ) :   0.9364 B(  0-C ,  3-H ) :   0.9593
B(  0-C ,  4-C ) :   1.0217 B(  4-C ,  5-H ) :   0.9094 B(  4-C ,  6-H ) :   0.9150
B(  4-C , 14-C ) :   0.6891 B(  4-C , 15-C ) :  -0.1006 B(  7-C ,  8-H ) :   0.9559
B(  7-C ,  9-H ) :   0.9364 B(  7-C , 10-H ) :   0.9593 B(  7-C , 11-C ) :   1.0217
B( 11-C , 12-H ) :   0.9094 B( 11-C , 13-H ) :   0.9150 B( 11-C , 14-C ) :   0.6891
B( 11-C , 15-C ) :  -0.1006 B( 14-C , 15-C ) :   1.5293 B( 14-C , 16-H ) :  -0.1136
B( 14-C , 17-H ) :  -0.1136 B( 15-C , 16-H ) :   1.0763 B( 15-C , 17-H ) :   1.0763

MP2 TOTAL ENERGY:     -235.382036851 Eh
FINAL SINGLE POINT ENERGY      -235.382036850910

DIPOLE MOMENT
-------------
                                X             Y             Z
Electronic contribution:     -0.00000       0.00000       2.47896
Nuclear contribution   :     -0.00000      -0.00000      -2.70595
                        -----------------------------------------
Total Dipole Moment    :     -0.00000       0.00000      -0.22700
                        -----------------------------------------
Magnitude (a.u.)       :      0.22700
Magnitude (Debye)      :      0.57698

Rotational constants in cm-1:     0.133636     0.092516     0.064622
Rotational constants in MHz :  4006.299206  2773.566217  1937.320365

                             ****ORCA TERMINATED NORMALLY****
TOTAL RUN TIME: 0 days 0 hours 50 minutes 27 seconds 926 msec
