                         Program Version 5.0.4 -  RELEASE  -
|  1> !ri-mp2 aug-cc-pvqz aug-cc-pvqz/c tightscf
|  2> %pal nprocs 16 end
|  3>
|  4> * xyz 0 1
|  5> S      0.262272   -1.270575    0.351509
|  6> S      1.911534   -0.165680   -0.415891
|  7> O     -2.958453   -0.023467   -0.342226
|  8> N     -1.819104    0.125111   -0.669138
|  9> C     -0.854816    0.161427    0.535168
| 10> C     -0.048735    1.415196    0.494290
| 11> C      1.197951    1.369932    0.028995
| 12> H     -1.455073    0.027442    1.436830
| 13> H     -0.518659    2.347856    0.774850
| 14> H      1.827781    2.237414   -0.110510
| 15> *
| 16>
| 17>                          ****END OF INPUT****

CARTESIAN COORDINATES (ANGSTROEM)
---------------------------------
  S      0.262272   -1.270575    0.351509
  S      1.911534   -0.165680   -0.415891
  O     -2.958453   -0.023467   -0.342226
  N     -1.819104    0.125111   -0.669138
  C     -0.854816    0.161427    0.535168
  C     -0.048735    1.415196    0.494290
  C      1.197951    1.369932    0.028995
  H     -1.455073    0.027442    1.436830
  H     -0.518659    2.347856    0.774850
  H      1.827781    2.237414   -0.110510

 Total Charge           Charge          ....    0
 Multiplicity           Mult            ....    1
 Number of Electrons    NEL             ....   68
 Basis Dimension        Dim             ....  706

ORBITAL ENERGIES
----------------

  NO   OCC          E(Eh)            E(eV)
   0   2.0000     -92.003895     -2503.5532
   1   2.0000     -92.000217     -2503.4532
   2   2.0000     -20.643464      -561.7372
   3   2.0000     -15.714206      -427.6053
   4   2.0000     -11.328435      -308.2624
   5   2.0000     -11.301127      -307.5193
   6   2.0000     -11.267632      -306.6079
   7   2.0000      -9.003863      -245.0076
   8   2.0000      -9.000128      -244.9059
   9   2.0000      -6.685061      -181.9098
  10   2.0000      -6.684125      -181.8843
  11   2.0000      -6.682899      -181.8509
  12   2.0000      -6.681188      -181.8044
  13   2.0000      -6.680288      -181.7799
  14   2.0000      -6.679079      -181.7470
  15   2.0000      -1.538128       -41.8546
  16   2.0000      -1.178375       -32.0652
  17   2.0000      -1.063497       -28.9392
  18   2.0000      -1.011417       -27.5220
  19   2.0000      -0.928610       -25.2688
  20   2.0000      -0.823306       -22.4033
  21   2.0000      -0.782261       -21.2864
  22   2.0000      -0.709108       -19.2958
  23   2.0000      -0.699735       -19.0408
  24   2.0000      -0.672712       -18.3054
  25   2.0000      -0.618064       -16.8184
  26   2.0000      -0.579126       -15.7588
  27   2.0000      -0.531757       -14.4699
  28   2.0000      -0.513715       -13.9789
  29   2.0000      -0.494203       -13.4480
  30   2.0000      -0.469588       -12.7781
  31   2.0000      -0.415619       -11.3096
  32   2.0000      -0.403663       -10.9842
  33   2.0000      -0.324004        -8.8166
  34   0.0000       0.022249         0.6054
  35   0.0000       0.029668         0.8073
  36   0.0000       0.037206         1.0124
  37   0.0000       0.051125         1.3912
  38   0.0000       0.053269         1.4495

MULLIKEN ATOMIC CHARGES
-----------------------
   0 S :   -0.095690
   1 S :    0.061279
   2 O :   -0.453393
   3 N :    0.091044
   4 C :    0.168745
   5 C :   -0.445785
   6 C :   -0.514435
   7 H :    0.324231
   8 H :    0.459623
   9 H :    0.404381
Sum of atomic charges:    0.0000000

LOEWDIN ATOMIC CHARGES
----------------------
   0 S :    0.806689
   1 S :    0.820147
   2 O :    0.413986
   3 N :   -0.068319
   4 C :   -0.655246
   5 C :    0.103529
   6 C :   -0.208090
   7 H :   -0.456118
   8 H :   -0.336682
   9 H :   -0.419896

  Mayer bond orders larger than 0.100000
B(  0-S ,  1-S ) :   1.0509 B(  0-S ,  4-C ) :   0.8602 B(  1-S ,  6-C ) :   0.9700
B(  2-O ,  3-N ) :   1.6966 B(  3-N ,  4-C ) :   0.7392 B(  4-C ,  5-C ) :   0.8463
B(  4-C ,  6-C ) :  -0.1378 B(  4-C ,  7-H ) :   0.8625 B(  5-C ,  6-C ) :   1.7457
B(  5-C ,  8-H ) :   0.7890 B(  6-C ,  9-H ) :   0.8356

MP2 TOTAL ENERGY:    -1041.095629544 Eh
FINAL SINGLE POINT ENERGY     -1041.095629543522

DIPOLE MOMENT
-------------
                                X             Y             Z
Electronic contribution:      0.83389      -3.65503      -1.42798
Nuclear contribution   :     -0.25923       4.46597       2.00777
                        -----------------------------------------
Total Dipole Moment    :      0.57466       0.81093       0.57979
                        -----------------------------------------
Magnitude (a.u.)       :      1.15065
Magnitude (Debye)      :      2.92473

Rotational constants in cm-1:     0.123173     0.046280     0.037644
Rotational constants in MHz :  3692.639098  1387.444626  1128.535136

                             ****ORCA TERMINATED NORMALLY****
TOTAL RUN TIME: 0 days 0 hours 16 minutes 11 seconds 978 msec
