                         Program Version 5.0.4 -  RELEASE  -
|  1> !ri-mp2 aug-cc-pvqz aug-cc-pvqz/c tightscf
|  2> %pal nprocs 16 end
|  3>
|  4> * xyz 0 1
|  5> O      2.465982    0.020631   -0.000235
|  6> N     -2.444823   -0.094872   -0.000289
|  7> C      0.032526   -0.028629    0.000643
|  8> C      1.301270   -0.000338   -0.000035
|  9> C     -1.244363    0.008532    0.000055
| 10> H     -3.150699    0.621669   -0.000074
| 11> *
| 12>
| 13>                          ****END OF INPUT****

CARTESIAN COORDINATES (ANGSTROEM)
---------------------------------
  O      2.465982    0.020631   -0.000235
  N     -2.444823   -0.094872   -0.000289
  C      0.032526   -0.028629    0.000643
  C      1.301270   -0.000338   -0.000035
  C     -1.244363    0.008532    0.000055
  H     -3.150699    0.621669   -0.000074

 Total Charge           Charge          ....    0
 Multiplicity           Mult            ....    1
 Number of Electrons    NEL             ....   34
 Basis Dimension        Dim             ....  446

ORBITAL ENERGIES
----------------

  NO   OCC          E(Eh)            E(eV)
   0   2.0000     -20.626156      -561.2662
   1   2.0000     -15.606138      -424.6646
   2   2.0000     -11.404155      -310.3228
   3   2.0000     -11.385228      -309.8078
   4   2.0000     -11.236645      -305.7646
   5   2.0000      -1.473266       -40.0896
   6   2.0000      -1.281846       -34.8808
   7   2.0000      -1.086441       -29.5635
   8   2.0000      -0.920948       -25.0603
   9   2.0000      -0.798575       -21.7303
  10   2.0000      -0.733587       -19.9619
  11   2.0000      -0.643616       -17.5137
  12   2.0000      -0.636688       -17.3252
  13   2.0000      -0.573633       -15.6093
  14   2.0000      -0.562450       -15.3051
  15   2.0000      -0.385323       -10.4852
  16   2.0000      -0.368231       -10.0201
  17   0.0000       0.018945         0.5155
  18   0.0000       0.048398         1.3170
  19   0.0000       0.053791         1.4637
  20   0.0000       0.055957         1.5227
  21   0.0000       0.061013         1.6602

MULLIKEN ATOMIC CHARGES
-----------------------
   0 O :   -0.734127
   1 N :   -0.816061
   2 C :   -0.847439
   3 C :    1.208027
   4 C :    0.817042
   5 H :    0.372559
Sum of atomic charges:   -0.0000000

LOEWDIN ATOMIC CHARGES
----------------------
   0 O :    0.593835
   1 N :    0.912477
   2 C :   -0.015170
   3 C :   -0.602520
   4 C :   -0.226153
   5 H :   -0.662469

  Mayer bond orders larger than 0.100000
B(  0-O ,  2-C ) :   0.4469 B(  0-O ,  3-C ) :   1.2925 B(  1-N ,  4-C ) :   1.9718
B(  1-N ,  5-H ) :   0.7973 B(  2-C ,  3-C ) :   2.1480 B(  2-C ,  4-C ) :   1.6650

MP2 TOTAL ENERGY:     -244.461980530 Eh
FINAL SINGLE POINT ENERGY      -244.461980529975

DIPOLE MOMENT
-------------
                                X             Y             Z
Electronic contribution:      1.92393      -0.05672      -0.00014
Nuclear contribution   :     -2.97732       0.59185      -0.00008
                        -----------------------------------------
Total Dipole Moment    :     -1.05339       0.53513      -0.00022
                        -----------------------------------------
Magnitude (a.u.)       :      1.18152
Magnitude (Debye)      :      3.00318

Rotational constants in cm-1:    33.021321     0.073345     0.073182
Rotational constants in MHz : 989954.284571  2198.815614  2193.942721

                             ****ORCA TERMINATED NORMALLY****
TOTAL RUN TIME: 0 days 0 hours 3 minutes 28 seconds 201 msec
