                         Program Version 5.0.4 -  RELEASE  -
|  1> !ri-mp2 aug-cc-pvqz aug-cc-pvqz/c tightscf
|  2> %pal nprocs 16 end
|  3>
|  4> * xyz 0 1
|  5> C     -0.901148    1.795527    0.122367
|  6> C      0.418569    1.454846   -0.142196
|  7> C     -1.883647    0.815844    0.200910
|  8> C     -0.208669   -0.860797   -0.256980
|  9> C      0.778487    0.118510   -0.333408
| 10> C     -1.530238   -0.516572    0.009051
| 11> C      2.984093   -0.577570    0.712281
| 12> C      2.217039   -0.266854   -0.580918
| 13> O     -2.444462   -1.534667    0.066317
| 14> H     -1.173015    2.832920    0.265293
| 15> H      1.172655    2.228454   -0.206139
| 16> H     -2.913718    1.083750    0.403866
| 17> H      0.034043   -1.904816   -0.407043
| 18> H      2.994645    0.286561    1.377704
| 19> H      4.017795   -0.850368    0.494569
| 20> H      2.521714   -1.405294    1.251253
| 21> H      2.251433   -1.139150   -1.236927
| 22> H      2.720909    0.543479   -1.111640
| 23> H     -3.317676   -1.175798    0.251885
| 24> *
| 25>
| 26>                          ****END OF INPUT****

CARTESIAN COORDINATES (ANGSTROEM)
---------------------------------
  C     -0.901148    1.795527    0.122367
  C      0.418569    1.454846   -0.142196
  C     -1.883647    0.815844    0.200910
  C     -0.208669   -0.860797   -0.256980
  C      0.778487    0.118510   -0.333408
  C     -1.530238   -0.516572    0.009051
  C      2.984093   -0.577570    0.712281
  C      2.217039   -0.266854   -0.580918
  O     -2.444462   -1.534667    0.066317
  H     -1.173015    2.832920    0.265293
  H      1.172655    2.228454   -0.206139
  H     -2.913718    1.083750    0.403866
  H      0.034043   -1.904816   -0.407043
  H      2.994645    0.286561    1.377704
  H      4.017795   -0.850368    0.494569
  H      2.521714   -1.405294    1.251253
  H      2.251433   -1.139150   -1.236927
  H      2.720909    0.543479   -1.111640
  H     -3.317676   -1.175798    0.251885

 Total Charge           Charge          ....    0
 Multiplicity           Mult            ....    1
 Number of Electrons    NEL             ....   66
 Basis Dimension        Dim             .... 1180

ORBITAL ENERGIES
----------------

  NO   OCC          E(Eh)            E(eV)
   0   2.0000     -20.586515      -560.1876
   1   2.0000     -11.299867      -307.4850
   2   2.0000     -11.241783      -305.9045
   3   2.0000     -11.238169      -305.8061
   4   2.0000     -11.226959      -305.5011
   5   2.0000     -11.226755      -305.4955
   6   2.0000     -11.219877      -305.3084
   7   2.0000     -11.219094      -305.2871
   8   2.0000     -11.214913      -305.1733
   9   2.0000      -1.402362       -38.1602
  10   2.0000      -1.152275       -31.3550
  11   2.0000      -1.062327       -28.9074
  12   2.0000      -1.007886       -27.4260
  13   2.0000      -0.982888       -26.7457
  14   2.0000      -0.871694       -23.7200
  15   2.0000      -0.824857       -22.4455
  16   2.0000      -0.809754       -22.0345
  17   2.0000      -0.711027       -19.3480
  18   2.0000      -0.682846       -18.5812
  19   2.0000      -0.658342       -17.9144
  20   2.0000      -0.619439       -16.8558
  21   2.0000      -0.598462       -16.2850
  22   2.0000      -0.587926       -15.9983
  23   2.0000      -0.584510       -15.9053
  24   2.0000      -0.562529       -15.3072
  25   2.0000      -0.547021       -14.8852
  26   2.0000      -0.521630       -14.1943
  27   2.0000      -0.507921       -13.8212
  28   2.0000      -0.485935       -13.2230
  29   2.0000      -0.474763       -12.9190
  30   2.0000      -0.470196       -12.7947
  31   2.0000      -0.333419        -9.0728
  32   2.0000      -0.312741        -8.5101
  33   0.0000       0.023364         0.6358
  34   0.0000       0.027680         0.7532
  35   0.0000       0.030798         0.8381
  36   0.0000       0.038366         1.0440
  37   0.0000       0.041095         1.1183

MULLIKEN ATOMIC CHARGES
-----------------------
   0 C :   -0.322519
   1 C :   -0.555326
   2 C :   -0.554325
   3 C :   -0.872773
   4 C :    0.420719
   5 C :    1.292194
   6 C :   -0.892666
   7 C :   -0.279025
   8 O :   -0.854018
   9 H :    0.198688
  10 H :    0.255410
  11 H :    0.245507
  12 H :    0.318461
  13 H :    0.244572
  14 H :    0.328849
  15 H :    0.241100
  16 H :    0.216030
  17 H :    0.198670
  18 H :    0.370454
Sum of atomic charges:   -0.0000000

LOEWDIN ATOMIC CHARGES
----------------------
   0 C :    0.339102
   1 C :    0.344673
   2 C :    0.331470
   3 C :    0.330847
   4 C :   -0.090092
   5 C :   -0.425602
   6 C :    0.934059
   7 C :    0.488681
   8 O :    1.273653
   9 H :   -0.320145
  10 H :   -0.322304
  11 H :   -0.328674
  12 H :   -0.320416
  13 H :   -0.282321
  14 H :   -0.280889
  15 H :   -0.283071
  16 H :   -0.289372
  17 H :   -0.291794
  18 H :   -0.807805

  Mayer bond orders larger than 0.100000
B(  0-C ,  1-C ) :   1.3540 B(  0-C ,  2-C ) :   1.1451 B(  0-C ,  4-C ) :  -0.3070
B(  0-C ,  5-C ) :  -0.1799 B(  0-C ,  9-H ) :   1.1880 B(  1-C ,  4-C ) :   0.9939
B(  1-C ,  7-C ) :  -0.1701 B(  1-C ,  9-H ) :  -0.1300 B(  1-C , 10-H ) :   1.0043
B(  2-C ,  5-C ) :   1.2635 B(  2-C ,  8-O ) :   0.2127 B(  2-C ,  9-H ) :  -0.1549
B(  2-C , 11-H ) :   1.0281 B(  3-C ,  4-C ) :   1.0716 B(  3-C ,  5-C ) :   1.5109
B(  3-C ,  7-C ) :  -0.2037 B(  3-C ,  8-O ) :   0.4043 B(  3-C , 12-H ) :   0.9212
B(  4-C ,  5-C ) :  -0.4591 B(  4-C ,  7-C ) :   0.8270 B(  5-C ,  8-O ) :  -0.1892
B(  5-C , 18-H ) :  -0.1224 B(  6-C ,  7-C ) :   0.9794 B(  6-C , 13-H ) :   0.9389
B(  6-C , 14-H ) :   0.9329 B(  6-C , 15-H ) :   0.9414 B(  7-C , 16-H ) :   0.9713
B(  7-C , 17-H ) :   0.9912 B(  8-O , 18-H ) :   0.8945

MP2 TOTAL ENERGY:     -385.440507926 Eh
FINAL SINGLE POINT ENERGY      -385.440507926433

DIPOLE MOMENT
-------------
                                X             Y             Z
Electronic contribution:     -8.52353      -0.10282      -1.01233
Nuclear contribution   :      8.39114       0.48250       1.09971
                        -----------------------------------------
Total Dipole Moment    :     -0.13239       0.37968       0.08738
                        -----------------------------------------
Magnitude (a.u.)       :      0.41148
Magnitude (Debye)      :      1.04591

Rotational constants in cm-1:     0.098708     0.038433     0.029634
Rotational constants in MHz :  2959.205798  1152.178123   888.411332

                             ****ORCA TERMINATED NORMALLY****
TOTAL RUN TIME: 0 days 1 hours 21 minutes 1 seconds 673 msec
