                         Program Version 5.0.4 -  RELEASE  -
|  1> !ri-mp2 aug-cc-pvqz aug-cc-pvqz/c tightscf
|  2> %pal nprocs 16 end
|  3> %maxcore 3800
|  4>
|  5> * xyz 0 1
|  6> C     -3.327207   -0.419023    0.041928
|  7> C      3.090721   -0.451140   -0.274255
|  8> C     -0.788431   -0.412239    0.253951
|  9> C      0.571113    0.141230   -0.203853
| 10> C      1.708576   -0.763650    0.299514
| 11> C     -2.017419    0.251736   -0.371051
| 12> H      3.827406   -1.178545    0.069812
| 13> H     -4.188029    0.070172   -0.416159
| 14> H     -3.463898   -0.383764    1.124825
| 15> H     -3.344052   -1.469173   -0.256997
| 16> H      3.079369   -0.485016   -1.366025
| 17> H      3.447082    0.535638    0.022419
| 18> H     -1.923476    0.224375   -1.461206
| 19> H     -2.055863    1.307823   -0.095365
| 20> H      1.456099   -1.799914    0.057534
| 21> H      1.746302   -0.710073    1.392821
| 22> H     -0.853981   -0.337240    1.345824
| 23> H     -0.821582   -1.482078    0.023681
| 24> H      0.587534    0.107539   -1.300667
| 25> C      0.769883    1.598721    0.226172
| 26> H     -0.014695    2.245965   -0.165115
| 27> H      1.720804    1.997706   -0.126289
| 28> H      0.757558    1.682770    1.316470
| 29> *
| 30>
| 31>                          ****END OF INPUT****

CARTESIAN COORDINATES (ANGSTROEM)
---------------------------------
  C     -3.327207   -0.419023    0.041928
  C      3.090721   -0.451140   -0.274255
  C     -0.788431   -0.412239    0.253951
  C      0.571113    0.141230   -0.203853
  C      1.708576   -0.763650    0.299514
  C     -2.017419    0.251736   -0.371051
  H      3.827406   -1.178545    0.069812
  H     -4.188029    0.070172   -0.416159
  H     -3.463898   -0.383764    1.124825
  H     -3.344052   -1.469173   -0.256997
  H      3.079369   -0.485016   -1.366025
  H      3.447082    0.535638    0.022419
  H     -1.923476    0.224375   -1.461206
  H     -2.055863    1.307823   -0.095365
  H      1.456099   -1.799914    0.057534
  H      1.746302   -0.710073    1.392821
  H     -0.853981   -0.337240    1.345824
  H     -0.821582   -1.482078    0.023681
  H      0.587534    0.107539   -1.300667
  C      0.769883    1.598721    0.226172
  H     -0.014695    2.245965   -0.165115
  H      1.720804    1.997706   -0.126289
  H      0.757558    1.682770    1.316470

 Total Charge           Charge          ....    0
 Multiplicity           Mult            ....    1
 Number of Electrons    NEL             ....   58
 Basis Dimension        Dim             .... 1296

ORBITAL ENERGIES
----------------

  NO   OCC          E(Eh)            E(eV)
   0   2.0000     -11.218598      -305.2736
   1   2.0000     -11.212787      -305.1155
   2   2.0000     -11.211938      -305.0923
   3   2.0000     -11.209638      -305.0297
   4   2.0000     -11.207439      -304.9699
   5   2.0000     -11.207017      -304.9584
   6   2.0000     -11.204742      -304.8965
   7   2.0000      -1.096970       -29.8501
   8   2.0000      -1.037741       -28.2384
   9   2.0000      -0.978895       -26.6371
  10   2.0000      -0.920211       -25.0402
  11   2.0000      -0.861821       -23.4513
  12   2.0000      -0.795780       -21.6543
  13   2.0000      -0.758393       -20.6369
  14   2.0000      -0.641877       -17.4664
  15   2.0000      -0.617801       -16.8112
  16   2.0000      -0.605448       -16.4751
  17   2.0000      -0.583369       -15.8743
  18   2.0000      -0.563085       -15.3223
  19   2.0000      -0.538874       -14.6635
  20   2.0000      -0.533765       -14.5245
  21   2.0000      -0.517165       -14.0728
  22   2.0000      -0.509572       -13.8662
  23   2.0000      -0.494450       -13.4547
  24   2.0000      -0.476564       -12.9680
  25   2.0000      -0.465846       -12.6763
  26   2.0000      -0.451972       -12.2988
  27   2.0000      -0.443686       -12.0733
  28   2.0000      -0.431718       -11.7476
  29   0.0000       0.026532         0.7220
  30   0.0000       0.028495         0.7754
  31   0.0000       0.031430         0.8553
  32   0.0000       0.032869         0.8944
  33   0.0000       0.043034         1.1710

MULLIKEN ATOMIC CHARGES
-----------------------
   0 C :   -0.882297
   1 C :   -0.879021
   2 C :   -0.291985
   3 C :    0.486002
   4 C :   -0.600781
   5 C :   -0.446392
   6 H :    0.273574
   7 H :    0.256030
   8 H :    0.222022
   9 H :    0.211245
  10 H :    0.190575
  11 H :    0.223749
  12 H :    0.201458
  13 H :    0.248600
  14 H :    0.227177
  15 H :    0.206317
  16 H :    0.165548
  17 H :    0.277606
  18 H :    0.215001
  19 C :   -1.076041
  20 H :    0.291562
  21 H :    0.286744
  22 H :    0.193309
Sum of atomic charges:    0.0000000

LOEWDIN ATOMIC CHARGES
----------------------
   0 C :    0.931977
   1 C :    0.936211
   2 C :    0.509777
   3 C :    0.124448
   4 C :    0.510780
   5 C :    0.517266
   6 H :   -0.280176
   7 H :   -0.283468
   8 H :   -0.282963
   9 H :   -0.285084
  10 H :   -0.276895
  11 H :   -0.297210
  12 H :   -0.265996
  13 H :   -0.288615
  14 H :   -0.280247
  15 H :   -0.265943
  16 H :   -0.261288
  17 H :   -0.278792
  18 H :   -0.272729
  19 C :    0.932191
  20 H :   -0.288797
  21 H :   -0.290150
  22 H :   -0.264297

  Mayer bond orders larger than 0.100000
B(  0-C ,  2-C ) :  -0.1200 B(  0-C ,  5-C ) :   0.9722 B(  0-C ,  7-H ) :   1.0414
B(  0-C ,  8-H ) :   0.9584 B(  0-C ,  9-H ) :   0.9884 B(  1-C ,  3-C ) :  -0.1167
B(  1-C ,  4-C ) :   0.9446 B(  1-C ,  6-H ) :   1.0161 B(  1-C , 10-H ) :   0.9875
B(  1-C , 11-H ) :   0.9737 B(  2-C ,  3-C ) :   0.8123 B(  2-C ,  5-C ) :   0.8329
B(  2-C , 16-H ) :   0.9336 B(  2-C , 17-H ) :   0.8642 B(  3-C ,  4-C ) :   0.6742
B(  3-C , 18-H ) :   0.9355 B(  3-C , 19-C ) :   0.5000 B(  4-C ,  6-H ) :  -0.1168
B(  4-C , 14-H ) :   0.9358 B(  4-C , 15-H ) :   0.9398 B(  4-C , 19-C ) :   0.1350
B(  5-C ,  7-H ) :  -0.1207 B(  5-C , 12-H ) :   0.9091 B(  5-C , 13-H ) :   0.8614
B( 19-C , 20-H ) :   0.9942 B( 19-C , 21-H ) :   1.0282 B( 19-C , 22-H ) :   1.0180

MP2 TOTAL ENERGY:     -275.841976601 Eh
FINAL SINGLE POINT ENERGY      -275.841976600672

DIPOLE MOMENT
-------------
                                X             Y             Z
Electronic contribution:      0.04675      -0.35877      -0.20914
Nuclear contribution   :     -0.04720       0.35458       0.17998
                        -----------------------------------------
Total Dipole Moment    :     -0.00045      -0.00419      -0.02916
                        -----------------------------------------
Magnitude (a.u.)       :      0.02947
Magnitude (Debye)      :      0.07490

Rotational constants in cm-1:     0.192026     0.036298     0.032706
Rotational constants in MHz :  5756.784556  1088.195350   980.493118

                             ****ORCA TERMINATED NORMALLY****
TOTAL RUN TIME: 0 days 1 hours 28 minutes 59 seconds 436 msec
