                         Program Version 5.0.4 -  RELEASE  -
|  1> !ri-mp2 aug-cc-pvqz aug-cc-pvqz/c tightscf
|  2> %pal nprocs 16 end
|  3>
|  4> * xyz 0 1
|  5> H     -0.288253    2.211377    0.113712
|  6> C      0.103075    1.202002    0.097091
|  7> H      2.155830    1.583915   -0.380964
|  8> C      1.366429    0.878250   -0.158285
|  9> H      2.158926   -0.837607    0.868606
| 10> H      2.190120   -1.009750   -0.873105
| 11> C      1.601620   -0.607266   -0.046137
| 12> H      0.072016   -2.042382    0.656132
| 13> H     -0.122787   -1.505070   -1.005335
| 14> C      0.165989   -1.180038   -0.003279
| 15> H     -0.908864   -0.034062    1.507559
| 16> C     -0.750290   -0.003256    0.421562
| 17> H     -2.727516    0.841153    0.071891
| 18> H     -2.677022   -0.918993   -0.000210
| 19> H     -2.025849    0.037111   -1.334613
| 20> C     -2.124590   -0.010641   -0.248232
| 21> *
| 22>
| 23>                          ****END OF INPUT****

CARTESIAN COORDINATES (ANGSTROEM)
---------------------------------
  H     -0.288253    2.211377    0.113712
  C      0.103075    1.202002    0.097091
  H      2.155830    1.583915   -0.380964
  C      1.366429    0.878250   -0.158285
  H      2.158926   -0.837607    0.868606
  H      2.190120   -1.009750   -0.873105
  C      1.601620   -0.607266   -0.046137
  H      0.072016   -2.042382    0.656132
  H     -0.122787   -1.505070   -1.005335
  C      0.165989   -1.180038   -0.003279
  H     -0.908864   -0.034062    1.507559
  C     -0.750290   -0.003256    0.421562
  H     -2.727516    0.841153    0.071891
  H     -2.677022   -0.918993   -0.000210
  H     -2.025849    0.037111   -1.334613
  C     -2.124590   -0.010641   -0.248232

 Total Charge           Charge          ....    0
 Multiplicity           Mult            ....    1
 Number of Electrons    NEL             ....   46
 Basis Dimension        Dim             ....  940

ORBITAL ENERGIES
----------------

  NO   OCC          E(Eh)            E(eV)
   0   2.0000     -11.224843      -305.4435
   1   2.0000     -11.218895      -305.2817
   2   2.0000     -11.217787      -305.2515
   3   2.0000     -11.214829      -305.1710
   4   2.0000     -11.214533      -305.1630
   5   2.0000     -11.209591      -305.0285
   6   2.0000      -1.133234       -30.8369
   7   2.0000      -1.006694       -27.3935
   8   2.0000      -0.961041       -26.1513
   9   2.0000      -0.882849       -24.0236
  10   2.0000      -0.773180       -21.0393
  11   2.0000      -0.720254       -19.5991
  12   2.0000      -0.667379       -18.1603
  13   2.0000      -0.629847       -17.1390
  14   2.0000      -0.574195       -15.6246
  15   2.0000      -0.565252       -15.3813
  16   2.0000      -0.520642       -14.1674
  17   2.0000      -0.512915       -13.9571
  18   2.0000      -0.484020       -13.1708
  19   2.0000      -0.481430       -13.1004
  20   2.0000      -0.468361       -12.7447
  21   2.0000      -0.453650       -12.3445
  22   2.0000      -0.340574        -9.2675
  23   0.0000       0.027405         0.7457
  24   0.0000       0.031502         0.8572
  25   0.0000       0.033323         0.9068
  26   0.0000       0.035571         0.9679
  27   0.0000       0.045531         1.2390

MULLIKEN ATOMIC CHARGES
-----------------------
   0 H :    0.374236
   1 C :   -0.619518
   2 H :    0.389479
   3 C :   -0.448873
   4 H :    0.218440
   5 H :    0.261246
   6 C :   -0.516684
   7 H :    0.284532
   8 H :    0.207180
   9 C :   -0.492852
  10 H :    0.311056
  11 C :    0.224268
  12 H :    0.247994
  13 H :    0.240005
  14 H :    0.214518
  15 C :   -0.895027
Sum of atomic charges:   -0.0000000

LOEWDIN ATOMIC CHARGES
----------------------
   0 H :   -0.298093
   1 C :    0.388518
   2 H :   -0.304213
   3 C :    0.402739
   4 H :   -0.272604
   5 H :   -0.275438
   6 C :    0.503296
   7 H :   -0.254160
   8 H :   -0.281499
   9 C :    0.505916
  10 H :   -0.271226
  11 C :    0.074490
  12 H :   -0.281084
  13 H :   -0.276629
  14 H :   -0.283748
  15 C :    0.923734

  Mayer bond orders larger than 0.100000
B(  0-H ,  1-C ) :   0.9431 B(  1-C ,  3-C ) :   1.6513 B(  1-C , 11-C ) :   0.7198
B(  2-H ,  3-C ) :   0.9083 B(  3-C ,  6-C ) :   0.9213 B(  3-C , 11-C ) :  -0.2050
B(  4-H ,  6-C ) :   0.9356 B(  5-H ,  6-C ) :   0.9693 B(  6-C ,  9-C ) :   1.0138
B(  7-H ,  9-C ) :   0.9250 B(  8-H ,  9-C ) :   0.9187 B(  9-C , 11-C ) :   0.8145
B( 10-H , 11-C ) :   0.7884 B( 11-C , 15-C ) :   0.8852 B( 12-H , 15-C ) :   1.0250
B( 13-H , 15-C ) :   0.9964 B( 14-H , 15-C ) :   0.9546

MP2 TOTAL ENERGY:     -234.185348887 Eh
FINAL SINGLE POINT ENERGY      -234.185348886654

DIPOLE MOMENT
-------------
                                X             Y             Z
Electronic contribution:      2.28165       1.68216       0.46201
Nuclear contribution   :     -2.28572      -1.76084      -0.39577
                        -----------------------------------------
Total Dipole Moment    :     -0.00407      -0.07868       0.06623
                        -----------------------------------------
Magnitude (a.u.)       :      0.10292
Magnitude (Debye)      :      0.26161

Rotational constants in cm-1:     0.223222     0.105897     0.078914
Rotational constants in MHz :  6692.015874  3174.726812  2365.785255

                             ****ORCA TERMINATED NORMALLY****
TOTAL RUN TIME: 0 days 0 hours 30 minutes 41 seconds 897 msec
