                         Program Version 5.0.4 -  RELEASE  -
|  1> !ri-mp2 aug-cc-pvqz aug-cc-pvqz/c tightscf
|  2> %pal nprocs 16 end
|  3> %maxcore 3800
|  4>
|  5> * xyz 0 1
|  6> C      0.771928    0.031892    0.002176
|  7> N      1.373089   -1.135533   -0.268058
|  8> C      1.517491    1.185214    0.283493
|  9> C      2.888656    1.088544    0.253045
| 10> C      3.435576   -0.156370   -0.042961
| 11> N      2.692576   -1.231573   -0.286051
| 12> C     -0.709720    0.022857   -0.000158
| 13> C     -1.402884   -1.169419    0.234804
| 14> C     -2.789799   -1.189168    0.240834
| 15> C     -3.510661   -0.022683    0.006144
| 16> C     -2.832600    1.165699   -0.237604
| 17> C     -1.444071    1.188439   -0.239574
| 18> H      4.505517   -0.314225   -0.081356
| 19> H      3.523963    1.938063    0.462583
| 20> H      1.028770    2.114805    0.536243
| 21> H     -3.383886    2.075335   -0.434047
| 22> H     -4.592120   -0.040627    0.009324
| 23> H     -3.310530   -2.118188    0.430151
| 24> H     -0.839342   -2.073585    0.409647
| 25> H     -0.935526    2.118137   -0.454969
| 26> *
| 27>
| 28>                          ****END OF INPUT****

CARTESIAN COORDINATES (ANGSTROEM)
---------------------------------
  C      0.771928    0.031892    0.002176
  N      1.373089   -1.135533   -0.268058
  C      1.517491    1.185214    0.283493
  C      2.888656    1.088544    0.253045
  C      3.435576   -0.156370   -0.042961
  N      2.692576   -1.231573   -0.286051
  C     -0.709720    0.022857   -0.000158
  C     -1.402884   -1.169419    0.234804
  C     -2.789799   -1.189168    0.240834
  C     -3.510661   -0.022683    0.006144
  C     -2.832600    1.165699   -0.237604
  C     -1.444071    1.188439   -0.239574
  H      4.505517   -0.314225   -0.081356
  H      3.523963    1.938063    0.462583
  H      1.028770    2.114805    0.536243
  H     -3.383886    2.075335   -0.434047
  H     -4.592120   -0.040627    0.009324
  H     -3.310530   -2.118188    0.430151
  H     -0.839342   -2.073585    0.409647
  H     -0.935526    2.118137   -0.454969

 Total Charge           Charge          ....    0
 Multiplicity           Mult            ....    1
 Number of Electrons    NEL             ....   82
 Basis Dimension        Dim             .... 1328

ORBITAL ENERGIES
----------------

  NO   OCC          E(Eh)            E(eV)
   0   2.0000     -15.608859      -424.7386
   1   2.0000     -15.603820      -424.6015
   2   2.0000     -11.292477      -307.2839
   3   2.0000     -11.278281      -306.8976
   4   2.0000     -11.267923      -306.6158
   5   2.0000     -11.265744      -306.5565
   6   2.0000     -11.251094      -306.1578
   7   2.0000     -11.243764      -305.9584
   8   2.0000     -11.240311      -305.8644
   9   2.0000     -11.238928      -305.8268
  10   2.0000     -11.236999      -305.7743
  11   2.0000     -11.235627      -305.7369
  12   2.0000      -1.347847       -36.6768
  13   2.0000      -1.171541       -31.8793
  14   2.0000      -1.120209       -30.4824
  15   2.0000      -1.112609       -30.2756
  16   2.0000      -1.023808       -27.8592
  17   2.0000      -1.020679       -27.7741
  18   2.0000      -0.904852       -24.6223
  19   2.0000      -0.896098       -24.3841
  20   2.0000      -0.829333       -22.5673
  21   2.0000      -0.817945       -22.2574
  22   2.0000      -0.735251       -20.0072
  23   2.0000      -0.705193       -19.1893
  24   2.0000      -0.697256       -18.9733
  25   2.0000      -0.667385       -18.1605
  26   2.0000      -0.628871       -17.1124
  27   2.0000      -0.617715       -16.8089
  28   2.0000      -0.600698       -16.3458
  29   2.0000      -0.594212       -16.1693
  30   2.0000      -0.587030       -15.9739
  31   2.0000      -0.578132       -15.7318
  32   2.0000      -0.517298       -14.0764
  33   2.0000      -0.513088       -13.9618
  34   2.0000      -0.500392       -13.6164
  35   2.0000      -0.480087       -13.0638
  36   2.0000      -0.408027       -11.1030
  37   2.0000      -0.402941       -10.9646
  38   2.0000      -0.399648       -10.8750
  39   2.0000      -0.343672        -9.3518
  40   2.0000      -0.319951        -8.7063
  41   0.0000       0.019142         0.5209
  42   0.0000       0.024327         0.6620
  43   0.0000       0.029486         0.8023
  44   0.0000       0.035316         0.9610
  45   0.0000       0.039244         1.0679

MULLIKEN ATOMIC CHARGES
-----------------------
   0 C :    0.602910
   1 N :   -0.242670
   2 C :   -0.396041
   3 C :   -0.271554
   4 C :   -0.341108
   5 N :   -0.542453
   6 C :    0.298881
   7 C :   -0.362851
   8 C :   -0.338810
   9 C :   -0.345864
  10 C :   -0.325425
  11 C :   -0.320775
  12 H :    0.477196
  13 H :    0.326820
  14 H :    0.341707
  15 H :    0.257323
  16 H :    0.327824
  17 H :    0.251930
  18 H :    0.307044
  19 H :    0.295916
Sum of atomic charges:   -0.0000000

LOEWDIN ATOMIC CHARGES
----------------------
   0 C :   -0.369114
   1 N :    0.342507
   2 C :    0.331757
   3 C :    0.344067
   4 C :    0.056610
   5 N :    0.350145
   6 C :   -0.117899
   7 C :    0.332280
   8 C :    0.355526
   9 C :    0.343076
  10 C :    0.351596
  11 C :    0.332351
  12 H :   -0.363439
  13 H :   -0.313742
  14 H :   -0.328760
  15 H :   -0.322188
  16 H :   -0.322193
  17 H :   -0.321323
  18 H :   -0.342110
  19 H :   -0.339150

  Mayer bond orders larger than 0.100000
B(  0-C ,  1-N ) :   0.8546 B(  0-C ,  2-C ) :   1.0405 B(  0-C ,  3-C ) :  -0.2815
B(  0-C ,  6-C ) :   0.9047 B(  0-C ,  7-C ) :  -0.4109 B(  0-C , 11-C ) :  -0.3613
B(  1-N ,  2-C ) :   0.1275 B(  1-N ,  5-N ) :   0.3881 B(  2-C ,  3-C ) :   1.2242
B(  2-C ,  6-C ) :  -0.2212 B(  2-C , 13-H ) :  -0.1074 B(  2-C , 14-H ) :   0.9600
B(  3-C ,  4-C ) :   1.2770 B(  3-C , 13-H ) :   0.9972 B(  4-C ,  5-N ) :   1.2709
B(  4-C , 12-H ) :   0.8507 B(  5-N , 12-H ) :  -0.1495 B(  6-C ,  7-C ) :   1.1809
B(  6-C ,  8-C ) :  -0.3237 B(  6-C , 10-C ) :  -0.3088 B(  6-C , 11-C ) :   1.1521
B(  7-C ,  8-C ) :   1.2378 B(  7-C , 10-C ) :   0.1186 B(  7-C , 17-H ) :  -0.1391
B(  7-C , 18-H ) :   0.9581 B(  8-C ,  9-C ) :   1.1822 B(  8-C , 11-C ) :   0.1031
B(  8-C , 17-H ) :   1.1274 B(  9-C , 10-C ) :   1.2047 B(  9-C , 16-H ) :   1.0065
B( 10-C , 11-C ) :   1.1729 B( 10-C , 15-H ) :   1.1166 B( 11-C , 15-H ) :  -0.1348
B( 11-C , 19-H ) :   0.9695

MP2 TOTAL ENERGY:     -494.488963762 Eh
FINAL SINGLE POINT ENERGY      -494.488963761553

DIPOLE MOMENT
-------------
                                X             Y             Z
Electronic contribution:      3.83049      -2.15623      -0.49063
Nuclear contribution   :     -3.92360       3.63423       0.86209
                        -----------------------------------------
Total Dipole Moment    :     -0.09311       1.47800       0.37145
                        -----------------------------------------
Magnitude (a.u.)       :      1.52680
Magnitude (Debye)      :      3.88083

Rotational constants in cm-1:     0.098425     0.019054     0.016205
Rotational constants in MHz :  2950.720763   571.224008   485.826739

                             ****ORCA TERMINATED NORMALLY****
TOTAL RUN TIME: 0 days 1 hours 32 minutes 55 seconds 219 msec
