                         Program Version 5.0.4 -  RELEASE  -
|  1> !ri-mp2 aug-cc-pvqz aug-cc-pvqz/c tightscf
|  2> %pal nprocs 16 end
|  3>
|  4> * xyz 0 1
|  5> H      2.562959   -0.097562    0.819589
|  6> H      2.562959   -0.097562   -0.819589
|  7> N      2.216312   -0.578879    0.000000
|  8> H      0.469894   -1.278430    0.874317
|  9> H      0.469894   -1.278430   -0.874317
| 10> C      0.770226   -0.700586    0.000000
| 11> H      0.275992    1.231576    0.878759
| 12> H      0.275992    1.231576   -0.878759
| 13> C      0.000000    0.644465    0.000000
| 14> N     -2.581961    0.274773    0.000000
| 15> C     -1.446584    0.459050    0.000000
| 16> *
| 17>
| 18>                          ****END OF INPUT****

CARTESIAN COORDINATES (ANGSTROEM)
---------------------------------
  H      2.562959   -0.097562    0.819589
  H      2.562959   -0.097562   -0.819589
  N      2.216312   -0.578879    0.000000
  H      0.469894   -1.278430    0.874317
  H      0.469894   -1.278430   -0.874317
  C      0.770226   -0.700586    0.000000
  H      0.275992    1.231576    0.878759
  H      0.275992    1.231576   -0.878759
  C      0.000000    0.644465    0.000000
  N     -2.581961    0.274773    0.000000
  C     -1.446584    0.459050    0.000000

 Total Charge           Charge          ....    0
 Multiplicity           Mult            ....    1
 Number of Electrons    NEL             ....   38
 Basis Dimension        Dim             ....  676

ORBITAL ENERGIES
----------------

  NO   OCC          E(Eh)            E(eV)
   0   2.0000     -15.568206      -423.6324
   1   2.0000     -15.562463      -423.4761
   2   2.0000     -11.283408      -307.0372
   3   2.0000     -11.282132      -307.0024
   4   2.0000     -11.273032      -306.7548
   5   2.0000      -1.225089       -33.3364
   6   2.0000      -1.205000       -32.7897
   7   2.0000      -1.056195       -28.7405
   8   2.0000      -0.887290       -24.1444
   9   2.0000      -0.708974       -19.2922
  10   2.0000      -0.705978       -19.2106
  11   2.0000      -0.631346       -17.1798
  12   2.0000      -0.627165       -17.0660
  13   2.0000      -0.574671       -15.6376
  14   2.0000      -0.553137       -15.0516
  15   2.0000      -0.530347       -14.4315
  16   2.0000      -0.472711       -12.8631
  17   2.0000      -0.461667       -12.5626
  18   2.0000      -0.410806       -11.1786
  19   0.0000       0.017075         0.4646
  20   0.0000       0.030356         0.8260
  21   0.0000       0.035241         0.9589
  22   0.0000       0.037957         1.0329
  23   0.0000       0.051351         1.3973

MULLIKEN ATOMIC CHARGES
-----------------------
   0 H :    0.255134
   1 H :    0.255134
   2 N :   -0.719427
   3 H :    0.275091
   4 H :    0.275091
   5 C :   -0.181435
   6 H :    0.297574
   7 H :    0.297574
   8 C :   -0.492312
   9 N :   -0.645791
  10 C :    0.383365
Sum of atomic charges:   -0.0000000

LOEWDIN ATOMIC CHARGES
----------------------
   0 H :   -0.505104
   1 H :   -0.505104
   2 N :    1.287766
   3 H :   -0.292761
   4 H :   -0.292761
   5 C :    0.345168
   6 H :   -0.306804
   7 H :   -0.306804
   8 C :    0.434148
   9 N :    0.408728
  10 C :   -0.266471

  Mayer bond orders larger than 0.100000
B(  0-H ,  2-N ) :   0.9027 B(  1-H ,  2-N ) :   0.9027 B(  2-N ,  5-C ) :   0.9193
B(  3-H ,  5-C ) :   0.8884 B(  4-H ,  5-C ) :   0.8884 B(  5-C ,  8-C ) :   0.9918
B(  6-H ,  8-C ) :   0.8492 B(  7-H ,  8-C ) :   0.8492 B(  8-C , 10-C ) :   1.1629
B(  9-N , 10-C ) :   2.5611

MP2 TOTAL ENERGY:     -227.044058752 Eh
FINAL SINGLE POINT ENERGY      -227.044058751584

DIPOLE MOMENT
-------------
                                X             Y             Z
Electronic contribution:     -5.17091       0.88969       0.00000
Nuclear contribution   :      6.73557      -0.29589       0.00000
                        -----------------------------------------
Total Dipole Moment    :      1.56466       0.59380       0.00000
                        -----------------------------------------
Magnitude (a.u.)       :      1.67355
Magnitude (Debye)      :      4.25383

Rotational constants in cm-1:     0.834968     0.075964     0.072288
Rotational constants in MHz : 25031.714807  2277.337427  2167.129761

                             ****ORCA TERMINATED NORMALLY****
TOTAL RUN TIME: 0 days 0 hours 9 minutes 51 seconds 672 msec
