                         Program Version 5.0.4 -  RELEASE  -
|  1> !ri-mp2 aug-cc-pvqz aug-cc-pvqz/c tightscf
|  2> %pal nprocs 16 end
|  3>
|  4> * xyz 0 1
|  5> S     1.646373   -0.642200   -0.000046
|  6> N    -3.679210    0.273566    0.000060
|  7> C     2.361907    1.048758    0.000007
|  8> C     0.007828   -0.301890   -0.000011
|  9> C    -1.191000   -0.121742    0.000012
| 10> C    -2.535848    0.090366    0.000037
| 11> H     2.057644    1.581413    0.895536
| 12> H     3.439906    0.904390   -0.000013
| 13> H     2.057620    1.581480   -0.895474
| 14> *
| 15>
| 16>                          ****END OF INPUT****

CARTESIAN COORDINATES (ANGSTROEM)
---------------------------------
  S      1.646373   -0.642200   -0.000046
  N     -3.679210    0.273566    0.000060
  C      2.361907    1.048758    0.000007
  C      0.007828   -0.301890   -0.000011
  C     -1.191000   -0.121742    0.000012
  C     -2.535848    0.090366    0.000037
  H      2.057644    1.581413    0.895536
  H      3.439906    0.904390   -0.000013
  H      2.057620    1.581480   -0.895474

 Total Charge           Charge          ....    0
 Multiplicity           Mult            ....    1
 Number of Electrons    NEL             ....   50
 Basis Dimension        Dim             ....  622

ORBITAL ENERGIES
----------------

  NO   OCC          E(Eh)            E(eV)
   0   2.0000     -92.014902     -2503.8528
   1   2.0000     -15.592757      -424.3005
   2   2.0000     -11.311154      -307.7921
   3   2.0000     -11.300985      -307.5154
   4   2.0000     -11.292387      -307.2815
   5   2.0000     -11.284829      -307.0758
   6   2.0000      -9.015597      -245.3269
   7   2.0000      -6.697450      -182.2469
   8   2.0000      -6.695996      -182.2073
   9   2.0000      -6.695295      -182.1882
  10   2.0000      -1.237233       -33.6668
  11   2.0000      -1.131364       -30.7860
  12   2.0000      -1.058986       -28.8165
  13   2.0000      -0.946556       -25.7571
  14   2.0000      -0.868880       -23.6434
  15   2.0000      -0.666896       -18.1472
  16   2.0000      -0.630556       -17.1583
  17   2.0000      -0.602609       -16.3978
  18   2.0000      -0.579592       -15.7715
  19   2.0000      -0.549159       -14.9434
  20   2.0000      -0.548929       -14.9371
  21   2.0000      -0.510949       -13.9036
  22   2.0000      -0.469784       -12.7835
  23   2.0000      -0.406734       -11.0678
  24   2.0000      -0.358550        -9.7566
  25   0.0000       0.016584         0.4513
  26   0.0000       0.034010         0.9255
  27   0.0000       0.035477         0.9654
  28   0.0000       0.042466         1.1556
  29   0.0000       0.058949         1.6041

MULLIKEN ATOMIC CHARGES
-----------------------
   0 S :    0.400154
   1 N :   -0.690675
   2 C :   -0.893992
   3 C :   -0.223662
   4 C :   -0.239056
   5 C :    0.712942
   6 H :    0.281463
   7 H :    0.371362
   8 H :    0.281463
Sum of atomic charges:    0.0000000

LOEWDIN ATOMIC CHARGES
----------------------
   0 S :    1.223136
   1 N :    0.373747
   2 C :    0.582059
   3 C :   -0.476445
   4 C :   -0.135678
   5 C :   -0.447167
   6 H :   -0.365966
   7 H :   -0.387719
   8 H :   -0.365966

  Mayer bond orders larger than 0.100000
B(  0-S ,  2-C ) :   0.9940 B(  0-S ,  3-C ) :   0.7745 B(  1-N ,  5-C ) :   2.4820
B(  2-C ,  6-H ) :   0.9056 B(  2-C ,  7-H ) :   0.8508 B(  2-C ,  8-H ) :   0.9056
B(  3-C ,  4-C ) :   2.5304 B(  3-C ,  5-C ) :  -0.2834 B(  4-C ,  5-C ) :   1.3612

MP2 TOTAL ENERGY:     -606.276902907 Eh
FINAL SINGLE POINT ENERGY      -606.276902906615

DIPOLE MOMENT
-------------
                                X             Y             Z
Electronic contribution:     -5.06571      -3.54012      -0.00006
Nuclear contribution   :      7.23385       3.95269       0.00005
                        -----------------------------------------
Total Dipole Moment    :      2.16814       0.41257      -0.00001
                        -----------------------------------------
Magnitude (a.u.)       :      2.20704
Magnitude (Debye)      :      5.60986

Rotational constants in cm-1:     0.469131     0.036685     0.034248
Rotational constants in MHz : 14064.186618  1099.778186  1026.716261

                             ****ORCA TERMINATED NORMALLY****
TOTAL RUN TIME: 0 days 0 hours 8 minutes 54 seconds 468 msec
