                         Program Version 5.0.4 -  RELEASE  -
|  1> !ri-mp2 aug-cc-pvqz aug-cc-pvqz/c tightscf
|  2> %pal nprocs 16 end
|  3>
|  4> * xyz 0 1
|  5> S     1.022965   -1.331872    0.000004
|  6> S    -2.014356   -0.693644   -0.000004
|  7> O    -0.819041    2.032145   -0.000005
|  8> N     0.058506    0.978276    0.000000
|  9> C     1.414989    1.194251    0.000002
| 10> C    -0.395063   -0.296584    0.000000
| 11> C     2.103807    0.039075    0.000005
| 12> H     1.783115    2.205430    0.000001
| 13> H     3.171199   -0.084468    0.000008
| 14> H    -1.691668    1.561773   -0.000006
| 15> *
| 16>
| 17>                          ****END OF INPUT****

CARTESIAN COORDINATES (ANGSTROEM)
---------------------------------
  S      1.022965   -1.331872    0.000004
  S     -2.014356   -0.693644   -0.000004
  O     -0.819041    2.032145   -0.000005
  N      0.058506    0.978276    0.000000
  C      1.414989    1.194251    0.000002
  C     -0.395063   -0.296584    0.000000
  C      2.103807    0.039075    0.000005
  H      1.783115    2.205430    0.000001
  H      3.171199   -0.084468    0.000008
  H     -1.691668    1.561773   -0.000006

 Total Charge           Charge          ....    0
 Multiplicity           Mult            ....    1
 Number of Electrons    NEL             ....   68
 Basis Dimension        Dim             ....  706

ORBITAL ENERGIES
----------------

  NO   OCC          E(Eh)            E(eV)
   0   2.0000     -92.021401     -2504.0296
   1   2.0000     -91.917018     -2501.1892
   2   2.0000     -20.642325      -561.7062
   3   2.0000     -15.710554      -427.5059
   4   2.0000     -11.384118      -309.7776
   5   2.0000     -11.320954      -308.0588
   6   2.0000     -11.295506      -307.3663
   7   2.0000      -9.022527      -245.5154
   8   2.0000      -8.920875      -242.7494
   9   2.0000      -6.703624      -182.4149
  10   2.0000      -6.702973      -182.3972
  11   2.0000      -6.702174      -182.3754
  12   2.0000      -6.602638      -179.6669
  13   2.0000      -6.600701      -179.6142
  14   2.0000      -6.600317      -179.6038
  15   2.0000      -1.497749       -40.7558
  16   2.0000      -1.284070       -34.9413
  17   2.0000      -1.091987       -29.7145
  18   2.0000      -1.081045       -29.4167
  19   2.0000      -0.946545       -25.7568
  20   2.0000      -0.866398       -23.5759
  21   2.0000      -0.807333       -21.9687
  22   2.0000      -0.727608       -19.7992
  23   2.0000      -0.694226       -18.8909
  24   2.0000      -0.683812       -18.6075
  25   2.0000      -0.653616       -17.7858
  26   2.0000      -0.594908       -16.1883
  27   2.0000      -0.549241       -14.9456
  28   2.0000      -0.533353       -14.5133
  29   2.0000      -0.518461       -14.1080
  30   2.0000      -0.430422       -11.7124
  31   2.0000      -0.419557       -11.4167
  32   2.0000      -0.351998        -9.5784
  33   2.0000      -0.310430        -8.4472
  34   0.0000       0.018458         0.5023
  35   0.0000       0.028530         0.7763
  36   0.0000       0.041270         1.1230
  37   0.0000       0.056952         1.5497
  38   0.0000       0.058104         1.5811

MULLIKEN ATOMIC CHARGES
-----------------------
   0 S :    0.410698
   1 S :   -0.184660
   2 O :   -0.736924
   3 N :    0.210113
   4 C :   -0.155774
   5 C :   -0.217872
   6 C :   -0.625680
   7 H :    0.493895
   8 H :    0.434545
   9 H :    0.371657
Sum of atomic charges:    0.0000000

LOEWDIN ATOMIC CHARGES
----------------------
   0 S :    1.265384
   1 S :    0.993211
   2 O :    1.132195
   3 N :   -0.167267
   4 C :    0.058491
   5 C :   -1.443826
   6 C :   -0.065436
   7 H :   -0.313038
   8 H :   -0.410347
   9 H :   -1.049366

  Mayer bond orders larger than 0.100000
B(  0-S ,  5-C ) :   0.9450 B(  0-S ,  6-C ) :   1.1388 B(  1-S ,  5-C ) :   1.4176
B(  1-S ,  9-H ) :   0.1109 B(  2-O ,  3-N ) :   0.5881 B(  2-O ,  9-H ) :   0.8347
B(  3-N ,  4-C ) :   0.9018 B(  3-N ,  5-C ) :   1.0846 B(  4-C ,  6-C ) :   1.5715
B(  4-C ,  7-H ) :   0.8199 B(  6-C ,  8-H ) :   0.8304

MP2 TOTAL ENERGY:    -1041.154084754 Eh
FINAL SINGLE POINT ENERGY     -1041.154084753596

DIPOLE MOMENT
-------------
                                X             Y             Z
Electronic contribution:     -1.41988      -3.02672       0.00000
Nuclear contribution   :      3.14583       3.62752       0.00000
                        -----------------------------------------
Total Dipole Moment    :      1.72595       0.60080       0.00000
                        -----------------------------------------
Magnitude (a.u.)       :      1.82753
Magnitude (Debye)      :      4.64521

Rotational constants in cm-1:     0.095119     0.062514     0.037722
Rotational constants in MHz :  2851.609149  1874.131485  1130.889506

                             ****ORCA TERMINATED NORMALLY****
TOTAL RUN TIME: 0 days 0 hours 17 minutes 45 seconds 72 msec
