                         Program Version 5.0.4 -  RELEASE  -
|  1> !ri-mp2 aug-cc-pvqz aug-cc-pvqz/c tightscf
|  2> %pal nprocs 16 end
|  3>
|  4> * xyz 0 1
|  5> Cl    -1.455409   -1.648364    0.000000
|  6> Cl    -1.486903    1.583880    0.000000
|  7> N      1.107307    1.406825    0.000000
|  8> N      2.295689    0.818349    0.000000
|  9> C     -0.000224   -0.713003    0.000000
| 10> C      1.231764   -1.327063    0.000000
| 11> C      0.000000    0.689684    0.000000
| 12> C      2.356394   -0.507545    0.000000
| 13> H      1.317692   -2.403602    0.000000
| 14> H      3.353030   -0.928842    0.000000
| 15> *
| 16>
| 17>                          ****END OF INPUT****

CARTESIAN COORDINATES (ANGSTROEM)
---------------------------------
  Cl    -1.455409   -1.648364    0.000000
  Cl    -1.486903    1.583880    0.000000
  N      1.107307    1.406825    0.000000
  N      2.295689    0.818349    0.000000
  C     -0.000224   -0.713003    0.000000
  C      1.231764   -1.327063    0.000000
  C      0.000000    0.689684    0.000000
  C      2.356394   -0.507545    0.000000
  H      1.317692   -2.403602    0.000000
  H      3.353030   -0.928842    0.000000

 Total Charge           Charge          ....    0
 Multiplicity           Mult            ....    1
 Number of Electrons    NEL             ....   74
 Basis Dimension        Dim             ....  740

ORBITAL ENERGIES
----------------

  NO   OCC          E(Eh)            E(eV)
   0   2.0000    -104.875851     -2853.8170
   1   2.0000    -104.860734     -2853.4056
   2   2.0000     -15.635735      -425.4700
   3   2.0000     -15.633894      -425.4199
   4   2.0000     -11.366660      -309.3026
   5   2.0000     -11.354122      -308.9614
   6   2.0000     -11.305831      -307.6473
   7   2.0000     -11.295653      -307.3703
   8   2.0000     -10.600958      -288.4667
   9   2.0000     -10.586052      -288.0611
  10   2.0000      -8.068098      -219.5441
  11   2.0000      -8.066170      -219.4917
  12   2.0000      -8.066169      -219.4916
  13   2.0000      -8.053168      -219.1379
  14   2.0000      -8.051258      -219.0859
  15   2.0000      -8.051253      -219.0857
  16   2.0000      -1.382331       -37.6152
  17   2.0000      -1.219440       -33.1827
  18   2.0000      -1.180446       -32.1216
  19   2.0000      -1.109040       -30.1785
  20   2.0000      -1.076187       -29.2845
  21   2.0000      -0.918238       -24.9865
  22   2.0000      -0.894067       -24.3288
  23   2.0000      -0.748838       -20.3769
  24   2.0000      -0.726424       -19.7670
  25   2.0000      -0.666446       -18.1349
  26   2.0000      -0.630548       -17.1581
  27   2.0000      -0.617156       -16.7937
  28   2.0000      -0.608652       -16.5623
  29   2.0000      -0.532708       -14.4957
  30   2.0000      -0.522679       -14.2228
  31   2.0000      -0.508814       -13.8455
  32   2.0000      -0.498526       -13.5656
  33   2.0000      -0.465553       -12.6683
  34   2.0000      -0.431742       -11.7483
  35   2.0000      -0.414474       -11.2784
  36   2.0000      -0.385886       -10.5005
  37   0.0000       0.019754         0.5375
  38   0.0000       0.032756         0.8913
  39   0.0000       0.046820         1.2740
  40   0.0000       0.048126         1.3096
  41   0.0000       0.062978         1.7137

MULLIKEN ATOMIC CHARGES
-----------------------
   0 Cl:   -0.202120
   1 Cl:   -0.162281
   2 N :   -0.243529
   3 N :   -0.384622
   4 C :    0.057399
   5 C :   -0.173424
   6 C :    0.368951
   7 C :   -0.204187
   8 H :    0.481950
   9 H :    0.461862
Sum of atomic charges:    0.0000000

LOEWDIN ATOMIC CHARGES
----------------------
   0 Cl:    1.194666
   1 Cl:    1.139906
   2 N :    0.175360
   3 N :    0.326609
   4 C :   -1.029080
   5 C :    0.169184
   6 C :   -1.307917
   7 C :    0.039197
   8 H :   -0.349228
   9 H :   -0.358697

  Mayer bond orders larger than 0.100000
B(  0-Cl,  4-C ) :   0.7888 B(  1-Cl,  2-N ) :  -0.1527 B(  1-Cl,  4-C ) :  -0.1733
B(  1-Cl,  6-C ) :   1.0173 B(  2-N ,  3-N ) :   0.7224 B(  2-N ,  4-C ) :   0.1720
B(  2-N ,  6-C ) :   1.0346 B(  3-N ,  7-C ) :   1.1996 B(  3-N ,  9-H ) :  -0.1467
B(  4-C ,  5-C ) :   1.1332 B(  4-C ,  6-C ) :   1.0242 B(  5-C ,  7-C ) :   1.1945
B(  5-C ,  8-H ) :   0.8055 B(  7-C ,  9-H ) :   0.8803

MP2 TOTAL ENERGY:    -1182.132512908 Eh
FINAL SINGLE POINT ENERGY     -1182.132512908344

DIPOLE MOMENT
-------------
                                X             Y             Z
Electronic contribution:     -8.13005       1.49698      -0.00000
Nuclear contribution   :      8.30257      -3.01046       0.00000
                        -----------------------------------------
Total Dipole Moment    :      0.17253      -1.51348      -0.00000
                        -----------------------------------------
Magnitude (a.u.)       :      1.52328
Magnitude (Debye)      :      3.87187

Rotational constants in cm-1:     0.063881     0.049131     0.027772
Rotational constants in MHz :  1915.097784  1472.908479   832.573362

                             ****ORCA TERMINATED NORMALLY****
TOTAL RUN TIME: 0 days 0 hours 27 minutes 24 seconds 475 msec
