                         Program Version 5.0.4 -  RELEASE  -
|  1> !ri-mp2 aug-cc-pvqz aug-cc-pvqz/c tightscf
|  2> %pal nprocs 16 end
|  3> %maxcore 3800
|  4>
|  5> * xyz 0 1
|  6> O      1.270396   -1.072639   -0.506582
|  7> O      1.517293    1.629822    0.199626
|  8> O      2.683542   -0.799493   -0.331343
|  9> C      0.563240   -0.576995    0.629280
| 10> C      0.307919    0.934523    0.521011
| 11> C     -1.624769   -0.258153   -0.451572
| 12> C     -0.849525   -1.149198    0.553638
| 13> C     -0.801644    1.058787   -0.534497
| 14> C     -3.086772   -0.053090   -0.062299
| 15> H      1.309055    2.536080   -0.044132
| 16> H      2.700175    0.168020   -0.431915
| 17> H      1.109271   -0.857959    1.530822
| 18> H     -0.053565    1.281853    1.495981
| 19> H     -1.598532   -0.739344   -1.429450
| 20> H     -1.302471   -1.082953    1.545764
| 21> H     -0.834433   -2.200567    0.271677
| 22> H     -0.336755    1.157769   -1.515782
| 23> H     -1.419865    1.942579   -0.368709
| 24> H     -3.610629   -1.007454    0.018344
| 25> H     -3.169359    0.453398    0.902715
| 26> H     -3.613427    0.551813   -0.802280
| 27> *
| 28>
| 29>                          ****END OF INPUT****

CARTESIAN COORDINATES (ANGSTROEM)
---------------------------------
  O      1.270396   -1.072639   -0.506582
  O      1.517293    1.629822    0.199626
  O      2.683542   -0.799493   -0.331343
  C      0.563240   -0.576995    0.629280
  C      0.307919    0.934523    0.521011
  C     -1.624769   -0.258153   -0.451572
  C     -0.849525   -1.149198    0.553638
  C     -0.801644    1.058787   -0.534497
  C     -3.086772   -0.053090   -0.062299
  H      1.309055    2.536080   -0.044132
  H      2.700175    0.168020   -0.431915
  H      1.109271   -0.857959    1.530822
  H     -0.053565    1.281853    1.495981
  H     -1.598532   -0.739344   -1.429450
  H     -1.302471   -1.082953    1.545764
  H     -0.834433   -2.200567    0.271677
  H     -0.336755    1.157769   -1.515782
  H     -1.419865    1.942579   -0.368709
  H     -3.610629   -1.007454    0.018344
  H     -3.169359    0.453398    0.902715
  H     -3.613427    0.551813   -0.802280

 Total Charge           Charge          ....    0
 Multiplicity           Mult            ....    1
 Number of Electrons    NEL             ....   72
 Basis Dimension        Dim             .... 1272

ORBITAL ENERGIES
----------------

  NO   OCC          E(Eh)            E(eV)
   0   2.0000     -20.605967      -560.7169
   1   2.0000     -20.598813      -560.5222
   2   2.0000     -20.576762      -559.9222
   3   2.0000     -11.290728      -307.2363
   4   2.0000     -11.281735      -306.9916
   5   2.0000     -11.234747      -305.7130
   6   2.0000     -11.226790      -305.4965
   7   2.0000     -11.226309      -305.4834
   8   2.0000     -11.219746      -305.3048
   9   2.0000      -1.456506       -39.6335
  10   2.0000      -1.378220       -37.5033
  11   2.0000      -1.218567       -33.1589
  12   2.0000      -1.115660       -30.3587
  13   2.0000      -1.004640       -27.3377
  14   2.0000      -0.969903       -26.3924
  15   2.0000      -0.902323       -24.5535
  16   2.0000      -0.791575       -21.5398
  17   2.0000      -0.781000       -21.2521
  18   2.0000      -0.725818       -19.7505
  19   2.0000      -0.698443       -19.0056
  20   2.0000      -0.659619       -17.9492
  21   2.0000      -0.653788       -17.7905
  22   2.0000      -0.624915       -17.0048
  23   2.0000      -0.619572       -16.8594
  24   2.0000      -0.576129       -15.6773
  25   2.0000      -0.568235       -15.4625
  26   2.0000      -0.555036       -15.1033
  27   2.0000      -0.542376       -14.7588
  28   2.0000      -0.535225       -14.5642
  29   2.0000      -0.520440       -14.1619
  30   2.0000      -0.483066       -13.1449
  31   2.0000      -0.468324       -12.7437
  32   2.0000      -0.464092       -12.6286
  33   2.0000      -0.461409       -12.5556
  34   2.0000      -0.444270       -12.0892
  35   2.0000      -0.428613       -11.6632
  36   0.0000       0.020588         0.5602
  37   0.0000       0.027537         0.7493
  38   0.0000       0.029264         0.7963
  39   0.0000       0.035152         0.9565
  40   0.0000       0.043784         1.1914

MULLIKEN ATOMIC CHARGES
-----------------------
   0 O :   -0.509844
   1 O :   -0.960766
   2 O :   -0.586973
   3 C :    0.380562
   4 C :    0.561877
   5 C :    0.177389
   6 C :   -0.755326
   7 C :   -0.740113
   8 C :   -0.912400
   9 H :    0.289776
  10 H :    0.349080
  11 H :    0.414552
  12 H :    0.246535
  13 H :    0.310587
  14 H :    0.216741
  15 H :    0.362959
  16 H :    0.230344
  17 H :    0.273777
  18 H :    0.252464
  19 H :    0.176558
  20 H :    0.222223
Sum of atomic charges:   -0.0000000

LOEWDIN ATOMIC CHARGES
----------------------
   0 O :    0.582117
   1 O :    1.321029
   2 O :    0.956722
   3 C :   -0.286222
   4 C :   -0.184495
   5 C :    0.145144
   6 C :    0.507205
   7 C :    0.539725
   8 C :    0.936520
   9 H :   -0.746828
  10 H :   -1.043656
  11 H :   -0.295072
  12 H :   -0.276479
  13 H :   -0.268261
  14 H :   -0.270943
  15 H :   -0.256033
  16 H :   -0.269973
  17 H :   -0.265672
  18 H :   -0.271803
  19 H :   -0.279040
  20 H :   -0.273983

  Mayer bond orders larger than 0.100000
B(  0-O ,  2-O ) :   0.8421 B(  0-O ,  3-C ) :   0.4162 B(  0-O ,  6-C ) :   0.2102
B(  1-O ,  3-C ) :   0.1990 B(  1-O ,  7-C ) :   0.2087 B(  1-O ,  9-H ) :   0.9790
B(  2-O ,  3-C ) :  -0.1626 B(  2-O , 10-H ) :   0.8611 B(  3-C ,  4-C ) :   0.8786
B(  3-C ,  6-C ) :   1.0344 B(  3-C , 11-H ) :   0.7840 B(  4-C ,  7-C ) :   0.8547
B(  4-C , 12-H ) :   0.9994 B(  5-C ,  6-C ) :   0.7864 B(  5-C ,  7-C ) :   0.8660
B(  5-C ,  8-C ) :   0.6468 B(  5-C , 13-H ) :   0.8987 B(  5-C , 20-H ) :  -0.1063
B(  6-C , 14-H ) :   0.9982 B(  6-C , 15-H ) :   0.8480 B(  7-C , 16-H ) :   0.9684
B(  7-C , 17-H ) :   0.9083 B(  8-C , 18-H ) :   1.0266 B(  8-C , 19-H ) :   1.0024
B(  8-C , 20-H ) :   1.0679

MP2 TOTAL ENERGY:     -460.757218415 Eh
FINAL SINGLE POINT ENERGY      -460.757218414744

DIPOLE MOMENT
-------------
                                X             Y             Z
Electronic contribution:      9.81473      -1.11347      -0.80966
Nuclear contribution   :    -10.98301       2.25038       1.18992
                        -----------------------------------------
Total Dipole Moment    :     -1.16828       1.13691       0.38026
                        -----------------------------------------
Magnitude (a.u.)       :      1.67393
Magnitude (Debye)      :      4.25479

Rotational constants in cm-1:     0.096173     0.038689     0.031425
Rotational constants in MHz :  2883.192244  1159.866105   942.085946

                             ****ORCA TERMINATED NORMALLY****
TOTAL RUN TIME: 0 days 1 hours 51 minutes 17 seconds 762 msec
