                         Program Version 5.0.4 -  RELEASE  -
|  1> !ri-mp2 aug-cc-pvqz aug-cc-pvqz/c tightscf
|  2> %pal nprocs 16 end
|  3>
|  4> * xyz 0 1
|  5> C     -1.579132   -1.018404    0.000000
|  6> C     -0.556518   -1.950256    0.000000
|  7> C     -1.323399    0.352438    0.000000
|  8> C      1.044493   -0.139672    0.000000
|  9> C      0.763417   -1.497487    0.000000
| 10> C      0.000000    0.787801    0.000000
| 11> C     -0.623241    3.096404    0.000000
| 12> O      1.751266   -2.443316    0.000000
| 13> O      0.383127    2.095674    0.000000
| 14> H     -2.605756   -1.359527    0.000000
| 15> H     -0.754444   -3.011972    0.000000
| 16> H     -2.144558    1.051118    0.000000
| 17> H      2.064483    0.223401    0.000000
| 18> H     -1.251546    3.030018    0.891559
| 19> H     -1.251546    3.030018   -0.891559
| 20> H     -0.098191    4.047676    0.000000
| 21> H      2.612695   -2.014536    0.000000
| 22> *
| 23>
| 24>                          ****END OF INPUT****

CARTESIAN COORDINATES (ANGSTROEM)
---------------------------------
  C     -1.579132   -1.018404    0.000000
  C     -0.556518   -1.950256    0.000000
  C     -1.323399    0.352438    0.000000
  C      1.044493   -0.139672    0.000000
  C      0.763417   -1.497487    0.000000
  C      0.000000    0.787801    0.000000
  C     -0.623241    3.096404    0.000000
  O      1.751266   -2.443316    0.000000
  O      0.383127    2.095674    0.000000
  H     -2.605756   -1.359527    0.000000
  H     -0.754444   -3.011972    0.000000
  H     -2.144558    1.051118    0.000000
  H      2.064483    0.223401    0.000000
  H     -1.251546    3.030018    0.891559
  H     -1.251546    3.030018   -0.891559
  H     -0.098191    4.047676    0.000000
  H      2.612695   -2.014536    0.000000

 Total Charge           Charge          ....    0
 Multiplicity           Mult            ....    1
 Number of Electrons    NEL             ....   66
 Basis Dimension        Dim             .... 1088

ORBITAL ENERGIES
----------------

  NO   OCC          E(Eh)            E(eV)
   0   2.0000     -20.588547      -560.2429
   1   2.0000     -20.585584      -560.1622
   2   2.0000     -11.306109      -307.6549
   3   2.0000     -11.305143      -307.6286
   4   2.0000     -11.285131      -307.0840
   5   2.0000     -11.242574      -305.9260
   6   2.0000     -11.222722      -305.3858
   7   2.0000     -11.221211      -305.3447
   8   2.0000     -11.217535      -305.2446
   9   2.0000      -1.412218       -38.4284
  10   2.0000      -1.404682       -38.2233
  11   2.0000      -1.145377       -31.1673
  12   2.0000      -1.027019       -27.9466
  13   2.0000      -1.006777       -27.3958
  14   2.0000      -0.945671       -25.7330
  15   2.0000      -0.851021       -23.1575
  16   2.0000      -0.808926       -22.0120
  17   2.0000      -0.739602       -20.1256
  18   2.0000      -0.706525       -19.2255
  19   2.0000      -0.669985       -18.2312
  20   2.0000      -0.657949       -17.9037
  21   2.0000      -0.652952       -17.7677
  22   2.0000      -0.611416       -16.6375
  23   2.0000      -0.597126       -16.2486
  24   2.0000      -0.590524       -16.0690
  25   2.0000      -0.559133       -15.2148
  26   2.0000      -0.537358       -14.6223
  27   2.0000      -0.520866       -14.1735
  28   2.0000      -0.518886       -14.1196
  29   2.0000      -0.490676       -13.3520
  30   2.0000      -0.457454       -12.4480
  31   2.0000      -0.330947        -9.0055
  32   2.0000      -0.310493        -8.4489
  33   0.0000       0.023699         0.6449
  34   0.0000       0.027596         0.7509
  35   0.0000       0.029954         0.8151
  36   0.0000       0.040279         1.0961
  37   0.0000       0.041359         1.1254

MULLIKEN ATOMIC CHARGES
-----------------------
   0 C :   -0.499049
   1 C :   -0.514630
   2 C :   -0.363650
   3 C :   -1.079609
   4 C :    1.132709
   5 C :    1.214352
   6 C :   -0.640755
   7 O :   -0.829292
   8 O :   -0.836605
   9 H :    0.193982
  10 H :    0.362083
  11 H :    0.268322
  12 H :    0.243192
  13 H :    0.249758
  14 H :    0.249758
  15 H :    0.486499
  16 H :    0.362936
Sum of atomic charges:   -0.0000000

LOEWDIN ATOMIC CHARGES
----------------------
   0 C :    0.327556
   1 C :    0.320386
   2 C :    0.322145
   3 C :    0.307054
   4 C :   -0.444182
   5 C :   -0.468179
   6 C :    0.578070
   7 O :    1.275197
   8 O :    0.875143
   9 H :   -0.319095
  10 H :   -0.334604
  11 H :   -0.366778
  12 H :   -0.333319
  13 H :   -0.307114
  14 H :   -0.307114
  15 H :   -0.319374
  16 H :   -0.805790

  Mayer bond orders larger than 0.100000
B(  0-C ,  1-C ) :   1.3819 B(  0-C ,  2-C ) :   1.0148 B(  0-C ,  3-C ) :   0.1031
B(  0-C ,  4-C ) :  -0.2072 B(  0-C ,  5-C ) :  -0.2202 B(  0-C ,  9-H ) :   1.2101
B(  1-C ,  4-C ) :   1.2761 B(  1-C ,  7-O ) :   0.2762 B(  1-C ,  9-H ) :  -0.1032
B(  1-C , 10-H ) :   0.8975 B(  2-C ,  5-C ) :   1.2671 B(  2-C ,  8-O ) :   0.1693
B(  2-C ,  9-H ) :  -0.1593 B(  2-C , 11-H ) :   1.0283 B(  3-C ,  4-C ) :   1.5885
B(  3-C ,  5-C ) :   1.1421 B(  3-C ,  7-O ) :   0.2862 B(  3-C ,  8-O ) :   0.1845
B(  3-C , 12-H ) :   0.9543 B(  4-C ,  5-C ) :  -0.4672 B(  4-C , 16-H ) :  -0.1083
B(  5-C ,  8-O ) :   0.1936 B(  6-C ,  8-O ) :   0.9283 B(  6-C , 13-H ) :   0.9218
B(  6-C , 14-H ) :   0.9218 B(  6-C , 15-H ) :   0.7545 B(  7-O , 16-H ) :   0.8916

MP2 TOTAL ENERGY:     -421.334197110 Eh
FINAL SINGLE POINT ENERGY      -421.334197109995

DIPOLE MOMENT
-------------
                                X             Y             Z
Electronic contribution:      3.20010      -4.26926      -0.00000
Nuclear contribution   :     -3.39012       4.98323       0.00000
                        -----------------------------------------
Total Dipole Moment    :     -0.19002       0.71397      -0.00000
                        -----------------------------------------
Magnitude (a.u.)       :      0.73883
Magnitude (Debye)      :      1.87795

Rotational constants in cm-1:     0.121733     0.037612     0.028892
Rotational constants in MHz :  3649.453237  1127.572867   866.151352

                             ****ORCA TERMINATED NORMALLY****
TOTAL RUN TIME: 0 days 1 hours 4 minutes 22 seconds 343 msec
